<LesHouchesEvents version="3.0">
<header>
<!--
#*********************************************************************
#                                                                    *
#                        MadGraph5_aMC@NLO                           *
#                                                                    *
#                           Going Beyond                             *
#                                                                    *
#                   http://madgraph.hep.uiuc.edu                     *
#                   http://madgraph.phys.ucl.ac.be                   *
#                   http://amcatnlo.cern.ch                          *
#                                                                    *
#                     The MadGraph5_aMC@NLO team                     *
#                                                                    *
#....................................................................*
#                                                                    *
# This file contains all the information necessary to reproduce      *
# the events generated:                                              *
#                                                                    *
# 1. software version                                                *
# 2. proc_card          : code generation info including model       *
# 3. param_card         : model primary parameters in the LH format  *
# 4. run_card           : running parameters (collider and cuts)     *
# 5. pythia_card        : present only if pythia has been run        *
# 6. pgs_card           : present only if pgs has been run           *
# 7. delphes_cards      : present only if delphes has been run       *
#                                                                    *
#                                                                    *
#*********************************************************************
-->
<MGVersion>
#5.2.2.3
</MGVersion>
<MG5ProcCard>
#************************************************************
#*                     MadGraph5_aMC@NLO                    *
#*                                                          *
#*                *                       *                 *
#*                  *        * *        *                   *
#*                    * * * * 5 * * * *                     *
#*                  *        * *        *                   *
#*                *                       *                 *
#*                                                          *
#*                                                          *
#*         VERSION 2.2.3                 2015-02-10         *
#*                                                          *
#*    The MadGraph5_aMC@NLO Development Team - Find us at   *
#*    https://server06.fynu.ucl.ac.be/projects/madgraph     *
#*                                                          *
#************************************************************
#*                                                          *
#*               Command File for MadGraph5_aMC@NLO         *
#*                                                          *
#*     run as ./bin/mg5_aMC  filename                       *
#*                                                          *
#************************************************************
set group_subprocesses Auto
set ignore_six_quark_processes False
set loop_optimized_output True
set gauge unitary
set complex_mass_scheme False
import model sm
define p = g u c d s u~ c~ d~ s~
define j = g u c d s u~ c~ d~ s~
define l+ = e+ mu+
define l- = e- mu-
define vl = ve vm vt
define vl~ = ve~ vm~ vt~
import model Zprime_UFO
generate p p > zph, zph > j j
add process p p > zph, zph > b b~
output Dijet_signal
</MG5ProcCard>
<MGProcCard>
#*********************************************************************
#                        MadGraph/MadEvent                           *
#                   http://madgraph.hep.uiuc.edu                     *
#                                                                    *
#                          proc_card.dat                             *
#*********************************************************************
#                                                                    *
#            This Files is generated by MADGRAPH 5                   *
#                                                                    *
# WARNING: This Files is generated for MADEVENT (compatibility issue)*
#          This files is NOT a valid MG4 proc_card.dat               *
#          Running this in MG4 will NEVER reproduce the result of MG5*
#                                                                    *
#*********************************************************************
#*********************************************************************
# Process(es) requested : mg2 input                                  *
#*********************************************************************
# Begin PROCESS # This is TAG. Do not modify this line
p p > zph , zph > j j           #Process
# Be carefull the coupling are here in MG5 convention
          
end_coup           # End the couplings input

done               # this tells MG there are no more procs
# End PROCESS  # This is TAG. Do not modify this line
#*********************************************************************
# Model information                                                  *
#*********************************************************************
# Begin MODEL  # This is TAG. Do not modify this line
Zprime_UFO
# End   MODEL  # This is TAG. Do not modify this line
#*********************************************************************
# Start multiparticle definitions                                    *
#*********************************************************************
# Begin MULTIPARTICLES # This is TAG. Do not modify this line

# End  MULTIPARTICLES # This is TAG. Do not modify this line
</MGProcCard>
<MGRunCard>
#*********************************************************************
#                       MadGraph5_aMC@NLO                            *
#                                                                    *
#                     run_card.dat MadEvent                          *
#                                                                    *
#  This file is used to set the parameters of the run.               *
#                                                                    *
#  Some notation/conventions:                                        *
#                                                                    *
#   Lines starting with a '# ' are info or comments                  *
#                                                                    *
#   mind the format:   value    = variable     ! comment             *
#*********************************************************************
#
#*******************                                                 
# Running parameters
#*******************                                                 
#                                                                    
#*********************************************************************
# Tag name for the run (one word)                                    *
#*********************************************************************
  tag_1     = run_tag ! name of the run 
#*********************************************************************
# Run to generate the grid pack                                      *
#*********************************************************************
  .false.     = gridpack  !True = setting up the grid pack
#*********************************************************************
# Number of events and rnd seed                                      *
# Warning: Do not generate more than 1M events in a single run       *
# If you want to run Pythia, avoid more than 50k events in a run.    *
#*********************************************************************
  2000 = nevents ! Number of unweighted events requested 
 1497 = iseed   ! rnd seed (0=assigned automatically=default))
#*********************************************************************
# Collider type and energy                                           *
# lpp: 0=No PDF, 1=proton, -1=antiproton, 2=photon from proton,      *
#                                         3=photon from electron     *
#*********************************************************************
        1     = lpp1    ! beam 1 type 
        1     = lpp2    ! beam 2 type
     4000     = ebeam1  ! beam 1 total energy in GeV
     4000     = ebeam2  ! beam 2 total energy in GeV
#*********************************************************************
# Beam polarization from -100 (left-handed) to 100 (right-handed)    *
#*********************************************************************
        0     = polbeam1 ! beam polarization for beam 1
        0     = polbeam2 ! beam polarization for beam 2
#*********************************************************************
# PDF CHOICE: this automatically fixes also alpha_s and its evol.    *
#*********************************************************************
 'nn23lo1'    = pdlabel     ! PDF set                                     
 230000    = lhaid     ! if pdlabel=lhapdf, this is the lhapdf number
#*********************************************************************
# Renormalization and factorization scales                           *
#*********************************************************************
 F        = fixed_ren_scale  ! if .true. use fixed ren scale
 F        = fixed_fac_scale  ! if .true. use fixed fac scale
 91.1880  = scale            ! fixed ren scale
 91.1880  = dsqrt_q2fact1    ! fixed fact scale for pdf1
 91.1880  = dsqrt_q2fact2    ! fixed fact scale for pdf2
 1        = scalefact        ! scale factor for event-by-event scales
#*********************************************************************
# Matching - Warning! ickkw > 1 is still beta
#*********************************************************************
 0        = ickkw            ! 0 no matching, 1 MLM, 2 CKKW matching
 1        = highestmult      ! for ickkw=2, highest mult group
 1        = ktscheme         ! for ickkw=1, 1 Durham kT, 2 Pythia pTE
 1        = alpsfact         ! scale factor for QCD emission vx
 F        = chcluster        ! cluster only according to channel diag
 T        = pdfwgt           ! for ickkw=1, perform pdf reweighting
 5        = asrwgtflavor     ! highest quark flavor for a_s reweight
 T        = clusinfo         ! include clustering tag in output
 3.0      = lhe_version       ! Change the way clustering information pass to shower.        
#*********************************************************************
#**********************************************************
#
#**********************************************************
# Automatic ptj and mjj cuts if xqcut > 0
# (turn off for VBF and single top processes)
#**********************************************************
   T  = auto_ptj_mjj  ! Automatic setting of ptj and mjj
#**********************************************************
#                                                                    
#**********************************
# BW cutoff (M+/-bwcutoff*Gamma)
#**********************************
  15  = bwcutoff      ! (M+/-bwcutoff*Gamma)
#**********************************************************
# Apply pt/E/eta/dr/mij cuts on decay products or not
# (note that etmiss/ptll/ptheavy/ht/sorted cuts always apply)
#**********************************************************
   T  = cut_decays    ! Cut decay products 
#*************************************************************
# Number of helicities to sum per event (0 = all helicities)
# 0 gives more stable result, but longer run time (needed for
# long decay chains e.g.).
# Use >=2 if most helicities contribute, e.g. pure QCD.
#*************************************************************
   0  = nhel          ! Number of helicities used per event
#*******************                                                 
# Standard Cuts
#*******************                                                 
#                                                                    
#*********************************************************************
# Minimum and maximum pt's (for max, -1 means no cut)                *
#*********************************************************************
 20  = ptj       ! minimum pt for the jets 
  0  = ptb       ! minimum pt for the b 
 10  = pta       ! minimum pt for the photons 
 10  = ptl       ! minimum pt for the charged leptons 
  0  = misset    ! minimum missing Et (sum of neutrino's momenta)
  0  = ptheavy   ! minimum pt for one heavy final state
 1.0 = ptonium   ! minimum pt for the quarkonium states
 -1  = ptjmax    ! maximum pt for the jets
 -1  = ptbmax    ! maximum pt for the b
 -1  = ptamax    ! maximum pt for the photons
 -1  = ptlmax    ! maximum pt for the charged leptons
 -1  = missetmax ! maximum missing Et (sum of neutrino's momenta)
#*********************************************************************
# Minimum and maximum E's (in the center of mass frame)              *
#*********************************************************************
  0  = ej     ! minimum E for the jets 
  0  = eb     ! minimum E for the b 
  0  = ea     ! minimum E for the photons 
  0  = el     ! minimum E for the charged leptons 
 -1   = ejmax ! maximum E for the jets
 -1   = ebmax ! maximum E for the b
 -1   = eamax ! maximum E for the photons
 -1   = elmax ! maximum E for the charged leptons
#*********************************************************************
# Maximum and minimum absolute rapidity (for max, -1 means no cut)   *
#*********************************************************************
   5  = etaj    ! max rap for the jets 
  -1  = etab    ! max rap for the b
 2.5  = etaa    ! max rap for the photons 
 2.5  = etal    ! max rap for the charged leptons 
 0.6  = etaonium ! max rap for the quarkonium states
   0  = etajmin ! min rap for the jets
   0  = etabmin ! min rap for the b
   0  = etaamin ! min rap for the photons
   0  = etalmin ! main rap for the charged leptons
#*********************************************************************
# Minimum and maximum DeltaR distance                                *
#*********************************************************************
 0.4 = drjj    ! min distance between jets 
 0   = drbb    ! min distance between b's 
 0.4 = drll    ! min distance between leptons 
 0.4 = draa    ! min distance between gammas 
 0   = drbj    ! min distance between b and jet 
 0.4 = draj    ! min distance between gamma and jet 
 0.4 = drjl    ! min distance between jet and lepton 
 0   = drab    ! min distance between gamma and b 
 0   = drbl    ! min distance between b and lepton 
 0.4 = dral    ! min distance between gamma and lepton 
 -1  = drjjmax ! max distance between jets
 -1  = drbbmax ! max distance between b's
 -1  = drllmax ! max distance between leptons
 -1  = draamax ! max distance between gammas
 -1  = drbjmax ! max distance between b and jet
 -1  = drajmax ! max distance between gamma and jet
 -1  = drjlmax ! max distance between jet and lepton
 -1  = drabmax ! max distance between gamma and b
 -1  = drblmax ! max distance between b and lepton
 -1  = dralmax ! maxdistance between gamma and lepton
#*********************************************************************
# Minimum and maximum invariant mass for pairs                       *
# WARNING: for four lepton final state mmll cut require to have      *
#          different lepton masses for each flavor!                  *           
#*********************************************************************
 0   = mmjj    ! min invariant mass of a jet pair 
 0   = mmbb    ! min invariant mass of a b pair 
 0   = mmaa    ! min invariant mass of gamma gamma pair
 0   = mmll    ! min invariant mass of l+l- (same flavour) lepton pair
 -1  = mmjjmax ! max invariant mass of a jet pair
 -1  = mmbbmax ! max invariant mass of a b pair
 -1  = mmaamax ! max invariant mass of gamma gamma pair
 -1  = mmllmax ! max invariant mass of l+l- (same flavour) lepton pair
#*********************************************************************
# Minimum and maximum invariant mass for all letpons                 *
#*********************************************************************
 0   = mmnl    ! min invariant mass for all letpons (l+- and vl) 
 -1  = mmnlmax ! max invariant mass for all letpons (l+- and vl) 
#*********************************************************************
# Minimum and maximum pt for 4-momenta sum of leptons                *
#*********************************************************************
 0   = ptllmin  ! Minimum pt for 4-momenta sum of leptons(l and vl)
 -1  = ptllmax  ! Maximum pt for 4-momenta sum of leptons(l and vl)
#*********************************************************************
# Inclusive cuts                                                     *
#*********************************************************************
 0  = xptj ! minimum pt for at least one jet  
 0  = xptb ! minimum pt for at least one b 
 0  = xpta ! minimum pt for at least one photon 
 0  = xptl ! minimum pt for at least one charged lepton 
#*********************************************************************
# Control the pt's of the jets sorted by pt                          *
#*********************************************************************
 0   = ptj1min ! minimum pt for the leading jet in pt
 0   = ptj2min ! minimum pt for the second jet in pt
 0   = ptj3min ! minimum pt for the third jet in pt
 0   = ptj4min ! minimum pt for the fourth jet in pt
 -1  = ptj1max ! maximum pt for the leading jet in pt 
 -1  = ptj2max ! maximum pt for the second jet in pt
 -1  = ptj3max ! maximum pt for the third jet in pt
 -1  = ptj4max ! maximum pt for the fourth jet in pt
 0   = cutuse  ! reject event if fails any (0) / all (1) jet pt cuts
#*********************************************************************
# Control the pt's of leptons sorted by pt                           *
#*********************************************************************
 0   = ptl1min ! minimum pt for the leading lepton in pt
 0   = ptl2min ! minimum pt for the second lepton in pt
 0   = ptl3min ! minimum pt for the third lepton in pt
 0   = ptl4min ! minimum pt for the fourth lepton in pt
 -1  = ptl1max ! maximum pt for the leading lepton in pt 
 -1  = ptl2max ! maximum pt for the second lepton in pt
 -1  = ptl3max ! maximum pt for the third lepton in pt
 -1  = ptl4max ! maximum pt for the fourth lepton in pt
#*********************************************************************
# Control the Ht(k)=Sum of k leading jets                            *
#*********************************************************************
 0   = htjmin ! minimum jet HT=Sum(jet pt)
 -1  = htjmax ! maximum jet HT=Sum(jet pt)
 0   = ihtmin  !inclusive Ht for all partons (including b)
 -1  = ihtmax  !inclusive Ht for all partons (including b)
 0   = ht2min ! minimum Ht for the two leading jets
 0   = ht3min ! minimum Ht for the three leading jets
 0   = ht4min ! minimum Ht for the four leading jets
 -1  = ht2max ! maximum Ht for the two leading jets
 -1  = ht3max ! maximum Ht for the three leading jets
 -1  = ht4max ! maximum Ht for the four leading jets
#***********************************************************************
# Photon-isolation cuts, according to hep-ph/9801442                   *
# When ptgmin=0, all the other parameters are ignored                  *
# When ptgmin>0, pta and draj are not going to be used                 *
#***********************************************************************
   0 = ptgmin ! Min photon transverse momentum
 0.4 = R0gamma ! Radius of isolation code
 1.0 = xn ! n parameter of eq.(3.4) in hep-ph/9801442
 1.0 = epsgamma ! epsilon_gamma parameter of eq.(3.4) in hep-ph/9801442
 .true. = isoEM ! isolate photons from EM energy (photons and leptons)
#*********************************************************************
# WBF cuts                                                           *
#*********************************************************************
 0   = xetamin ! minimum rapidity for two jets in the WBF case  
 0   = deltaeta ! minimum rapidity for two jets in the WBF case 
#*********************************************************************
# KT DURHAM CUT                                                      *
#*********************************************************************
 -1    =  ktdurham        
 0.4  =  dparameter 
#*********************************************************************
# maximal pdg code for quark to be considered as a light jet         *
# (otherwise b cuts are applied)                                     *
#*********************************************************************
 4 = maxjetflavor    ! Maximum jet pdg code
#*********************************************************************
# Jet measure cuts                                                   *
#*********************************************************************
 0   = xqcut   ! minimum kt jet measure between partons
#*********************************************************************
#
#*********************************************************************
# Store info for systematics studies                                 *
# WARNING: If use_syst is T, matched Pythia output is                *
#          meaningful ONLY if plotted taking matchscale              *
#          reweighting into account!                                 *
#*********************************************************************
   F  = use_syst      ! Enable systematics studies
#
#**************************************
# Parameter of the systematics study
#  will be used by SysCalc (if installed)
#**************************************                                  
#
0.5 1 2 = sys_scalefact  # factorization/renormalization scale factor
0.5 1 2 = sys_alpsfact  # \alpha_s emission scale factors
30 50 = sys_matchscale # variation of merging scale
# PDF sets and number of members (0 or none for all members).
CT10nlo.LHgrid = sys_pdf # matching scales
# MSTW2008nlo68cl.LHgrid 1  = sys_pdf
</MGRunCard>
<slha>
######################################################################
## PARAM_CARD AUTOMATICALY GENERATED BY MG5 FOLLOWING UFO MODEL   ####
######################################################################
##                                                                  ##
##  Width set on Auto will be computed following the information    ##
##        present in the decay.py files of the model.               ##
##        See  arXiv:1402.1178 for more details.                    ##
##                                                                  ##
######################################################################

###################################
## INFORMATION FOR CKMBLOCK
###################################
Block ckmblock 
    1 2.277360e-01 # cabi 

###################################
## INFORMATION FOR FRBLOCK
###################################
Block frblock 
    1 8.000000e-01 # gz 

###################################
## INFORMATION FOR MASS
###################################
Block mass 
    1 5.040000e-03 # MD 
    2 2.550000e-03 # MU 
    3 1.010000e-01 # MS 
    4 1.270000e+00 # MC 
    5 4.700000e+00 # MB 
    6 1.720000e+02 # MT 
   11 5.110000e-04 # Me 
   13 1.056600e-01 # MM 
   15 1.777000e+00 # MTA 
   23 9.118760e+01 # MZ 
   25 1.200000e+02 # MH 
  10030 8.000000e+02 # MZph 
  10031 3.000000e+02 # MZpl 
## Dependent parameters, given by model restrictions.
## Those values should be edited following the 
## analytical expression. MG5 ignores those values 
## but they are important for interfacing the output of MG5
## to external program such as Pythia.
  12 0.000000 # ve : 0.0 
  14 0.000000 # vm : 0.0 
  16 0.000000 # vt : 0.0 
  21 0.000000 # g : 0.0 
  22 0.000000 # a : 0.0 
  24 79.824360 # w+ : cmath.sqrt(MZ__exp__2/2. + cmath.sqrt(MZ__exp__4/4. - (aEW*cmath.pi*MZ__exp__2)/(Gf*sqrt__2))) 

###################################
## INFORMATION FOR SMINPUTS
###################################
Block sminputs 
    1 1.279000e+02 # aEWM1 
    2 1.166370e-05 # Gf 
    3 1.184000e-01 # aS 

###################################
## INFORMATION FOR YUKAWA
###################################
Block yukawa 
    1 5.040000e-03 # ymdo 
    2 2.550000e-03 # ymup 
    3 1.010000e-01 # yms 
    4 1.270000e+00 # ymc 
    5 4.700000e+00 # ymb 
    6 1.720000e+02 # ymt 
   11 5.110000e-04 # yme 
   13 1.056600e-01 # ymm 
   15 1.777000e+00 # ymtau 

###################################
## INFORMATION FOR DECAY
###################################
DECAY   6 1.508336e+00 # WT 
DECAY  23 2.495200e+00 # WZ 
DECAY  24 2.085000e+00 # WW 
DECAY  25 5.753088e-03 # WH 
## Dependent parameters, given by model restrictions.
## Those values should be edited following the 
## analytical expression. MG5 ignores those values 
## but they are important for interfacing the output of MG5
## to external program such as Pythia.
DECAY  1 0.000000 # d : 0.0 
DECAY  2 0.000000 # u : 0.0 
DECAY  3 0.000000 # s : 0.0 
DECAY  4 0.000000 # c : 0.0 
DECAY  5 0.000000 # b : 0.0 
DECAY  11 0.000000 # e- : 0.0 
DECAY  12 0.000000 # ve : 0.0 
DECAY  13 0.000000 # mu- : 0.0 
DECAY  14 0.000000 # vm : 0.0 
DECAY  15 0.000000 # ta- : 0.0 
DECAY  16 0.000000 # vt : 0.0 
DECAY  21 0.000000 # g : 0.0 
DECAY  22 0.000000 # a : 0.0 
DECAY  10030 0.308725 # zph : (gz__exp__2*MZph*(5 + cmath.sqrt(1 - (4*MT__exp__2)/MZph__exp__2)))/(144.*cmath.pi) 
DECAY  10031 0.132629 # zpl : (5*gz__exp__2*MZpl)/(144.*cmath.pi) 
#===========================================================
# QUANTUM NUMBERS OF NEW STATE(S) (NON SM PDG CODE)
#===========================================================

Block QNUMBERS 10030  # zph 
        1 0  # 3 times electric charge
        2 3  # number of spin states (2S+1)
        3 1  # colour rep (1: singlet, 3: triplet, 8: octet)
        4 0  # Particle/Antiparticle distinction (0=own anti)
Block QNUMBERS 10031  # zpl 
        1 0  # 3 times electric charge
        2 3  # number of spin states (2S+1)
        3 1  # colour rep (1: singlet, 3: triplet, 8: octet)
        4 0  # Particle/Antiparticle distinction (0=own anti)
</slha>
## END BANNER##
<MGGenerationInfo>
#  Number of Events        :         4105
#  Integrated weight (pb)  :  0.35087E+01
#  Max wgt                 :  0.11547E-02
#  Average wgt             :  0.85474E-03
</MGGenerationInfo>
</header>
<init>
     2212     2212  0.40000000000E+04  0.40000000000E+04 0 0  247000  247000 2   1
  0.35064085460E+01  0.66139777353E-02  0.11547140000E-02   0
</init>
<event>
 5   0  0.1106332E-02  0.8000308E+03  0.7818609E-02  0.9559973E-01
        2   -1    0    0  501    0  0.00000000000E+00  0.00000000000E+00  0.76275346119E+03  0.76275346119E+03  0.25500000920E-02 0. -1.
       -2   -1    0    0    0  501  0.00000000000E+00  0.00000000000E+00 -0.20978248139E+03  0.20978248141E+03  0.25500000920E-02 0.  1.
    10030    2    1    2    0    0  0.00000000000E+00  0.00000000000E+00  0.55297097980E+03  0.97253594260E+03  0.80003078388E+03 0.  0.
        1    1    3    3  502    0 -0.34195971683E+03  0.15350779891E+03  0.44628686079E+03  0.58281476851E+03  0.50400001928E-02 0. -1.
       -1    1    3    3    0  502  0.34195971683E+03 -0.15350779891E+03  0.10668411901E+03  0.38972117409E+03  0.50400001928E-02 0.  1.
</event>
<event>
 5   0  0.4385875E-03  0.8059770E+03  0.7818609E-02  0.9551406E-01
        3   -1    0    0  501    0  0.00000000000E+00  0.00000000000E+00  0.57917691871E+03  0.57917692752E+03  0.10100000352E+00 0.  1.
       -3   -1    0    0    0  501  0.00000000000E+00  0.00000000000E+00 -0.28039742722E+03  0.28039744541E+03  0.10100000352E+00 0. -1.
    10030    2    1    2    0    0  0.00000000000E+00  0.00000000000E+00  0.29877949149E+03  0.85957437293E+03  0.80597699599E+03 0.  0.
        5    1    3    3  502    0  0.30411671284E+03  0.20790737812E+02 -0.13168590867E+03  0.33208808823E+03  0.46999998093E+01 0. -1.
       -5    1    3    3    0  502 -0.30411671284E+03 -0.20790737812E+02  0.43046540016E+03  0.52748628469E+03  0.46999998093E+01 0.  1.
</event>
<event>
 5   0  0.1106332E-02  0.7927162E+03  0.7818609E-02  0.9570620E-01
       -2   -1    0    0    0  501  0.00000000000E+00  0.00000000000E+00  0.19954587084E+03  0.19954587086E+03  0.25500000920E-02 0.  1.
        2   -1    0    0  501    0  0.00000000000E+00  0.00000000000E+00 -0.78728630097E+03  0.78728630097E+03  0.25500000920E-02 0. -1.
    10030    2    1    2    0    0  0.00000000000E+00  0.00000000000E+00 -0.58774043013E+03  0.98683217183E+03  0.79271616746E+03 0.  0.
        1    1    3    3  502    0  0.95066486353E+02  0.23619782257E+01  0.18513401066E+03  0.20812932926E+03  0.50400001928E-02 0.  1.
       -1    1    3    3    0  502 -0.95066486353E+02 -0.23619782257E+01 -0.77287444079E+03  0.77870284257E+03  0.50400001928E-02 0. -1.
</event>
<event>
 5   0  0.1092868E-02  0.7915038E+03  0.7818609E-02  0.9572397E-01
        2   -1    0    0  501    0  0.00000000000E+00  0.00000000000E+00  0.12607335958E+04  0.12607335958E+04  0.25500000920E-02 0.  1.
       -2   -1    0    0    0  501  0.00000000000E+00  0.00000000000E+00 -0.12422889971E+03  0.12422889973E+03  0.25500000920E-02 0. -1.
    10030    2    1    2    0    0  0.00000000000E+00  0.00000000000E+00  0.11365046961E+04  0.13849624955E+04  0.79150375222E+03 0.  0.
        3    1    3    3  502    0  0.27031339758E+03  0.27497169462E+03  0.41232712128E+03  0.56452850317E+03  0.10100000352E+00 0. -1.
       -3    1    3    3    0  502 -0.27031339758E+03 -0.27497169462E+03  0.72417757478E+03  0.82043399233E+03  0.10100000352E+00 0.  1.
</event>
<event>
 5   0  0.1106332E-02  0.8206560E+03  0.7818609E-02  0.9530591E-01
       -2   -1    0    0    0  501  0.00000000000E+00  0.00000000000E+00  0.28118760105E+03  0.28118760106E+03  0.25500000920E-02 0. -1.
        2   -1    0    0  501    0  0.00000000000E+00  0.00000000000E+00 -0.59877835613E+03  0.59877835613E+03  0.25500000920E-02 0.  1.
    10030    2    1    2    0    0  0.00000000000E+00  0.00000000000E+00 -0.31759075508E+03  0.87996595719E+03  0.82065595599E+03 0.  0.
        1    1    3    3  502    0  0.57102976235E+02 -0.28939482603E+03 -0.46464459306E+03  0.55036779804E+03  0.50400001928E-02 0.  1.
       -1    1    3    3    0  502 -0.57102976235E+02  0.28939482603E+03  0.14705383798E+03  0.32959815916E+03  0.50400001928E-02 0. -1.
</event>
<event>
 5   0  0.1092868E-02  0.7827254E+03  0.7818609E-02  0.9585364E-01
       -2   -1    0    0    0  501  0.00000000000E+00  0.00000000000E+00  0.10511679308E+03  0.10511679311E+03  0.25500000920E-02 0.  1.
        2   -1    0    0  501    0  0.00000000000E+00  0.00000000000E+00 -0.14570911435E+04  0.14570911435E+04  0.25500000920E-02 0. -1.
    10030    2    1    2    0    0  0.00000000000E+00  0.00000000000E+00 -0.13519743504E+04  0.15622079366E+04  0.78272536247E+03 0.  0.
        3    1    3    3  502    0 -0.18559700935E+03 -0.27208008895E+03 -0.10979158571E+04  0.11462517455E+04  0.10100000352E+00 0. -1.
       -3    1    3    3    0  502  0.18559700935E+03  0.27208008895E+03 -0.25405849337E+03  0.41595619113E+03  0.10100000352E+00 0.  1.
</event>
<event>
 5   0  0.6557679E-03  0.8032903E+03  0.7818609E-02  0.9555267E-01
       -1   -1    0    0    0  501  0.00000000000E+00  0.00000000000E+00  0.30154512543E+03  0.30154512547E+03  0.50400001928E-02 0. -1.
        1   -1    0    0  501    0  0.00000000000E+00  0.00000000000E+00 -0.53497409056E+03  0.53497409058E+03  0.50400001928E-02 0.  1.
    10030    2    1    2    0    0  0.00000000000E+00  0.00000000000E+00 -0.23342896513E+03  0.83651921606E+03  0.80329030684E+03 0.  0.
        1    1    3    3  502    0  0.13849444104E+03 -0.30757288211E+03  0.11033445234E+03  0.35490207016E+03  0.50400001928E-02 0. -1.
       -1    1    3    3    0  502 -0.13849444104E+03  0.30757288211E+03 -0.34376341747E+03  0.48161714589E+03  0.50400001928E-02 0.  1.
</event>
<event>
 5   0  0.6517392E-03  0.8066969E+03  0.7818609E-02  0.9550374E-01
       -1   -1    0    0    0  501  0.00000000000E+00  0.00000000000E+00  0.33259368955E+03  0.33259368959E+03  0.50400001928E-02 0. -1.
        1   -1    0    0  501    0  0.00000000000E+00  0.00000000000E+00 -0.48915534400E+03  0.48915534402E+03  0.50400001928E-02 0.  1.
    10030    2    1    2    0    0  0.00000000000E+00  0.00000000000E+00 -0.15656165444E+03  0.82174903362E+03  0.80669692116E+03 0.  0.
        3    1    3    3  502    0 -0.57815037239E+02  0.35345456135E+03 -0.26726132142E+03  0.44687954708E+03  0.10100000352E+00 0.  1.
       -3    1    3    3    0  502  0.57815037239E+02 -0.35345456135E+03  0.11069966698E+03  0.37486948654E+03  0.10100000352E+00 0. -1.
</event>
<event>
 5   0  0.1106332E-02  0.7940025E+03  0.7818609E-02  0.9568739E-01
        2   -1    0    0  501    0  0.00000000000E+00  0.00000000000E+00  0.10601388187E+04  0.10601388187E+04  0.25500000920E-02 0. -1.
       -2   -1    0    0    0  501  0.00000000000E+00  0.00000000000E+00 -0.14866919520E+03  0.14866919522E+03  0.25500000920E-02 0.  1.
    10030    2    1    2    0    0  0.00000000000E+00  0.00000000000E+00  0.91146962350E+03  0.12088080139E+04  0.79400248109E+03 0.  0.
        1    1    3    3  502    0 -0.58933384610E+02  0.17693115940E+03 -0.77835425916E+02  0.20207952034E+03  0.50400001928E-02 0.  1.
       -1    1    3    3    0  502  0.58933384610E+02 -0.17693115940E+03  0.98930504941E+03  0.10067284936E+04  0.50400001928E-02 0. -1.
</event>
<event>
 5   0  0.4385875E-03  0.8179285E+03  0.7818609E-02  0.9534423E-01
       -4   -1    0    0    0  501  0.00000000000E+00  0.00000000000E+00  0.69844772760E+03  0.69844888223E+03  0.12699999809E+01 0. -1.
        4   -1    0    0  501    0  0.00000000000E+00  0.00000000000E+00 -0.23945906803E+03  0.23946243581E+03  0.12699999809E+01 0.  1.
    10030    2    1    2    0    0  0.00000000000E+00  0.00000000000E+00  0.45898865957E+03  0.93791131804E+03  0.81792851210E+03 0.  0.
        5    1    3    3  502    0 -0.91291706372E+02 -0.16583407700E+03  0.64515134530E+03  0.67236706127E+03  0.46999998093E+01 0. -1.
       -5    1    3    3    0  502  0.91291706372E+02  0.16583407700E+03 -0.18616268573E+03  0.26554425677E+03  0.46999998093E+01 0.  1.
</event>
<event>
 5   0  0.1106332E-02  0.8002707E+03  0.7818609E-02  0.9559625E-01
        2   -1    0    0  501    0  0.00000000000E+00  0.00000000000E+00  0.44255460921E+03  0.44255460921E+03  0.25500000920E-02 0. -1.
       -2   -1    0    0    0  501  0.00000000000E+00  0.00000000000E+00 -0.36178199375E+03  0.36178199376E+03  0.25500000920E-02 0.  1.
    10030    2    1    2    0    0  0.00000000000E+00  0.00000000000E+00  0.80772615453E+02  0.80433660298E+03  0.80027067638E+03 0.  0.
        1    1    3    3  502    0 -0.98402654400E+02  0.26777493400E+03  0.32238585589E+03  0.43048709362E+03  0.50400001928E-02 0. -1.
       -1    1    3    3    0  502  0.98402654400E+02 -0.26777493400E+03 -0.24161324043E+03  0.37384950936E+03  0.50400001928E-02 0.  1.
</event>
<event>
 5   0  0.4385875E-03  0.8008898E+03  0.7818609E-02  0.9558730E-01
        4   -1    0    0  501    0  0.00000000000E+00  0.00000000000E+00  0.11822269067E+04  0.11822275889E+04  0.12699999809E+01 0.  1.
       -4   -1    0    0    0  501  0.00000000000E+00  0.00000000000E+00 -0.13563534917E+03  0.13564129476E+03  0.12699999809E+01 0. -1.
    10030    2    1    2    0    0  0.00000000000E+00  0.00000000000E+00  0.10465915576E+04  0.13178688836E+04  0.80088982143E+03 0.  0.
        4    1    3    3  502    0 -0.95985072316E+01  0.20831494321E+03 -0.39234460353E+02  0.21219849831E+03  0.12699999809E+01 0. -1.
       -4    1    3    3    0  502  0.95985072316E+01 -0.20831494321E+03  0.10858260179E+04  0.11056703853E+04  0.12699999809E+01 0.  1.
</event>
<event>
 5   0  0.1154714E-02  0.7981384E+03  0.7818609E-02  0.9562716E-01
        2   -1    0    0  501    0  0.00000000000E+00  0.00000000000E+00  0.11925827028E+04  0.11925827028E+04  0.25500000920E-02 0.  1.
       -2   -1    0    0    0  501  0.00000000000E+00  0.00000000000E+00 -0.13353893317E+03  0.13353893319E+03  0.25500000920E-02 0. -1.
    10030    2    1    2    0    0  0.00000000000E+00  0.00000000000E+00  0.10590437696E+04  0.13261216360E+04  0.79813838867E+03 0.  0.
        5    1    3    3  502    0 -0.28567178171E+03 -0.12202047889E+03  0.94568753447E+03  0.99541165705E+03  0.46999998093E+01 0.  1.
       -5    1    3    3    0  502  0.28567178171E+03  0.12202047889E+03  0.11335623517E+03  0.33070997896E+03  0.46999998093E+01 0. -1.
</event>
<event>
 5   0  0.6596225E-03  0.8064098E+03  0.7818609E-02  0.9550785E-01
        1   -1    0    0  501    0  0.00000000000E+00  0.00000000000E+00  0.21314371158E+03  0.21314371164E+03  0.50400001928E-02 0. -1.
       -1   -1    0    0    0  501  0.00000000000E+00  0.00000000000E+00 -0.76274453984E+03  0.76274453986E+03  0.50400001928E-02 0.  1.
    10030    2    1    2    0    0  0.00000000000E+00  0.00000000000E+00 -0.54960082827E+03  0.97588825149E+03  0.80640982693E+03 0.  0.
        5    1    3    3  502    0  0.63112120595E+02  0.35803630140E+03 -0.63874049466E+02  0.36915459780E+03  0.46999998093E+01 0. -1.
       -5    1    3    3    0  502 -0.63112120595E+02 -0.35803630140E+03 -0.48572677880E+03  0.60673365369E+03  0.46999998093E+01 0.  1.
</event>
<event>
 5   0  0.4385875E-03  0.8006681E+03  0.7818609E-02  0.9559051E-01
        3   -1    0    0  501    0  0.00000000000E+00  0.00000000000E+00  0.85831717368E+03  0.85831717963E+03  0.10100000352E+00 0.  1.
       -3   -1    0    0    0  501  0.00000000000E+00  0.00000000000E+00 -0.18672275829E+03  0.18672278560E+03  0.10100000352E+00 0. -1.
    10030    2    1    2    0    0  0.00000000000E+00  0.00000000000E+00  0.67159441540E+03  0.10450399652E+04  0.80066813983E+03 0.  0.
        4    1    3    3  502    0  0.29413213890E+03 -0.24136145633E+02  0.68885463646E+03  0.74941216412E+03  0.12699999809E+01 0. -1.
       -4    1    3    3    0  502 -0.29413213890E+03  0.24136145633E+02 -0.17260221060E+02  0.29562780111E+03  0.12699999809E+01 0.  1.
</event>
<event>
 5   0  0.6557679E-03  0.8022022E+03  0.7818609E-02  0.9556835E-01
        1   -1    0    0  501    0  0.00000000000E+00  0.00000000000E+00  0.41658739279E+03  0.41658739282E+03  0.50400001928E-02 0.  1.
       -1   -1    0    0    0  501  0.00000000000E+00  0.00000000000E+00 -0.38619051540E+03  0.38619051543E+03  0.50400001928E-02 0. -1.
    10030    2    1    2    0    0  0.00000000000E+00  0.00000000000E+00  0.30396877395E+02  0.80277790826E+03  0.80220221879E+03 0.  0.
        1    1    3    3  502    0  0.17644304250E+03  0.80200151430E+02  0.36661691673E+03  0.41469527993E+03  0.50400001928E-02 0.  1.
       -1    1    3    3    0  502 -0.17644304250E+03 -0.80200151430E+02 -0.33622003933E+03  0.38808262833E+03  0.50400001928E-02 0. -1.
</event>
<event>
 5   0  0.6517392E-03  0.7958619E+03  0.7818609E-02  0.9566026E-01
        1   -1    0    0  501    0  0.00000000000E+00  0.00000000000E+00  0.89697736097E+03  0.89697736099E+03  0.50400001928E-02 0.  1.
       -1   -1    0    0    0  501  0.00000000000E+00  0.00000000000E+00 -0.17653626044E+03  0.17653626051E+03  0.50400001928E-02 0. -1.
    10030    2    1    2    0    0  0.00000000000E+00  0.00000000000E+00  0.72044110054E+03  0.10735136215E+04  0.79586187005E+03 0.  0.
        3    1    3    3  502    0  0.35593437813E+03  0.13376275024E+03  0.51848875679E+03  0.64297150482E+03  0.10100000352E+00 0. -1.
       -3    1    3    3    0  502 -0.35593437813E+03 -0.13376275024E+03  0.20195234374E+03  0.43054211668E+03  0.10100000352E+00 0.  1.
</event>
<event>
 5   0  0.6517392E-03  0.7543884E+03  0.7818609E-02  0.9628491E-01
       -1   -1    0    0    0  501  0.00000000000E+00  0.00000000000E+00  0.62880533197E+03  0.62880533199E+03  0.50400001928E-02 0. -1.
        1   -1    0    0  501    0  0.00000000000E+00  0.00000000000E+00 -0.22626312785E+03  0.22626312791E+03  0.50400001928E-02 0.  1.
    10030    2    1    2    0    0  0.00000000000E+00  0.00000000000E+00  0.40254220411E+03  0.85506845990E+03  0.75438839136E+03 0.  0.
        3    1    3    3  502    0 -0.18149453104E+03  0.30650957383E+03  0.34187061581E+03  0.49372453028E+03  0.10100000352E+00 0. -1.
       -3    1    3    3    0  502  0.18149453104E+03 -0.30650957383E+03  0.60671588302E+02  0.36134392962E+03  0.10100000352E+00 0.  1.
</event>
<event>
 5   0  0.1106332E-02  0.8036883E+03  0.7818609E-02  0.9554694E-01
        2   -1    0    0  501    0  0.00000000000E+00  0.00000000000E+00  0.13467335813E+04  0.13467335813E+04  0.25500000920E-02 0. -1.
       -2   -1    0    0    0  501  0.00000000000E+00  0.00000000000E+00 -0.11990399349E+03  0.11990399351E+03  0.25500000920E-02 0.  1.
    10030    2    1    2    0    0  0.00000000000E+00  0.00000000000E+00  0.12268295878E+04  0.14666375748E+04  0.80368833407E+03 0.  0.
        1    1    3    3  502    0  0.37409719482E+03 -0.13820647667E+03  0.52347574485E+03  0.65808555434E+03  0.50400001928E-02 0.  1.
       -1    1    3    3    0  502 -0.37409719482E+03  0.13820647667E+03  0.70335384297E+03  0.80855202047E+03  0.50400001928E-02 0. -1.
</event>
<event>
 5   0  0.6551489E-03  0.7980141E+03  0.7818609E-02  0.9562896E-01
       -1   -1    0    0    0  501  0.00000000000E+00  0.00000000000E+00  0.17095558117E+03  0.17095558125E+03  0.50400001928E-02 0.  1.
        1   -1    0    0  501    0  0.00000000000E+00  0.00000000000E+00 -0.93127470870E+03  0.93127470871E+03  0.50400001928E-02 0. -1.
    10030    2    1    2    0    0  0.00000000000E+00  0.00000000000E+00 -0.76031912752E+03  0.11022302900E+04  0.79801405778E+03 0.  0.
        4    1    3    3  502    0 -0.17577035265E+03 -0.33170660138E+03 -0.56690756090E+03  0.67993402751E+03  0.12699999809E+01 0. -1.
       -4    1    3    3    0  502  0.17577035265E+03  0.33170660138E+03 -0.19341156662E+03  0.42229626244E+03  0.12699999809E+01 0.  1.
</event>
<event>
 5   0  0.6557679E-03  0.8092680E+03  0.7818609E-02  0.9546698E-01
        1   -1    0    0  501    0  0.00000000000E+00  0.00000000000E+00  0.19117121905E+03  0.19117121912E+03  0.50400001928E-02 0.  1.
       -1   -1    0    0    0  501  0.00000000000E+00  0.00000000000E+00 -0.85645047712E+03  0.85645047713E+03  0.50400001928E-02 0. -1.
    10030    2    1    2    0    0  0.00000000000E+00  0.00000000000E+00 -0.66527925806E+03  0.10476216963E+04  0.80926801942E+03 0.  0.
        1    1    3    3  502    0 -0.36589305218E+03 -0.17270381966E+03 -0.33902716430E+03  0.52786717374E+03  0.50400001928E-02 0.  1.
       -1    1    3    3    0  502  0.36589305218E+03  0.17270381966E+03 -0.32625209376E+03  0.51975452251E+03  0.50400001928E-02 0. -1.
</event>
<event>
 5   0  0.1121480E-02  0.8286878E+03  0.7818609E-02  0.9519397E-01
       -2   -1    0    0    0  501  0.00000000000E+00  0.00000000000E+00  0.37480671242E+03  0.37480671243E+03  0.25500000920E-02 0.  1.
        2   -1    0    0  501    0  0.00000000000E+00  0.00000000000E+00 -0.45805171258E+03  0.45805171259E+03  0.25500000920E-02 0. -1.
    10030    2    1    2    0    0  0.00000000000E+00  0.00000000000E+00 -0.83245000154E+02  0.83285842502E+03  0.82868777358E+03 0.  0.
        2    1    3    3  502    0 -0.37315195778E+03 -0.17658384649E+03 -0.77249717410E+02  0.41999018713E+03  0.25500000920E-02 0. -1.
       -2    1    3    3    0  502  0.37315195778E+03  0.17658384649E+03 -0.59952827447E+01  0.41286823789E+03  0.25500000920E-02 0.  1.
</event>
<event>
 5   0  0.6517392E-03  0.7981071E+03  0.7818609E-02  0.9562761E-01
       -1   -1    0    0    0  501  0.00000000000E+00  0.00000000000E+00  0.33306635385E+03  0.33306635389E+03  0.50400001928E-02 0. -1.
        1   -1    0    0  501    0  0.00000000000E+00  0.00000000000E+00 -0.47811414117E+03  0.47811414120E+03  0.50400001928E-02 0.  1.
    10030    2    1    2    0    0  0.00000000000E+00  0.00000000000E+00 -0.14504778732E+03  0.81118049509E+03  0.79810709495E+03 0.  0.
        3    1    3    3  502    0  0.11684694928E+03  0.35976327393E+03 -0.20173180589E+03  0.42869401038E+03  0.10100000352E+00 0.  1.
       -3    1    3    3    0  502 -0.11684694928E+03 -0.35976327393E+03  0.56684018568E+02  0.38248648471E+03  0.10100000352E+00 0. -1.
</event>
<event>
 5   0  0.4385875E-03  0.8010457E+03  0.7818609E-02  0.9558505E-01
       -3   -1    0    0    0  501  0.00000000000E+00  0.00000000000E+00  0.19065057697E+03  0.19065060372E+03  0.10100000352E+00 0. -1.
        3   -1    0    0  501    0  0.00000000000E+00  0.00000000000E+00 -0.84142697986E+03  0.84142698592E+03  0.10100000352E+00 0.  1.
    10030    2    1    2    0    0  0.00000000000E+00  0.00000000000E+00 -0.65077640289E+03  0.10320775896E+04  0.80104570687E+03 0.  0.
        4    1    3    3  502    0  0.11954466139E+03  0.24370547036E+03 -0.70483324959E+03  0.75529782535E+03  0.12699999809E+01 0.  1.
       -4    1    3    3    0  502 -0.11954466139E+03 -0.24370547036E+03  0.54056846695E+02  0.27677976430E+03  0.12699999809E+01 0. -1.
</event>
<event>
 5   0  0.1092868E-02  0.8032520E+03  0.7818609E-02  0.9555322E-01
        2   -1    0    0  501    0  0.00000000000E+00  0.00000000000E+00  0.16537004912E+04  0.16537004912E+04  0.25500000920E-02 0.  1.
       -2   -1    0    0    0  501  0.00000000000E+00  0.00000000000E+00 -0.97540911859E+02  0.97540911892E+02  0.25500000920E-02 0. -1.
    10030    2    1    2    0    0  0.00000000000E+00  0.00000000000E+00  0.15561595794E+04  0.17512414031E+04  0.80325202492E+03 0.  0.
        3    1    3    3  502    0 -0.10025713363E+02  0.38373351385E+03  0.10355962157E+04  0.11044507489E+04  0.10100000352E+00 0.  1.
       -3    1    3    3    0  502  0.10025713363E+02 -0.38373351385E+03  0.52056336362E+03  0.64679065417E+03  0.10100000352E+00 0. -1.
</event>
<event>
 5   0  0.6557679E-03  0.7952627E+03  0.7818609E-02  0.9566900E-01
       -1   -1    0    0    0  501  0.00000000000E+00  0.00000000000E+00  0.33925010660E+03  0.33925010664E+03  0.50400001928E-02 0. -1.
        1   -1    0    0  501    0  0.00000000000E+00  0.00000000000E+00 -0.46605940335E+03  0.46605940337E+03  0.50400001928E-02 0.  1.
    10030    2    1    2    0    0  0.00000000000E+00  0.00000000000E+00 -0.12680929675E+03  0.80530951001E+03  0.79526272965E+03 0.  0.
        1    1    3    3  502    0 -0.17444235353E+03 -0.82082274952E+01 -0.42514752275E+03  0.45961715137E+03  0.50400001928E-02 0.  1.
       -1    1    3    3    0  502  0.17444235353E+03  0.82082274952E+01  0.29833822601E+03  0.34569235865E+03  0.50400001928E-02 0. -1.
</event>
<event>
 5   0  0.1121480E-02  0.7979293E+03  0.7818609E-02  0.9563019E-01
       -2   -1    0    0    0  501  0.00000000000E+00  0.00000000000E+00  0.29318580855E+03  0.29318580856E+03  0.25500000920E-02 0.  1.
        2   -1    0    0  501    0  0.00000000000E+00  0.00000000000E+00 -0.54290756183E+03  0.54290756183E+03  0.25500000920E-02 0. -1.
    10030    2    1    2    0    0  0.00000000000E+00  0.00000000000E+00 -0.24972175328E+03  0.83609337040E+03  0.79792930135E+03 0.  0.
        2    1    3    3  502    0  0.16864034203E+03 -0.10327343106E+03  0.23822026298E+03  0.30960274583E+03  0.25500000920E-02 0.  1.
       -2    1    3    3    0  502 -0.16864034203E+03  0.10327343106E+03 -0.48794201626E+03  0.52649062457E+03  0.25500000920E-02 0. -1.
</event>
<event>
 5   0  0.6600401E-03  0.7973643E+03  0.7818609E-02  0.9563840E-01
        1   -1    0    0  501    0  0.00000000000E+00  0.00000000000E+00  0.41078123182E+03  0.41078123185E+03  0.50400001928E-02 0. -1.
       -1   -1    0    0    0  501  0.00000000000E+00  0.00000000000E+00 -0.38693943287E+03  0.38693943290E+03  0.50400001928E-02 0.  1.
    10030    2    1    2    0    0  0.00000000000E+00  0.00000000000E+00  0.23841798954E+02  0.79772066475E+03  0.79736430043E+03 0.  0.
        2    1    3    3  502    0  0.22795373054E+03 -0.14501854527E+03 -0.28138955542E+03  0.39009404462E+03  0.25500000920E-02 0.  1.
       -2    1    3    3    0  502 -0.22795373054E+03  0.14501854527E+03  0.30523135438E+03  0.40762662013E+03  0.25500000920E-02 0. -1.
</event>
<event>
 5   0  0.1092868E-02  0.8005379E+03  0.7818609E-02  0.9559239E-01
       -2   -1    0    0    0  501  0.00000000000E+00  0.00000000000E+00  0.51822828850E+03  0.51822828851E+03  0.25500000920E-02 0.  1.
        2   -1    0    0  501    0  0.00000000000E+00  0.00000000000E+00 -0.30915953654E+03  0.30915953655E+03  0.25500000920E-02 0. -1.
    10030    2    1    2    0    0  0.00000000000E+00  0.00000000000E+00  0.20906875196E+03  0.82738782505E+03  0.80053786294E+03 0.  0.
        3    1    3    3  502    0 -0.24121964622E+03  0.26380145607E+03 -0.81609234562E+02  0.36665815594E+03  0.10100000352E+00 0. -1.
       -3    1    3    3    0  502  0.24121964622E+03 -0.26380145607E+03  0.29067798653E+03  0.46072966911E+03  0.10100000352E+00 0.  1.
</event>
<event>
 5   0  0.1154714E-02  0.7904139E+03  0.7818609E-02  0.9573997E-01
        2   -1    0    0  501    0  0.00000000000E+00  0.00000000000E+00  0.68085205702E+03  0.68085205702E+03  0.25500000920E-02 0.  1.
       -2   -1    0    0    0  501  0.00000000000E+00  0.00000000000E+00 -0.22940158757E+03  0.22940158758E+03  0.25500000920E-02 0. -1.
    10030    2    1    2    0    0  0.00000000000E+00  0.00000000000E+00  0.45145046945E+03  0.91025364461E+03  0.79041392394E+03 0.  0.
        5    1    3    3  502    0 -0.35332444231E+03  0.15753086380E+03  0.31865945312E+03  0.50121858669E+03  0.46999998093E+01 0. -1.
       -5    1    3    3    0  502  0.35332444231E+03 -0.15753086380E+03  0.13279101633E+03  0.40903505791E+03  0.46999998093E+01 0.  1.
</event>
<event>
 5   0  0.6600401E-03  0.7901813E+03  0.7818609E-02  0.9574339E-01
       -1   -1    0    0    0  501  0.00000000000E+00  0.00000000000E+00  0.13888187258E+03  0.13888187267E+03  0.50400001928E-02 0.  1.
        1   -1    0    0  501    0  0.00000000000E+00  0.00000000000E+00 -0.11239525301E+04  0.11239525301E+04  0.50400001928E-02 0. -1.
    10030    2    1    2    0    0  0.00000000000E+00  0.00000000000E+00 -0.98507065756E+03  0.12628344028E+04  0.79018132639E+03 0.  0.
        2    1    3    3  502    0  0.37911366871E+03 -0.23372388190E+02 -0.66631019919E+03  0.76696983244E+03  0.25500000920E-02 0. -1.
       -2    1    3    3    0  502 -0.37911366871E+03  0.23372388190E+02 -0.31876045837E+03  0.49586457038E+03  0.25500000920E-02 0.  1.
</event>
<event>
 5   0  0.1092868E-02  0.8019808E+03  0.7818609E-02  0.9557154E-01
       -2   -1    0    0    0  501  0.00000000000E+00  0.00000000000E+00  0.36605706902E+03  0.36605706903E+03  0.25500000920E-02 0. -1.
        2   -1    0    0  501    0  0.00000000000E+00  0.00000000000E+00 -0.43925751092E+03  0.43925751093E+03  0.25500000920E-02 0.  1.
    10030    2    1    2    0    0  0.00000000000E+00  0.00000000000E+00 -0.73200441896E+02  0.80531457996E+03  0.80198084017E+03 0.  0.
        3    1    3    3  502    0 -0.27839214295E+03 -0.28236571109E+03  0.23319653179E+02  0.39721077085E+03  0.10100000352E+00 0.  1.
       -3    1    3    3    0  502  0.27839214295E+03  0.28236571109E+03 -0.96520095075E+02  0.40810380911E+03  0.10100000352E+00 0. -1.
</event>
<event>
 5   0  0.1106332E-02  0.7959602E+03  0.7818609E-02  0.9565883E-01
        2   -1    0    0  501    0  0.00000000000E+00  0.00000000000E+00  0.75088313542E+03  0.75088313542E+03  0.25500000920E-02 0.  1.
       -2   -1    0    0    0  501  0.00000000000E+00  0.00000000000E+00 -0.21093583285E+03  0.21093583287E+03  0.25500000920E-02 0. -1.
    10030    2    1    2    0    0  0.00000000000E+00  0.00000000000E+00  0.53994730257E+03  0.96181896829E+03  0.79596019889E+03 0.  0.
        1    1    3    3  502    0 -0.24803113494E+03 -0.26132457981E+03  0.47425055501E+03  0.59558674336E+03  0.50400001928E-02 0.  1.
       -1    1    3    3    0  502  0.24803113494E+03  0.26132457981E+03  0.65696747553E+02  0.36623222493E+03  0.50400001928E-02 0. -1.
</event>
<event>
 5   0  0.6517392E-03  0.7923581E+03  0.7818609E-02  0.9571145E-01
       -1   -1    0    0    0  501  0.00000000000E+00  0.00000000000E+00  0.17208641232E+03  0.17208641240E+03  0.50400001928E-02 0. -1.
        1   -1    0    0  501    0  0.00000000000E+00  0.00000000000E+00 -0.91208736922E+03  0.91208736923E+03  0.50400001928E-02 0.  1.
    10030    2    1    2    0    0  0.00000000000E+00  0.00000000000E+00 -0.74000095689E+03  0.10841737816E+04  0.79235810879E+03 0.  0.
        3    1    3    3  502    0  0.30879449833E+03  0.10616417941E+03 -0.63025046015E+02  0.33256133542E+03  0.10100000352E+00 0. -1.
       -3    1    3    3    0  502 -0.30879449833E+03 -0.10616417941E+03 -0.67697591088E+03  0.75161244621E+03  0.10100000352E+00 0.  1.
</event>
<event>
 5   0  0.1092868E-02  0.7983122E+03  0.7818609E-02  0.9562463E-01
        2   -1    0    0  501    0  0.00000000000E+00  0.00000000000E+00  0.60280404658E+03  0.60280404658E+03  0.25500000920E-02 0. -1.
       -2   -1    0    0    0  501  0.00000000000E+00  0.00000000000E+00 -0.26430742919E+03  0.26430742920E+03  0.25500000920E-02 0.  1.
    10030    2    1    2    0    0  0.00000000000E+00  0.00000000000E+00  0.33849661739E+03  0.86711147578E+03  0.79831218921E+03 0.  0.
        3    1    3    3  502    0  0.34769026748E+03 -0.12508227803E+03  0.33322738303E+03  0.49756868609E+03  0.10100000352E+00 0. -1.
       -3    1    3    3    0  502 -0.34769026748E+03  0.12508227803E+03  0.52692343609E+01  0.36954278969E+03  0.10100000352E+00 0.  1.
</event>
<event>
 5   0  0.6551489E-03  0.8243095E+03  0.7818609E-02  0.9525482E-01
        1   -1    0    0  501    0  0.00000000000E+00  0.00000000000E+00  0.33049688452E+03  0.33049688456E+03  0.50400001928E-02 0.  1.
       -1   -1    0    0    0  501  0.00000000000E+00  0.00000000000E+00 -0.51398830471E+03  0.51398830474E+03  0.50400001928E-02 0. -1.
    10030    2    1    2    0    0  0.00000000000E+00  0.00000000000E+00 -0.18349142019E+03  0.84448518930E+03  0.82430948900E+03 0.  0.
        4    1    3    3  502    0  0.20795423385E+03 -0.98162281159E+02  0.25866266847E+03  0.34610516578E+03  0.12699999809E+01 0.  1.
       -4    1    3    3    0  502 -0.20795423385E+03  0.98162281159E+02 -0.44215408866E+03  0.49838002352E+03  0.12699999809E+01 0. -1.
</event>
<event>
 5   0  0.6557679E-03  0.7950060E+03  0.7818609E-02  0.9567274E-01
       -1   -1    0    0    0  501  0.00000000000E+00  0.00000000000E+00  0.19333646169E+03  0.19333646175E+03  0.50400001928E-02 0. -1.
        1   -1    0    0  501    0  0.00000000000E+00  0.00000000000E+00 -0.81727284835E+03  0.81727284836E+03  0.50400001928E-02 0.  1.
    10030    2    1    2    0    0  0.00000000000E+00  0.00000000000E+00 -0.62393638666E+03  0.10106093101E+04  0.79500601450E+03 0.  0.
        1    1    3    3  502    0 -0.79280841417E+02  0.94317476268E+02  0.16844911952E+03  0.20870156693E+03  0.50400001928E-02 0. -1.
       -1    1    3    3    0  502  0.79280841417E+02 -0.94317476268E+02 -0.79238550618E+03  0.80190774318E+03  0.50400001928E-02 0.  1.
</event>
<event>
 5   0  0.6517392E-03  0.7988885E+03  0.7818609E-02  0.9561627E-01
       -1   -1    0    0    0  501  0.00000000000E+00  0.00000000000E+00  0.12862228454E+03  0.12862228464E+03  0.50400001928E-02 0.  1.
        1   -1    0    0  501    0  0.00000000000E+00  0.00000000000E+00 -0.12404980696E+04  0.12404980696E+04  0.50400001928E-02 0. -1.
    10030    2    1    2    0    0  0.00000000000E+00  0.00000000000E+00 -0.11118757851E+04  0.13691203543E+04  0.79888846720E+03 0.  0.
        3    1    3    3  502    0 -0.31989848867E+03  0.22364576679E+03 -0.41048625371E+03  0.56643750471E+03  0.10100000352E+00 0.  1.
       -3    1    3    3    0  502  0.31989848867E+03 -0.22364576679E+03 -0.70138953139E+03  0.80268284957E+03  0.10100000352E+00 0. -1.
</event>
<event>
 5   0  0.1119792E-02  0.7985198E+03  0.7818609E-02  0.9562162E-01
        2   -1    0    0  501    0  0.00000000000E+00  0.00000000000E+00  0.18333082045E+03  0.18333082046E+03  0.25500000920E-02 0. -1.
       -2   -1    0    0    0  501  0.00000000000E+00  0.00000000000E+00 -0.86951271898E+03  0.86951271898E+03  0.25500000920E-02 0.  1.
    10030    2    1    2    0    0  0.00000000000E+00  0.00000000000E+00 -0.68618189853E+03  0.10528435394E+04  0.79851983111E+03 0.  0.
        4    1    3    3  502    0  0.11691759504E+03  0.29980785255E+03 -0.65469208350E+03  0.72950518133E+03  0.12699999809E+01 0.  1.
       -4    1    3    3    0  502 -0.11691759504E+03 -0.29980785255E+03 -0.31489815027E+02  0.32333835812E+03  0.12699999809E+01 0. -1.
</event>
<event>
 5   0  0.1119792E-02  0.7973167E+03  0.7818609E-02  0.9563909E-01
       -2   -1    0    0    0  501  0.00000000000E+00  0.00000000000E+00  0.50980475569E+02  0.50980475632E+02  0.25500000920E-02 0. -1.
        2   -1    0    0  501    0  0.00000000000E+00  0.00000000000E+00 -0.31174381980E+04  0.31174381980E+04  0.25500000920E-02 0.  1.
    10030    2    1    2    0    0  0.00000000000E+00  0.00000000000E+00 -0.30664577224E+04  0.31684186737E+04  0.79731670494E+03 0.  0.
        4    1    3    3  502    0  0.18938392942E+03 -0.16228939165E+03 -0.27691080474E+04  0.27803174478E+04  0.12699999809E+01 0.  1.
       -4    1    3    3    0  502 -0.18938392942E+03  0.16228939165E+03 -0.29734967501E+03  0.38810122583E+03  0.12699999809E+01 0. -1.
</event>
<event>
 5   0  0.4385875E-03  0.7987267E+03  0.7818609E-02  0.9561862E-01
       -4   -1    0    0    0  501  0.00000000000E+00  0.00000000000E+00  0.87017786544E+03  0.87017879221E+03  0.12699999809E+01 0.  1.
        4   -1    0    0  501    0  0.00000000000E+00  0.00000000000E+00 -0.18328236996E+03  0.18328676995E+03  0.12699999809E+01 0. -1.
    10030    2    1    2    0    0  0.00000000000E+00  0.00000000000E+00  0.68689549548E+03  0.10534655622E+04  0.79872665470E+03 0.  0.
        1    1    3    3  502    0 -0.15117955189E+03  0.23355187497E+03  0.72133785797E+03  0.77313002825E+03  0.50400001928E-02 0.  1.
       -1    1    3    3    0  502  0.15117955189E+03 -0.23355187497E+03 -0.34442362482E+02  0.28033553391E+03  0.50400001928E-02 0. -1.
</event>
<event>
 5   0  0.6517392E-03  0.7992997E+03  0.7818609E-02  0.9561031E-01
        1   -1    0    0  501    0  0.00000000000E+00  0.00000000000E+00  0.64351194285E+03  0.64351194287E+03  0.50400001928E-02 0.  1.
       -1   -1    0    0    0  501  0.00000000000E+00  0.00000000000E+00 -0.24820054484E+03  0.24820054489E+03  0.50400001928E-02 0. -1.
    10030    2    1    2    0    0  0.00000000000E+00  0.00000000000E+00  0.39531139801E+03  0.89171248776E+03  0.79929973065E+03 0.  0.
        3    1    3    3  502    0 -0.41858877245E+02  0.15469910506E+03 -0.21078212471E+03  0.26478877055E+03  0.10100000352E+00 0. -1.
       -3    1    3    3    0  502  0.41858877245E+02 -0.15469910506E+03  0.60609352272E+03  0.62692371721E+03  0.10100000352E+00 0.  1.
</event>
<event>
 5   0  0.6596225E-03  0.8029750E+03  0.7818609E-02  0.9555721E-01
        1   -1    0    0  501    0  0.00000000000E+00  0.00000000000E+00  0.76601946506E+03  0.76601946508E+03  0.50400001928E-02 0. -1.
       -1   -1    0    0    0  501  0.00000000000E+00  0.00000000000E+00 -0.21042833928E+03  0.21042833934E+03  0.50400001928E-02 0.  1.
    10030    2    1    2    0    0  0.00000000000E+00  0.00000000000E+00  0.55559112578E+03  0.97644780442E+03  0.80297497826E+03 0.  0.
        5    1    3    3  502    0 -0.68392126475E+02 -0.33130946481E+03  0.14932578376E+02  0.33865693014E+03  0.46999998093E+01 0.  1.
       -5    1    3    3    0  502  0.68392126475E+02  0.33130946481E+03  0.54065854741E+03  0.63779087428E+03  0.46999998093E+01 0. -1.
</event>
<event>
 5   0  0.1121480E-02  0.7093817E+03  0.7818609E-02  0.9701321E-01
       -2   -1    0    0    0  501  0.00000000000E+00  0.00000000000E+00  0.39313007918E+03  0.39313007919E+03  0.25500000920E-02 0.  1.
        2   -1    0    0  501    0  0.00000000000E+00  0.00000000000E+00 -0.32001011770E+03  0.32001011771E+03  0.25500000920E-02 0. -1.
    10030    2    1    2    0    0  0.00000000000E+00  0.00000000000E+00  0.73119961475E+02  0.71314019690E+03  0.70938171084E+03 0.  0.
        2    1    3    3  502    0 -0.24854386168E+03  0.53381351045E+01  0.29088863010E+03  0.38264702011E+03  0.25500000920E-02 0.  1.
       -2    1    3    3    0  502  0.24854386168E+03 -0.53381351045E+01 -0.21776866863E+03  0.33049317680E+03  0.25500000920E-02 0. -1.
</event>
<event>
 5   0  0.1092868E-02  0.7967088E+03  0.7818609E-02  0.9564793E-01
       -2   -1    0    0    0  501  0.00000000000E+00  0.00000000000E+00  0.93226905204E+02  0.93226905239E+02  0.25500000920E-02 0. -1.
        2   -1    0    0  501    0  0.00000000000E+00  0.00000000000E+00 -0.17021503698E+04  0.17021503698E+04  0.25500000920E-02 0.  1.
    10030    2    1    2    0    0  0.00000000000E+00  0.00000000000E+00 -0.16089234645E+04  0.17953772750E+04  0.79670875782E+03 0.  0.
        3    1    3    3  502    0 -0.10661210795E+01  0.54675884092E+02  0.84727754444E+02  0.10084340082E+03  0.10100000352E+00 0. -1.
       -3    1    3    3    0  502  0.10661210795E+01 -0.54675884092E+02 -0.16936512190E+04  0.16945338742E+04  0.10100000352E+00 0.  1.
</event>
<event>
 5   0  0.1106332E-02  0.7973333E+03  0.7818609E-02  0.9563885E-01
        2   -1    0    0  501    0  0.00000000000E+00  0.00000000000E+00  0.50777064747E+03  0.50777064748E+03  0.25500000920E-02 0.  1.
       -2   -1    0    0    0  501  0.00000000000E+00  0.00000000000E+00 -0.31300565003E+03  0.31300565004E+03  0.25500000920E-02 0. -1.
    10030    2    1    2    0    0  0.00000000000E+00  0.00000000000E+00  0.19476499744E+03  0.82077629752E+03  0.79733325927E+03 0.  0.
        1    1    3    3  502    0  0.10204767542E+03 -0.34657787222E+02  0.49249071699E+03  0.50414481712E+03  0.50400001928E-02 0.  1.
       -1    1    3    3    0  502 -0.10204767542E+03  0.34657787222E+02 -0.29772571955E+03  0.31663148040E+03  0.50400001928E-02 0. -1.
</event>
<event>
 5   0  0.1121480E-02  0.7518037E+03  0.7818609E-02  0.9632525E-01
       -2   -1    0    0    0  501  0.00000000000E+00  0.00000000000E+00  0.65720098246E+03  0.65720098247E+03  0.25500000920E-02 0.  1.
        2   -1    0    0  501    0  0.00000000000E+00  0.00000000000E+00 -0.21500609787E+03  0.21500609789E+03  0.25500000920E-02 0. -1.
    10030    2    1    2    0    0  0.00000000000E+00  0.00000000000E+00  0.44219488459E+03  0.87220708036E+03  0.75180374771E+03 0.  0.
        2    1    3    3  502    0  0.11574842040E+03  0.12199269891E+03  0.61112671073E+03  0.63384207180E+03  0.25500000920E-02 0.  1.
       -2    1    3    3    0  502 -0.11574842040E+03 -0.12199269891E+03 -0.16893182614E+03  0.23836500855E+03  0.25500000920E-02 0. -1.
</event>
<event>
 5   0  0.1092868E-02  0.7904013E+03  0.7818609E-02  0.9574016E-01
       -2   -1    0    0    0  501  0.00000000000E+00  0.00000000000E+00  0.12802140477E+03  0.12802140480E+03  0.25500000920E-02 0.  1.
        2   -1    0    0  501    0  0.00000000000E+00  0.00000000000E+00 -0.12199801333E+04  0.12199801333E+04  0.25500000920E-02 0. -1.
    10030    2    1    2    0    0  0.00000000000E+00  0.00000000000E+00 -0.10919587285E+04  0.13480015381E+04  0.79040134230E+03 0.  0.
        3    1    3    3  502    0 -0.32432736732E+03 -0.19779570840E+03 -0.36015275747E+03  0.52347053629E+03  0.10100000352E+00 0.  1.
       -3    1    3    3    0  502  0.32432736732E+03  0.19779570840E+03 -0.73180597108E+03  0.82453100182E+03  0.10100000352E+00 0. -1.
</event>
<event>
 5   0  0.6517392E-03  0.8138706E+03  0.7818609E-02  0.9540154E-01
       -1   -1    0    0    0  501  0.00000000000E+00  0.00000000000E+00  0.33067243372E+03  0.33067243376E+03  0.50400001928E-02 0.  1.
        1   -1    0    0  501    0  0.00000000000E+00  0.00000000000E+00 -0.50078668712E+03  0.50078668715E+03  0.50400001928E-02 0. -1.
    10030    2    1    2    0    0  0.00000000000E+00  0.00000000000E+00 -0.17011425341E+03  0.83145912090E+03  0.81387063500E+03 0.  0.
        3    1    3    3  502    0 -0.53867228765E+02  0.34536068870E+03  0.12782231711E+03  0.37217501070E+03  0.10100000352E+00 0.  1.
       -3    1    3    3    0  502  0.53867228765E+02 -0.34536068870E+03 -0.29793657052E+03  0.45928411021E+03  0.10100000352E+00 0. -1.
</event>
<event>
 5   0  0.1154714E-02  0.8275267E+03  0.7818609E-02  0.9521006E-01
        2   -1    0    0  501    0  0.00000000000E+00  0.00000000000E+00  0.19279538294E+04  0.19279538294E+04  0.25500000920E-02 0. -1.
       -2   -1    0    0    0  501  0.00000000000E+00  0.00000000000E+00 -0.88798859967E+02  0.88798860003E+02  0.25500000920E-02 0.  1.
    10030    2    1    2    0    0  0.00000000000E+00  0.00000000000E+00  0.18391549694E+04  0.20167526894E+04  0.82752668152E+03 0.  0.
        5    1    3    3  502    0  0.29386431761E+03 -0.22989165677E+03  0.48381199595E+03  0.61098490034E+03  0.46999998093E+01 0.  1.
       -5    1    3    3    0  502 -0.29386431761E+03  0.22989165677E+03  0.13553429735E+04  0.14057677891E+04  0.46999998093E+01 0. -1.
</event>
<event>
 5   0  0.6596225E-03  0.7984732E+03  0.7818609E-02  0.9562230E-01
        1   -1    0    0  501    0  0.00000000000E+00  0.00000000000E+00  0.42999619329E+03  0.42999619332E+03  0.50400001928E-02 0.  1.
       -1   -1    0    0    0  501  0.00000000000E+00  0.00000000000E+00 -0.37067742016E+03  0.37067742020E+03  0.50400001928E-02 0. -1.
    10030    2    1    2    0    0  0.00000000000E+00  0.00000000000E+00  0.59318773124E+02  0.80067361351E+03  0.79847324221E+03 0.  0.
        5    1    3    3  502    0 -0.46566820408E+02  0.18007384027E+03 -0.32454586283E+03  0.37409512666E+03  0.46999998093E+01 0. -1.
       -5    1    3    3    0  502  0.46566820408E+02 -0.18007384027E+03  0.38386463595E+03  0.42657848685E+03  0.46999998093E+01 0.  1.
</event>
<event>
 5   0  0.6517392E-03  0.8106887E+03  0.7818609E-02  0.9544673E-01
        1   -1    0    0  501    0  0.00000000000E+00  0.00000000000E+00  0.44258050020E+03  0.44258050023E+03  0.50400001928E-02 0.  1.
       -1   -1    0    0    0  501  0.00000000000E+00  0.00000000000E+00 -0.37124104212E+03  0.37124104215E+03  0.50400001928E-02 0. -1.
    10030    2    1    2    0    0  0.00000000000E+00  0.00000000000E+00  0.71339458085E+02  0.81382154238E+03  0.81068871003E+03 0.  0.
        3    1    3    3  502    0  0.25596925571E+03  0.17890616969E+03 -0.22374009728E+03  0.38417094991E+03  0.10100000352E+00 0. -1.
       -3    1    3    3    0  502 -0.25596925571E+03 -0.17890616969E+03  0.29507955536E+03  0.42965059248E+03  0.10100000352E+00 0.  1.
</event>
<event>
 5   0  0.1092868E-02  0.8003685E+03  0.7818609E-02  0.9559484E-01
        2   -1    0    0  501    0  0.00000000000E+00  0.00000000000E+00  0.23626341609E+04  0.23626341609E+04  0.25500000920E-02 0.  1.
       -2   -1    0    0    0  501  0.00000000000E+00  0.00000000000E+00 -0.67783416268E+02  0.67783416316E+02  0.25500000920E-02 0. -1.
    10030    2    1    2    0    0  0.00000000000E+00  0.00000000000E+00  0.22948507447E+04  0.24304175772E+04  0.80036845235E+03 0.  0.
        3    1    3    3  502    0 -0.17549003903E+03  0.35899344465E+03  0.12135622759E+04  0.12776566264E+04  0.10100000352E+00 0.  1.
       -3    1    3    3    0  502  0.17549003903E+03 -0.35899344465E+03  0.10812884687E+04  0.11527609509E+04  0.10100000352E+00 0. -1.
</event>
<event>
 5   0  0.6557679E-03  0.8006230E+03  0.7818609E-02  0.9559116E-01
        1   -1    0    0  501    0  0.00000000000E+00  0.00000000000E+00  0.87195303970E+03  0.87195303972E+03  0.50400001928E-02 0.  1.
       -1   -1    0    0    0  501  0.00000000000E+00  0.00000000000E+00 -0.18378204350E+03  0.18378204357E+03  0.50400001928E-02 0. -1.
    10030    2    1    2    0    0  0.00000000000E+00  0.00000000000E+00  0.68817099620E+03  0.10557350833E+04  0.80062303619E+03 0.  0.
        1    1    3    3  502    0 -0.35587920427E+03  0.11118159666E+03  0.15191654211E+03  0.40260401297E+03  0.50400001928E-02 0. -1.
       -1    1    3    3    0  502  0.35587920427E+03 -0.11118159666E+03  0.53625445409E+03  0.65313107032E+03  0.50400001928E-02 0.  1.
</event>
<event>
 5   0  0.6517392E-03  0.7998753E+03  0.7818609E-02  0.9560198E-01
        1   -1    0    0  501    0  0.00000000000E+00  0.00000000000E+00  0.11243120856E+04  0.11243120856E+04  0.50400001928E-02 0.  1.
       -1   -1    0    0    0  501  0.00000000000E+00  0.00000000000E+00 -0.14226486616E+03  0.14226486625E+03  0.50400001928E-02 0. -1.
    10030    2    1    2    0    0  0.00000000000E+00  0.00000000000E+00  0.98204721939E+03  0.12665769518E+04  0.79987526138E+03 0.  0.
        3    1    3    3  502    0 -0.26015613558E+03 -0.32008817929E+02  0.12710556843E+02  0.26242589004E+03  0.10100000352E+00 0. -1.
       -3    1    3    3    0  502  0.26015613558E+03  0.32008817929E+02  0.96933666255E+03  0.10041510618E+04  0.10100000352E+00 0.  1.
</event>
<event>
 5   0  0.6600401E-03  0.8071880E+03  0.7818609E-02  0.9549671E-01
       -1   -1    0    0    0  501  0.00000000000E+00  0.00000000000E+00  0.30431291234E+03  0.30431291238E+03  0.50400001928E-02 0.  1.
        1   -1    0    0  501    0  0.00000000000E+00  0.00000000000E+00 -0.53526518307E+03  0.53526518310E+03  0.50400001928E-02 0. -1.
    10030    2    1    2    0    0  0.00000000000E+00  0.00000000000E+00 -0.23095227074E+03  0.83957809548E+03  0.80718797504E+03 0.  0.
        2    1    3    3  502    0  0.14202511167E+03  0.17645109929E+03  0.23196677595E+03  0.32421398479E+03  0.25500000920E-02 0.  1.
       -2    1    3    3    0  502 -0.14202511167E+03 -0.17645109929E+03 -0.46291904669E+03  0.51536411068E+03  0.25500000920E-02 0. -1.
</event>
<event>
 5   0  0.6596225E-03  0.8024440E+03  0.7818609E-02  0.9556486E-01
       -1   -1    0    0    0  501  0.00000000000E+00  0.00000000000E+00  0.24829894103E+03  0.24829894108E+03  0.50400001928E-02 0. -1.
        1   -1    0    0  501    0  0.00000000000E+00  0.00000000000E+00 -0.64832767888E+03  0.64832767890E+03  0.50400001928E-02 0.  1.
    10030    2    1    2    0    0  0.00000000000E+00  0.00000000000E+00 -0.40002873785E+03  0.89662661998E+03  0.80244395727E+03 0.  0.
        5    1    3    3  502    0 -0.24075694229E+03 -0.29904901291E+03 -0.69886266706E+02  0.39025683550E+03  0.46999998093E+01 0.  1.
       -5    1    3    3    0  502  0.24075694229E+03  0.29904901291E+03 -0.33014247114E+03  0.50636978448E+03  0.46999998093E+01 0. -1.
</event>
<event>
 5   0  0.1119792E-02  0.8003233E+03  0.7818609E-02  0.9559549E-01
       -2   -1    0    0    0  501  0.00000000000E+00  0.00000000000E+00  0.21214319612E+03  0.21214319614E+03  0.25500000920E-02 0. -1.
        2   -1    0    0  501    0  0.00000000000E+00  0.00000000000E+00 -0.75481721624E+03  0.75481721624E+03  0.25500000920E-02 0.  1.
    10030    2    1    2    0    0  0.00000000000E+00  0.00000000000E+00 -0.54267402011E+03  0.96696041238E+03  0.80032327656E+03 0.  0.
        4    1    3    3  502    0 -0.33941074164E+03  0.14912290339E+03 -0.45333417733E+03  0.58561999718E+03  0.12699999809E+01 0.  1.
       -4    1    3    3    0  502  0.33941074164E+03 -0.14912290339E+03 -0.89339842783E+02  0.38134041520E+03  0.12699999809E+01 0. -1.
</event>
<event>
 5   0  0.1106332E-02  0.8119242E+03  0.7818609E-02  0.9542916E-01
        2   -1    0    0  501    0  0.00000000000E+00  0.00000000000E+00  0.41241668763E+03  0.41241668764E+03  0.25500000920E-02 0.  1.
       -2   -1    0    0    0  501  0.00000000000E+00  0.00000000000E+00 -0.39960856993E+03  0.39960856994E+03  0.25500000920E-02 0. -1.
    10030    2    1    2    0    0  0.00000000000E+00  0.00000000000E+00  0.12808117700E+02  0.81202525758E+03  0.81192423973E+03 0.  0.
        1    1    3    3  502    0 -0.30903128234E+03  0.18647166958E+01  0.26968846372E+03  0.41016542775E+03  0.50400001928E-02 0.  1.
       -1    1    3    3    0  502  0.30903128234E+03 -0.18647166958E+01 -0.25688034602E+03  0.40185982983E+03  0.50400001928E-02 0. -1.
</event>
<event>
 5   0  0.6551489E-03  0.7995660E+03  0.7818609E-02  0.9560646E-01
       -1   -1    0    0    0  501  0.00000000000E+00  0.00000000000E+00  0.11118206002E+03  0.11118206013E+03  0.50400001928E-02 0.  1.
        1   -1    0    0  501    0  0.00000000000E+00  0.00000000000E+00 -0.14375200027E+04  0.14375200027E+04  0.50400001928E-02 0. -1.
    10030    2    1    2    0    0  0.00000000000E+00  0.00000000000E+00 -0.13263379427E+04  0.15487020628E+04  0.79956597055E+03 0.  0.
        4    1    3    3  502    0 -0.37376564698E+03  0.63930033244E+02 -0.41788151808E+03  0.56428218479E+03  0.12699999809E+01 0. -1.
       -4    1    3    3    0  502  0.37376564698E+03 -0.63930033244E+02 -0.90845642461E+03  0.98441987806E+03  0.12699999809E+01 0.  1.
</event>
<event>
 5   0  0.1121480E-02  0.8024386E+03  0.7818609E-02  0.9556494E-01
       -2   -1    0    0    0  501  0.00000000000E+00  0.00000000000E+00  0.69316458138E+02  0.69316458184E+02  0.25500000920E-02 0. -1.
        2   -1    0    0  501    0  0.00000000000E+00  0.00000000000E+00 -0.23223477641E+04  0.23223477641E+04  0.25500000920E-02 0.  1.
    10030    2    1    2    0    0  0.00000000000E+00  0.00000000000E+00 -0.22530313060E+04  0.23916642223E+04  0.80243858738E+03 0.  0.
        2    1    3    3  502    0  0.18181921450E+02  0.82437200902E+02  0.42546991829E+02  0.94534231262E+02  0.25500000920E-02 0. -1.
       -2    1    3    3    0  502 -0.18181921450E+02 -0.82437200902E+02 -0.22955782978E+04  0.22971299910E+04  0.25500000920E-02 0.  1.
</event>
<event>
 5   0  0.6596225E-03  0.8001376E+03  0.7818609E-02  0.9559818E-01
       -1   -1    0    0    0  501  0.00000000000E+00  0.00000000000E+00  0.22937036203E+03  0.22937036209E+03  0.50400001928E-02 0.  1.
        1   -1    0    0  501    0  0.00000000000E+00  0.00000000000E+00 -0.69780174772E+03  0.69780174774E+03  0.50400001928E-02 0. -1.
    10030    2    1    2    0    0  0.00000000000E+00  0.00000000000E+00 -0.46843138569E+03  0.92717210982E+03  0.80013758701E+03 0.  0.
        5    1    3    3  502    0  0.37119008058E+03 -0.14601199208E+03 -0.19885203121E+03  0.44571941630E+03  0.46999998093E+01 0.  1.
       -5    1    3    3    0  502 -0.37119008058E+03  0.14601199208E+03 -0.26957935447E+03  0.48145269353E+03  0.46999998093E+01 0. -1.
</event>
<event>
 5   0  0.1121480E-02  0.7752221E+03  0.7818609E-02  0.9596591E-01
        2   -1    0    0  501    0  0.00000000000E+00  0.00000000000E+00  0.10024748408E+04  0.10024748408E+04  0.25500000920E-02 0.  1.
       -2   -1    0    0    0  501  0.00000000000E+00  0.00000000000E+00 -0.14987142140E+03  0.14987142142E+03  0.25500000920E-02 0. -1.
    10030    2    1    2    0    0  0.00000000000E+00  0.00000000000E+00  0.85260341939E+03  0.11523462622E+04  0.77522210837E+03 0.  0.
        2    1    3    3  502    0  0.86512945183E+02  0.89548527223E+02  0.97193812608E+03  0.97988119144E+03  0.25500000920E-02 0.  1.
       -2    1    3    3    0  502 -0.86512945183E+02 -0.89548527223E+02 -0.11933470669E+03  0.17246507078E+03  0.25500000920E-02 0. -1.
</event>
<event>
 5   0  0.6600401E-03  0.7963202E+03  0.7818609E-02  0.9565359E-01
        1   -1    0    0  501    0  0.00000000000E+00  0.00000000000E+00  0.81389024683E+03  0.81389024685E+03  0.50400001928E-02 0. -1.
       -1   -1    0    0    0  501  0.00000000000E+00  0.00000000000E+00 -0.19478234731E+03  0.19478234737E+03  0.50400001928E-02 0.  1.
    10030    2    1    2    0    0  0.00000000000E+00  0.00000000000E+00  0.61910789952E+03  0.10086725942E+04  0.79632016870E+03 0.  0.
        2    1    3    3  502    0 -0.14237137403E+03 -0.35761396211E+03  0.43856820334E+03  0.58352328404E+03  0.25500000920E-02 0. -1.
       -2    1    3    3    0  502  0.14237137403E+03  0.35761396211E+03  0.18053969619E+03  0.42514931017E+03  0.25500000920E-02 0.  1.
</event>
<event>
 5   0  0.6600401E-03  0.8169027E+03  0.7818609E-02  0.9535868E-01
        1   -1    0    0  501    0  0.00000000000E+00  0.00000000000E+00  0.84770738036E+03  0.84770738038E+03  0.50400001928E-02 0. -1.
       -1   -1    0    0    0  501  0.00000000000E+00  0.00000000000E+00 -0.19680434922E+03  0.19680434928E+03  0.50400001928E-02 0.  1.
    10030    2    1    2    0    0  0.00000000000E+00  0.00000000000E+00  0.65090303115E+03  0.10445117297E+04  0.81690268542E+03 0.  0.
        2    1    3    3  502    0 -0.33443410777E+03 -0.32507742224E+02  0.62238316514E+03  0.70729324187E+03  0.25500000920E-02 0. -1.
       -2    1    3    3    0  502  0.33443410777E+03  0.32507742224E+02  0.28519866006E+02  0.33721848779E+03  0.25500000920E-02 0.  1.
</event>
<event>
 5   0  0.6600401E-03  0.8098075E+03  0.7818609E-02  0.9545929E-01
        1   -1    0    0  501    0  0.00000000000E+00  0.00000000000E+00  0.22456775343E+03  0.22456775348E+03  0.50400001928E-02 0. -1.
       -1   -1    0    0    0  501  0.00000000000E+00  0.00000000000E+00 -0.73005603790E+03  0.73005603792E+03  0.50400001928E-02 0.  1.
    10030    2    1    2    0    0  0.00000000000E+00  0.00000000000E+00 -0.50548828448E+03  0.95462379140E+03  0.80980749402E+03 0.  0.
        2    1    3    3  502    0  0.23347262426E+03 -0.24657506515E+03 -0.51272401341E+03  0.61497531899E+03  0.25500000920E-02 0. -1.
       -2    1    3    3    0  502 -0.23347262426E+03  0.24657506515E+03  0.72357289298E+01  0.33964847241E+03  0.25500000920E-02 0.  1.
</event>
<event>
 5   0  0.1121480E-02  0.7982105E+03  0.7818609E-02  0.9562611E-01
        2   -1    0    0  501    0  0.00000000000E+00  0.00000000000E+00  0.93247384857E+03  0.93247384858E+03  0.25500000920E-02 0.  1.
       -2   -1    0    0    0  501  0.00000000000E+00  0.00000000000E+00 -0.17081980811E+03  0.17081980813E+03  0.25500000920E-02 0. -1.
    10030    2    1    2    0    0  0.00000000000E+00  0.00000000000E+00  0.76165404046E+03  0.11032936567E+04  0.79821050830E+03 0.  0.
        2    1    3    3  502    0 -0.25270522079E+03 -0.24422885310E+03  0.64227044272E+03  0.73213317293E+03  0.25500000920E-02 0.  1.
       -2    1    3    3    0  502  0.25270522079E+03  0.24422885310E+03  0.11938359774E+03  0.37116048377E+03  0.25500000920E-02 0. -1.
</event>
<event>
 5   0  0.6596225E-03  0.8039984E+03  0.7818609E-02  0.9554248E-01
       -1   -1    0    0    0  501  0.00000000000E+00  0.00000000000E+00  0.33822298104E+03  0.33822298108E+03  0.50400001928E-02 0. -1.
        1   -1    0    0  501    0  0.00000000000E+00  0.00000000000E+00 -0.47780126365E+03  0.47780126368E+03  0.50400001928E-02 0.  1.
    10030    2    1    2    0    0  0.00000000000E+00  0.00000000000E+00 -0.13957828261E+03  0.81602424475E+03  0.80399842727E+03 0.  0.
        5    1    3    3  502    0  0.28562081711E+03 -0.21613072599E+03  0.11539412206E+03  0.37633712983E+03  0.46999998093E+01 0. -1.
       -5    1    3    3    0  502 -0.28562081711E+03  0.21613072599E+03 -0.25497240468E+03  0.43968711492E+03  0.46999998093E+01 0.  1.
</event>
<event>
 5   0  0.1154714E-02  0.8451827E+03  0.7818609E-02  0.9496825E-01
        2   -1    0    0  501    0  0.00000000000E+00  0.00000000000E+00  0.20613366257E+04  0.20613366257E+04  0.25500000920E-02 0. -1.
       -2   -1    0    0    0  501  0.00000000000E+00  0.00000000000E+00 -0.86634786367E+02  0.86634786404E+02  0.25500000920E-02 0.  1.
    10030    2    1    2    0    0  0.00000000000E+00  0.00000000000E+00  0.19747018393E+04  0.21479714121E+04  0.84518272164E+03 0.  0.
        5    1    3    3  502    0 -0.34863578774E+02  0.23836628480E+03  0.10504172505E+03  0.26284940337E+03  0.46999998093E+01 0.  1.
       -5    1    3    3    0  502  0.34863578774E+02 -0.23836628480E+03  0.18696601143E+04  0.18851220087E+04  0.46999998093E+01 0. -1.
</event>
<event>
 5   0  0.1154714E-02  0.8003283E+03  0.7818609E-02  0.9559542E-01
       -2   -1    0    0    0  501  0.00000000000E+00  0.00000000000E+00  0.44804586146E+03  0.44804586146E+03  0.25500000920E-02 0. -1.
        2   -1    0    0  501    0  0.00000000000E+00  0.00000000000E+00 -0.35739945333E+03  0.35739945333E+03  0.25500000920E-02 0.  1.
    10030    2    1    2    0    0  0.00000000000E+00  0.00000000000E+00  0.90646408133E+02  0.80544531480E+03  0.80032829753E+03 0.  0.
        5    1    3    3  502    0 -0.87828562085E+02 -0.31730947684E+03 -0.18352924112E+03  0.37696715077E+03  0.46999998093E+01 0.  1.
       -5    1    3    3    0  502  0.87828562085E+02  0.31730947684E+03  0.27417564925E+03  0.42847816403E+03  0.46999998093E+01 0. -1.
</event>
<event>
 5   0  0.1119792E-02  0.7891141E+03  0.7818609E-02  0.9575909E-01
        2   -1    0    0  501    0  0.00000000000E+00  0.00000000000E+00  0.36269228517E+03  0.36269228518E+03  0.25500000920E-02 0. -1.
       -2   -1    0    0    0  501  0.00000000000E+00  0.00000000000E+00 -0.42922138054E+03  0.42922138055E+03  0.25500000920E-02 0.  1.
    10030    2    1    2    0    0  0.00000000000E+00  0.00000000000E+00 -0.66529095369E+02  0.79191366574E+03  0.78911414475E+03 0.  0.
        4    1    3    3  502    0 -0.54302378875E+02  0.38249571522E+03  0.47156822401E+02  0.38920059007E+03  0.12699999809E+01 0.  1.
       -4    1    3    3    0  502  0.54302378875E+02 -0.38249571522E+03 -0.11368591777E+03  0.40271307566E+03  0.12699999809E+01 0. -1.
</event>
<event>
 5   0  0.6551489E-03  0.7673748E+03  0.7818609E-02  0.9608480E-01
        1   -1    0    0  501    0  0.00000000000E+00  0.00000000000E+00  0.30112041123E+03  0.30112041127E+03  0.50400001928E-02 0.  1.
       -1   -1    0    0    0  501  0.00000000000E+00  0.00000000000E+00 -0.48889421882E+03  0.48889421885E+03  0.50400001928E-02 0. -1.
    10030    2    1    2    0    0  0.00000000000E+00  0.00000000000E+00 -0.18777380759E+03  0.79001463013E+03  0.76737481910E+03 0.  0.
        4    1    3    3  502    0  0.18528819484E+03  0.32911611353E+03 -0.24326596726E+02  0.37847394566E+03  0.12699999809E+01 0.  1.
       -4    1    3    3    0  502 -0.18528819484E+03 -0.32911611353E+03 -0.16344721087E+03  0.41154068447E+03  0.12699999809E+01 0. -1.
</event>
<event>
 5   0  0.6600401E-03  0.8032888E+03  0.7818609E-02  0.9555269E-01
       -1   -1    0    0    0  501  0.00000000000E+00  0.00000000000E+00  0.23084406328E+03  0.23084406334E+03  0.50400001928E-02 0.  1.
        1   -1    0    0  501    0  0.00000000000E+00  0.00000000000E+00 -0.69881900738E+03  0.69881900740E+03  0.50400001928E-02 0. -1.
    10030    2    1    2    0    0  0.00000000000E+00  0.00000000000E+00 -0.46797494410E+03  0.92966307074E+03  0.80328878791E+03 0.  0.
        2    1    3    3  502    0  0.25046109977E+02  0.39856607199E+03 -0.18439794626E+03  0.43986909866E+03  0.25500000920E-02 0.  1.
       -2    1    3    3    0  502 -0.25046109977E+02 -0.39856607199E+03 -0.28357699785E+03  0.48979397208E+03  0.25500000920E-02 0. -1.
</event>
<event>
 5   0  0.4385875E-03  0.7990700E+03  0.7818609E-02  0.9561364E-01
       -3   -1    0    0    0  501  0.00000000000E+00  0.00000000000E+00  0.82084215579E+02  0.82084277716E+02  0.10100000352E+00 0. -1.
        3   -1    0    0  501    0  0.00000000000E+00  0.00000000000E+00 -0.19446877374E+04  0.19446877400E+04  0.10100000352E+00 0.  1.
    10030    2    1    2    0    0  0.00000000000E+00  0.00000000000E+00 -0.18626035218E+04  0.20267720177E+04  0.79907004222E+03 0.  0.
        1    1    3    3  502    0 -0.14478840311E+03  0.33979987156E+03 -0.13176417352E+04  0.13684324524E+04  0.50400001928E-02 0.  1.
       -1    1    3    3    0  502  0.14478840311E+03 -0.33979987156E+03 -0.54496178657E+03  0.65833956530E+03  0.50400001928E-02 0. -1.
</event>
<event>
 5   0  0.1121480E-02  0.7977761E+03  0.7818609E-02  0.9563242E-01
        2   -1    0    0  501    0  0.00000000000E+00  0.00000000000E+00  0.11316398887E+04  0.11316398887E+04  0.25500000920E-02 0. -1.
       -2   -1    0    0    0  501  0.00000000000E+00  0.00000000000E+00 -0.14060274579E+03  0.14060274581E+03  0.25500000920E-02 0.  1.
    10030    2    1    2    0    0  0.00000000000E+00  0.00000000000E+00  0.99103714287E+03  0.12722426345E+04  0.79777609792E+03 0.  0.
        2    1    3    3  502    0  0.15145761143E+03 -0.36899708815E+03  0.48967729036E+03  0.63157114233E+03  0.25500000920E-02 0.  1.
       -2    1    3    3    0  502 -0.15145761143E+03  0.36899708815E+03  0.50135985251E+03  0.64067149214E+03  0.25500000920E-02 0. -1.
</event>
<event>
 5   0  0.6600401E-03  0.8001707E+03  0.7818609E-02  0.9559770E-01
        1   -1    0    0  501    0  0.00000000000E+00  0.00000000000E+00  0.29057126099E+03  0.29057126103E+03  0.50400001928E-02 0.  1.
       -1   -1    0    0    0  501  0.00000000000E+00  0.00000000000E+00 -0.55087445237E+03  0.55087445239E+03  0.50400001928E-02 0. -1.
    10030    2    1    2    0    0  0.00000000000E+00  0.00000000000E+00 -0.26030319138E+03  0.84144571342E+03  0.80017069253E+03 0.  0.
        2    1    3    3  502    0  0.38654201012E+03  0.85902674301E+02 -0.19032463981E+03  0.43933752807E+03  0.25500000920E-02 0.  1.
       -2    1    3    3    0  502 -0.38654201012E+03 -0.85902674301E+02 -0.69978551573E+02  0.40210818535E+03  0.25500000920E-02 0. -1.
</event>
<event>
 5   0  0.1092868E-02  0.7983501E+03  0.7818609E-02  0.9562408E-01
        2   -1    0    0  501    0  0.00000000000E+00  0.00000000000E+00  0.17322238430E+04  0.17322238430E+04  0.25500000920E-02 0.  1.
       -2   -1    0    0    0  501  0.00000000000E+00  0.00000000000E+00 -0.91986210104E+02  0.91986210139E+02  0.25500000920E-02 0. -1.
    10030    2    1    2    0    0  0.00000000000E+00  0.00000000000E+00  0.16402376329E+04  0.18242100531E+04  0.79835006457E+03 0.  0.
        3    1    3    3  502    0  0.15757701718E+03  0.94398605198E+02  0.16299131148E+04  0.16402311987E+04  0.10100000352E+00 0.  1.
       -3    1    3    3    0  502 -0.15757701718E+03 -0.94398605198E+02  0.10324518042E+02  0.18397885444E+03  0.10100000352E+00 0. -1.
</event>
<event>
 5   0  0.1154714E-02  0.7935247E+03  0.7818609E-02  0.9569437E-01
       -2   -1    0    0    0  501  0.00000000000E+00  0.00000000000E+00  0.10564358720E+03  0.10564358723E+03  0.25500000920E-02 0. -1.
        2   -1    0    0  501    0  0.00000000000E+00  0.00000000000E+00 -0.14901080232E+04  0.14901080232E+04  0.25500000920E-02 0.  1.
    10030    2    1    2    0    0  0.00000000000E+00  0.00000000000E+00 -0.13844644360E+04  0.15957516104E+04  0.79352468622E+03 0.  0.
        5    1    3    3  502    0  0.61095416195E+02  0.30923711581E+03 -0.20776861425E+03  0.37755811571E+03  0.46999998093E+01 0. -1.
       -5    1    3    3    0  502 -0.61095416195E+02 -0.30923711581E+03 -0.11766958217E+04  0.12181934947E+04  0.46999998093E+01 0.  1.
</event>
<event>
 5   0  0.6596225E-03  0.8025805E+03  0.7818609E-02  0.9556289E-01
       -1   -1    0    0    0  501  0.00000000000E+00  0.00000000000E+00  0.18228236602E+03  0.18228236609E+03  0.50400001928E-02 0.  1.
        1   -1    0    0  501    0  0.00000000000E+00  0.00000000000E+00 -0.88343089690E+03  0.88343089692E+03  0.50400001928E-02 0. -1.
    10030    2    1    2    0    0  0.00000000000E+00  0.00000000000E+00 -0.70114853088E+03  0.10657132630E+04  0.80258052343E+03 0.  0.
        5    1    3    3  502    0  0.23883002327E+03  0.19230085191E+03 -0.68861783384E+01  0.30673915158E+03  0.46999998093E+01 0. -1.
       -5    1    3    3    0  502 -0.23883002327E+03 -0.19230085191E+03 -0.69426235255E+03  0.75897411143E+03  0.46999998093E+01 0.  1.
</event>
<event>
 5   0  0.6517392E-03  0.8036566E+03  0.7818609E-02  0.9554739E-01
        1   -1    0    0  501    0  0.00000000000E+00  0.00000000000E+00  0.31323368662E+03  0.31323368666E+03  0.50400001928E-02 0. -1.
       -1   -1    0    0    0  501  0.00000000000E+00  0.00000000000E+00 -0.51548085513E+03  0.51548085515E+03  0.50400001928E-02 0.  1.
    10030    2    1    2    0    0  0.00000000000E+00  0.00000000000E+00 -0.20224716851E+03  0.82871454181E+03  0.80365656511E+03 0.  0.
        3    1    3    3  502    0 -0.38853152070E+03  0.93212746135E+02 -0.14512247351E+03  0.42509516715E+03  0.10100000352E+00 0.  1.
       -3    1    3    3    0  502  0.38853152070E+03 -0.93212746135E+02 -0.57124694996E+02  0.40361937466E+03  0.10100000352E+00 0. -1.
</event>
<event>
 5   0  0.1092868E-02  0.8017248E+03  0.7818609E-02  0.9557524E-01
        2   -1    0    0  501    0  0.00000000000E+00  0.00000000000E+00  0.23480364139E+03  0.23480364140E+03  0.25500000920E-02 0. -1.
       -2   -1    0    0    0  501  0.00000000000E+00  0.00000000000E+00 -0.68436197141E+03  0.68436197142E+03  0.25500000920E-02 0.  1.
    10030    2    1    2    0    0  0.00000000000E+00  0.00000000000E+00 -0.44955833003E+03  0.91916561282E+03  0.80172484787E+03 0.  0.
        3    1    3    3  502    0 -0.24136981983E+03 -0.24731098514E+03 -0.45768377194E+03  0.57349503799E+03  0.10100000352E+00 0.  1.
       -3    1    3    3    0  502  0.24136981983E+03  0.24731098514E+03  0.81254419196E+01  0.34567057483E+03  0.10100000352E+00 0. -1.
</event>
<event>
 5   0  0.1106332E-02  0.8004032E+03  0.7818609E-02  0.9559434E-01
        2   -1    0    0  501    0  0.00000000000E+00  0.00000000000E+00  0.48060951127E+03  0.48060951128E+03  0.25500000920E-02 0.  1.
       -2   -1    0    0    0  501  0.00000000000E+00  0.00000000000E+00 -0.33324629173E+03  0.33324629174E+03  0.25500000920E-02 0. -1.
    10030    2    1    2    0    0  0.00000000000E+00  0.00000000000E+00  0.14736321954E+03  0.81385580302E+03  0.80040324190E+03 0.  0.
        1    1    3    3  502    0 -0.30768287798E+03 -0.25111142972E+03  0.12386322383E+03  0.41601418459E+03  0.50400001928E-02 0. -1.
       -1    1    3    3    0  502  0.30768287798E+03  0.25111142972E+03  0.23499995715E+02  0.39784161844E+03  0.50400001928E-02 0.  1.
</event>
<event>
 5   0  0.1106332E-02  0.8030011E+03  0.7818609E-02  0.9555683E-01
        2   -1    0    0  501    0  0.00000000000E+00  0.00000000000E+00  0.11215692325E+04  0.11215692325E+04  0.25500000920E-02 0. -1.
       -2   -1    0    0    0  501  0.00000000000E+00  0.00000000000E+00 -0.14372959411E+03  0.14372959414E+03  0.25500000920E-02 0.  1.
    10030    2    1    2    0    0  0.00000000000E+00  0.00000000000E+00  0.97783963842E+03  0.12652988267E+04  0.80300109734E+03 0.  0.
        1    1    3    3  502    0  0.16191023267E+03  0.54771080895E+02 -0.83538695185E+02  0.19024591550E+03  0.50400001928E-02 0.  1.
       -1    1    3    3    0  502 -0.16191023267E+03 -0.54771080895E+02  0.10613783336E+04  0.10750529112E+04  0.50400001928E-02 0. -1.
</event>
<event>
 5   0  0.1121480E-02  0.7998821E+03  0.7818609E-02  0.9560188E-01
       -2   -1    0    0    0  501  0.00000000000E+00  0.00000000000E+00  0.29057175039E+03  0.29057175040E+03  0.25500000920E-02 0. -1.
        2   -1    0    0  501    0  0.00000000000E+00  0.00000000000E+00 -0.55047617655E+03  0.55047617655E+03  0.25500000920E-02 0.  1.
    10030    2    1    2    0    0  0.00000000000E+00  0.00000000000E+00 -0.25990442616E+03  0.84104792696E+03  0.79988205675E+03 0.  0.
        2    1    3    3  502    0  0.24914741655E+03 -0.17203470217E+03 -0.40470957944E+03  0.50543072485E+03  0.25500000920E-02 0.  1.
       -2    1    3    3    0  502 -0.24914741655E+03  0.17203470217E+03  0.14480515328E+03  0.33561720211E+03  0.25500000920E-02 0. -1.
</event>
<event>
 5   0  0.6557679E-03  0.7964710E+03  0.7818609E-02  0.9565139E-01
       -1   -1    0    0    0  501  0.00000000000E+00  0.00000000000E+00  0.53243094221E+03  0.53243094224E+03  0.50400001928E-02 0. -1.
        1   -1    0    0  501    0  0.00000000000E+00  0.00000000000E+00 -0.29786309336E+03  0.29786309340E+03  0.50400001928E-02 0.  1.
    10030    2    1    2    0    0  0.00000000000E+00  0.00000000000E+00  0.23456784886E+03  0.83029403564E+03  0.79647103519E+03 0.  0.
        1    1    3    3  502    0  0.83247836496E+02  0.37854064635E+03  0.21264709063E+03  0.44208823598E+03  0.50400001928E-02 0.  1.
       -1    1    3    3    0  502 -0.83247836496E+02 -0.37854064635E+03  0.21920758233E+02  0.38820579965E+03  0.50400001928E-02 0. -1.
</event>
<event>
 5   0  0.1106332E-02  0.8143644E+03  0.7818609E-02  0.9539455E-01
       -2   -1    0    0    0  501  0.00000000000E+00  0.00000000000E+00  0.29851010449E+03  0.29851010450E+03  0.25500000920E-02 0. -1.
        2   -1    0    0  501    0  0.00000000000E+00  0.00000000000E+00 -0.55541620950E+03  0.55541620951E+03  0.25500000920E-02 0.  1.
    10030    2    1    2    0    0  0.00000000000E+00  0.00000000000E+00 -0.25690610501E+03  0.85392631401E+03  0.81436441657E+03 0.  0.
        1    1    3    3  502    0  0.15491275485E+03  0.69473204912E+02  0.25962481416E+03  0.31020885218E+03  0.50400001928E-02 0. -1.
       -1    1    3    3    0  502 -0.15491275485E+03 -0.69473204912E+02 -0.51653091917E+03  0.54371746183E+03  0.50400001928E-02 0.  1.
</event>
<event>
 5   0  0.1119792E-02  0.7976526E+03  0.7818609E-02  0.9563421E-01
        2   -1    0    0  501    0  0.00000000000E+00  0.00000000000E+00  0.13130323383E+04  0.13130323383E+04  0.25500000920E-02 0.  1.
       -2   -1    0    0    0  501  0.00000000000E+00  0.00000000000E+00 -0.12114128088E+03  0.12114128091E+03  0.25500000920E-02 0. -1.
    10030    2    1    2    0    0  0.00000000000E+00  0.00000000000E+00  0.11918910574E+04  0.14341736192E+04  0.79765260440E+03 0.  0.
        4    1    3    3  502    0 -0.12253218878E+03 -0.13625508541E+03  0.12328544172E+04  0.12463992990E+04  0.12699999809E+01 0.  1.
       -4    1    3    3    0  502  0.12253218878E+03  0.13625508541E+03 -0.40963359798E+02  0.18777432022E+03  0.12699999809E+01 0. -1.
</event>
<event>
 5   0  0.1092868E-02  0.8001212E+03  0.7818609E-02  0.9559842E-01
       -2   -1    0    0    0  501  0.00000000000E+00  0.00000000000E+00  0.36206930342E+03  0.36206930343E+03  0.25500000920E-02 0. -1.
        2   -1    0    0  501    0  0.00000000000E+00  0.00000000000E+00 -0.44203823553E+03  0.44203823553E+03  0.25500000920E-02 0.  1.
    10030    2    1    2    0    0  0.00000000000E+00  0.00000000000E+00 -0.79968932105E+02  0.80410753897E+03  0.80012118090E+03 0.  0.
        3    1    3    3  502    0  0.38585838266E+03  0.72763776215E+02 -0.11696378784E+03  0.40970940490E+03  0.10100000352E+00 0.  1.
       -3    1    3    3    0  502 -0.38585838266E+03 -0.72763776215E+02  0.36994855733E+02  0.39439813406E+03  0.10100000352E+00 0. -1.
</event>
<event>
 5   0  0.6517392E-03  0.8031608E+03  0.7818609E-02  0.9555453E-01
        1   -1    0    0  501    0  0.00000000000E+00  0.00000000000E+00  0.53520943341E+03  0.53520943344E+03  0.50400001928E-02 0.  1.
       -1   -1    0    0    0  501  0.00000000000E+00  0.00000000000E+00 -0.30131534241E+03  0.30131534245E+03  0.50400001928E-02 0. -1.
    10030    2    1    2    0    0  0.00000000000E+00  0.00000000000E+00  0.23389409101E+03  0.83652477588E+03  0.80316079017E+03 0.  0.
        3    1    3    3  502    0 -0.15640266326E+03 -0.13951160860E+03  0.47372841446E+03  0.51801921092E+03  0.10100000352E+00 0.  1.
       -3    1    3    3    0  502  0.15640266326E+03  0.13951160860E+03 -0.23983432345E+03  0.31850556497E+03  0.10100000352E+00 0. -1.
</event>
<event>
 5   0  0.4385875E-03  0.7951159E+03  0.7818609E-02  0.9567114E-01
       -4   -1    0    0    0  501  0.00000000000E+00  0.00000000000E+00  0.28404785425E+03  0.28405069337E+03  0.12699999809E+01 0. -1.
        4   -1    0    0  501    0  0.00000000000E+00  0.00000000000E+00 -0.55642220979E+03  0.55642365914E+03  0.12699999809E+01 0.  1.
    10030    2    1    2    0    0  0.00000000000E+00  0.00000000000E+00 -0.27237435554E+03  0.84047435251E+03  0.79511593347E+03 0.  0.
        3    1    3    3  502    0  0.21497080274E+03 -0.22545200245E+03 -0.39728248144E+03  0.50485090047E+03  0.10100000352E+00 0.  1.
       -3    1    3    3    0  502 -0.21497080274E+03  0.22545200245E+03  0.12490812590E+03  0.33562345204E+03  0.10100000352E+00 0. -1.
</event>
<event>
 5   0  0.1106332E-02  0.8550109E+03  0.7818609E-02  0.9483636E-01
        2   -1    0    0  501    0  0.00000000000E+00  0.00000000000E+00  0.24743058117E+04  0.24743058117E+04  0.25500000920E-02 0.  1.
       -2   -1    0    0    0  501  0.00000000000E+00  0.00000000000E+00 -0.73863517163E+02  0.73863517207E+02  0.25500000920E-02 0. -1.
    10030    2    1    2    0    0  0.00000000000E+00  0.00000000000E+00  0.24004422946E+04  0.25481693289E+04  0.85501094695E+03 0.  0.
        1    1    3    3  502    0 -0.38378072245E+03 -0.18738817066E+03  0.12566862182E+04  0.13272762412E+04  0.50400001928E-02 0.  1.
       -1    1    3    3    0  502  0.38378072245E+03  0.18738817066E+03  0.11437560764E+04  0.12208930878E+04  0.50400001928E-02 0. -1.
</event>
<event>
 5   0  0.1119792E-02  0.8042575E+03  0.7818609E-02  0.9553875E-01
       -2   -1    0    0    0  501  0.00000000000E+00  0.00000000000E+00  0.10310739715E+03  0.10310739718E+03  0.25500000920E-02 0.  1.
        2   -1    0    0  501    0  0.00000000000E+00  0.00000000000E+00 -0.15683408988E+04  0.15683408988E+04  0.25500000920E-02 0. -1.
    10030    2    1    2    0    0  0.00000000000E+00  0.00000000000E+00 -0.14652335016E+04  0.16714482959E+04  0.80425754068E+03 0.  0.
        4    1    3    3  502    0 -0.34948359523E+03  0.57094147403E+02 -0.33661651893E+03  0.48858041172E+03  0.12699999809E+01 0. -1.
       -4    1    3    3    0  502  0.34948359523E+03 -0.57094147403E+02 -0.11286169827E+04  0.11828678842E+04  0.12699999809E+01 0.  1.
</event>
<event>
 5   0  0.1092868E-02  0.8011751E+03  0.7818609E-02  0.9558318E-01
       -2   -1    0    0    0  501  0.00000000000E+00  0.00000000000E+00  0.37089635394E+03  0.37089635395E+03  0.25500000920E-02 0. -1.
        2   -1    0    0  501    0  0.00000000000E+00  0.00000000000E+00 -0.43265557518E+03  0.43265557518E+03  0.25500000920E-02 0.  1.
    10030    2    1    2    0    0  0.00000000000E+00  0.00000000000E+00 -0.61759221238E+02  0.80355192913E+03  0.80117507537E+03 0.  0.
        3    1    3    3  502    0  0.24216212923E+03 -0.21015188795E+03 -0.27172542191E+03  0.42028684010E+03  0.10100000352E+00 0.  1.
       -3    1    3    3    0  502 -0.24216212923E+03  0.21015188795E+03  0.20996620067E+03  0.38326508903E+03  0.10100000352E+00 0. -1.
</event>
<event>
 5   0  0.6557679E-03  0.8103203E+03  0.7818609E-02  0.9545198E-01
       -1   -1    0    0    0  501  0.00000000000E+00  0.00000000000E+00  0.31624620096E+03  0.31624620100E+03  0.50400001928E-02 0.  1.
        1   -1    0    0  501    0  0.00000000000E+00  0.00000000000E+00 -0.51907258305E+03  0.51907258307E+03  0.50400001928E-02 0. -1.
    10030    2    1    2    0    0  0.00000000000E+00  0.00000000000E+00 -0.20282638209E+03  0.83531878407E+03  0.81032026369E+03 0.  0.
        1    1    3    3  502    0 -0.28786708888E+03  0.36657745254E+01 -0.39529379320E+03  0.48901746567E+03  0.50400001928E-02 0. -1.
       -1    1    3    3    0  502  0.28786708888E+03 -0.36657745254E+01  0.19246741111E+03  0.34630131840E+03  0.50400001928E-02 0.  1.
</event>
<event>
 5   0  0.1121480E-02  0.7938646E+03  0.7818609E-02  0.9568941E-01
        2   -1    0    0  501    0  0.00000000000E+00  0.00000000000E+00  0.16111691929E+04  0.16111691929E+04  0.25500000920E-02 0.  1.
       -2   -1    0    0    0  501  0.00000000000E+00  0.00000000000E+00 -0.97789393994E+02  0.97789394028E+02  0.25500000920E-02 0. -1.
    10030    2    1    2    0    0  0.00000000000E+00  0.00000000000E+00  0.15133797989E+04  0.17089585869E+04  0.79386462076E+03 0.  0.
        2    1    3    3  502    0 -0.19592931660E+03 -0.27562935065E+03  0.12040981169E+04  0.12506846570E+04  0.25500000920E-02 0.  1.
       -2    1    3    3    0  502  0.19592931660E+03  0.27562935065E+03  0.30928168197E+03  0.45827392992E+03  0.25500000920E-02 0. -1.
</event>
<event>
 5   0  0.6551489E-03  0.7996905E+03  0.7818609E-02  0.9560465E-01
        1   -1    0    0  501    0  0.00000000000E+00  0.00000000000E+00  0.48598890930E+03  0.48598890933E+03  0.50400001928E-02 0. -1.
       -1   -1    0    0    0  501  0.00000000000E+00  0.00000000000E+00 -0.32897092248E+03  0.32897092252E+03  0.50400001928E-02 0.  1.
    10030    2    1    2    0    0  0.00000000000E+00  0.00000000000E+00  0.15701798682E+03  0.81495983185E+03  0.79969048972E+03 0.  0.
        4    1    3    3  502    0  0.40971566151E+02  0.24964514909E+03  0.39405520342E+03  0.46827607876E+03  0.12699999809E+01 0. -1.
       -4    1    3    3    0  502 -0.40971566151E+02 -0.24964514909E+03 -0.23703721661E+03  0.34668375309E+03  0.12699999809E+01 0.  1.
</event>
<event>
 5   0  0.6600401E-03  0.7971732E+03  0.7818609E-02  0.9564118E-01
       -1   -1    0    0    0  501  0.00000000000E+00  0.00000000000E+00  0.15546943119E+03  0.15546943127E+03  0.50400001928E-02 0. -1.
        1   -1    0    0  501    0  0.00000000000E+00  0.00000000000E+00 -0.10218810018E+04  0.10218810018E+04  0.50400001928E-02 0.  1.
    10030    2    1    2    0    0  0.00000000000E+00  0.00000000000E+00 -0.86641157064E+03  0.11773504331E+04  0.79717315097E+03 0.  0.
        2    1    3    3  502    0  0.49719600654E+02  0.19352086510E+03 -0.94257569889E+03  0.96352027071E+03  0.25500000920E-02 0.  1.
       -2    1    3    3    0  502 -0.49719600654E+02 -0.19352086510E+03  0.76164128247E+02  0.21383016241E+03  0.25500000920E-02 0. -1.
</event>
<event>
 5   0  0.1154714E-02  0.8055531E+03  0.7818609E-02  0.9552014E-01
       -2   -1    0    0    0  501  0.00000000000E+00  0.00000000000E+00  0.34316170191E+03  0.34316170192E+03  0.25500000920E-02 0. -1.
        2   -1    0    0  501    0  0.00000000000E+00  0.00000000000E+00 -0.47274782644E+03  0.47274782644E+03  0.25500000920E-02 0.  1.
    10030    2    1    2    0    0  0.00000000000E+00  0.00000000000E+00 -0.12958612453E+03  0.81590952836E+03  0.80555309868E+03 0.  0.
        5    1    3    3  502    0  0.99137494584E+02  0.12813791521E+02  0.33036944716E+03  0.34519342070E+03  0.46999998093E+01 0. -1.
       -5    1    3    3    0  502 -0.99137494584E+02 -0.12813791521E+02 -0.45995557168E+03  0.47071610766E+03  0.46999998093E+01 0.  1.
</event>
<event>
 5   0  0.6557679E-03  0.8032298E+03  0.7818609E-02  0.9555354E-01
       -1   -1    0    0    0  501  0.00000000000E+00  0.00000000000E+00  0.10919850105E+03  0.10919850116E+03  0.50400001928E-02 0.  1.
        1   -1    0    0  501    0  0.00000000000E+00  0.00000000000E+00 -0.14770765420E+04  0.14770765420E+04  0.50400001928E-02 0. -1.
    10030    2    1    2    0    0  0.00000000000E+00  0.00000000000E+00 -0.13678780410E+04  0.15862750432E+04  0.80322984113E+03 0.  0.
        1    1    3    3  502    0  0.28274759897E+02 -0.37116022298E+03 -0.98171370379E+03  0.10499148391E+04  0.50400001928E-02 0. -1.
       -1    1    3    3    0  502 -0.28274759897E+02  0.37116022298E+03 -0.38616433717E+03  0.53636020406E+03  0.50400001928E-02 0.  1.
</event>
<event>
 5   0  0.1119792E-02  0.8177434E+03  0.7818609E-02  0.9534684E-01
       -2   -1    0    0    0  501  0.00000000000E+00  0.00000000000E+00  0.13897813818E+03  0.13897813821E+03  0.25500000920E-02 0. -1.
        2   -1    0    0  501    0  0.00000000000E+00  0.00000000000E+00 -0.12028947176E+04  0.12028947176E+04  0.25500000920E-02 0.  1.
    10030    2    1    2    0    0  0.00000000000E+00  0.00000000000E+00 -0.10639165794E+04  0.13418728558E+04  0.81774340303E+03 0.  0.
        4    1    3    3  502    0  0.10963099725E+03  0.33259768466E+03 -0.18566702519E+03  0.39637612509E+03  0.12699999809E+01 0. -1.
       -4    1    3    3    0  502 -0.10963099725E+03 -0.33259768466E+03 -0.87824955422E+03  0.94549673071E+03  0.12699999809E+01 0.  1.
</event>
<event>
 5   0  0.6596225E-03  0.8028109E+03  0.7818609E-02  0.9555957E-01
       -1   -1    0    0    0  501  0.00000000000E+00  0.00000000000E+00  0.93204828010E+02  0.93204828146E+02  0.50400001928E-02 0. -1.
        1   -1    0    0  501    0  0.00000000000E+00  0.00000000000E+00 -0.17287336272E+04  0.17287336273E+04  0.50400001928E-02 0.  1.
    10030    2    1    2    0    0  0.00000000000E+00  0.00000000000E+00 -0.16355287992E+04  0.18219384554E+04  0.80281086324E+03 0.  0.
        5    1    3    3  502    0  0.11450021227E+03  0.17676301343E+02  0.54370128015E+02  0.12806619795E+03  0.46999998093E+01 0. -1.
       -5    1    3    3    0  502 -0.11450021227E+03 -0.17676301343E+02 -0.16898989273E+04  0.16938722575E+04  0.46999998093E+01 0.  1.
</event>
<event>
 5   0  0.1092868E-02  0.7991439E+03  0.7818609E-02  0.9561257E-01
        2   -1    0    0  501    0  0.00000000000E+00  0.00000000000E+00  0.68678107943E+03  0.68678107943E+03  0.25500000920E-02 0. -1.
       -2   -1    0    0    0  501  0.00000000000E+00  0.00000000000E+00 -0.23247252080E+03  0.23247252082E+03  0.25500000920E-02 0.  1.
    10030    2    1    2    0    0  0.00000000000E+00  0.00000000000E+00  0.45430855862E+03  0.91925360025E+03  0.79914386385E+03 0.  0.
        3    1    3    3  502    0  0.14444787043E+03 -0.19035191336E+03  0.59553473641E+03  0.64168580370E+03  0.10100000352E+00 0. -1.
       -3    1    3    3    0  502 -0.14444787043E+03  0.19035191336E+03 -0.14122617779E+03  0.27756779655E+03  0.10100000352E+00 0.  1.
</event>
<event>
 5   0  0.1092868E-02  0.8023145E+03  0.7818609E-02  0.9556673E-01
       -2   -1    0    0    0  501  0.00000000000E+00  0.00000000000E+00  0.13983003478E+03  0.13983003481E+03  0.25500000920E-02 0. -1.
        2   -1    0    0  501    0  0.00000000000E+00  0.00000000000E+00 -0.11508766471E+04  0.11508766471E+04  0.25500000920E-02 0.  1.
    10030    2    1    2    0    0  0.00000000000E+00  0.00000000000E+00 -0.10110466123E+04  0.12907066819E+04  0.80231445609E+03 0.  0.
        3    1    3    3  502    0 -0.14809670995E+03 -0.20312502952E+02  0.93351664256E+02  0.17623784126E+03  0.10100000352E+00 0. -1.
       -3    1    3    3    0  502  0.14809670995E+03  0.20312502952E+02 -0.11043982766E+04  0.11144688406E+04  0.10100000352E+00 0.  1.
</event>
<event>
 5   0  0.6517392E-03  0.8029015E+03  0.7818609E-02  0.9555827E-01
       -1   -1    0    0    0  501  0.00000000000E+00  0.00000000000E+00  0.22288531599E+03  0.22288531604E+03  0.50400001928E-02 0. -1.
        1   -1    0    0  501    0  0.00000000000E+00  0.00000000000E+00 -0.72307463377E+03  0.72307463378E+03  0.50400001928E-02 0.  1.
    10030    2    1    2    0    0  0.00000000000E+00  0.00000000000E+00 -0.50018931778E+03  0.94595994983E+03  0.80290153385E+03 0.  0.
        3    1    3    3  502    0  0.14024407987E+03  0.31014158815E+03 -0.50087340443E+03  0.60558268147E+03  0.10100000352E+00 0.  1.
       -3    1    3    3    0  502 -0.14024407987E+03 -0.31014158815E+03  0.68408664932E+00  0.34037726835E+03  0.10100000352E+00 0. -1.
</event>
<event>
 5   0  0.1121480E-02  0.7983002E+03  0.7818609E-02  0.9562481E-01
       -2   -1    0    0    0  501  0.00000000000E+00  0.00000000000E+00  0.19500816993E+03  0.19500816994E+03  0.25500000920E-02 0. -1.
        2   -1    0    0  501    0  0.00000000000E+00  0.00000000000E+00 -0.81699549370E+03  0.81699549371E+03  0.25500000920E-02 0.  1.
    10030    2    1    2    0    0  0.00000000000E+00  0.00000000000E+00 -0.62198732378E+03  0.10120036637E+04  0.79830018433E+03 0.  0.
        2    1    3    3  502    0 -0.74698128090E+02  0.10189317874E+02 -0.80788793969E+03  0.81139790217E+03  0.25500000920E-02 0.  1.
       -2    1    3    3    0  502  0.74698128090E+02 -0.10189317874E+02  0.18590061591E+03  0.20060576149E+03  0.25500000920E-02 0. -1.
</event>
<event>
 5   0  0.1119792E-02  0.7574551E+03  0.7818609E-02  0.9623727E-01
        2   -1    0    0  501    0  0.00000000000E+00  0.00000000000E+00  0.14627518657E+04  0.14627518657E+04  0.25500000920E-02 0.  1.
       -2   -1    0    0    0  501  0.00000000000E+00  0.00000000000E+00 -0.98058013324E+02  0.98058013357E+02  0.25500000920E-02 0. -1.
    10030    2    1    2    0    0  0.00000000000E+00  0.00000000000E+00  0.13646938523E+04  0.15608098790E+04  0.75745505995E+03 0.  0.
        4    1    3    3  502    0  0.16140202682E+03  0.31992439170E+03  0.93497564193E+03  0.10012908142E+04  0.12699999809E+01 0.  1.
       -4    1    3    3    0  502 -0.16140202682E+03 -0.31992439170E+03  0.42971821042E+03  0.55951906485E+03  0.12699999809E+01 0. -1.
</event>
<event>
 5   0  0.1119792E-02  0.7996798E+03  0.7818609E-02  0.9560481E-01
        2   -1    0    0  501    0  0.00000000000E+00  0.00000000000E+00  0.12511663911E+04  0.12511663911E+04  0.25500000920E-02 0.  1.
       -2   -1    0    0    0  501  0.00000000000E+00  0.00000000000E+00 -0.12777832773E+03  0.12777832775E+03  0.25500000920E-02 0. -1.
    10030    2    1    2    0    0  0.00000000000E+00  0.00000000000E+00  0.11233880634E+04  0.13789447189E+04  0.79967980889E+03 0.  0.
        4    1    3    3  502    0 -0.22923020345E+03  0.32555500644E+03  0.49862381017E+03  0.63809079711E+03  0.12699999809E+01 0.  1.
       -4    1    3    3    0  502  0.22923020345E+03 -0.32555500644E+03  0.62476425324E+03  0.74085392178E+03  0.12699999809E+01 0. -1.
</event>
<event>
 5   0  0.6551489E-03  0.8058006E+03  0.7818609E-02  0.9551659E-01
       -1   -1    0    0    0  501  0.00000000000E+00  0.00000000000E+00  0.11936932674E+03  0.11936932685E+03  0.50400001928E-02 0. -1.
        1   -1    0    0  501    0  0.00000000000E+00  0.00000000000E+00 -0.13598857336E+04  0.13598857336E+04  0.50400001928E-02 0.  1.
    10030    2    1    2    0    0  0.00000000000E+00  0.00000000000E+00 -0.12405164069E+04  0.14792550605E+04  0.80580058216E+03 0.  0.
        4    1    3    3  502    0  0.92775873928E+02 -0.22066646870E+03 -0.12151854441E+04  0.12385387881E+04  0.12699999809E+01 0.  1.
       -4    1    3    3    0  502 -0.92775873928E+02  0.22066646870E+03 -0.25330962736E+02  0.24071627233E+03  0.12699999809E+01 0. -1.
</event>
<event>
 5   0  0.6517392E-03  0.8021197E+03  0.7818609E-02  0.9556954E-01
       -1   -1    0    0    0  501  0.00000000000E+00  0.00000000000E+00  0.88676876919E+03  0.88676876921E+03  0.50400001928E-02 0. -1.
        1   -1    0    0  501    0  0.00000000000E+00  0.00000000000E+00 -0.18138777048E+03  0.18138777055E+03  0.50400001928E-02 0.  1.
    10030    2    1    2    0    0  0.00000000000E+00  0.00000000000E+00  0.70538099871E+03  0.10681565398E+04  0.80211971681E+03 0.  0.
        3    1    3    3  502    0 -0.22098484191E+03 -0.27723709790E+03  0.60237114792E+03  0.69896045586E+03  0.10100000352E+00 0. -1.
       -3    1    3    3    0  502  0.22098484191E+03  0.27723709790E+03  0.10300985079E+03  0.36919608390E+03  0.10100000352E+00 0.  1.
</event>
<event>
 5   0  0.6557679E-03  0.7740082E+03  0.7818609E-02  0.9598420E-01
       -1   -1    0    0    0  501  0.00000000000E+00  0.00000000000E+00  0.40740386394E+03  0.40740386397E+03  0.50400001928E-02 0.  1.
        1   -1    0    0  501    0  0.00000000000E+00  0.00000000000E+00 -0.36762585194E+03  0.36762585198E+03  0.50400001928E-02 0. -1.
    10030    2    1    2    0    0  0.00000000000E+00  0.00000000000E+00  0.39778011992E+02  0.77502971595E+03  0.77400824954E+03 0.  0.
        1    1    3    3  502    0 -0.28274940070E+03  0.26261836077E+03  0.49194771295E+02  0.38901896170E+03  0.50400001928E-02 0. -1.
       -1    1    3    3    0  502  0.28274940070E+03 -0.26261836077E+03 -0.94167593026E+01  0.38601075425E+03  0.50400001928E-02 0.  1.
</event>
<event>
 5   0  0.6600401E-03  0.7968665E+03  0.7818609E-02  0.9564564E-01
       -1   -1    0    0    0  501  0.00000000000E+00  0.00000000000E+00  0.12578815684E+03  0.12578815694E+03  0.50400001928E-02 0.  1.
        1   -1    0    0  501    0  0.00000000000E+00  0.00000000000E+00 -0.12620349181E+04  0.12620349181E+04  0.50400001928E-02 0. -1.
    10030    2    1    2    0    0  0.00000000000E+00  0.00000000000E+00 -0.11362467612E+04  0.13878230750E+04  0.79686647889E+03 0.  0.
        2    1    3    3  502    0  0.70766642025E+02  0.36608244836E+03 -0.32352447123E+03  0.49365206382E+03  0.25500000920E-02 0.  1.
       -2    1    3    3    0  502 -0.70766642025E+02 -0.36608244836E+03 -0.81272229000E+03  0.89417101121E+03  0.25500000920E-02 0. -1.
</event>
<event>
 5   0  0.6557679E-03  0.7973609E+03  0.7818609E-02  0.9563845E-01
       -1   -1    0    0    0  501  0.00000000000E+00  0.00000000000E+00  0.21826302072E+03  0.21826302078E+03  0.50400001928E-02 0.  1.
        1   -1    0    0  501    0  0.00000000000E+00  0.00000000000E+00 -0.72823187440E+03  0.72823187442E+03  0.50400001928E-02 0. -1.
    10030    2    1    2    0    0  0.00000000000E+00  0.00000000000E+00 -0.50996885368E+03  0.94649489520E+03  0.79736086869E+03 0.  0.
        1    1    3    3  502    0  0.65722080542E+02  0.28891321070E+03 -0.57162653898E+03  0.64385334920E+03  0.50400001928E-02 0.  1.
       -1    1    3    3    0  502 -0.65722080542E+02 -0.28891321070E+03  0.61657685299E+02  0.30264154600E+03  0.50400001928E-02 0. -1.
</event>
<event>
 5   0  0.1121480E-02  0.8009162E+03  0.7818609E-02  0.9558692E-01
       -2   -1    0    0    0  501  0.00000000000E+00  0.00000000000E+00  0.45457161541E+03  0.45457161542E+03  0.25500000920E-02 0.  1.
        2   -1    0    0  501    0  0.00000000000E+00  0.00000000000E+00 -0.35278637747E+03  0.35278637748E+03  0.25500000920E-02 0. -1.
    10030    2    1    2    0    0  0.00000000000E+00  0.00000000000E+00  0.10178523794E+03  0.80735799290E+03  0.80091615918E+03 0.  0.
        2    1    3    3  502    0  0.24580469873E+03  0.24637181458E+03  0.25059623851E+03  0.42885603143E+03  0.25500000920E-02 0.  1.
       -2    1    3    3    0  502 -0.24580469873E+03 -0.24637181458E+03 -0.14881100057E+03  0.37850196146E+03  0.25500000920E-02 0. -1.
</event>
<event>
 5   0  0.6551489E-03  0.8015224E+03  0.7818609E-02  0.9557816E-01
        1   -1    0    0  501    0  0.00000000000E+00  0.00000000000E+00  0.13976592631E+04  0.13976592631E+04  0.50400001928E-02 0. -1.
       -1   -1    0    0    0  501  0.00000000000E+00  0.00000000000E+00 -0.11491323436E+03  0.11491323447E+03  0.50400001928E-02 0.  1.
    10030    2    1    2    0    0  0.00000000000E+00  0.00000000000E+00  0.12827460288E+04  0.15125724976E+04  0.80152241779E+03 0.  0.
        4    1    3    3  502    0  0.19435118863E+03 -0.11034452868E+03  0.12691351845E+04  0.12886636601E+04  0.12699999809E+01 0. -1.
       -4    1    3    3    0  502 -0.19435118863E+03  0.11034452868E+03  0.13610844299E+02  0.22390883751E+03  0.12699999809E+01 0.  1.
</event>
<event>
 5   0  0.1119792E-02  0.8019446E+03  0.7818609E-02  0.9557207E-01
        2   -1    0    0  501    0  0.00000000000E+00  0.00000000000E+00  0.54046387972E+03  0.54046387972E+03  0.25500000920E-02 0.  1.
       -2   -1    0    0    0  501  0.00000000000E+00  0.00000000000E+00 -0.29748291629E+03  0.29748291630E+03  0.25500000920E-02 0. -1.
    10030    2    1    2    0    0  0.00000000000E+00  0.00000000000E+00  0.24298096343E+03  0.83794679602E+03  0.80194456440E+03 0.  0.
        4    1    3    3  502    0 -0.11148019166E+03  0.22123445153E+03 -0.20794883656E+03  0.32344527698E+03  0.12699999809E+01 0. -1.
       -4    1    3    3    0  502  0.11148019166E+03 -0.22123445153E+03  0.45092979999E+03  0.51450151904E+03  0.12699999809E+01 0.  1.
</event>
<event>
 5   0  0.6557679E-03  0.7926273E+03  0.7818609E-02  0.9570750E-01
       -1   -1    0    0    0  501  0.00000000000E+00  0.00000000000E+00  0.77106779526E+02  0.77106779691E+02  0.50400001928E-02 0. -1.
        1   -1    0    0  501    0  0.00000000000E+00  0.00000000000E+00 -0.20369742088E+04  0.20369742088E+04  0.50400001928E-02 0.  1.
    10030    2    1    2    0    0  0.00000000000E+00  0.00000000000E+00 -0.19598674292E+04  0.21140809885E+04  0.79262733083E+03 0.  0.
        1    1    3    3  502    0  0.18311648419E+03  0.34873521521E+03 -0.86316646041E+03  0.94879093351E+03  0.50400001928E-02 0. -1.
       -1    1    3    3    0  502 -0.18311648419E+03 -0.34873521521E+03 -0.10967009688E+04  0.11652900550E+04  0.50400001928E-02 0.  1.
</event>
<event>
 5   0  0.6517392E-03  0.7951360E+03  0.7818609E-02  0.9567084E-01
        1   -1    0    0  501    0  0.00000000000E+00  0.00000000000E+00  0.14463760183E+03  0.14463760192E+03  0.50400001928E-02 0. -1.
       -1   -1    0    0    0  501  0.00000000000E+00  0.00000000000E+00 -0.10928023801E+04  0.10928023801E+04  0.50400001928E-02 0.  1.
    10030    2    1    2    0    0  0.00000000000E+00  0.00000000000E+00 -0.94816477822E+03  0.12374399820E+04  0.79513600242E+03 0.  0.
        3    1    3    3  502    0 -0.34083461259E+03 -0.19527249765E+03 -0.37864502154E+03  0.54559292885E+03  0.10100000352E+00 0. -1.
       -3    1    3    3    0  502  0.34083461259E+03  0.19527249765E+03 -0.56951975668E+03  0.69184705313E+03  0.10100000352E+00 0.  1.
</event>
<event>
 5   0  0.1121480E-02  0.7996072E+03  0.7818609E-02  0.9560586E-01
       -2   -1    0    0    0  501  0.00000000000E+00  0.00000000000E+00  0.72489896850E+03  0.72489896851E+03  0.25500000920E-02 0. -1.
        2   -1    0    0  501    0  0.00000000000E+00  0.00000000000E+00 -0.22050373309E+03  0.22050373310E+03  0.25500000920E-02 0.  1.
    10030    2    1    2    0    0  0.00000000000E+00  0.00000000000E+00  0.50439523542E+03  0.94540270161E+03  0.79960722526E+03 0.  0.
        2    1    3    3  502    0 -0.27392356709E+03 -0.25637483484E+03  0.88878180748E+02  0.38556647620E+03  0.25500000920E-02 0. -1.
       -2    1    3    3    0  502  0.27392356709E+03  0.25637483484E+03  0.41551705467E+03  0.55983622541E+03  0.25500000920E-02 0.  1.
</event>
<event>
 5   0  0.1092868E-02  0.7918038E+03  0.7818609E-02  0.9571957E-01
       -2   -1    0    0    0  501  0.00000000000E+00  0.00000000000E+00  0.29311081059E+03  0.29311081060E+03  0.25500000920E-02 0.  1.
        2   -1    0    0  501    0  0.00000000000E+00  0.00000000000E+00 -0.53474084877E+03  0.53474084878E+03  0.25500000920E-02 0. -1.
    10030    2    1    2    0    0  0.00000000000E+00  0.00000000000E+00 -0.24163003819E+03  0.82785165938E+03  0.79180382329E+03 0.  0.
        3    1    3    3  502    0  0.71301443031E+02  0.36523852775E+03 -0.26207809201E+03  0.45515713160E+03  0.10100000352E+00 0. -1.
       -3    1    3    3    0  502 -0.71301443031E+02 -0.36523852775E+03  0.20448053823E+02  0.37269452778E+03  0.10100000352E+00 0.  1.
</event>
<event>
 5   0  0.1154714E-02  0.7988598E+03  0.7818609E-02  0.9561669E-01
       -2   -1    0    0    0  501  0.00000000000E+00  0.00000000000E+00  0.23053094785E+03  0.23053094786E+03  0.25500000920E-02 0. -1.
        2   -1    0    0  501    0  0.00000000000E+00  0.00000000000E+00 -0.69207291765E+03  0.69207291766E+03  0.25500000920E-02 0.  1.
    10030    2    1    2    0    0  0.00000000000E+00  0.00000000000E+00 -0.46154196981E+03  0.92260386552E+03  0.79885975163E+03 0.  0.
        5    1    3    3  502    0 -0.15169382593E+03 -0.71423466383E+02  0.18788626680E+03  0.25186438340E+03  0.46999998093E+01 0. -1.
       -5    1    3    3    0  502  0.15169382593E+03  0.71423466383E+02 -0.64942823660E+03  0.67073948212E+03  0.46999998093E+01 0.  1.
</event>
<event>
 5   0  0.6551489E-03  0.8167626E+03  0.7818609E-02  0.9536066E-01
        1   -1    0    0  501    0  0.00000000000E+00  0.00000000000E+00  0.83914559952E+03  0.83914559954E+03  0.50400001928E-02 0. -1.
       -1   -1    0    0    0  501  0.00000000000E+00  0.00000000000E+00 -0.19874417154E+03  0.19874417161E+03  0.50400001928E-02 0.  1.
    10030    2    1    2    0    0  0.00000000000E+00  0.00000000000E+00  0.64040142798E+03  0.10378897711E+04  0.81676262653E+03 0.  0.
        4    1    3    3  502    0  0.20000100344E+03 -0.33260784637E+03  0.15873568367E+03  0.41931731542E+03  0.12699999809E+01 0.  1.
       -4    1    3    3    0  502 -0.20000100344E+03  0.33260784637E+03  0.48166574431E+03  0.61857245572E+03  0.12699999809E+01 0. -1.
</event>
<event>
 5   0  0.6557679E-03  0.7958817E+03  0.7818609E-02  0.9565997E-01
       -1   -1    0    0    0  501  0.00000000000E+00  0.00000000000E+00  0.74328973988E+03  0.74328973990E+03  0.50400001928E-02 0.  1.
        1   -1    0    0  501    0  0.00000000000E+00  0.00000000000E+00 -0.21304871957E+03  0.21304871963E+03  0.50400001928E-02 0. -1.
    10030    2    1    2    0    0  0.00000000000E+00  0.00000000000E+00  0.53024102031E+03  0.95633845953E+03  0.79588171833E+03 0.  0.
        1    1    3    3  502    0  0.11636114208E+03  0.21295531858E+03  0.64408864904E+03  0.68828778207E+03  0.50400001928E-02 0.  1.
       -1    1    3    3    0  502 -0.11636114208E+03 -0.21295531858E+03 -0.11384762873E+03  0.26805067747E+03  0.50400001928E-02 0. -1.
</event>
<event>
 5   0  0.6517392E-03  0.8095255E+03  0.7818609E-02  0.9546331E-01
        1   -1    0    0  501    0  0.00000000000E+00  0.00000000000E+00  0.38238812481E+03  0.38238812484E+03  0.50400001928E-02 0. -1.
       -1   -1    0    0    0  501  0.00000000000E+00  0.00000000000E+00 -0.42844653066E+03  0.42844653069E+03  0.50400001928E-02 0.  1.
    10030    2    1    2    0    0  0.00000000000E+00  0.00000000000E+00 -0.46058405857E+02  0.81083465553E+03  0.80952545473E+03 0.  0.
        3    1    3    3  502    0  0.27197182558E+03  0.42265126731E+02  0.27422987201E+03  0.38853191343E+03  0.10100000352E+00 0. -1.
       -3    1    3    3    0  502 -0.27197182558E+03 -0.42265126731E+02 -0.32028827787E+03  0.42230274210E+03  0.10100000352E+00 0.  1.
</event>
<event>
 5   0  0.1092868E-02  0.7779785E+03  0.7818609E-02  0.9592451E-01
       -2   -1    0    0    0  501  0.00000000000E+00  0.00000000000E+00  0.18434419515E+03  0.18434419517E+03  0.25500000920E-02 0. -1.
        2   -1    0    0  501    0  0.00000000000E+00  0.00000000000E+00 -0.82081592215E+03  0.82081592215E+03  0.25500000920E-02 0.  1.
    10030    2    1    2    0    0  0.00000000000E+00  0.00000000000E+00 -0.63647172700E+03  0.10051601173E+04  0.77797853582E+03 0.  0.
        3    1    3    3  502    0 -0.10702013826E+03  0.21827002185E+03  0.74114781752E+02  0.25414193575E+03  0.10100000352E+00 0.  1.
       -3    1    3    3    0  502  0.10702013826E+03 -0.21827002185E+03 -0.71058650875E+03  0.75101818157E+03  0.10100000352E+00 0. -1.
</event>
<event>
 5   0  0.1121480E-02  0.7999556E+03  0.7818609E-02  0.9560081E-01
        2   -1    0    0  501    0  0.00000000000E+00  0.00000000000E+00  0.30060914314E+03  0.30060914315E+03  0.25500000920E-02 0.  1.
       -2   -1    0    0    0  501  0.00000000000E+00  0.00000000000E+00 -0.53219351739E+03  0.53219351740E+03  0.25500000920E-02 0. -1.
    10030    2    1    2    0    0  0.00000000000E+00  0.00000000000E+00 -0.23158437425E+03  0.83280266055E+03  0.79995559190E+03 0.  0.
        2    1    3    3  502    0 -0.19906405332E+03  0.26379258797E+03 -0.35036432721E+03  0.48163075959E+03  0.25500000920E-02 0. -1.
       -2    1    3    3    0  502  0.19906405332E+03 -0.26379258797E+03  0.11877995295E+03  0.35117190096E+03  0.25500000920E-02 0.  1.
</event>
<event>
 5   0  0.4385875E-03  0.7998002E+03  0.7818609E-02  0.9560306E-01
        4   -1    0    0  501    0  0.00000000000E+00  0.00000000000E+00  0.11001521121E+04  0.11001528451E+04  0.12699999809E+01 0.  1.
       -4   -1    0    0    0  501  0.00000000000E+00  0.00000000000E+00 -0.14535825897E+03  0.14536380688E+03  0.12699999809E+01 0. -1.
    10030    2    1    2    0    0  0.00000000000E+00  0.00000000000E+00  0.95479385313E+03  0.12455166520E+04  0.79980024285E+03 0.  0.
        3    1    3    3  502    0 -0.57225165415E+02 -0.21061934118E+03  0.99922642754E+03  0.10227847721E+04  0.10100000352E+00 0.  1.
       -3    1    3    3    0  502  0.57225165415E+02  0.21061934118E+03 -0.44432574417E+02  0.22273187986E+03  0.10100000352E+00 0. -1.
</event>
<event>
 5   0  0.6600401E-03  0.7955532E+03  0.7818609E-02  0.9566476E-01
       -1   -1    0    0    0  501  0.00000000000E+00  0.00000000000E+00  0.85622834854E+03  0.85622834855E+03  0.50400001928E-02 0.  1.
        1   -1    0    0  501    0  0.00000000000E+00  0.00000000000E+00 -0.18479442102E+03  0.18479442109E+03  0.50400001928E-02 0. -1.
    10030    2    1    2    0    0  0.00000000000E+00  0.00000000000E+00  0.67143392751E+03  0.10410227696E+04  0.79555319615E+03 0.  0.
        2    1    3    3  502    0  0.14899714676E+03  0.36255719607E+03  0.24717572697E+03  0.46340447794E+03  0.25500000920E-02 0. -1.
       -2    1    3    3    0  502 -0.14899714676E+03 -0.36255719607E+03  0.42425820055E+03  0.57761829170E+03  0.25500000920E-02 0.  1.
</event>
<event>
 5   0  0.1106332E-02  0.7967954E+03  0.7818609E-02  0.9564667E-01
        2   -1    0    0  501    0  0.00000000000E+00  0.00000000000E+00  0.13836458846E+03  0.13836458848E+03  0.25500000920E-02 0.  1.
       -2   -1    0    0    0  501  0.00000000000E+00  0.00000000000E+00 -0.11471194351E+04  0.11471194351E+04  0.25500000920E-02 0. -1.
    10030    2    1    2    0    0  0.00000000000E+00  0.00000000000E+00 -0.10087548466E+04  0.12854840235E+04  0.79679535280E+03 0.  0.
        1    1    3    3  502    0 -0.36606425665E+03 -0.36527494890E+02 -0.75108007600E+03  0.83633640270E+03  0.50400001928E-02 0. -1.
       -1    1    3    3    0  502  0.36606425665E+03  0.36527494890E+02 -0.25767477059E+03  0.44914762084E+03  0.50400001928E-02 0.  1.
</event>
<event>
 5   0  0.6517392E-03  0.8050605E+03  0.7818609E-02  0.9552721E-01
       -1   -1    0    0    0  501  0.00000000000E+00  0.00000000000E+00  0.12587889530E+03  0.12587889540E+03  0.50400001928E-02 0. -1.
        1   -1    0    0  501    0  0.00000000000E+00  0.00000000000E+00 -0.12871942141E+04  0.12871942141E+04  0.50400001928E-02 0.  1.
    10030    2    1    2    0    0  0.00000000000E+00  0.00000000000E+00 -0.11613153188E+04  0.14130731095E+04  0.80506045930E+03 0.  0.
        3    1    3    3  502    0  0.24743029108E+03 -0.13932907923E+02 -0.23899160717E+02  0.24897199632E+03  0.10100000352E+00 0. -1.
       -3    1    3    3    0  502 -0.24743029108E+03  0.13932907923E+02 -0.11374161581E+04  0.11641011132E+04  0.10100000352E+00 0.  1.
</event>
<event>
 5   0  0.1106332E-02  0.8017022E+03  0.7818609E-02  0.9557557E-01
        2   -1    0    0  501    0  0.00000000000E+00  0.00000000000E+00  0.11120029237E+04  0.11120029237E+04  0.25500000920E-02 0. -1.
       -2   -1    0    0    0  501  0.00000000000E+00  0.00000000000E+00 -0.14449746342E+03  0.14449746345E+03  0.25500000920E-02 0.  1.
    10030    2    1    2    0    0  0.00000000000E+00  0.00000000000E+00  0.96750546025E+03  0.12565003871E+04  0.80170219360E+03 0.  0.
        1    1    3    3  502    0  0.17514200422E+03  0.34496102671E+03  0.64819708058E+03  0.75487236464E+03  0.50400001928E-02 0. -1.
       -1    1    3    3    0  502 -0.17514200422E+03 -0.34496102671E+03  0.31930837967E+03  0.50162802249E+03  0.50400001928E-02 0.  1.
</event>
<event>
 5   0  0.4385875E-03  0.7618431E+03  0.7818609E-02  0.9616951E-01
       -4   -1    0    0    0  501  0.00000000000E+00  0.00000000000E+00  0.74628568265E+03  0.74628676327E+03  0.12699999809E+01 0.  1.
        4   -1    0    0  501    0  0.00000000000E+00  0.00000000000E+00 -0.19442791131E+03  0.19443205907E+03  0.12699999809E+01 0. -1.
    10030    2    1    2    0    0  0.00000000000E+00  0.00000000000E+00  0.55185777135E+03  0.94071882234E+03  0.76184309600E+03 0.  0.
        5    1    3    3  502    0 -0.42210326470E+02  0.15790791016E+03 -0.14888762902E+03  0.22114754312E+03  0.46999998093E+01 0. -1.
       -5    1    3    3    0  502  0.42210326470E+02 -0.15790791016E+03  0.70074540037E+03  0.71957127923E+03  0.46999998093E+01 0.  1.
</event>
<event>
 5   0  0.6551489E-03  0.7982370E+03  0.7818609E-02  0.9562572E-01
        1   -1    0    0  501    0  0.00000000000E+00  0.00000000000E+00  0.10861676980E+03  0.10861676991E+03  0.50400001928E-02 0. -1.
       -1   -1    0    0    0  501  0.00000000000E+00  0.00000000000E+00 -0.14665836383E+04  0.14665836383E+04  0.50400001928E-02 0.  1.
    10030    2    1    2    0    0  0.00000000000E+00  0.00000000000E+00 -0.13579668685E+04  0.15752004082E+04  0.79823700120E+03 0.  0.
        4    1    3    3  502    0  0.16139737450E+03  0.70765027529E+02  0.27677220397E+02  0.17839406673E+03  0.12699999809E+01 0. -1.
       -4    1    3    3    0  502 -0.16139737450E+03 -0.70765027529E+02 -0.13856440889E+04  0.13968063414E+04  0.12699999809E+01 0.  1.
</event>
<event>
 5   0  0.1119792E-02  0.8008469E+03  0.7818609E-02  0.9558792E-01
        2   -1    0    0  501    0  0.00000000000E+00  0.00000000000E+00  0.78889957335E+03  0.78889957335E+03  0.25500000920E-02 0.  1.
       -2   -1    0    0    0  501  0.00000000000E+00  0.00000000000E+00 -0.20324376746E+03  0.20324376748E+03  0.25500000920E-02 0. -1.
    10030    2    1    2    0    0  0.00000000000E+00  0.00000000000E+00  0.58565580589E+03  0.99214334083E+03  0.80084685539E+03 0.  0.
        4    1    3    3  502    0  0.70259524408E+02 -0.37058469109E+03  0.45935262606E+03  0.59437013889E+03  0.12699999809E+01 0.  1.
       -4    1    3    3    0  502 -0.70259524408E+02  0.37058469109E+03  0.12630317983E+03  0.39777320193E+03  0.12699999809E+01 0. -1.
</event>
<event>
 5   0  0.1121480E-02  0.7955482E+03  0.7818609E-02  0.9566483E-01
        2   -1    0    0  501    0  0.00000000000E+00  0.00000000000E+00  0.17186033074E+04  0.17186033074E+04  0.25500000920E-02 0. -1.
       -2   -1    0    0    0  501  0.00000000000E+00  0.00000000000E+00 -0.92065585420E+02  0.92065585455E+02  0.25500000920E-02 0.  1.
    10030    2    1    2    0    0  0.00000000000E+00  0.00000000000E+00  0.16265377219E+04  0.18106688928E+04  0.79554816229E+03 0.  0.
        2    1    3    3  502    0  0.36086522118E+03 -0.57036648241E+02  0.11713131580E+04  0.12269683782E+04  0.25500000920E-02 0. -1.
       -2    1    3    3    0  502 -0.36086522118E+03  0.57036648241E+02  0.45522456396E+03  0.58370051460E+03  0.25500000920E-02 0.  1.
</event>
<event>
 5   0  0.6596225E-03  0.7987928E+03  0.7818609E-02  0.9561766E-01
       -1   -1    0    0    0  501  0.00000000000E+00  0.00000000000E+00  0.21577930559E+03  0.21577930565E+03  0.50400001928E-02 0. -1.
        1   -1    0    0  501    0  0.00000000000E+00  0.00000000000E+00 -0.73926225743E+03  0.73926225745E+03  0.50400001928E-02 0.  1.
    10030    2    1    2    0    0  0.00000000000E+00  0.00000000000E+00 -0.52348295184E+03  0.95504156310E+03  0.79879283071E+03 0.  0.
        5    1    3    3  502    0  0.10145071852E+03  0.38388768981E+03 -0.31293519940E+03  0.50558138385E+03  0.46999998093E+01 0.  1.
       -5    1    3    3    0  502 -0.10145071852E+03 -0.38388768981E+03 -0.21054775244E+03  0.44946017925E+03  0.46999998093E+01 0. -1.
</event>
<event>
 5   0  0.1154714E-02  0.8026204E+03  0.7818609E-02  0.9556232E-01
       -2   -1    0    0    0  501  0.00000000000E+00  0.00000000000E+00  0.20331798701E+03  0.20331798703E+03  0.25500000920E-02 0. -1.
        2   -1    0    0  501    0  0.00000000000E+00  0.00000000000E+00 -0.79210842099E+03  0.79210842099E+03  0.25500000920E-02 0.  1.
    10030    2    1    2    0    0  0.00000000000E+00  0.00000000000E+00 -0.58879043398E+03  0.99542640802E+03  0.80262043249E+03 0.  0.
        5    1    3    3  502    0  0.15994647018E+03 -0.27892530559E+03  0.33755293772E+01  0.32158308976E+03  0.46999998093E+01 0. -1.
       -5    1    3    3    0  502 -0.15994647018E+03  0.27892530559E+03 -0.59216596335E+03  0.67384331827E+03  0.46999998093E+01 0.  1.
</event>
<event>
 5   0  0.1121480E-02  0.8101244E+03  0.7818609E-02  0.9545477E-01
        2   -1    0    0  501    0  0.00000000000E+00  0.00000000000E+00  0.29353712673E+03  0.29353712674E+03  0.25500000920E-02 0.  1.
       -2   -1    0    0    0  501  0.00000000000E+00  0.00000000000E+00 -0.55895958707E+03  0.55895958707E+03  0.25500000920E-02 0. -1.
    10030    2    1    2    0    0  0.00000000000E+00  0.00000000000E+00 -0.26542246034E+03  0.85249671382E+03  0.81012441305E+03 0.  0.
        2    1    3    3  502    0 -0.11221951669E+03  0.38600145356E+03 -0.80253622775E+02  0.40991582801E+03  0.25500000920E-02 0.  1.
       -2    1    3    3    0  502  0.11221951669E+03 -0.38600145356E+03 -0.18516883756E+03  0.44258088581E+03  0.25500000920E-02 0. -1.
</event>
<event>
 5   0  0.4385875E-03  0.8320529E+03  0.7818609E-02  0.9514747E-01
       -4   -1    0    0    0  501  0.00000000000E+00  0.00000000000E+00  0.50115505812E+03  0.50115666730E+03  0.12699999809E+01 0. -1.
        4   -1    0    0  501    0  0.00000000000E+00  0.00000000000E+00 -0.34535482915E+03  0.34535716428E+03  0.12699999809E+01 0.  1.
    10030    2    1    2    0    0  0.00000000000E+00  0.00000000000E+00  0.15580022897E+03  0.84651383157E+03  0.83205285631E+03 0.  0.
        4    1    3    3  502    0  0.15244348921E+03 -0.37423936724E+03  0.17852435710E+03  0.44177673136E+03  0.12699999809E+01 0. -1.
       -4    1    3    3    0  502 -0.15244348921E+03  0.37423936724E+03 -0.22724128130E+02  0.40473710021E+03  0.12699999809E+01 0.  1.
</event>
<event>
 5   0  0.6517392E-03  0.7852267E+03  0.7818609E-02  0.9581651E-01
        1   -1    0    0  501    0  0.00000000000E+00  0.00000000000E+00  0.92711187083E+03  0.92711187084E+03  0.50400001928E-02 0. -1.
       -1   -1    0    0    0  501  0.00000000000E+00  0.00000000000E+00 -0.16626389027E+03  0.16626389035E+03  0.50400001928E-02 0.  1.
    10030    2    1    2    0    0  0.00000000000E+00  0.00000000000E+00  0.76084798056E+03  0.10933757612E+04  0.78522665877E+03 0.  0.
        3    1    3    3  502    0 -0.31315821807E+03  0.13286002103E+03  0.65337417157E+03  0.73662587044E+03  0.10100000352E+00 0. -1.
       -3    1    3    3    0  502  0.31315821807E+03 -0.13286002103E+03  0.10747380898E+03  0.35674989075E+03  0.10100000352E+00 0.  1.
</event>
<event>
 5   0  0.1106332E-02  0.7957349E+03  0.7818609E-02  0.9566211E-01
       -2   -1    0    0    0  501  0.00000000000E+00  0.00000000000E+00  0.21824813015E+03  0.21824813017E+03  0.25500000920E-02 0. -1.
        2   -1    0    0  501    0  0.00000000000E+00  0.00000000000E+00 -0.72531439154E+03  0.72531439155E+03  0.25500000920E-02 0.  1.
    10030    2    1    2    0    0  0.00000000000E+00  0.00000000000E+00 -0.50706626139E+03  0.94356252171E+03  0.79573490494E+03 0.  0.
        1    1    3    3  502    0  0.55105923677E+00  0.38442074080E+03 -0.13191804826E+03  0.40642586176E+03  0.50400001928E-02 0. -1.
       -1    1    3    3    0  502 -0.55105923677E+00 -0.38442074080E+03 -0.37514821313E+03  0.53713665995E+03  0.50400001928E-02 0.  1.
</event>
<event>
 5   0  0.6517392E-03  0.8020612E+03  0.7818609E-02  0.9557038E-01
       -1   -1    0    0    0  501  0.00000000000E+00  0.00000000000E+00  0.54230604539E+03  0.54230604541E+03  0.50400001928E-02 0. -1.
        1   -1    0    0  501    0  0.00000000000E+00  0.00000000000E+00 -0.29655863671E+03  0.29655863675E+03  0.50400001928E-02 0.  1.
    10030    2    1    2    0    0  0.00000000000E+00  0.00000000000E+00  0.24574740868E+03  0.83886468217E+03  0.80206119848E+03 0.  0.
        3    1    3    3  502    0 -0.33358490042E+03  0.21530189486E+03  0.18196154643E+03  0.43674226530E+03  0.10100000352E+00 0. -1.
       -3    1    3    3    0  502  0.33358490042E+03 -0.21530189486E+03  0.63785862254E+02  0.40212241687E+03  0.10100000352E+00 0.  1.
</event>
<event>
 5   0  0.1121480E-02  0.8591989E+03  0.7818609E-02  0.9478073E-01
        2   -1    0    0  501    0  0.00000000000E+00  0.00000000000E+00  0.78565411219E+03  0.78565411219E+03  0.25500000920E-02 0. -1.
       -2   -1    0    0    0  501  0.00000000000E+00  0.00000000000E+00 -0.23490705406E+03  0.23490705408E+03  0.25500000920E-02 0.  1.
    10030    2    1    2    0    0  0.00000000000E+00  0.00000000000E+00  0.55074705812E+03  0.10205611663E+04  0.85919891297E+03 0.  0.
        2    1    3    3  502    0  0.15600657403E+03  0.22656370993E+03 -0.11657802732E+03  0.29876345536E+03  0.25500000920E-02 0.  1.
       -2    1    3    3    0  502 -0.15600657403E+03 -0.22656370993E+03  0.66732508545E+03  0.72179771091E+03  0.25500000920E-02 0. -1.
</event>
<event>
 5   0  0.1092868E-02  0.7998749E+03  0.7818609E-02  0.9560198E-01
        2   -1    0    0  501    0  0.00000000000E+00  0.00000000000E+00  0.78635962089E+03  0.78635962089E+03  0.25500000920E-02 0.  1.
       -2   -1    0    0    0  501  0.00000000000E+00  0.00000000000E+00 -0.20340560553E+03  0.20340560554E+03  0.25500000920E-02 0. -1.
    10030    2    1    2    0    0  0.00000000000E+00  0.00000000000E+00  0.58295401536E+03  0.98976522643E+03  0.79987487736E+03 0.  0.
        3    1    3    3  502    0  0.17322020241E+03 -0.24468489850E+03  0.61903530868E+03  0.68780859378E+03  0.10100000352E+00 0.  1.
       -3    1    3    3    0  502 -0.17322020241E+03  0.24468489850E+03 -0.36081293322E+02  0.30195663266E+03  0.10100000352E+00 0. -1.
</event>
<event>
 5   0  0.1106332E-02  0.7863261E+03  0.7818609E-02  0.9580023E-01
       -2   -1    0    0    0  501  0.00000000000E+00  0.00000000000E+00  0.10010525716E+03  0.10010525719E+03  0.25500000920E-02 0.  1.
        2   -1    0    0  501    0  0.00000000000E+00  0.00000000000E+00 -0.15441466360E+04  0.15441466360E+04  0.25500000920E-02 0. -1.
    10030    2    1    2    0    0  0.00000000000E+00  0.00000000000E+00 -0.14440413789E+04  0.16442518932E+04  0.78632613111E+03 0.  0.
        1    1    3    3  502    0 -0.12408283193E+02 -0.23202955343E+03 -0.13852036640E+04  0.14045571793E+04  0.50400001928E-02 0. -1.
       -1    1    3    3    0  502  0.12408283193E+02  0.23202955343E+03 -0.58837714865E+02  0.23969471391E+03  0.50400001928E-02 0.  1.
</event>
<event>
 5   0  0.1154714E-02  0.8080975E+03  0.7818609E-02  0.9548370E-01
       -2   -1    0    0    0  501  0.00000000000E+00  0.00000000000E+00  0.60791031420E+03  0.60791031421E+03  0.25500000920E-02 0.  1.
        2   -1    0    0  501    0  0.00000000000E+00  0.00000000000E+00 -0.26855176755E+03  0.26855176756E+03  0.25500000920E-02 0. -1.
    10030    2    1    2    0    0  0.00000000000E+00  0.00000000000E+00  0.33935854666E+03  0.87646208177E+03  0.80809749263E+03 0.  0.
        5    1    3    3  502    0  0.24634235941E+03  0.84651150024E+02 -0.16528978244E+03  0.30853391615E+03  0.46999998093E+01 0. -1.
       -5    1    3    3    0  502 -0.24634235941E+03 -0.84651150024E+02  0.50464832910E+03  0.56792816562E+03  0.46999998093E+01 0.  1.
</event>
<event>
 5   0  0.6551489E-03  0.7951334E+03  0.7818609E-02  0.9567088E-01
        1   -1    0    0  501    0  0.00000000000E+00  0.00000000000E+00  0.42841594531E+03  0.42841594534E+03  0.50400001928E-02 0. -1.
       -1   -1    0    0    0  501  0.00000000000E+00  0.00000000000E+00 -0.36893881710E+03  0.36893881713E+03  0.50400001928E-02 0.  1.
    10030    2    1    2    0    0  0.00000000000E+00  0.00000000000E+00  0.59477128212E+02  0.79735476248E+03  0.79513337778E+03 0.  0.
        4    1    3    3  502    0  0.16630001502E+03 -0.27676608148E+03  0.26234023899E+03  0.41602785093E+03  0.12699999809E+01 0. -1.
       -4    1    3    3    0  502 -0.16630001502E+03  0.27676608148E+03 -0.20286311078E+03  0.38132691155E+03  0.12699999809E+01 0.  1.
</event>
<event>
 5   0  0.6596225E-03  0.8007271E+03  0.7818609E-02  0.9558965E-01
       -1   -1    0    0    0  501  0.00000000000E+00  0.00000000000E+00  0.21161127753E+03  0.21161127759E+03  0.50400001928E-02 0. -1.
        1   -1    0    0  501    0  0.00000000000E+00  0.00000000000E+00 -0.75747831294E+03  0.75747831295E+03  0.50400001928E-02 0.  1.
    10030    2    1    2    0    0  0.00000000000E+00  0.00000000000E+00 -0.54586703541E+03  0.96908959054E+03  0.80072705346E+03 0.  0.
        5    1    3    3  502    0 -0.17413022689E+03 -0.32135249903E+03 -0.75248778087E+02  0.37319329195E+03  0.46999998093E+01 0. -1.
       -5    1    3    3    0  502  0.17413022689E+03  0.32135249903E+03 -0.47061825732E+03  0.59589629859E+03  0.46999998093E+01 0.  1.
</event>
<event>
 5   0  0.4385875E-03  0.8035073E+03  0.7818609E-02  0.9554954E-01
       -3   -1    0    0    0  501  0.00000000000E+00  0.00000000000E+00  0.45852699569E+03  0.45852700682E+03  0.10100000352E+00 0.  1.
        3   -1    0    0  501    0  0.00000000000E+00  0.00000000000E+00 -0.35200979440E+03  0.35200980889E+03  0.10100000352E+00 0. -1.
    10030    2    1    2    0    0  0.00000000000E+00  0.00000000000E+00  0.10651720129E+03  0.81053681571E+03  0.80350732134E+03 0.  0.
        1    1    3    3  502    0  0.83584615469E+02 -0.35921593927E+03  0.21397451099E+03  0.42638898948E+03  0.50400001928E-02 0.  1.
       -1    1    3    3    0  502 -0.83584615469E+02  0.35921593927E+03 -0.10745730970E+03  0.38414782623E+03  0.50400001928E-02 0. -1.
</event>
<event>
 5   0  0.1119792E-02  0.8050346E+03  0.7818609E-02  0.9552758E-01
       -2   -1    0    0    0  501  0.00000000000E+00  0.00000000000E+00  0.57961369704E+03  0.57961369704E+03  0.25500000920E-02 0. -1.
        2   -1    0    0  501    0  0.00000000000E+00  0.00000000000E+00 -0.27953130927E+03  0.27953130928E+03  0.25500000920E-02 0.  1.
    10030    2    1    2    0    0  0.00000000000E+00  0.00000000000E+00  0.30008238777E+03  0.85914500632E+03  0.80503459705E+03 0.  0.
        4    1    3    3  502    0 -0.23099190379E+03  0.15197449535E+03 -0.16213526093E+03  0.32053543110E+03  0.12699999809E+01 0.  1.
       -4    1    3    3    0  502  0.23099190379E+03 -0.15197449535E+03  0.46221764870E+03  0.53860957522E+03  0.12699999809E+01 0. -1.
</event>
<event>
 5   0  0.6551489E-03  0.8024155E+03  0.7818609E-02  0.9556527E-01
        1   -1    0    0  501    0  0.00000000000E+00  0.00000000000E+00  0.20026116315E+03  0.20026116321E+03  0.50400001928E-02 0.  1.
       -1   -1    0    0    0  501  0.00000000000E+00  0.00000000000E+00 -0.80378861035E+03  0.80378861037E+03  0.50400001928E-02 0. -1.
    10030    2    1    2    0    0  0.00000000000E+00  0.00000000000E+00 -0.60352744720E+03  0.10040497736E+04  0.80241545866E+03 0.  0.
        4    1    3    3  502    0  0.75627633651E+02 -0.12206001263E+03 -0.77053266306E+03  0.78379868805E+03  0.12699999809E+01 0. -1.
       -4    1    3    3    0  502 -0.75627633651E+02  0.12206001263E+03  0.16700521585E+03  0.22025108553E+03  0.12699999809E+01 0.  1.
</event>
<event>
 5   0  0.4385875E-03  0.8042558E+03  0.7818609E-02  0.9553877E-01
       -3   -1    0    0    0  501  0.00000000000E+00  0.00000000000E+00  0.82451337395E+03  0.82451338014E+03  0.10100000352E+00 0. -1.
        3   -1    0    0  501    0  0.00000000000E+00  0.00000000000E+00 -0.19612398456E+03  0.19612401056E+03  0.10100000352E+00 0.  1.
    10030    2    1    2    0    0  0.00000000000E+00  0.00000000000E+00  0.62838938940E+03  0.10206373907E+04  0.80425584150E+03 0.  0.
        1    1    3    3  502    0  0.17177436717E+02 -0.12223421008E+03  0.79987722018E+03  0.80934531187E+03  0.50400001928E-02 0. -1.
       -1    1    3    3    0  502 -0.17177436717E+02  0.12223421008E+03 -0.17148783079E+03  0.21129207884E+03  0.50400001928E-02 0.  1.
</event>
<event>
 5   0  0.6557679E-03  0.8001422E+03  0.7818609E-02  0.9559811E-01
       -1   -1    0    0    0  501  0.00000000000E+00  0.00000000000E+00  0.49913864048E+03  0.49913864051E+03  0.50400001928E-02 0. -1.
        1   -1    0    0  501    0  0.00000000000E+00  0.00000000000E+00 -0.32066617438E+03  0.32066617442E+03  0.50400001928E-02 0.  1.
    10030    2    1    2    0    0  0.00000000000E+00  0.00000000000E+00  0.17847246611E+03  0.81980481493E+03  0.80014218325E+03 0.  0.
        1    1    3    3  502    0 -0.33821063333E+03 -0.95564902346E+02 -0.10660965917E+03  0.36726652789E+03  0.50400001928E-02 0.  1.
       -1    1    3    3    0  502  0.33821063333E+03  0.95564902346E+02  0.28508212528E+03  0.45253828704E+03  0.50400001928E-02 0. -1.
</event>
<event>
 5   0  0.1106332E-02  0.7977630E+03  0.7818609E-02  0.9563261E-01
        2   -1    0    0  501    0  0.00000000000E+00  0.00000000000E+00  0.54406704639E+03  0.54406704639E+03  0.25500000920E-02 0. -1.
       -2   -1    0    0    0  501  0.00000000000E+00  0.00000000000E+00 -0.29243901559E+03  0.29243901560E+03  0.25500000920E-02 0.  1.
    10030    2    1    2    0    0  0.00000000000E+00  0.00000000000E+00  0.25162803080E+03  0.83650606199E+03  0.79776295092E+03 0.  0.
        1    1    3    3  502    0 -0.13620257389E+03 -0.37043923761E+03  0.18632320820E+03  0.43645470307E+03  0.50400001928E-02 0.  1.
       -1    1    3    3    0  502  0.13620257389E+03  0.37043923761E+03  0.65304822602E+02  0.40005135892E+03  0.50400001928E-02 0. -1.
</event>
<event>
 5   0  0.6596225E-03  0.8071458E+03  0.7818609E-02  0.9549731E-01
       -1   -1    0    0    0  501  0.00000000000E+00  0.00000000000E+00  0.18365590770E+03  0.18365590777E+03  0.50400001928E-02 0. -1.
        1   -1    0    0  501    0  0.00000000000E+00  0.00000000000E+00 -0.88682740956E+03  0.88682740957E+03  0.50400001928E-02 0.  1.
    10030    2    1    2    0    0  0.00000000000E+00  0.00000000000E+00 -0.70317150185E+03  0.10704833173E+04  0.80714581811E+03 0.  0.
        5    1    3    3  502    0  0.16186286339E+02  0.40297290163E+03 -0.37033471957E+03  0.54755734844E+03  0.46999998093E+01 0. -1.
       -5    1    3    3    0  502 -0.16186286339E+02 -0.40297290163E+03 -0.33283678228E+03  0.52292596890E+03  0.46999998093E+01 0.  1.
</event>
<event>
 5   0  0.1119792E-02  0.7992115E+03  0.7818609E-02  0.9561159E-01
       -2   -1    0    0    0  501  0.00000000000E+00  0.00000000000E+00  0.22125289073E+03  0.22125289075E+03  0.25500000920E-02 0.  1.
        2   -1    0    0  501    0  0.00000000000E+00  0.00000000000E+00 -0.72172954382E+03  0.72172954383E+03  0.25500000920E-02 0. -1.
    10030    2    1    2    0    0  0.00000000000E+00  0.00000000000E+00 -0.50047665309E+03  0.94298243457E+03  0.79921148116E+03 0.  0.
        4    1    3    3  502    0 -0.17269570254E+03 -0.99774156979E+02 -0.65880179703E+03  0.68833139456E+03  0.12699999809E+01 0. -1.
       -4    1    3    3    0  502  0.17269570254E+03  0.99774156979E+02  0.15832514393E+03  0.25465104001E+03  0.12699999809E+01 0.  1.
</event>
<event>
 5   0  0.1106332E-02  0.8068083E+03  0.7818609E-02  0.9550214E-01
        2   -1    0    0  501    0  0.00000000000E+00  0.00000000000E+00  0.55744503094E+03  0.55744503095E+03  0.25500000920E-02 0. -1.
       -2   -1    0    0    0  501  0.00000000000E+00  0.00000000000E+00 -0.29192998285E+03  0.29192998287E+03  0.25500000920E-02 0.  1.
    10030    2    1    2    0    0  0.00000000000E+00  0.00000000000E+00  0.26551504809E+03  0.84937501381E+03  0.80680832502E+03 0.  0.
        1    1    3    3  502    0  0.12350791992E+03  0.13109840719E+02 -0.27130030043E+03  0.29837883176E+03  0.50400001928E-02 0.  1.
       -1    1    3    3    0  502 -0.12350791992E+03 -0.13109840719E+02  0.53681534852E+03  0.55099618205E+03  0.50400001928E-02 0. -1.
</event>
<event>
 5   0  0.1092868E-02  0.7999181E+03  0.7818609E-02  0.9560136E-01
        2   -1    0    0  501    0  0.00000000000E+00  0.00000000000E+00  0.13017201777E+04  0.13017201777E+04  0.25500000920E-02 0. -1.
       -2   -1    0    0    0  501  0.00000000000E+00  0.00000000000E+00 -0.12288911657E+03  0.12288911660E+03  0.25500000920E-02 0.  1.
    10030    2    1    2    0    0  0.00000000000E+00  0.00000000000E+00  0.11788310611E+04  0.14246092943E+04  0.79991810250E+03 0.  0.
        3    1    3    3  502    0  0.97280658501E+02 -0.11413885031E+03  0.12497496494E+04  0.12587157741E+04  0.10100000352E+00 0. -1.
       -3    1    3    3    0  502 -0.97280658501E+02  0.11413885031E+03 -0.70918588279E+02  0.16589352016E+03  0.10100000352E+00 0.  1.
</event>
<event>
 5   0  0.1121480E-02  0.7974706E+03  0.7818609E-02  0.9563686E-01
       -2   -1    0    0    0  501  0.00000000000E+00  0.00000000000E+00  0.96191316865E+02  0.96191316899E+02  0.25500000920E-02 0.  1.
        2   -1    0    0  501    0  0.00000000000E+00  0.00000000000E+00 -0.16528500215E+04  0.16528500215E+04  0.25500000920E-02 0. -1.
    10030    2    1    2    0    0  0.00000000000E+00  0.00000000000E+00 -0.15566587046E+04  0.17490413384E+04  0.79747055163E+03 0.  0.
        2    1    3    3  502    0 -0.39166672295E+03 -0.27781392653E+02 -0.93052150066E+03  0.10099727179E+04  0.25500000920E-02 0. -1.
       -2    1    3    3    0  502  0.39166672295E+03  0.27781392653E+02 -0.62613720395E+03  0.73906862051E+03  0.25500000920E-02 0.  1.
</event>
<event>
 5   0  0.1106332E-02  0.8025824E+03  0.7818609E-02  0.9556287E-01
       -2   -1    0    0    0  501  0.00000000000E+00  0.00000000000E+00  0.17159742616E+03  0.17159742618E+03  0.25500000920E-02 0.  1.
        2   -1    0    0  501    0  0.00000000000E+00  0.00000000000E+00 -0.93844440032E+03  0.93844440032E+03  0.25500000920E-02 0. -1.
    10030    2    1    2    0    0  0.00000000000E+00  0.00000000000E+00 -0.76684697416E+03  0.11100418265E+04  0.80258244112E+03 0.  0.
        1    1    3    3  502    0  0.32537652534E+03 -0.22950265561E+03 -0.31436195354E+03  0.50731133442E+03  0.50400001928E-02 0.  1.
       -1    1    3    3    0  502 -0.32537652534E+03  0.22950265561E+03 -0.45248502062E+03  0.60273049208E+03  0.50400001928E-02 0. -1.
</event>
<event>
 5   0  0.1154714E-02  0.7944111E+03  0.7818609E-02  0.9568142E-01
        2   -1    0    0  501    0  0.00000000000E+00  0.00000000000E+00  0.70152810397E+03  0.70152810398E+03  0.25500000920E-02 0. -1.
       -2   -1    0    0    0  501  0.00000000000E+00  0.00000000000E+00 -0.22489797277E+03  0.22489797279E+03  0.25500000920E-02 0.  1.
    10030    2    1    2    0    0  0.00000000000E+00  0.00000000000E+00  0.47663013120E+03  0.92642607676E+03  0.79441109870E+03 0.  0.
        5    1    3    3  502    0 -0.10881612333E+03  0.38181710078E+03  0.25134872348E+03  0.46991862906E+03  0.46999998093E+01 0. -1.
       -5    1    3    3    0  502  0.10881612333E+03 -0.38181710078E+03  0.22528140773E+03  0.45650744771E+03  0.46999998093E+01 0.  1.
</event>
<event>
 5   0  0.4385875E-03  0.8003071E+03  0.7818609E-02  0.9559573E-01
       -3   -1    0    0    0  501  0.00000000000E+00  0.00000000000E+00  0.28318981238E+03  0.28318983039E+03  0.10100000352E+00 0.  1.
        3   -1    0    0  501    0  0.00000000000E+00  0.00000000000E+00 -0.56542587350E+03  0.56542588252E+03  0.10100000352E+00 0. -1.
    10030    2    1    2    0    0  0.00000000000E+00  0.00000000000E+00 -0.28223606112E+03  0.84861571292E+03  0.80030708732E+03 0.  0.
        5    1    3    3  502    0 -0.28509860620E+03 -0.41220680063E+01 -0.43878083838E+03  0.52330576227E+03  0.46999998093E+01 0. -1.
       -5    1    3    3    0  502  0.28509860620E+03  0.41220680063E+01  0.15654477726E+03  0.32530995064E+03  0.46999998093E+01 0.  1.
</event>
<event>
 5   0  0.1121480E-02  0.7970019E+03  0.7818609E-02  0.9564367E-01
        2   -1    0    0  501    0  0.00000000000E+00  0.00000000000E+00  0.99635939151E+03  0.99635939151E+03  0.25500000920E-02 0.  1.
       -2   -1    0    0    0  501  0.00000000000E+00  0.00000000000E+00 -0.15938325172E+03  0.15938325174E+03  0.25500000920E-02 0. -1.
    10030    2    1    2    0    0  0.00000000000E+00  0.00000000000E+00  0.83697613979E+03  0.11557426433E+04  0.79700188135E+03 0.  0.
        2    1    3    3  502    0 -0.93938755590E+02 -0.32659291128E+03  0.11668485674E+03  0.35930874648E+03  0.25500000920E-02 0. -1.
       -2    1    3    3    0  502  0.93938755590E+02  0.32659291128E+03  0.72029128304E+03  0.79643389678E+03  0.25500000920E-02 0.  1.
</event>
<event>
 5   0  0.6517392E-03  0.8268557E+03  0.7818609E-02  0.9521938E-01
        1   -1    0    0  501    0  0.00000000000E+00  0.00000000000E+00  0.16071100668E+04  0.16071100668E+04  0.50400001928E-02 0.  1.
       -1   -1    0    0    0  501  0.00000000000E+00  0.00000000000E+00 -0.10635400508E+03  0.10635400520E+03  0.50400001928E-02 0. -1.
    10030    2    1    2    0    0  0.00000000000E+00  0.00000000000E+00  0.15007560617E+04  0.17134640720E+04  0.82685571247E+03 0.  0.
        3    1    3    3  502    0 -0.10835676519E+03 -0.36994289297E+03  0.10599972199E+04  0.11279153554E+04  0.10100000352E+00 0. -1.
       -3    1    3    3    0  502  0.10835676519E+03  0.36994289297E+03  0.44075884178E+03  0.58554871654E+03  0.10100000352E+00 0.  1.
</event>
<event>
 5   0  0.6557679E-03  0.7992014E+03  0.7818609E-02  0.9561174E-01
        1   -1    0    0  501    0  0.00000000000E+00  0.00000000000E+00  0.33307079343E+03  0.33307079347E+03  0.50400001928E-02 0.  1.
       -1   -1    0    0    0  501  0.00000000000E+00  0.00000000000E+00 -0.47941977643E+03  0.47941977646E+03  0.50400001928E-02 0. -1.
    10030    2    1    2    0    0  0.00000000000E+00  0.00000000000E+00 -0.14634898300E+03  0.81249056993E+03  0.79920141479E+03 0.  0.
        1    1    3    3  502    0 -0.23733119328E+03 -0.19949535366E+03  0.18312111555E+03  0.36008031662E+03  0.50400001928E-02 0.  1.
       -1    1    3    3    0  502  0.23733119328E+03  0.19949535366E+03 -0.32947009855E+03  0.45241025331E+03  0.50400001928E-02 0. -1.
</event>
<event>
 5   0  0.1121480E-02  0.7977146E+03  0.7818609E-02  0.9563331E-01
       -2   -1    0    0    0  501  0.00000000000E+00  0.00000000000E+00  0.20948256573E+03  0.20948256574E+03  0.25500000920E-02 0. -1.
        2   -1    0    0  501    0  0.00000000000E+00  0.00000000000E+00 -0.75942914025E+03  0.75942914025E+03  0.25500000920E-02 0.  1.
    10030    2    1    2    0    0  0.00000000000E+00  0.00000000000E+00 -0.54994657452E+03  0.96891170599E+03  0.79771464772E+03 0.  0.
        2    1    3    3  502    0 -0.33617641397E+03  0.80823669329E+02 -0.51649468674E+03  0.62154147751E+03  0.25500000920E-02 0.  1.
       -2    1    3    3    0  502  0.33617641397E+03 -0.80823669329E+02 -0.33451887779E+02  0.34737022848E+03  0.25500000920E-02 0. -1.
</event>
<event>
 5   0  0.1154714E-02  0.7992899E+03  0.7818609E-02  0.9561046E-01
        2   -1    0    0  501    0  0.00000000000E+00  0.00000000000E+00  0.26594577168E+03  0.26594577169E+03  0.25500000920E-02 0.  1.
       -2   -1    0    0    0  501  0.00000000000E+00  0.00000000000E+00 -0.60055883925E+03  0.60055883926E+03  0.25500000920E-02 0. -1.
    10030    2    1    2    0    0  0.00000000000E+00  0.00000000000E+00 -0.33461306758E+03  0.86650461095E+03  0.79928989472E+03 0.  0.
        5    1    3    3  502    0  0.12595158941E+03 -0.12697317514E+03  0.22010773683E+03  0.28364678015E+03  0.46999998093E+01 0.  1.
       -5    1    3    3    0  502 -0.12595158941E+03  0.12697317514E+03 -0.55472080441E+03  0.58285783080E+03  0.46999998093E+01 0. -1.
</event>
<event>
 5   0  0.1154714E-02  0.8058170E+03  0.7818609E-02  0.9551635E-01
       -2   -1    0    0    0  501  0.00000000000E+00  0.00000000000E+00  0.13508364413E+03  0.13508364416E+03  0.25500000920E-02 0. -1.
        2   -1    0    0  501    0  0.00000000000E+00  0.00000000000E+00 -0.12017389018E+04  0.12017389018E+04  0.25500000920E-02 0.  1.
    10030    2    1    2    0    0  0.00000000000E+00  0.00000000000E+00 -0.10666552577E+04  0.13368225460E+04  0.80581702681E+03 0.  0.
        5    1    3    3  502    0 -0.20339528982E+03 -0.31058180992E+03 -0.27375135919E+03  0.46129448428E+03  0.46999998093E+01 0. -1.
       -5    1    3    3    0  502  0.20339528982E+03  0.31058180992E+03 -0.79290389850E+03  0.87552806170E+03  0.46999998093E+01 0.  1.
</event>
<event>
 5   0  0.6551489E-03  0.7969180E+03  0.7818609E-02  0.9564489E-01
       -1   -1    0    0    0  501  0.00000000000E+00  0.00000000000E+00  0.13168961959E+03  0.13168961969E+03  0.50400001928E-02 0. -1.
        1   -1    0    0  501    0  0.00000000000E+00  0.00000000000E+00 -0.12056347184E+04  0.12056347184E+04  0.50400001928E-02 0.  1.
    10030    2    1    2    0    0  0.00000000000E+00  0.00000000000E+00 -0.10739450988E+04  0.13373243381E+04  0.79691800707E+03 0.  0.
        4    1    3    3  502    0 -0.15244949091E+01 -0.14148808425E+03  0.88105916127E+02  0.16668973401E+03  0.12699999809E+01 0. -1.
       -4    1    3    3    0  502  0.15244949091E+01  0.14148808425E+03 -0.11620510149E+04  0.11706346040E+04  0.12699999809E+01 0.  1.
</event>
<event>
 5   0  0.6596225E-03  0.7953055E+03  0.7818609E-02  0.9566837E-01
        1   -1    0    0  501    0  0.00000000000E+00  0.00000000000E+00  0.63792709587E+03  0.63792709589E+03  0.50400001928E-02 0. -1.
       -1   -1    0    0    0  501  0.00000000000E+00  0.00000000000E+00 -0.24787742992E+03  0.24787742997E+03  0.50400001928E-02 0.  1.
    10030    2    1    2    0    0  0.00000000000E+00  0.00000000000E+00  0.39004966596E+03  0.88580452586E+03  0.79530554891E+03 0.  0.
        5    1    3    3  502    0 -0.82715556662E+02 -0.14286740784E+03  0.59792290802E+03  0.62031190016E+03  0.46999998093E+01 0. -1.
       -5    1    3    3    0  502  0.82715556662E+02  0.14286740784E+03 -0.20787324207E+03  0.26549262570E+03  0.46999998093E+01 0.  1.
</event>
<event>
 5   0  0.1106332E-02  0.8016727E+03  0.7818609E-02  0.9557599E-01
        2   -1    0    0  501    0  0.00000000000E+00  0.00000000000E+00  0.15740759539E+04  0.15740759539E+04  0.25500000920E-02 0.  1.
       -2   -1    0    0    0  501  0.00000000000E+00  0.00000000000E+00 -0.10207243448E+03  0.10207243451E+03  0.25500000920E-02 0. -1.
    10030    2    1    2    0    0  0.00000000000E+00  0.00000000000E+00  0.14720035194E+04  0.16761483884E+04  0.80167266312E+03 0.  0.
        1    1    3    3  502    0  0.17872425336E+03  0.35831547749E+03  0.77440816947E+03  0.87180293250E+03  0.50400001928E-02 0.  1.
       -1    1    3    3    0  502 -0.17872425336E+03 -0.35831547749E+03  0.69759534995E+03  0.80434545592E+03  0.50400001928E-02 0. -1.
</event>
<event>
 5   0  0.1119792E-02  0.7328790E+03  0.7818609E-02  0.9662600E-01
        2   -1    0    0  501    0  0.00000000000E+00  0.00000000000E+00  0.72464626986E+03  0.72464626986E+03  0.25500000920E-02 0.  1.
       -2   -1    0    0    0  501  0.00000000000E+00  0.00000000000E+00 -0.18530130726E+03  0.18530130728E+03  0.25500000920E-02 0. -1.
    10030    2    1    2    0    0  0.00000000000E+00  0.00000000000E+00  0.53934496260E+03  0.90994757714E+03  0.73287898350E+03 0.  0.
        4    1    3    3  502    0  0.14442459723E+03  0.33227609333E+03  0.33779611036E+03  0.49535208847E+03  0.12699999809E+01 0.  1.
       -4    1    3    3    0  502 -0.14442459723E+03 -0.33227609333E+03  0.20154885225E+03  0.41459548867E+03  0.12699999809E+01 0. -1.
</event>
<event>
 5   0  0.1121480E-02  0.7950566E+03  0.7818609E-02  0.9567200E-01
        2   -1    0    0  501    0  0.00000000000E+00  0.00000000000E+00  0.13849217040E+04  0.13849217040E+04  0.25500000920E-02 0.  1.
       -2   -1    0    0    0  501  0.00000000000E+00  0.00000000000E+00 -0.11410663596E+03  0.11410663599E+03  0.25500000920E-02 0. -1.
    10030    2    1    2    0    0  0.00000000000E+00  0.00000000000E+00  0.12708150681E+04  0.14990283400E+04  0.79505661871E+03 0.  0.
        2    1    3    3  502    0  0.14263310548E+03 -0.22953602928E+03  0.85720440752E+02  0.28351187891E+03  0.25500000920E-02 0. -1.
       -2    1    3    3    0  502 -0.14263310548E+03  0.22953602928E+03  0.11850946273E+04  0.12155164611E+04  0.25500000920E-02 0.  1.
</event>
<event>
 5   0  0.1121480E-02  0.7959811E+03  0.7818609E-02  0.9565853E-01
       -2   -1    0    0    0  501  0.00000000000E+00  0.00000000000E+00  0.27879341108E+03  0.27879341110E+03  0.25500000920E-02 0.  1.
        2   -1    0    0  501    0  0.00000000000E+00  0.00000000000E+00 -0.56815004010E+03  0.56815004011E+03  0.25500000920E-02 0. -1.
    10030    2    1    2    0    0  0.00000000000E+00  0.00000000000E+00 -0.28935662902E+03  0.84694345120E+03  0.79598112464E+03 0.  0.
        2    1    3    3  502    0  0.15549362010E+03 -0.11359927532E+03  0.22592225269E+03  0.29685674241E+03  0.25500000920E-02 0.  1.
       -2    1    3    3    0  502 -0.15549362010E+03  0.11359927532E+03 -0.51527888171E+03  0.55008670879E+03  0.25500000920E-02 0. -1.
</event>
<event>
 5   0  0.4385875E-03  0.7868194E+03  0.7818609E-02  0.9579294E-01
       -4   -1    0    0    0  501  0.00000000000E+00  0.00000000000E+00  0.73400961271E+03  0.73401071140E+03  0.12699999809E+01 0. -1.
        4   -1    0    0  501    0  0.00000000000E+00  0.00000000000E+00 -0.21085402110E+03  0.21085784575E+03  0.12699999809E+01 0.  1.
    10030    2    1    2    0    0  0.00000000000E+00  0.00000000000E+00  0.52315559161E+03  0.94486855715E+03  0.78681943116E+03 0.  0.
        1    1    3    3  502    0 -0.29837560415E+03  0.36322074335E+02  0.56638123307E+03  0.64119809375E+03  0.50400001928E-02 0. -1.
       -1    1    3    3    0  502  0.29837560415E+03 -0.36322074335E+02 -0.43225641459E+02  0.30367046340E+03  0.50400001928E-02 0.  1.
</event>
<event>
 5   0  0.6557679E-03  0.7962904E+03  0.7818609E-02  0.9565402E-01
       -1   -1    0    0    0  501  0.00000000000E+00  0.00000000000E+00  0.13307783620E+04  0.13307783620E+04  0.50400001928E-02 0. -1.
        1   -1    0    0  501    0  0.00000000000E+00  0.00000000000E+00 -0.11911795609E+03  0.11911795620E+03  0.50400001928E-02 0.  1.
    10030    2    1    2    0    0  0.00000000000E+00  0.00000000000E+00  0.12116604059E+04  0.14498963182E+04  0.79629039572E+03 0.  0.
        1    1    3    3  502    0 -0.57450902432E+02  0.25520219388E+02  0.13216848636E+04  0.13231790380E+04  0.50400001928E-02 0. -1.
       -1    1    3    3    0  502  0.57450902432E+02 -0.25520219388E+02 -0.11002445771E+03  0.12671728023E+03  0.50400001928E-02 0.  1.
</event>
<event>
 5   0  0.1154714E-02  0.7969590E+03  0.7818609E-02  0.9564429E-01
       -2   -1    0    0    0  501  0.00000000000E+00  0.00000000000E+00  0.14952257798E+03  0.14952257800E+03  0.25500000920E-02 0. -1.
        2   -1    0    0  501    0  0.00000000000E+00  0.00000000000E+00 -0.10619527911E+04  0.10619527911E+04  0.25500000920E-02 0.  1.
    10030    2    1    2    0    0  0.00000000000E+00  0.00000000000E+00 -0.91243021311E+03  0.12114753691E+04  0.79695901784E+03 0.  0.
        5    1    3    3  502    0 -0.73706831186E+02  0.12457222354E+03 -0.10205326148E+04  0.10307569276E+04  0.46999998093E+01 0.  1.
       -5    1    3    3    0  502  0.73706831186E+02 -0.12457222354E+03  0.10810240172E+03  0.18071844150E+03  0.46999998093E+01 0. -1.
</event>
<event>
 5   0  0.1106332E-02  0.7993868E+03  0.7818609E-02  0.9560905E-01
        2   -1    0    0  501    0  0.00000000000E+00  0.00000000000E+00  0.10826032395E+04  0.10826032395E+04  0.25500000920E-02 0. -1.
       -2   -1    0    0    0  501  0.00000000000E+00  0.00000000000E+00 -0.14756541716E+03  0.14756541719E+03  0.25500000920E-02 0.  1.
    10030    2    1    2    0    0  0.00000000000E+00  0.00000000000E+00  0.93503782233E+03  0.12301686567E+04  0.79938676165E+03 0.  0.
        1    1    3    3  502    0 -0.27928763355E+03  0.24928651653E+03  0.25202232137E+03  0.45128771319E+03  0.50400001928E-02 0.  1.
       -1    1    3    3    0  502  0.27928763355E+03 -0.24928651653E+03  0.68301550096E+03  0.77888094350E+03  0.50400001928E-02 0. -1.
</event>
<event>
 5   0  0.6551489E-03  0.8018534E+03  0.7818609E-02  0.9557338E-01
        1   -1    0    0  501    0  0.00000000000E+00  0.00000000000E+00  0.50411974864E+03  0.50411974867E+03  0.50400001928E-02 0. -1.
       -1   -1    0    0    0  501  0.00000000000E+00  0.00000000000E+00 -0.31885721780E+03  0.31885721784E+03  0.50400001928E-02 0.  1.
    10030    2    1    2    0    0  0.00000000000E+00  0.00000000000E+00  0.18526253084E+03  0.82297696651E+03  0.80185340435E+03 0.  0.
        4    1    3    3  502    0 -0.30168500676E+03 -0.18127458834E+03 -0.10443278652E+03  0.36712687110E+03  0.12699999809E+01 0.  1.
       -4    1    3    3    0  502  0.30168500676E+03  0.18127458834E+03  0.28969531736E+03  0.45585009541E+03  0.12699999809E+01 0. -1.
</event>
<event>
 5   0  0.6517392E-03  0.8018530E+03  0.7818609E-02  0.9557339E-01
        1   -1    0    0  501    0  0.00000000000E+00  0.00000000000E+00  0.10354529997E+04  0.10354529998E+04  0.50400001928E-02 0.  1.
       -1   -1    0    0    0  501  0.00000000000E+00  0.00000000000E+00 -0.15523837493E+03  0.15523837502E+03  0.50400001928E-02 0. -1.
    10030    2    1    2    0    0  0.00000000000E+00  0.00000000000E+00  0.88021462481E+03  0.11906913748E+04  0.80185295674E+03 0.  0.
        3    1    3    3  502    0  0.16778118117E+03 -0.19480981614E+02 -0.99825730128E+02  0.19620198775E+03  0.10100000352E+00 0. -1.
       -3    1    3    3    0  502 -0.16778118117E+03  0.19480981614E+02  0.98004035493E+03  0.99448938702E+03  0.10100000352E+00 0.  1.
</event>
<event>
 5   0  0.1154714E-02  0.7971669E+03  0.7818609E-02  0.9564127E-01
       -2   -1    0    0    0  501  0.00000000000E+00  0.00000000000E+00  0.96977330310E+03  0.96977330310E+03  0.25500000920E-02 0.  1.
        2   -1    0    0  501    0  0.00000000000E+00  0.00000000000E+00 -0.16382052281E+03  0.16382052283E+03  0.25500000920E-02 0. -1.
    10030    2    1    2    0    0  0.00000000000E+00  0.00000000000E+00  0.80595278029E+03  0.11335938259E+04  0.79716690732E+03 0.  0.
        5    1    3    3  502    0 -0.14043785295E+03  0.36269917662E+03  0.52672713353E+03  0.65478015124E+03  0.46999998093E+01 0. -1.
       -5    1    3    3    0  502  0.14043785295E+03 -0.36269917662E+03  0.27922564676E+03  0.47881367469E+03  0.46999998093E+01 0.  1.
</event>
<event>
 5   0  0.4385875E-03  0.7987832E+03  0.7818609E-02  0.9561780E-01
        4   -1    0    0  501    0  0.00000000000E+00  0.00000000000E+00  0.47375459145E+03  0.47375629370E+03  0.12699999809E+01 0.  1.
       -4   -1    0    0    0  501  0.00000000000E+00  0.00000000000E+00 -0.33669750966E+03  0.33669990482E+03  0.12699999809E+01 0. -1.
    10030    2    1    2    0    0  0.00000000000E+00  0.00000000000E+00  0.13705708180E+03  0.81045619853E+03  0.79878320342E+03 0.  0.
        2    1    3    3  502    0 -0.87576327994E+02  0.36239336543E+03  0.21385252825E+03  0.42980398832E+03  0.25500000920E-02 0.  1.
       -2    1    3    3    0  502  0.87576327994E+02 -0.36239336543E+03 -0.76795446448E+02  0.38065221021E+03  0.25500000920E-02 0. -1.
</event>
<event>
 5   0  0.1121480E-02  0.8010443E+03  0.7818609E-02  0.9558507E-01
        2   -1    0    0  501    0  0.00000000000E+00  0.00000000000E+00  0.42497753005E+03  0.42497753006E+03  0.25500000920E-02 0.  1.
       -2   -1    0    0    0  501  0.00000000000E+00  0.00000000000E+00 -0.37747404791E+03  0.37747404792E+03  0.25500000920E-02 0. -1.
    10030    2    1    2    0    0  0.00000000000E+00  0.00000000000E+00  0.47503482141E+02  0.80245157798E+03  0.80104428978E+03 0.  0.
        2    1    3    3  502    0  0.27352194701E+03  0.20389631596E+02  0.31613433003E+03  0.41853423659E+03  0.25500000920E-02 0.  1.
       -2    1    3    3    0  502 -0.27352194701E+03 -0.20389631596E+02 -0.26863084789E+03  0.38391734138E+03  0.25500000920E-02 0. -1.
</event>
<event>
 5   0  0.1119792E-02  0.8074720E+03  0.7818609E-02  0.9549264E-01
        2   -1    0    0  501    0  0.00000000000E+00  0.00000000000E+00  0.95125953082E+03  0.95125953083E+03  0.25500000920E-02 0.  1.
       -2   -1    0    0    0  501  0.00000000000E+00  0.00000000000E+00 -0.17135465467E+03  0.17135465469E+03  0.25500000920E-02 0. -1.
    10030    2    1    2    0    0  0.00000000000E+00  0.00000000000E+00  0.77990487615E+03  0.11226141855E+04  0.80747197702E+03 0.  0.
        4    1    3    3  502    0 -0.38892907186E+03  0.10630112954E+03  0.41896182302E+03  0.58146055337E+03  0.12699999809E+01 0. -1.
       -4    1    3    3    0  502  0.38892907186E+03 -0.10630112954E+03  0.36094305313E+03  0.54115363214E+03  0.12699999809E+01 0.  1.
</event>
<event>
 5   0  0.6557679E-03  0.8000634E+03  0.7818609E-02  0.9559925E-01
        1   -1    0    0  501    0  0.00000000000E+00  0.00000000000E+00  0.49958634511E+03  0.49958634514E+03  0.50400001928E-02 0. -1.
       -1   -1    0    0    0  501  0.00000000000E+00  0.00000000000E+00 -0.32031572812E+03  0.32031572816E+03  0.50400001928E-02 0.  1.
    10030    2    1    2    0    0  0.00000000000E+00  0.00000000000E+00  0.17927061699E+03  0.81990207330E+03  0.80006340729E+03 0.  0.
        1    1    3    3  502    0  0.30388288153E+03 -0.54784372686E+02  0.35026266563E+03  0.46693689952E+03  0.50400001928E-02 0. -1.
       -1    1    3    3    0  502 -0.30388288153E+03  0.54784372686E+02 -0.17099204864E+03  0.35296517378E+03  0.50400001928E-02 0.  1.
</event>
<event>
 5   0  0.6557679E-03  0.7908764E+03  0.7818609E-02  0.9573318E-01
       -1   -1    0    0    0  501  0.00000000000E+00  0.00000000000E+00  0.12059117325E+03  0.12059117335E+03  0.50400001928E-02 0.  1.
        1   -1    0    0  501    0  0.00000000000E+00  0.00000000000E+00 -0.12967066142E+04  0.12967066142E+04  0.50400001928E-02 0. -1.
    10030    2    1    2    0    0  0.00000000000E+00  0.00000000000E+00 -0.11761154409E+04  0.14172977875E+04  0.79087640511E+03 0.  0.
        1    1    3    3  502    0  0.20392130437E+03  0.33779707076E+03 -0.63480996761E+03  0.74744528522E+03  0.50400001928E-02 0. -1.
       -1    1    3    3    0  502 -0.20392130437E+03 -0.33779707076E+03 -0.54130547329E+03  0.66985250230E+03  0.50400001928E-02 0.  1.
</event>
<event>
 5   0  0.6517392E-03  0.7905388E+03  0.7818609E-02  0.9573814E-01
        1   -1    0    0  501    0  0.00000000000E+00  0.00000000000E+00  0.71755713657E+03  0.71755713659E+03  0.50400001928E-02 0. -1.
       -1   -1    0    0    0  501  0.00000000000E+00  0.00000000000E+00 -0.21773584439E+03  0.21773584445E+03  0.50400001928E-02 0.  1.
    10030    2    1    2    0    0  0.00000000000E+00  0.00000000000E+00  0.49982129219E+03  0.93529298104E+03  0.79053882653E+03 0.  0.
        3    1    3    3  502    0 -0.64806114406E+02  0.34474365285E+03  0.46545036540E+03  0.58283108316E+03  0.10100000352E+00 0. -1.
       -3    1    3    3    0  502  0.64806114406E+02 -0.34474365285E+03  0.34370926791E+02  0.35246189788E+03  0.10100000352E+00 0.  1.
</event>
<event>
 5   0  0.1106332E-02  0.8025686E+03  0.7818609E-02  0.9556307E-01
       -2   -1    0    0    0  501  0.00000000000E+00  0.00000000000E+00  0.29360892153E+03  0.29360892154E+03  0.25500000920E-02 0.  1.
        2   -1    0    0  501    0  0.00000000000E+00  0.00000000000E+00 -0.54844747246E+03  0.54844747247E+03  0.25500000920E-02 0. -1.
    10030    2    1    2    0    0  0.00000000000E+00  0.00000000000E+00 -0.25483855093E+03  0.84205639401E+03  0.80256855387E+03 0.  0.
        1    1    3    3  502    0  0.23758151040E+03 -0.31437570380E+03 -0.47845677899E+02  0.39694617537E+03  0.50400001928E-02 0.  1.
       -1    1    3    3    0  502 -0.23758151040E+03  0.31437570380E+03 -0.20699287304E+03  0.44511021864E+03  0.50400001928E-02 0. -1.
</event>
<event>
 5   0  0.4385875E-03  0.7941715E+03  0.7818609E-02  0.9568492E-01
       -3   -1    0    0    0  501  0.00000000000E+00  0.00000000000E+00  0.17223360301E+03  0.17223363263E+03  0.10100000352E+00 0.  1.
        3   -1    0    0  501    0  0.00000000000E+00  0.00000000000E+00 -0.91548381502E+03  0.91548382059E+03  0.10100000352E+00 0. -1.
    10030    2    1    2    0    0  0.00000000000E+00  0.00000000000E+00 -0.74325021201E+03  0.10877174532E+04  0.79417150565E+03 0.  0.
        2    1    3    3  502    0  0.21768536411E+03  0.20543699215E+03 -0.72900501278E+03  0.78806064752E+03  0.25500000920E-02 0. -1.
       -2    1    3    3    0  502 -0.21768536411E+03 -0.20543699215E+03 -0.14245199221E+02  0.29965680570E+03  0.25500000920E-02 0.  1.
</event>
<event>
 5   0  0.1119792E-02  0.8036509E+03  0.7818609E-02  0.9554748E-01
       -2   -1    0    0    0  501  0.00000000000E+00  0.00000000000E+00  0.31332303664E+03  0.31332303665E+03  0.25500000920E-02 0.  1.
        2   -1    0    0  501    0  0.00000000000E+00  0.00000000000E+00 -0.51532660626E+03  0.51532660627E+03  0.25500000920E-02 0. -1.
    10030    2    1    2    0    0  0.00000000000E+00  0.00000000000E+00 -0.20200356962E+03  0.82864964292E+03  0.80365091213E+03 0.  0.
        4    1    3    3  502    0 -0.33632947741E+03  0.27743455666E+02 -0.32590325760E+03  0.46915004308E+03  0.12699999809E+01 0. -1.
       -4    1    3    3    0  502  0.33632947741E+03 -0.27743455666E+02  0.12389968798E+03  0.35949959984E+03  0.12699999809E+01 0.  1.
</event>
<event>
 5   0  0.6551489E-03  0.8040097E+03  0.7818609E-02  0.9554231E-01
       -1   -1    0    0    0  501  0.00000000000E+00  0.00000000000E+00  0.26750998445E+03  0.26750998450E+03  0.50400001928E-02 0. -1.
        1   -1    0    0  501    0  0.00000000000E+00  0.00000000000E+00 -0.60411917509E+03  0.60411917511E+03  0.50400001928E-02 0.  1.
    10030    2    1    2    0    0  0.00000000000E+00  0.00000000000E+00 -0.33660919064E+03  0.87162915961E+03  0.80400972920E+03 0.  0.
        4    1    3    3  502    0 -0.27825483996E+03 -0.26578124086E+03 -0.29445649653E+03  0.48453241915E+03  0.12699999809E+01 0.  1.
       -4    1    3    3    0  502  0.27825483996E+03  0.26578124086E+03 -0.42152694109E+02  0.38709674046E+03  0.12699999809E+01 0. -1.
</event>
<event>
 5   0  0.6596225E-03  0.8059865E+03  0.7818609E-02  0.9551392E-01
       -1   -1    0    0    0  501  0.00000000000E+00  0.00000000000E+00  0.17859270294E+03  0.17859270301E+03  0.50400001928E-02 0.  1.
        1   -1    0    0  501    0  0.00000000000E+00  0.00000000000E+00 -0.90935150711E+03  0.90935150713E+03  0.50400001928E-02 0. -1.
    10030    2    1    2    0    0  0.00000000000E+00  0.00000000000E+00 -0.73075880418E+03  0.10879442101E+04  0.80598646048E+03 0.  0.
        5    1    3    3  502    0  0.26932618137E+03  0.25868517997E+03 -0.16099348289E+03  0.40668858582E+03  0.46999998093E+01 0.  1.
       -5    1    3    3    0  502 -0.26932618137E+03 -0.25868517997E+03 -0.56976532129E+03  0.68125562431E+03  0.46999998093E+01 0. -1.
</event>
<event>
 5   0  0.1106332E-02  0.7935574E+03  0.7818609E-02  0.9569390E-01
       -2   -1    0    0    0  501  0.00000000000E+00  0.00000000000E+00  0.20024405390E+04  0.20024405390E+04  0.25500000920E-02 0.  1.
        2   -1    0    0  501    0  0.00000000000E+00  0.00000000000E+00 -0.78620725253E+02  0.78620725294E+02  0.25500000920E-02 0. -1.
    10030    2    1    2    0    0  0.00000000000E+00  0.00000000000E+00  0.19238198137E+04  0.20810612643E+04  0.79355737661E+03 0.  0.
        1    1    3    3  502    0  0.13042361676E+03 -0.28372386178E+03  0.16038671827E+04  0.16339827078E+04  0.50400001928E-02 0.  1.
       -1    1    3    3    0  502 -0.13042361676E+03  0.28372386178E+03  0.31995263102E+03  0.44707855649E+03  0.50400001928E-02 0. -1.
</event>
<event>
 5   0  0.6517392E-03  0.7915508E+03  0.7818609E-02  0.9572328E-01
       -1   -1    0    0    0  501  0.00000000000E+00  0.00000000000E+00  0.87064559085E+02  0.87064559231E+02  0.50400001928E-02 0. -1.
        1   -1    0    0  501    0  0.00000000000E+00  0.00000000000E+00 -0.17991037843E+04  0.17991037843E+04  0.50400001928E-02 0.  1.
    10030    2    1    2    0    0  0.00000000000E+00  0.00000000000E+00 -0.17120392252E+04  0.18861683435E+04  0.79155082685E+03 0.  0.
        3    1    3    3  502    0 -0.19736262798E+03  0.31268170982E+03 -0.11923035112E+04  0.12483226873E+04  0.10100000352E+00 0. -1.
       -3    1    3    3    0  502  0.19736262798E+03 -0.31268170982E+03 -0.51973571403E+03  0.63784565626E+03  0.10100000352E+00 0.  1.
</event>
<event>
 5   0  0.1121480E-02  0.7959159E+03  0.7818609E-02  0.9565948E-01
       -2   -1    0    0    0  501  0.00000000000E+00  0.00000000000E+00  0.26748770547E+03  0.26748770549E+03  0.25500000920E-02 0.  1.
        2   -1    0    0  501    0  0.00000000000E+00  0.00000000000E+00 -0.59206654757E+03  0.59206654758E+03  0.25500000920E-02 0. -1.
    10030    2    1    2    0    0  0.00000000000E+00  0.00000000000E+00 -0.32457884210E+03  0.85955425307E+03  0.79591588075E+03 0.  0.
        2    1    3    3  502    0  0.73595535537E+02  0.27229043795E+03 -0.46547090530E+03  0.54426238997E+03  0.25500000920E-02 0. -1.
       -2    1    3    3    0  502 -0.73595535537E+02 -0.27229043795E+03  0.14089206320E+03  0.31529186309E+03  0.25500000920E-02 0.  1.
</event>
<event>
 5   0  0.1121480E-02  0.8002946E+03  0.7818609E-02  0.9559591E-01
       -2   -1    0    0    0  501  0.00000000000E+00  0.00000000000E+00  0.13355039011E+03  0.13355039014E+03  0.25500000920E-02 0.  1.
        2   -1    0    0  501    0  0.00000000000E+00  0.00000000000E+00 -0.11989321120E+04  0.11989321120E+04  0.25500000920E-02 0. -1.
    10030    2    1    2    0    0  0.00000000000E+00  0.00000000000E+00 -0.10653817219E+04  0.13324825021E+04  0.80029457400E+03 0.  0.
        2    1    3    3  502    0 -0.25790192592E+03 -0.30414645031E+03 -0.58789688607E+03  0.71038103528E+03  0.25500000920E-02 0.  1.
       -2    1    3    3    0  502  0.25790192592E+03  0.30414645031E+03 -0.47748483582E+03  0.62210146687E+03  0.25500000920E-02 0. -1.
</event>
<event>
 5   0  0.1119792E-02  0.7963344E+03  0.7818609E-02  0.9565338E-01
        2   -1    0    0  501    0  0.00000000000E+00  0.00000000000E+00  0.54782467566E+03  0.54782467566E+03  0.25500000920E-02 0. -1.
       -2   -1    0    0    0  501  0.00000000000E+00  0.00000000000E+00 -0.28939389627E+03  0.28939389628E+03  0.25500000920E-02 0.  1.
    10030    2    1    2    0    0  0.00000000000E+00  0.00000000000E+00  0.25843077939E+03  0.83721857194E+03  0.79633439551E+03 0.  0.
        4    1    3    3  502    0 -0.16353168758E+03  0.63316108328E+02  0.50503683139E+03  0.53461701841E+03  0.12699999809E+01 0. -1.
       -4    1    3    3    0  502  0.16353168758E+03 -0.63316108328E+02 -0.24660605200E+03  0.30260155353E+03  0.12699999809E+01 0.  1.
</event>
<event>
 5   0  0.1092868E-02  0.7973075E+03  0.7818609E-02  0.9563923E-01
        2   -1    0    0  501    0  0.00000000000E+00  0.00000000000E+00  0.17365026881E+04  0.17365026881E+04  0.25500000920E-02 0.  1.
       -2   -1    0    0    0  501  0.00000000000E+00  0.00000000000E+00 -0.91520058676E+02  0.91520058712E+02  0.25500000920E-02 0. -1.
    10030    2    1    2    0    0  0.00000000000E+00  0.00000000000E+00  0.16449826294E+04  0.18280227468E+04  0.79730753901E+03 0.  0.
        3    1    3    3  502    0 -0.79988547810E+02  0.38990224115E+03  0.87390671482E+03  0.96027854389E+03  0.10100000352E+00 0.  1.
       -3    1    3    3    0  502  0.79988547810E+02 -0.38990224115E+03  0.77107591460E+03  0.86774420293E+03  0.10100000352E+00 0. -1.
</event>
<event>
 5   0  0.1106332E-02  0.7978156E+03  0.7818609E-02  0.9563184E-01
       -2   -1    0    0    0  501  0.00000000000E+00  0.00000000000E+00  0.28114395072E+03  0.28114395073E+03  0.25500000920E-02 0.  1.
        2   -1    0    0  501    0  0.00000000000E+00  0.00000000000E+00 -0.56599978430E+03  0.56599978430E+03  0.25500000920E-02 0. -1.
    10030    2    1    2    0    0  0.00000000000E+00  0.00000000000E+00 -0.28485583358E+03  0.84714373503E+03  0.79781555631E+03 0.  0.
        1    1    3    3  502    0 -0.31572157521E+02  0.32604776708E+03  0.99295007168E+02  0.34229146355E+03  0.50400001928E-02 0.  1.
       -1    1    3    3    0  502  0.31572157521E+02 -0.32604776708E+03 -0.38415084075E+03  0.50485227148E+03  0.50400001928E-02 0. -1.
</event>
<event>
 5   0  0.1154714E-02  0.8000200E+03  0.7818609E-02  0.9559988E-01
        2   -1    0    0  501    0  0.00000000000E+00  0.00000000000E+00  0.14704733751E+04  0.14704733751E+04  0.25500000920E-02 0. -1.
       -2   -1    0    0    0  501  0.00000000000E+00  0.00000000000E+00 -0.10881394459E+03  0.10881394462E+03  0.25500000920E-02 0.  1.
    10030    2    1    2    0    0  0.00000000000E+00  0.00000000000E+00  0.13616594305E+04  0.15792873197E+04  0.80002002070E+03 0.  0.
        5    1    3    3  502    0  0.31074285515E+03 -0.24846603985E+03  0.76196869544E+03  0.85960158086E+03  0.46999998093E+01 0. -1.
       -5    1    3    3    0  502 -0.31074285515E+03  0.24846603985E+03  0.59969073504E+03  0.71968573883E+03  0.46999998093E+01 0.  1.
</event>
<event>
 5   0  0.6551489E-03  0.7922355E+03  0.7818609E-02  0.9571324E-01
       -1   -1    0    0    0  501  0.00000000000E+00  0.00000000000E+00  0.18725781940E+03  0.18725781946E+03  0.50400001928E-02 0.  1.
        1   -1    0    0  501    0  0.00000000000E+00  0.00000000000E+00 -0.83793182132E+03  0.83793182134E+03  0.50400001928E-02 0. -1.
    10030    2    1    2    0    0  0.00000000000E+00  0.00000000000E+00 -0.65067400192E+03  0.10251896408E+04  0.79223553494E+03 0.  0.
        4    1    3    3  502    0 -0.11615205863E+03  0.35172122690E+03 -0.14366950316E+03  0.39729291614E+03  0.12699999809E+01 0.  1.
       -4    1    3    3    0  502  0.11615205863E+03 -0.35172122690E+03 -0.50700449876E+03  0.62789672466E+03  0.12699999809E+01 0. -1.
</event>
<event>
 5   0  0.6596225E-03  0.7976846E+03  0.7818609E-02  0.9563375E-01
        1   -1    0    0  501    0  0.00000000000E+00  0.00000000000E+00  0.23323967610E+03  0.23323967615E+03  0.50400001928E-02 0.  1.
       -1   -1    0    0    0  501  0.00000000000E+00  0.00000000000E+00 -0.68202459028E+03  0.68202459030E+03  0.50400001928E-02 0. -1.
    10030    2    1    2    0    0  0.00000000000E+00  0.00000000000E+00 -0.44878491419E+03  0.91526426645E+03  0.79768463583E+03 0.  0.
        5    1    3    3  502    0 -0.29022104880E+02 -0.32143141361E+03  0.44434273974E+02  0.32581732754E+03  0.46999998093E+01 0.  1.
       -5    1    3    3    0  502  0.29022104880E+02  0.32143141361E+03 -0.49321918816E+03  0.58944693891E+03  0.46999998093E+01 0. -1.
</event>
<event>
 5   0  0.1119792E-02  0.8021277E+03  0.7818609E-02  0.9556942E-01
       -2   -1    0    0    0  501  0.00000000000E+00  0.00000000000E+00  0.19796926484E+03  0.19796926485E+03  0.25500000920E-02 0. -1.
        2   -1    0    0  501    0  0.00000000000E+00  0.00000000000E+00 -0.81251110153E+03  0.81251110154E+03  0.25500000920E-02 0.  1.
    10030    2    1    2    0    0  0.00000000000E+00  0.00000000000E+00 -0.61454183669E+03  0.10104803664E+04  0.80212773410E+03 0.  0.
        4    1    3    3  502    0  0.24385022422E+03 -0.98006687719E+02  0.74377951415E+02  0.27313354837E+03  0.12699999809E+01 0. -1.
       -4    1    3    3    0  502 -0.24385022422E+03  0.98006687719E+02 -0.68891978811E+03  0.73734681802E+03  0.12699999809E+01 0.  1.
</event>
<event>
 5   0  0.1121480E-02  0.8039366E+03  0.7818609E-02  0.9554336E-01
       -2   -1    0    0    0  501  0.00000000000E+00  0.00000000000E+00  0.18340662837E+03  0.18340662839E+03  0.25500000920E-02 0.  1.
        2   -1    0    0  501    0  0.00000000000E+00  0.00000000000E+00 -0.88098514968E+03  0.88098514969E+03  0.25500000920E-02 0. -1.
    10030    2    1    2    0    0  0.00000000000E+00  0.00000000000E+00 -0.69757852131E+03  0.10643917781E+04  0.80393660436E+03 0.  0.
        2    1    3    3  502    0  0.11892629570E+02  0.22355691716E+03  0.93226781327E+02  0.24250847946E+03  0.25500000920E-02 0.  1.
       -2    1    3    3    0  502 -0.11892629570E+02 -0.22355691716E+03 -0.79080530264E+03  0.82188329861E+03  0.25500000920E-02 0. -1.
</event>
<event>
 5   0  0.6596225E-03  0.8050381E+03  0.7818609E-02  0.9552753E-01
        1   -1    0    0  501    0  0.00000000000E+00  0.00000000000E+00  0.95449136810E+03  0.95449136812E+03  0.50400001928E-02 0. -1.
       -1   -1    0    0    0  501  0.00000000000E+00  0.00000000000E+00 -0.16974652687E+03  0.16974652695E+03  0.50400001928E-02 0.  1.
    10030    2    1    2    0    0  0.00000000000E+00  0.00000000000E+00  0.78474484123E+03  0.11242378951E+04  0.80503812261E+03 0.  0.
        5    1    3    3  502    0  0.17521160438E+03 -0.35624192381E+03  0.29982221353E+03  0.49751669752E+03  0.46999998093E+01 0.  1.
       -5    1    3    3    0  502 -0.17521160438E+03  0.35624192381E+03  0.48492262770E+03  0.62672119754E+03  0.46999998093E+01 0. -1.
</event>
<event>
 5   0  0.6600401E-03  0.8011826E+03  0.7818609E-02  0.9558307E-01
       -1   -1    0    0    0  501  0.00000000000E+00  0.00000000000E+00  0.11213946562E+03  0.11213946573E+03  0.50400001928E-02 0. -1.
        1   -1    0    0  501    0  0.00000000000E+00  0.00000000000E+00 -0.14310162299E+04  0.14310162300E+04  0.50400001928E-02 0.  1.
    10030    2    1    2    0    0  0.00000000000E+00  0.00000000000E+00 -0.13188767643E+04  0.15431556957E+04  0.80118261442E+03 0.  0.
        2    1    3    3  502    0  0.33618086853E+03  0.21753304397E+03 -0.63704309386E+03  0.75243744260E+03  0.25500000920E-02 0.  1.
       -2    1    3    3    0  502 -0.33618086853E+03 -0.21753304397E+03 -0.68183367046E+03  0.79071825308E+03  0.25500000920E-02 0. -1.
</event>
<event>
 5   0  0.1154714E-02  0.8019031E+03  0.7818609E-02  0.9557266E-01
        2   -1    0    0  501    0  0.00000000000E+00  0.00000000000E+00  0.10849826785E+04  0.10849826785E+04  0.25500000920E-02 0. -1.
       -2   -1    0    0    0  501  0.00000000000E+00  0.00000000000E+00 -0.14817025666E+03  0.14817025668E+03  0.25500000920E-02 0.  1.
    10030    2    1    2    0    0  0.00000000000E+00  0.00000000000E+00  0.93681242185E+03  0.12331529352E+04  0.80190314120E+03 0.  0.
        5    1    3    3  502    0  0.44454659873E+02 -0.36518997245E+03  0.71348914710E+03  0.80276321901E+03  0.46999998093E+01 0. -1.
       -5    1    3    3    0  502 -0.44454659873E+02  0.36518997245E+03  0.22332327475E+03  0.43038971620E+03  0.46999998093E+01 0.  1.
</event>
<event>
 5   0  0.6600401E-03  0.8329521E+03  0.7818609E-02  0.9513508E-01
        1   -1    0    0  501    0  0.00000000000E+00  0.00000000000E+00  0.11441414256E+04  0.11441414256E+04  0.50400001928E-02 0.  1.
       -1   -1    0    0    0  501  0.00000000000E+00  0.00000000000E+00 -0.15160040063E+03  0.15160040071E+03  0.50400001928E-02 0. -1.
    10030    2    1    2    0    0  0.00000000000E+00  0.00000000000E+00  0.99254102494E+03  0.12957418263E+04  0.83295209599E+03 0.  0.
        2    1    3    3  502    0  0.62380677727E+02 -0.11952808487E+03 -0.11671160384E+03  0.17832529407E+03  0.25500000920E-02 0. -1.
       -2    1    3    3    0  502 -0.62380677727E+02  0.11952808487E+03  0.11092526288E+04  0.11174165322E+04  0.25500000920E-02 0.  1.
</event>
<event>
 5   0  0.6517392E-03  0.8010600E+03  0.7818609E-02  0.9558484E-01
       -1   -1    0    0    0  501  0.00000000000E+00  0.00000000000E+00  0.19432429037E+03  0.19432429043E+03  0.50400001928E-02 0.  1.
        1   -1    0    0  501    0  0.00000000000E+00  0.00000000000E+00 -0.82554928144E+03  0.82554928145E+03  0.50400001928E-02 0. -1.
    10030    2    1    2    0    0  0.00000000000E+00  0.00000000000E+00 -0.63122499107E+03  0.10198735719E+04  0.80105999356E+03 0.  0.
        3    1    3    3  502    0 -0.88567300180E+02 -0.61074676021E+02  0.17558449059E+03  0.20592281624E+03  0.10100000352E+00 0.  1.
       -3    1    3    3    0  502  0.88567300180E+02  0.61074676021E+02 -0.80680948166E+03  0.81395075564E+03  0.10100000352E+00 0. -1.
</event>
<event>
 5   0  0.6557679E-03  0.8037929E+03  0.7818609E-02  0.9554543E-01
        1   -1    0    0  501    0  0.00000000000E+00  0.00000000000E+00  0.23931619195E+04  0.23931619195E+04  0.50400001928E-02 0.  1.
       -1   -1    0    0    0  501  0.00000000000E+00  0.00000000000E+00 -0.67492618582E+02  0.67492618771E+02  0.50400001928E-02 0. -1.
    10030    2    1    2    0    0  0.00000000000E+00  0.00000000000E+00  0.23256693009E+04  0.24606545383E+04  0.80379292079E+03 0.  0.
        1    1    3    3  502    0 -0.25529770247E+03  0.96357563649E+02  0.25957320128E+03  0.37661644124E+03  0.50400001928E-02 0. -1.
       -1    1    3    3    0  502  0.25529770247E+03 -0.96357563649E+02  0.20660960997E+04  0.20840380971E+04  0.50400001928E-02 0.  1.
</event>
<event>
 5   0  0.1106332E-02  0.8312925E+03  0.7818609E-02  0.9515795E-01
        2   -1    0    0  501    0  0.00000000000E+00  0.00000000000E+00  0.49436400500E+03  0.49436400501E+03  0.25500000920E-02 0.  1.
       -2   -1    0    0    0  501  0.00000000000E+00  0.00000000000E+00 -0.34946273459E+03  0.34946273459E+03  0.25500000920E-02 0. -1.
    10030    2    1    2    0    0  0.00000000000E+00  0.00000000000E+00  0.14490127042E+03  0.84382673961E+03  0.83129248060E+03 0.  0.
        1    1    3    3  502    0  0.23972095168E+03  0.29413994805E+03  0.24464734771E+03  0.45148285514E+03  0.50400001928E-02 0.  1.
       -1    1    3    3    0  502 -0.23972095168E+03 -0.29413994805E+03 -0.99746077294E+02  0.39234388447E+03  0.50400001928E-02 0. -1.
</event>
<event>
 5   0  0.4385875E-03  0.7982579E+03  0.7818609E-02  0.9562542E-01
       -3   -1    0    0    0  501  0.00000000000E+00  0.00000000000E+00  0.53636949628E+03  0.53636950579E+03  0.10100000352E+00 0.  1.
        3   -1    0    0  501    0  0.00000000000E+00  0.00000000000E+00 -0.29700401707E+03  0.29700403424E+03  0.10100000352E+00 0. -1.
    10030    2    1    2    0    0  0.00000000000E+00  0.00000000000E+00  0.23936547921E+03  0.83337354003E+03  0.79825786848E+03 0.  0.
        4    1    3    3  502    0 -0.34378891855E+03 -0.20251493808E+03  0.13007936296E+03  0.41967293721E+03  0.12699999809E+01 0. -1.
       -4    1    3    3    0  502  0.34378891855E+03  0.20251493808E+03  0.10928611625E+03  0.41370060281E+03  0.12699999809E+01 0.  1.
</event>
<event>
 5   0  0.1092868E-02  0.7919306E+03  0.7818609E-02  0.9571771E-01
       -2   -1    0    0    0  501  0.00000000000E+00  0.00000000000E+00  0.23613058565E+03  0.23613058566E+03  0.25500000920E-02 0. -1.
        2   -1    0    0  501    0  0.00000000000E+00  0.00000000000E+00 -0.66399072747E+03  0.66399072747E+03  0.25500000920E-02 0.  1.
    10030    2    1    2    0    0  0.00000000000E+00  0.00000000000E+00 -0.42786014182E+03  0.90012131314E+03  0.79193060138E+03 0.  0.
        3    1    3    3  502    0 -0.73863173643E+02  0.38645740615E+03 -0.16331025017E+03  0.42599922911E+03  0.10100000352E+00 0.  1.
       -3    1    3    3    0  502  0.73863173643E+02 -0.38645740615E+03 -0.26454989165E+03  0.47412208403E+03  0.10100000352E+00 0. -1.
</event>
<event>
 5   0  0.1154714E-02  0.8332558E+03  0.7818609E-02  0.9513090E-01
        2   -1    0    0  501    0  0.00000000000E+00  0.00000000000E+00  0.41353924668E+03  0.41353924669E+03  0.25500000920E-02 0. -1.
       -2   -1    0    0    0  501  0.00000000000E+00  0.00000000000E+00 -0.41973960761E+03  0.41973960762E+03  0.25500000920E-02 0.  1.
    10030    2    1    2    0    0  0.00000000000E+00  0.00000000000E+00 -0.62003609285E+01  0.83327885431E+03  0.83325578580E+03 0.  0.
        5    1    3    3  502    0  0.13019491921E+03  0.35381231015E+02 -0.39726101649E+03  0.41957234623E+03  0.46999998093E+01 0.  1.
       -5    1    3    3    0  502 -0.13019491921E+03 -0.35381231015E+02  0.39106065557E+03  0.41370650808E+03  0.46999998093E+01 0. -1.
</event>
<event>
 5   0  0.1119792E-02  0.7980584E+03  0.7818609E-02  0.9562832E-01
       -2   -1    0    0    0  501  0.00000000000E+00  0.00000000000E+00  0.13068497704E+03  0.13068497706E+03  0.25500000920E-02 0.  1.
        2   -1    0    0  501    0  0.00000000000E+00  0.00000000000E+00 -0.12183827405E+04  0.12183827405E+04  0.25500000920E-02 0. -1.
    10030    2    1    2    0    0  0.00000000000E+00  0.00000000000E+00 -0.10876977634E+04  0.13490677175E+04  0.79805844517E+03 0.  0.
        4    1    3    3  502    0  0.18572131572E+03  0.25843834522E+03 -0.13694858546E+03  0.34646690080E+03  0.12699999809E+01 0.  1.
       -4    1    3    3    0  502 -0.18572131572E+03 -0.25843834522E+03 -0.95074917798E+03  0.10026008167E+04  0.12699999809E+01 0. -1.
</event>
<event>
 5   0  0.1106332E-02  0.8268380E+03  0.7818609E-02  0.9521963E-01
       -2   -1    0    0    0  501  0.00000000000E+00  0.00000000000E+00  0.85522888267E+03  0.85522888267E+03  0.25500000920E-02 0. -1.
        2   -1    0    0  501    0  0.00000000000E+00  0.00000000000E+00 -0.19984741000E+03  0.19984741002E+03  0.25500000920E-02 0.  1.
    10030    2    1    2    0    0  0.00000000000E+00  0.00000000000E+00  0.65538147267E+03  0.10550762927E+04  0.82683801840E+03 0.  0.
        1    1    3    3  502    0  0.20024801304E+03  0.15285083544E+03 -0.90593942341E+02  0.26771235876E+03  0.50400001928E-02 0.  1.
       -1    1    3    3    0  502 -0.20024801304E+03 -0.15285083544E+03  0.74597541501E+03  0.78736393392E+03  0.50400001928E-02 0. -1.
</event>
<event>
 5   0  0.6600401E-03  0.8025114E+03  0.7818609E-02  0.9556389E-01
       -1   -1    0    0    0  501  0.00000000000E+00  0.00000000000E+00  0.20939610014E+03  0.20939610020E+03  0.50400001928E-02 0. -1.
        1   -1    0    0  501    0  0.00000000000E+00  0.00000000000E+00 -0.76890710058E+03  0.76890710059E+03  0.50400001928E-02 0.  1.
    10030    2    1    2    0    0  0.00000000000E+00  0.00000000000E+00 -0.55951100043E+03  0.97830320080E+03  0.80251142863E+03 0.  0.
        2    1    3    3  502    0  0.20529087017E+02  0.68258607589E+01  0.20868461468E+03  0.20980301285E+03  0.25500000920E-02 0. -1.
       -2    1    3    3    0  502 -0.20529087017E+02 -0.68258607589E+01 -0.76819561511E+03  0.76850018795E+03  0.25500000920E-02 0.  1.
</event>
<event>
 5   0  0.6517392E-03  0.7999740E+03  0.7818609E-02  0.9560055E-01
       -1   -1    0    0    0  501  0.00000000000E+00  0.00000000000E+00  0.10698577265E+03  0.10698577277E+03  0.50400001928E-02 0.  1.
        1   -1    0    0  501    0  0.00000000000E+00  0.00000000000E+00 -0.14954286959E+04  0.14954286959E+04  0.50400001928E-02 0. -1.
    10030    2    1    2    0    0  0.00000000000E+00  0.00000000000E+00 -0.13884429232E+04  0.16024144687E+04  0.79997398603E+03 0.  0.
        3    1    3    3  502    0  0.29461938653E+03 -0.55220531813E+02 -0.12247160128E+04  0.12608644702E+04  0.10100000352E+00 0. -1.
       -3    1    3    3    0  502 -0.29461938653E+03  0.55220531813E+02 -0.16372691048E+03  0.34154999850E+03  0.10100000352E+00 0.  1.
</event>
<event>
 5   0  0.4385875E-03  0.8062380E+03  0.7818609E-02  0.9551031E-01
       -3   -1    0    0    0  501  0.00000000000E+00  0.00000000000E+00  0.29512399330E+03  0.29512401058E+03  0.10100000352E+00 0.  1.
        3   -1    0    0  501    0  0.00000000000E+00  0.00000000000E+00 -0.55063271305E+03  0.55063272232E+03  0.10100000352E+00 0. -1.
    10030    2    1    2    0    0  0.00000000000E+00  0.00000000000E+00 -0.25550871976E+03  0.84575673290E+03  0.80623802029E+03 0.  0.
        1    1    3    3  502    0 -0.11693891067E+03 -0.32175429693E+02  0.27553058994E+03  0.30104330772E+03  0.50400001928E-02 0.  1.
       -1    1    3    3    0  502  0.11693891067E+03  0.32175429693E+02 -0.53103930969E+03  0.54471342518E+03  0.50400001928E-02 0. -1.
</event>
<event>
 5   0  0.1092868E-02  0.8090609E+03  0.7818609E-02  0.9546994E-01
       -2   -1    0    0    0  501  0.00000000000E+00  0.00000000000E+00  0.97084258079E+03  0.97084258079E+03  0.25500000920E-02 0. -1.
        2   -1    0    0  501    0  0.00000000000E+00  0.00000000000E+00 -0.16855965182E+03  0.16855965184E+03  0.25500000920E-02 0.  1.
    10030    2    1    2    0    0  0.00000000000E+00  0.00000000000E+00  0.80228292897E+03  0.11394022326E+04  0.80906090600E+03 0.  0.
        3    1    3    3  502    0  0.10404440687E+03 -0.14486776233E+03  0.91247922824E+03  0.92974741695E+03  0.10100000352E+00 0. -1.
       -3    1    3    3    0  502 -0.10404440687E+03  0.14486776233E+03 -0.11019629927E+03  0.20965481568E+03  0.10100000352E+00 0.  1.
</event>
<event>
 5   0  0.1092868E-02  0.7809399E+03  0.7818609E-02  0.9588023E-01
       -2   -1    0    0    0  501  0.00000000000E+00  0.00000000000E+00  0.10184149294E+03  0.10184149297E+03  0.25500000920E-02 0. -1.
        2   -1    0    0  501    0  0.00000000000E+00  0.00000000000E+00 -0.14970989228E+04  0.14970989228E+04  0.25500000920E-02 0.  1.
    10030    2    1    2    0    0  0.00000000000E+00  0.00000000000E+00 -0.13952574298E+04  0.15989404157E+04  0.78093991931E+03 0.  0.
        3    1    3    3  502    0  0.78689243473E+02  0.46525677885E+02  0.79623435269E+02  0.12122927611E+03  0.10100000352E+00 0. -1.
       -3    1    3    3    0  502 -0.78689243473E+02 -0.46525677885E+02 -0.14748808651E+04  0.14777111396E+04  0.10100000352E+00 0.  1.
</event>
<event>
 5   0  0.6600401E-03  0.7899502E+03  0.7818609E-02  0.9574679E-01
        1   -1    0    0  501    0  0.00000000000E+00  0.00000000000E+00  0.94868727021E+03  0.94868727022E+03  0.50400001928E-02 0. -1.
       -1   -1    0    0    0  501  0.00000000000E+00  0.00000000000E+00 -0.16444335408E+03  0.16444335416E+03  0.50400001928E-02 0.  1.
    10030    2    1    2    0    0  0.00000000000E+00  0.00000000000E+00  0.78424391613E+03  0.11131306244E+04  0.78995016738E+03 0.  0.
        2    1    3    3  502    0  0.95654836274E+02 -0.26013063023E+03 -0.44069173646E+01  0.27719526225E+03  0.25500000920E-02 0.  1.
       -2    1    3    3    0  502 -0.95654836274E+02  0.26013063023E+03  0.78865083350E+03  0.83593536213E+03  0.25500000920E-02 0. -1.
</event>
<event>
 5   0  0.6557679E-03  0.8051860E+03  0.7818609E-02  0.9552541E-01
       -1   -1    0    0    0  501  0.00000000000E+00  0.00000000000E+00  0.58958183653E+03  0.58958183655E+03  0.50400001928E-02 0.  1.
        1   -1    0    0  501    0  0.00000000000E+00  0.00000000000E+00 -0.27490858893E+03  0.27490858898E+03  0.50400001928E-02 0. -1.
    10030    2    1    2    0    0  0.00000000000E+00  0.00000000000E+00  0.31467324760E+03  0.86449042553E+03  0.80518596801E+03 0.  0.
        1    1    3    3  502    0 -0.24137795572E+03 -0.20442060484E+03 -0.11006553796E+03  0.33491121788E+03  0.50400001928E-02 0. -1.
       -1    1    3    3    0  502  0.24137795572E+03  0.20442060484E+03  0.42473878557E+03  0.52957920765E+03  0.50400001928E-02 0.  1.
</event>
<event>
 5   0  0.1154714E-02  0.8340093E+03  0.7818609E-02  0.9512054E-01
        2   -1    0    0  501    0  0.00000000000E+00  0.00000000000E+00  0.66622490578E+03  0.66622490578E+03  0.25500000920E-02 0.  1.
       -2   -1    0    0    0  501  0.00000000000E+00  0.00000000000E+00 -0.26101228080E+03  0.26101228081E+03  0.25500000920E-02 0. -1.
    10030    2    1    2    0    0  0.00000000000E+00  0.00000000000E+00  0.40521262498E+03  0.92723718659E+03  0.83400930975E+03 0.  0.
        5    1    3    3  502    0  0.75484716054E+02 -0.36178205980E+03 -0.12076008404E+02  0.36980010969E+03  0.46999998093E+01 0. -1.
       -5    1    3    3    0  502 -0.75484716054E+02  0.36178205980E+03  0.41728863338E+03  0.55743707690E+03  0.46999998093E+01 0.  1.
</event>
<event>
 5   0  0.6551489E-03  0.7754614E+03  0.7818609E-02  0.9596231E-01
       -1   -1    0    0    0  501  0.00000000000E+00  0.00000000000E+00  0.26463909172E+03  0.26463909177E+03  0.50400001928E-02 0. -1.
        1   -1    0    0  501    0  0.00000000000E+00  0.00000000000E+00 -0.56807591040E+03  0.56807591042E+03  0.50400001928E-02 0.  1.
    10030    2    1    2    0    0  0.00000000000E+00  0.00000000000E+00 -0.30343681868E+03  0.83271500219E+03  0.77546139294E+03 0.  0.
        4    1    3    3  502    0 -0.24310087868E+03  0.28132978514E+03 -0.26978616411E+03  0.45938074891E+03  0.12699999809E+01 0.  1.
       -4    1    3    3    0  502  0.24310087868E+03 -0.28132978514E+03 -0.33650654565E+02  0.37333425328E+03  0.12699999809E+01 0. -1.
</event>
<event>
 5   0  0.6557679E-03  0.8000373E+03  0.7818609E-02  0.9559963E-01
       -1   -1    0    0    0  501  0.00000000000E+00  0.00000000000E+00  0.22438813128E+03  0.22438813133E+03  0.50400001928E-02 0.  1.
        1   -1    0    0  501    0  0.00000000000E+00  0.00000000000E+00 -0.71311672691E+03  0.71311672693E+03  0.50400001928E-02 0. -1.
    10030    2    1    2    0    0  0.00000000000E+00  0.00000000000E+00 -0.48872859563E+03  0.93750485826E+03  0.80003732355E+03 0.  0.
        1    1    3    3  502    0  0.21261785591E+03 -0.25100906164E+02  0.15159950486E+03  0.26233341007E+03  0.50400001928E-02 0.  1.
       -1    1    3    3    0  502 -0.21261785591E+03  0.25100906164E+02 -0.64032810049E+03  0.67517144818E+03  0.50400001928E-02 0. -1.
</event>
<event>
 5   0  0.1119792E-02  0.8116460E+03  0.7818609E-02  0.9543311E-01
       -2   -1    0    0    0  501  0.00000000000E+00  0.00000000000E+00  0.16091920888E+03  0.16091920890E+03  0.25500000920E-02 0.  1.
        2   -1    0    0  501    0  0.00000000000E+00  0.00000000000E+00 -0.10234472706E+04  0.10234472706E+04  0.25500000920E-02 0. -1.
    10030    2    1    2    0    0  0.00000000000E+00  0.00000000000E+00 -0.86252806174E+03  0.11843664795E+04  0.81164604387E+03 0.  0.
        4    1    3    3  502    0  0.16731518534E+03 -0.29450876365E+03 -0.75742702432E+03  0.82971506746E+03  0.12699999809E+01 0. -1.
       -4    1    3    3    0  502 -0.16731518534E+03  0.29450876365E+03 -0.10510103742E+03  0.35465141206E+03  0.12699999809E+01 0.  1.
</event>
<event>
 5   0  0.6557679E-03  0.8077718E+03  0.7818609E-02  0.9548835E-01
       -1   -1    0    0    0  501  0.00000000000E+00  0.00000000000E+00  0.25408276138E+03  0.25408276143E+03  0.50400001928E-02 0. -1.
        1   -1    0    0  501    0  0.00000000000E+00  0.00000000000E+00 -0.64201064789E+03  0.64201064791E+03  0.50400001928E-02 0.  1.
    10030    2    1    2    0    0  0.00000000000E+00  0.00000000000E+00 -0.38792788651E+03  0.89609340934E+03  0.80777184473E+03 0.  0.
        1    1    3    3  502    0  0.18651089010E+03 -0.29060205842E+03 -0.42636458191E+03  0.54865528815E+03  0.50400001928E-02 0.  1.
       -1    1    3    3    0  502 -0.18651089010E+03  0.29060205842E+03  0.38436695393E+02  0.34743812120E+03  0.50400001928E-02 0. -1.
</event>
<event>
 5   0  0.6557679E-03  0.7965857E+03  0.7818609E-02  0.9564972E-01
        1   -1    0    0  501    0  0.00000000000E+00  0.00000000000E+00  0.56593191297E+03  0.56593191299E+03  0.50400001928E-02 0. -1.
       -1   -1    0    0    0  501  0.00000000000E+00  0.00000000000E+00 -0.28031144570E+03  0.28031144575E+03  0.50400001928E-02 0.  1.
    10030    2    1    2    0    0  0.00000000000E+00  0.00000000000E+00  0.28562046726E+03  0.84624335874E+03  0.79658569589E+03 0.  0.
        1    1    3    3  502    0  0.71350368015E+02 -0.92596891087E+02  0.54729766827E+03  0.55964256180E+03  0.50400001928E-02 0. -1.
       -1    1    3    3    0  502 -0.71350368015E+02  0.92596891087E+02 -0.26167720101E+03  0.28660079694E+03  0.50400001928E-02 0.  1.
</event>
<event>
 5   0  0.6557679E-03  0.7988196E+03  0.7818609E-02  0.9561727E-01
        1   -1    0    0  501    0  0.00000000000E+00  0.00000000000E+00  0.17139132575E+04  0.17139132575E+04  0.50400001928E-02 0. -1.
       -1   -1    0    0    0  501  0.00000000000E+00  0.00000000000E+00 -0.93078322876E+02  0.93078323013E+02  0.50400001928E-02 0.  1.
    10030    2    1    2    0    0  0.00000000000E+00  0.00000000000E+00  0.16208349347E+04  0.18069915806E+04  0.79881955834E+03 0.  0.
        1    1    3    3  502    0 -0.27433845713E+02  0.23078760358E+03  0.15452014483E+04  0.15625821737E+04  0.50400001928E-02 0. -1.
       -1    1    3    3    0  502  0.27433845713E+02 -0.23078760358E+03  0.75633486379E+02  0.24440940683E+03  0.50400001928E-02 0.  1.
</event>
<event>
 5   0  0.6596225E-03  0.7998920E+03  0.7818609E-02  0.9560173E-01
       -1   -1    0    0    0  501  0.00000000000E+00  0.00000000000E+00  0.21578714368E+03  0.21578714374E+03  0.50400001928E-02 0.  1.
        1   -1    0    0  501    0  0.00000000000E+00  0.00000000000E+00 -0.74127131654E+03  0.74127131656E+03  0.50400001928E-02 0. -1.
    10030    2    1    2    0    0  0.00000000000E+00  0.00000000000E+00 -0.52548417286E+03  0.95705846030E+03  0.79989204303E+03 0.  0.
        5    1    3    3  502    0  0.13704904341E+03  0.15047411433E+03 -0.67463496097E+03  0.70468384396E+03  0.46999998093E+01 0. -1.
       -5    1    3    3    0  502 -0.13704904341E+03 -0.15047411433E+03  0.14915078811E+03  0.25237461634E+03  0.46999998093E+01 0.  1.
</event>
<event>
 5   0  0.6596225E-03  0.8020501E+03  0.7818609E-02  0.9557054E-01
       -1   -1    0    0    0  501  0.00000000000E+00  0.00000000000E+00  0.24772699860E+03  0.24772699865E+03  0.50400001928E-02 0.  1.
        1   -1    0    0  501    0  0.00000000000E+00  0.00000000000E+00 -0.64918674239E+03  0.64918674241E+03  0.50400001928E-02 0. -1.
    10030    2    1    2    0    0  0.00000000000E+00  0.00000000000E+00 -0.40145974380E+03  0.89691374106E+03  0.80205008136E+03 0.  0.
        5    1    3    3  502    0 -0.67907056312E+02 -0.29674381876E+03 -0.49262087881E+03  0.57910766055E+03  0.46999998093E+01 0. -1.
       -5    1    3    3    0  502  0.67907056312E+02  0.29674381876E+03  0.91161135013E+02  0.31780608051E+03  0.46999998093E+01 0.  1.
</event>
<event>
 5   0  0.6600401E-03  0.8012609E+03  0.7818609E-02  0.9558194E-01
       -1   -1    0    0    0  501  0.00000000000E+00  0.00000000000E+00  0.24406395657E+03  0.24406395662E+03  0.50400001928E-02 0.  1.
        1   -1    0    0  501    0  0.00000000000E+00  0.00000000000E+00 -0.65763408457E+03  0.65763408459E+03  0.50400001928E-02 0. -1.
    10030    2    1    2    0    0  0.00000000000E+00  0.00000000000E+00 -0.41357012800E+03  0.90169804122E+03  0.80126094798E+03 0.  0.
        2    1    3    3  502    0 -0.38678286419E+03  0.95199103514E+02 -0.25506925972E+03  0.47299490547E+03  0.25500000920E-02 0. -1.
       -2    1    3    3    0  502  0.38678286419E+03 -0.95199103514E+02 -0.15850086828E+03  0.42870313574E+03  0.25500000920E-02 0.  1.
</event>
<event>
 5   0  0.6600401E-03  0.7965325E+03  0.7818609E-02  0.9565050E-01
       -1   -1    0    0    0  501  0.00000000000E+00  0.00000000000E+00  0.24518625105E+03  0.24518625111E+03  0.50400001928E-02 0. -1.
        1   -1    0    0  501    0  0.00000000000E+00  0.00000000000E+00 -0.64692040944E+03  0.64692040946E+03  0.50400001928E-02 0.  1.
    10030    2    1    2    0    0  0.00000000000E+00  0.00000000000E+00 -0.40173415839E+03  0.89210666057E+03  0.79653245999E+03 0.  0.
        2    1    3    3  502    0  0.22750335895E+03 -0.76648817915E+02  0.15504096477E+03  0.28578054585E+03  0.25500000920E-02 0. -1.
       -2    1    3    3    0  502 -0.22750335895E+03  0.76648817915E+02 -0.55677512315E+03  0.60632611472E+03  0.25500000920E-02 0.  1.
</event>
<event>
 5   0  0.6600401E-03  0.7977285E+03  0.7818609E-02  0.9563311E-01
       -1   -1    0    0    0  501  0.00000000000E+00  0.00000000000E+00  0.31774917635E+03  0.31774917639E+03  0.50400001928E-02 0. -1.
        1   -1    0    0  501    0  0.00000000000E+00  0.00000000000E+00 -0.50068645581E+03  0.50068645584E+03  0.50400001928E-02 0.  1.
    10030    2    1    2    0    0  0.00000000000E+00  0.00000000000E+00 -0.18293727946E+03  0.81843563223E+03  0.79772854775E+03 0.  0.
        2    1    3    3  502    0  0.35645962630E+03 -0.37192781604E+01  0.92104414639E+02  0.36818544433E+03  0.25500000920E-02 0. -1.
       -2    1    3    3    0  502 -0.35645962630E+03  0.37192781604E+01 -0.27504169409E+03  0.45025018790E+03  0.25500000920E-02 0.  1.
</event>
<event>
 5   0  0.1154714E-02  0.8014775E+03  0.7818609E-02  0.9557881E-01
        2   -1    0    0  501    0  0.00000000000E+00  0.00000000000E+00  0.26167189111E+03  0.26167189112E+03  0.25500000920E-02 0.  1.
       -2   -1    0    0    0  501  0.00000000000E+00  0.00000000000E+00 -0.61371340359E+03  0.61371340359E+03  0.25500000920E-02 0. -1.
    10030    2    1    2    0    0  0.00000000000E+00  0.00000000000E+00 -0.35204151248E+03  0.87538529471E+03  0.80147750292E+03 0.  0.
        5    1    3    3  502    0 -0.48259587676E+02 -0.22349048094E+03 -0.53544473563E+03  0.58223718345E+03  0.46999998093E+01 0. -1.
       -5    1    3    3    0  502  0.48259587676E+02  0.22349048094E+03  0.18340322315E+03  0.29314811126E+03  0.46999998093E+01 0.  1.
</event>
<event>
 5   0  0.6557679E-03  0.7976884E+03  0.7818609E-02  0.9563369E-01
        1   -1    0    0  501    0  0.00000000000E+00  0.00000000000E+00  0.91121433300E+03  0.91121433301E+03  0.50400001928E-02 0.  1.
       -1   -1    0    0    0  501  0.00000000000E+00  0.00000000000E+00 -0.17457660996E+03  0.17457661003E+03  0.50400001928E-02 0. -1.
    10030    2    1    2    0    0  0.00000000000E+00  0.00000000000E+00  0.73663772304E+03  0.10857909430E+04  0.79768843353E+03 0.  0.
        1    1    3    3  502    0 -0.33376505097E+03 -0.81604956888E+02  0.64399640050E+03  0.72992454550E+03  0.50400001928E-02 0.  1.
       -1    1    3    3    0  502  0.33376505097E+03  0.81604956888E+02  0.92641322536E+02  0.35586639755E+03  0.50400001928E-02 0. -1.
</event>
<event>
 5   0  0.6596225E-03  0.7973281E+03  0.7818609E-02  0.9563893E-01
       -1   -1    0    0    0  501  0.00000000000E+00  0.00000000000E+00  0.10326874764E+03  0.10326874777E+03  0.50400001928E-02 0. -1.
        1   -1    0    0  501    0  0.00000000000E+00  0.00000000000E+00 -0.15390233819E+04  0.15390233819E+04  0.50400001928E-02 0.  1.
    10030    2    1    2    0    0  0.00000000000E+00  0.00000000000E+00 -0.14357546342E+04  0.16422921297E+04  0.79732808141E+03 0.  0.
        5    1    3    3  502    0  0.54776712139E+02 -0.36879072980E+03 -0.42728658948E+03  0.56710052912E+03  0.46999998093E+01 0.  1.
       -5    1    3    3    0  502 -0.54776712139E+02  0.36879072980E+03 -0.10084680448E+04  0.10751916005E+04  0.46999998093E+01 0. -1.
</event>
<event>
 5   0  0.1092868E-02  0.8279188E+03  0.7818609E-02  0.9520462E-01
       -2   -1    0    0    0  501  0.00000000000E+00  0.00000000000E+00  0.10404810423E+03  0.10404810427E+03  0.25500000920E-02 0.  1.
        2   -1    0    0  501    0  0.00000000000E+00  0.00000000000E+00 -0.16469534685E+04  0.16469534685E+04  0.25500000920E-02 0. -1.
    10030    2    1    2    0    0  0.00000000000E+00  0.00000000000E+00 -0.15429053643E+04  0.17510015728E+04  0.82791880325E+03 0.  0.
        3    1    3    3  502    0 -0.16006435796E+03 -0.95892719555E+02 -0.15529704560E+04  0.15641397826E+04  0.10100000352E+00 0. -1.
       -3    1    3    3    0  502  0.16006435796E+03  0.95892719555E+02  0.10065091659E+02  0.18686179016E+03  0.10100000352E+00 0.  1.
</event>
<event>
 5   0  0.6551489E-03  0.7796731E+03  0.7818609E-02  0.9589915E-01
       -1   -1    0    0    0  501  0.00000000000E+00  0.00000000000E+00  0.29730692777E+03  0.29730692781E+03  0.50400001928E-02 0.  1.
        1   -1    0    0  501    0  0.00000000000E+00  0.00000000000E+00 -0.51116381488E+03  0.51116381491E+03  0.50400001928E-02 0. -1.
    10030    2    1    2    0    0  0.00000000000E+00  0.00000000000E+00 -0.21385688711E+03  0.80847074272E+03  0.77967311975E+03 0.  0.
        4    1    3    3  502    0  0.78955993264E+02  0.21911410853E+03 -0.43108630729E+03  0.48998169217E+03  0.12699999809E+01 0. -1.
       -4    1    3    3    0  502 -0.78955993264E+02 -0.21911410853E+03  0.21722942018E+03  0.31848905055E+03  0.12699999809E+01 0.  1.
</event>
<event>
 5   0  0.1119792E-02  0.7597302E+03  0.7818609E-02  0.9620208E-01
        2   -1    0    0  501    0  0.00000000000E+00  0.00000000000E+00  0.72224342525E+03  0.72224342525E+03  0.25500000920E-02 0.  1.
       -2   -1    0    0    0  501  0.00000000000E+00  0.00000000000E+00 -0.19979068917E+03  0.19979068919E+03  0.25500000920E-02 0. -1.
    10030    2    1    2    0    0  0.00000000000E+00  0.00000000000E+00  0.52245273608E+03  0.92203411444E+03  0.75973024605E+03 0.  0.
        4    1    3    3  502    0  0.20572938902E+03  0.44652176595E+01 -0.12628471281E+03  0.24144142409E+03  0.12699999809E+01 0. -1.
       -4    1    3    3    0  502 -0.20572938902E+03 -0.44652176595E+01  0.64873744888E+03  0.68059269035E+03  0.12699999809E+01 0.  1.
</event>
<event>
 5   0  0.1106332E-02  0.7393518E+03  0.7818609E-02  0.9652205E-01
       -2   -1    0    0    0  501  0.00000000000E+00  0.00000000000E+00  0.12820452879E+03  0.12820452881E+03  0.25500000920E-02 0.  1.
        2   -1    0    0  501    0  0.00000000000E+00  0.00000000000E+00 -0.10659550819E+04  0.10659550819E+04  0.25500000920E-02 0. -1.
    10030    2    1    2    0    0  0.00000000000E+00  0.00000000000E+00 -0.93775055313E+03  0.11941596107E+04  0.73935179449E+03 0.  0.
        1    1    3    3  502    0 -0.33660819157E+03 -0.13939576281E+03 -0.36769948457E+03  0.51762840368E+03  0.50400001928E-02 0. -1.
       -1    1    3    3    0  502  0.33660819157E+03  0.13939576281E+03 -0.57005106856E+03  0.67653120705E+03  0.50400001928E-02 0.  1.
</event>
<event>
 5   0  0.6517392E-03  0.8029670E+03  0.7818609E-02  0.9555732E-01
       -1   -1    0    0    0  501  0.00000000000E+00  0.00000000000E+00  0.18019268229E+03  0.18019268236E+03  0.50400001928E-02 0.  1.
        1   -1    0    0  501    0  0.00000000000E+00  0.00000000000E+00 -0.89453681083E+03  0.89453681085E+03  0.50400001928E-02 0. -1.
    10030    2    1    2    0    0  0.00000000000E+00  0.00000000000E+00 -0.71434412854E+03  0.10747294932E+04  0.80296696668E+03 0.  0.
        3    1    3    3  502    0 -0.37164662121E+03 -0.48877649320E+02 -0.54964228327E+03  0.66529458544E+03  0.10100000352E+00 0. -1.
       -3    1    3    3    0  502  0.37164662121E+03  0.48877649320E+02 -0.16470184527E+03  0.40943490776E+03  0.10100000352E+00 0.  1.
</event>
<event>
 5   0  0.1092868E-02  0.7930912E+03  0.7818609E-02  0.9570071E-01
        2   -1    0    0  501    0  0.00000000000E+00  0.00000000000E+00  0.21512870311E+03  0.21512870313E+03  0.25500000920E-02 0.  1.
       -2   -1    0    0    0  501  0.00000000000E+00  0.00000000000E+00 -0.73095048588E+03  0.73095048589E+03  0.25500000920E-02 0. -1.
    10030    2    1    2    0    0  0.00000000000E+00  0.00000000000E+00 -0.51582178277E+03  0.94607918901E+03  0.79309124337E+03 0.  0.
        3    1    3    3  502    0  0.15337924129E+03  0.16169684424E+03  0.13334849840E+03  0.25971694847E+03  0.10100000352E+00 0.  1.
       -3    1    3    3    0  502 -0.15337924129E+03 -0.16169684424E+03 -0.64917028117E+03  0.68636224055E+03  0.10100000352E+00 0. -1.
</event>
<event>
 5   0  0.6551489E-03  0.8058156E+03  0.7818609E-02  0.9551637E-01
        1   -1    0    0  501    0  0.00000000000E+00  0.00000000000E+00  0.93368246180E+03  0.93368246181E+03  0.50400001928E-02 0.  1.
       -1   -1    0    0    0  501  0.00000000000E+00  0.00000000000E+00 -0.17386499222E+03  0.17386499230E+03  0.50400001928E-02 0. -1.
    10030    2    1    2    0    0  0.00000000000E+00  0.00000000000E+00  0.75981746957E+03  0.11075474541E+04  0.80581559679E+03 0.  0.
        4    1    3    3  502    0 -0.13892358889E+03 -0.82135214190E+02  0.88731296990E+03  0.90187131921E+03  0.12699999809E+01 0.  1.
       -4    1    3    3    0  502  0.13892358889E+03  0.82135214190E+02 -0.12749550033E+03  0.20567613490E+03  0.12699999809E+01 0. -1.
</event>
<event>
 5   0  0.1121480E-02  0.7996305E+03  0.7818609E-02  0.9560552E-01
       -2   -1    0    0    0  501  0.00000000000E+00  0.00000000000E+00  0.14015134998E+03  0.14015135000E+03  0.25500000920E-02 0.  1.
        2   -1    0    0  501    0  0.00000000000E+00  0.00000000000E+00 -0.11405687758E+04  0.11405687758E+04  0.25500000920E-02 0. -1.
    10030    2    1    2    0    0  0.00000000000E+00  0.00000000000E+00 -0.10004174258E+04  0.12807201258E+04  0.79963054891E+03 0.  0.
        2    1    3    3  502    0 -0.20788502043E+02  0.38813189452E+03 -0.65023136857E+03  0.75754825723E+03  0.25500000920E-02 0. -1.
       -2    1    3    3    0  502  0.20788502043E+02 -0.38813189452E+03 -0.35018605722E+03  0.52317186854E+03  0.25500000920E-02 0.  1.
</event>
<event>
 5   0  0.6551489E-03  0.8035264E+03  0.7818609E-02  0.9554927E-01
       -1   -1    0    0    0  501  0.00000000000E+00  0.00000000000E+00  0.87435985599E+03  0.87435985601E+03  0.50400001928E-02 0. -1.
        1   -1    0    0  501    0  0.00000000000E+00  0.00000000000E+00 -0.18460782620E+03  0.18460782627E+03  0.50400001928E-02 0.  1.
    10030    2    1    2    0    0  0.00000000000E+00  0.00000000000E+00  0.68975202980E+03  0.10589676823E+04  0.80352640871E+03 0.  0.
        4    1    3    3  502    0  0.18745308846E+02  0.31811648729E+03  0.22427602634E+02  0.31945906834E+03  0.12699999809E+01 0.  1.
       -4    1    3    3    0  502 -0.18745308846E+02 -0.31811648729E+03  0.66732442716E+03  0.73950861393E+03  0.12699999809E+01 0. -1.
</event>
<event>
 5   0  0.6551489E-03  0.8044738E+03  0.7818609E-02  0.9553564E-01
        1   -1    0    0  501    0  0.00000000000E+00  0.00000000000E+00  0.13025731272E+04  0.13025731273E+04  0.50400001928E-02 0. -1.
       -1   -1    0    0    0  501  0.00000000000E+00  0.00000000000E+00 -0.12421146626E+03  0.12421146636E+03  0.50400001928E-02 0.  1.
    10030    2    1    2    0    0  0.00000000000E+00  0.00000000000E+00  0.11783616610E+04  0.14267845936E+04  0.80447378608E+03 0.  0.
        4    1    3    3  502    0  0.27735147837E+03  0.27796779019E+03  0.43453501941E+03  0.58567246045E+03  0.12699999809E+01 0.  1.
       -4    1    3    3    0  502 -0.27735147837E+03 -0.27796779019E+03  0.74382664158E+03  0.84111213316E+03  0.12699999809E+01 0. -1.
</event>
<event>
 5   0  0.6600401E-03  0.7960626E+03  0.7818609E-02  0.9565734E-01
       -1   -1    0    0    0  501  0.00000000000E+00  0.00000000000E+00  0.26628706809E+03  0.26628706814E+03  0.50400001928E-02 0. -1.
        1   -1    0    0  501    0  0.00000000000E+00  0.00000000000E+00 -0.59495539409E+03  0.59495539411E+03  0.50400001928E-02 0.  1.
    10030    2    1    2    0    0  0.00000000000E+00  0.00000000000E+00 -0.32866832600E+03  0.86124246225E+03  0.79606262961E+03 0.  0.
        2    1    3    3  502    0 -0.28286219710E+03  0.91713322016E+02 -0.45058555140E+03  0.53986081088E+03  0.25500000920E-02 0.  1.
       -2    1    3    3    0  502  0.28286219710E+03 -0.91713322016E+02  0.12191722541E+03  0.32138165137E+03  0.25500000920E-02 0. -1.
</event>
<event>
 5   0  0.1121480E-02  0.8008201E+03  0.7818609E-02  0.9558831E-01
        2   -1    0    0  501    0  0.00000000000E+00  0.00000000000E+00  0.16747045123E+03  0.16747045125E+03  0.25500000920E-02 0.  1.
       -2   -1    0    0    0  501  0.00000000000E+00  0.00000000000E+00 -0.95735221295E+03  0.95735221295E+03  0.25500000920E-02 0. -1.
    10030    2    1    2    0    0  0.00000000000E+00  0.00000000000E+00 -0.78988176171E+03  0.11248226642E+04  0.80082009741E+03 0.  0.
        2    1    3    3  502    0  0.37496228863E+03 -0.10938821922E+03 -0.51871777662E+03  0.64933091116E+03  0.25500000920E-02 0. -1.
       -2    1    3    3    0  502 -0.37496228863E+03  0.10938821922E+03 -0.27116398509E+03  0.47549175304E+03  0.25500000920E-02 0.  1.
</event>
<event>
 5   0  0.1106332E-02  0.8010630E+03  0.7818609E-02  0.9558480E-01
        2   -1    0    0  501    0  0.00000000000E+00  0.00000000000E+00  0.26070590636E+04  0.26070590636E+04  0.25500000920E-02 0. -1.
       -2   -1    0    0    0  501  0.00000000000E+00  0.00000000000E+00 -0.61535039332E+02  0.61535039384E+02  0.25500000920E-02 0.  1.
    10030    2    1    2    0    0  0.00000000000E+00  0.00000000000E+00  0.25455240242E+04  0.26685941030E+04  0.80106299899E+03 0.  0.
        1    1    3    3  502    0 -0.31594591157E+03  0.17657600121E+03  0.18442024599E+04  0.18793838395E+04  0.50400001928E-02 0. -1.
       -1    1    3    3    0  502  0.31594591157E+03 -0.17657600121E+03  0.70132156439E+03  0.78921026346E+03  0.50400001928E-02 0.  1.
</event>
<event>
 5   0  0.4385875E-03  0.8020049E+03  0.7818609E-02  0.9557120E-01
       -4   -1    0    0    0  501  0.00000000000E+00  0.00000000000E+00  0.71767043972E+03  0.71767156343E+03  0.12699999809E+01 0. -1.
        4   -1    0    0  501    0  0.00000000000E+00  0.00000000000E+00 -0.22405929792E+03  0.22406289717E+03  0.12699999809E+01 0.  1.
    10030    2    1    2    0    0  0.00000000000E+00  0.00000000000E+00  0.49361114180E+03  0.94173446059E+03  0.80200488462E+03 0.  0.
        2    1    3    3  502    0 -0.25429839809E+02  0.21893170684E+03 -0.14656025145E+03  0.26468410667E+03  0.25500000920E-02 0.  1.
       -2    1    3    3    0  502  0.25429839809E+02 -0.21893170684E+03  0.64017139325E+03  0.67705035393E+03  0.25500000920E-02 0. -1.
</event>
<event>
 5   0  0.1106332E-02  0.8208096E+03  0.7818609E-02  0.9530375E-01
       -2   -1    0    0    0  501  0.00000000000E+00  0.00000000000E+00  0.18146670262E+03  0.18146670264E+03  0.25500000920E-02 0.  1.
        2   -1    0    0  501    0  0.00000000000E+00  0.00000000000E+00 -0.92817074454E+03  0.92817074454E+03  0.25500000920E-02 0. -1.
    10030    2    1    2    0    0  0.00000000000E+00  0.00000000000E+00 -0.74670404192E+03  0.11096374472E+04  0.82080956255E+03 0.  0.
        1    1    3    3  502    0  0.25789698815E+03 -0.15533119107E+03 -0.75041180162E+03  0.80855210559E+03  0.50400001928E-02 0. -1.
       -1    1    3    3    0  502 -0.25789698815E+03  0.15533119107E+03  0.37077597005E+01  0.30108534159E+03  0.50400001928E-02 0.  1.
</event>
<event>
 5   0  0.6557679E-03  0.8044724E+03  0.7818609E-02  0.9553566E-01
        1   -1    0    0  501    0  0.00000000000E+00  0.00000000000E+00  0.10902876737E+04  0.10902876737E+04  0.50400001928E-02 0. -1.
       -1   -1    0    0    0  501  0.00000000000E+00  0.00000000000E+00 -0.14839566613E+03  0.14839566622E+03  0.50400001928E-02 0.  1.
    10030    2    1    2    0    0  0.00000000000E+00  0.00000000000E+00  0.94189200756E+03  0.12386833399E+04  0.80447241264E+03 0.  0.
        1    1    3    3  502    0 -0.38537582906E+03  0.74491692839E+02  0.33556716315E+03  0.51639990602E+03  0.50400001928E-02 0.  1.
       -1    1    3    3    0  502  0.38537582906E+03 -0.74491692839E+02  0.60632484440E+03  0.72228343390E+03  0.50400001928E-02 0. -1.
</event>
<event>
 5   0  0.1154714E-02  0.8047596E+03  0.7818609E-02  0.9553153E-01
       -2   -1    0    0    0  501  0.00000000000E+00  0.00000000000E+00  0.80048254193E+02  0.80048254233E+02  0.25500000920E-02 0.  1.
        2   -1    0    0  501    0  0.00000000000E+00  0.00000000000E+00 -0.20226488755E+04  0.20226488755E+04  0.25500000920E-02 0. -1.
    10030    2    1    2    0    0  0.00000000000E+00  0.00000000000E+00 -0.19426006213E+04  0.21026971298E+04  0.80475961970E+03 0.  0.
        5    1    3    3  502    0 -0.81768665955E+02  0.39387838426E+03 -0.95087257778E+03  0.10324761719E+04  0.46999998093E+01 0.  1.
       -5    1    3    3    0  502  0.81768665955E+02 -0.39387838426E+03 -0.99172804354E+03  0.10702209579E+04  0.46999998093E+01 0. -1.
</event>
<event>
 5   0  0.4385875E-03  0.8056129E+03  0.7818609E-02  0.9551928E-01
       -3   -1    0    0    0  501  0.00000000000E+00  0.00000000000E+00  0.20525597348E+03  0.20525599833E+03  0.10100000352E+00 0. -1.
        3   -1    0    0  501    0  0.00000000000E+00  0.00000000000E+00 -0.79049116947E+03  0.79049117592E+03  0.10100000352E+00 0.  1.
    10030    2    1    2    0    0  0.00000000000E+00  0.00000000000E+00 -0.58523519600E+03  0.99574717425E+03  0.80561293460E+03 0.  0.
        2    1    3    3  502    0 -0.23117892495E+03 -0.14413899273E+02  0.11470710782E+03  0.25847471138E+03  0.25500000920E-02 0. -1.
       -2    1    3    3    0  502  0.23117892495E+03  0.14413899273E+02 -0.69994230381E+03  0.73727246287E+03  0.25500000920E-02 0.  1.
</event>
<event>
 5   0  0.1119792E-02  0.8039890E+03  0.7818609E-02  0.9554261E-01
        2   -1    0    0  501    0  0.00000000000E+00  0.00000000000E+00  0.25452751761E+03  0.25452751762E+03  0.25500000920E-02 0. -1.
       -2   -1    0    0    0  501  0.00000000000E+00  0.00000000000E+00 -0.63490016364E+03  0.63490016365E+03  0.25500000920E-02 0.  1.
    10030    2    1    2    0    0  0.00000000000E+00  0.00000000000E+00 -0.38037264603E+03  0.88942768127E+03  0.80398896159E+03 0.  0.
        4    1    3    3  502    0 -0.46204522418E+01  0.19064991290E+03 -0.58166974797E+03  0.61213564385E+03  0.12699999809E+01 0.  1.
       -4    1    3    3    0  502  0.46204522418E+01 -0.19064991290E+03  0.20129710194E+03  0.27729203742E+03  0.12699999809E+01 0. -1.
</event>
<event>
 5   0  0.1119792E-02  0.7974457E+03  0.7818609E-02  0.9563722E-01
        2   -1    0    0  501    0  0.00000000000E+00  0.00000000000E+00  0.13885510641E+04  0.13885510641E+04  0.25500000920E-02 0.  1.
       -2   -1    0    0    0  501  0.00000000000E+00  0.00000000000E+00 -0.11449337771E+03  0.11449337774E+03  0.25500000920E-02 0. -1.
    10030    2    1    2    0    0  0.00000000000E+00  0.00000000000E+00  0.12740576864E+04  0.15030444418E+04  0.79744567584E+03 0.  0.
        4    1    3    3  502    0  0.28139768586E+03  0.28037649572E+03  0.70184736603E+03  0.80646573087E+03  0.12699999809E+01 0. -1.
       -4    1    3    3    0  502 -0.28139768586E+03 -0.28037649572E+03  0.57221032035E+03  0.69657871097E+03  0.12699999809E+01 0.  1.
</event>
<event>
 5   0  0.6600401E-03  0.7926091E+03  0.7818609E-02  0.9570777E-01
        1   -1    0    0  501    0  0.00000000000E+00  0.00000000000E+00  0.12092039309E+04  0.12092039309E+04  0.50400001928E-02 0. -1.
       -1   -1    0    0    0  501  0.00000000000E+00  0.00000000000E+00 -0.12988487693E+03  0.12988487703E+03  0.50400001928E-02 0.  1.
    10030    2    1    2    0    0  0.00000000000E+00  0.00000000000E+00  0.10793190540E+04  0.13390888080E+04  0.79260911886E+03 0.  0.
        2    1    3    3  502    0 -0.31450680488E+03 -0.22676934413E+03  0.67813870426E+03  0.78116001432E+03  0.25500000920E-02 0. -1.
       -2    1    3    3    0  502  0.31450680488E+03  0.22676934413E+03  0.40118034973E+03  0.55792879364E+03  0.25500000920E-02 0.  1.
</event>
<event>
 5   0  0.4385875E-03  0.8664304E+03  0.7818609E-02  0.9468546E-01
       -3   -1    0    0    0  501  0.00000000000E+00  0.00000000000E+00  0.10774808791E+04  0.10774808838E+04  0.10100000352E+00 0. -1.
        3   -1    0    0  501    0  0.00000000000E+00  0.00000000000E+00 -0.17417978581E+03  0.17417981509E+03  0.10100000352E+00 0.  1.
    10030    2    1    2    0    0  0.00000000000E+00  0.00000000000E+00  0.90330109329E+03  0.12516606989E+04  0.86643040119E+03 0.  0.
        5    1    3    3  502    0  0.23533723742E+03 -0.25144310987E+03  0.83124722803E+03  0.89977847103E+03  0.46999998093E+01 0. -1.
       -5    1    3    3    0  502 -0.23533723742E+03  0.25144310987E+03  0.72053865266E+02  0.35188222791E+03  0.46999998093E+01 0.  1.
</event>
<event>
 5   0  0.6557679E-03  0.8023521E+03  0.7818609E-02  0.9556619E-01
       -1   -1    0    0    0  501  0.00000000000E+00  0.00000000000E+00  0.41253087747E+03  0.41253087750E+03  0.50400001928E-02 0.  1.
        1   -1    0    0  501    0  0.00000000000E+00  0.00000000000E+00 -0.39013379992E+03  0.39013379996E+03  0.50400001928E-02 0. -1.
    10030    2    1    2    0    0  0.00000000000E+00  0.00000000000E+00  0.22397077543E+02  0.80266467745E+03  0.80235213924E+03 0.  0.
        1    1    3    3  502    0  0.12634996389E+03 -0.33027537702E+02 -0.36827375928E+03  0.39074376952E+03  0.50400001928E-02 0. -1.
       -1    1    3    3    0  502 -0.12634996389E+03  0.33027537702E+02  0.39067083682E+03  0.41192090793E+03  0.50400001928E-02 0.  1.
</event>
<event>
 5   0  0.6596225E-03  0.7962413E+03  0.7818609E-02  0.9565474E-01
       -1   -1    0    0    0  501  0.00000000000E+00  0.00000000000E+00  0.17525515377E+03  0.17525515384E+03  0.50400001928E-02 0. -1.
        1   -1    0    0  501    0  0.00000000000E+00  0.00000000000E+00 -0.90439584900E+03  0.90439584901E+03  0.50400001928E-02 0.  1.
    10030    2    1    2    0    0  0.00000000000E+00  0.00000000000E+00 -0.72914069523E+03  0.10796510029E+04  0.79624125397E+03 0.  0.
        5    1    3    3  502    0  0.14908158032E+03  0.33752771102E+03 -0.16196055917E+03  0.40299328285E+03  0.46999998093E+01 0.  1.
       -5    1    3    3    0  502 -0.14908158032E+03 -0.33752771102E+03 -0.56718013607E+03  0.67665772001E+03  0.46999998093E+01 0. -1.
</event>
<event>
 5   0  0.1119792E-02  0.8005609E+03  0.7818609E-02  0.9559206E-01
       -2   -1    0    0    0  501  0.00000000000E+00  0.00000000000E+00  0.30991695407E+03  0.30991695408E+03  0.25500000920E-02 0. -1.
        2   -1    0    0  501    0  0.00000000000E+00  0.00000000000E+00 -0.51699151853E+03  0.51699151853E+03  0.25500000920E-02 0.  1.
    10030    2    1    2    0    0  0.00000000000E+00  0.00000000000E+00 -0.20707456446E+03  0.82690847261E+03  0.80056089514E+03 0.  0.
        4    1    3    3  502    0 -0.17794845015E+03  0.31023090125E+02  0.26542286283E+03  0.32105917219E+03  0.12699999809E+01 0. -1.
       -4    1    3    3    0  502  0.17794845015E+03 -0.31023090125E+02 -0.47249742729E+03  0.50584930042E+03  0.12699999809E+01 0.  1.
</event>
<event>
 5   0  0.1154714E-02  0.7993718E+03  0.7818609E-02  0.9560927E-01
       -2   -1    0    0    0  501  0.00000000000E+00  0.00000000000E+00  0.15479717549E+03  0.15479717552E+03  0.25500000920E-02 0. -1.
        2   -1    0    0  501    0  0.00000000000E+00  0.00000000000E+00 -0.10319879455E+04  0.10319879455E+04  0.25500000920E-02 0.  1.
    10030    2    1    2    0    0  0.00000000000E+00  0.00000000000E+00 -0.87719076999E+03  0.11867851210E+04  0.79937180115E+03 0.  0.
        5    1    3    3  502    0 -0.38411473385E+02  0.18293402115E+03 -0.96304884150E+03  0.98103285291E+03  0.46999998093E+01 0.  1.
       -5    1    3    3    0  502  0.38411473385E+02 -0.18293402115E+03  0.85858071511E+02  0.20575226809E+03  0.46999998093E+01 0. -1.
</event>
<event>
 5   0  0.1106332E-02  0.8002815E+03  0.7818609E-02  0.9559610E-01
        2   -1    0    0  501    0  0.00000000000E+00  0.00000000000E+00  0.34286990649E+03  0.34286990650E+03  0.25500000920E-02 0.  1.
       -2   -1    0    0    0  501  0.00000000000E+00  0.00000000000E+00 -0.46697777404E+03  0.46697777405E+03  0.25500000920E-02 0. -1.
    10030    2    1    2    0    0  0.00000000000E+00  0.00000000000E+00 -0.12410786756E+03  0.80984768055E+03  0.80028151478E+03 0.  0.
        1    1    3    3  502    0 -0.35373641819E+03 -0.12242728913E+03 -0.20514691774E+03  0.42685261222E+03  0.50400001928E-02 0. -1.
       -1    1    3    3    0  502  0.35373641819E+03  0.12242728913E+03  0.81039050187E+02  0.38299506832E+03  0.50400001928E-02 0.  1.
</event>
<event>
 5   0  0.1106332E-02  0.7997334E+03  0.7818609E-02  0.9560403E-01
        2   -1    0    0  501    0  0.00000000000E+00  0.00000000000E+00  0.46684549321E+03  0.46684549322E+03  0.25500000920E-02 0.  1.
       -2   -1    0    0    0  501  0.00000000000E+00  0.00000000000E+00 -0.34249739627E+03  0.34249739628E+03  0.25500000920E-02 0. -1.
    10030    2    1    2    0    0  0.00000000000E+00  0.00000000000E+00  0.12434809694E+03  0.80934288950E+03  0.79973337029E+03 0.  0.
        1    1    3    3  502    0 -0.96517520137E+02  0.31407933347E+03  0.29279803263E+03  0.44010470043E+03  0.50400001928E-02 0.  1.
       -1    1    3    3    0  502  0.96517520137E+02 -0.31407933347E+03 -0.16844993569E+03  0.36923818906E+03  0.50400001928E-02 0. -1.
</event>
<event>
 5   0  0.6596225E-03  0.7937520E+03  0.7818609E-02  0.9569105E-01
        1   -1    0    0  501    0  0.00000000000E+00  0.00000000000E+00  0.64485639500E+03  0.64485639502E+03  0.50400001928E-02 0.  1.
       -1   -1    0    0    0  501  0.00000000000E+00  0.00000000000E+00 -0.24425677065E+03  0.24425677070E+03  0.50400001928E-02 0. -1.
    10030    2    1    2    0    0  0.00000000000E+00  0.00000000000E+00  0.40059962435E+03  0.88911316572E+03  0.79375195271E+03 0.  0.
        5    1    3    3  502    0 -0.51573503249E+02 -0.37512028326E+03  0.33337222170E+03  0.50451380689E+03  0.46999998093E+01 0.  1.
       -5    1    3    3    0  502  0.51573503249E+02  0.37512028326E+03  0.67227402655E+02  0.38459935883E+03  0.46999998093E+01 0. -1.
</event>
<event>
 5   0  0.6596225E-03  0.7948137E+03  0.7818609E-02  0.9567555E-01
       -1   -1    0    0    0  501  0.00000000000E+00  0.00000000000E+00  0.16637293641E+03  0.16637293649E+03  0.50400001928E-02 0.  1.
        1   -1    0    0  501    0  0.00000000000E+00  0.00000000000E+00 -0.94926624992E+03  0.94926624993E+03  0.50400001928E-02 0. -1.
    10030    2    1    2    0    0  0.00000000000E+00  0.00000000000E+00 -0.78289331351E+03  0.11156391864E+04  0.79481372280E+03 0.  0.
        5    1    3    3  502    0 -0.18929320908E+03 -0.12741083102E+03 -0.84810661238E+03  0.87827806236E+03  0.46999998093E+01 0. -1.
       -5    1    3    3    0  502  0.18929320908E+03  0.12741083102E+03  0.65213298872E+02  0.23736112406E+03  0.46999998093E+01 0.  1.
</event>
<event>
 5   0  0.1119792E-02  0.8086700E+03  0.7818609E-02  0.9547552E-01
       -2   -1    0    0    0  501  0.00000000000E+00  0.00000000000E+00  0.10274758210E+03  0.10274758213E+03  0.25500000920E-02 0.  1.
        2   -1    0    0  501    0  0.00000000000E+00  0.00000000000E+00 -0.15911498956E+04  0.15911498956E+04  0.25500000920E-02 0. -1.
    10030    2    1    2    0    0  0.00000000000E+00  0.00000000000E+00 -0.14884023135E+04  0.16938974777E+04  0.80867003050E+03 0.  0.
        4    1    3    3  502    0  0.23751911224E+03 -0.19143084449E+03 -0.13000752187E+04  0.13353869417E+04  0.12699999809E+01 0. -1.
       -4    1    3    3    0  502 -0.23751911224E+03  0.19143084449E+03 -0.18832709480E+03  0.35851053602E+03  0.12699999809E+01 0.  1.
</event>
<event>
 5   0  0.6551489E-03  0.7700014E+03  0.7818609E-02  0.9604483E-01
       -1   -1    0    0    0  501  0.00000000000E+00  0.00000000000E+00  0.11759064096E+03  0.11759064107E+03  0.50400001928E-02 0. -1.
        1   -1    0    0  501    0  0.00000000000E+00  0.00000000000E+00 -0.12605216781E+04  0.12605216781E+04  0.50400001928E-02 0.  1.
    10030    2    1    2    0    0  0.00000000000E+00  0.00000000000E+00 -0.11429310371E+04  0.13781123191E+04  0.77000143416E+03 0.  0.
        4    1    3    3  502    0 -0.32613204868E+01  0.16731300319E+03  0.49090271613E+02  0.17440110354E+03  0.12699999809E+01 0. -1.
       -4    1    3    3    0  502  0.32613204868E+01 -0.16731300319E+03 -0.11920213087E+04  0.12037112156E+04  0.12699999809E+01 0.  1.
</event>
<event>
 5   0  0.1119792E-02  0.7936953E+03  0.7818609E-02  0.9569188E-01
        2   -1    0    0  501    0  0.00000000000E+00  0.00000000000E+00  0.83413035688E+03  0.83413035688E+03  0.25500000920E-02 0.  1.
       -2   -1    0    0    0  501  0.00000000000E+00  0.00000000000E+00 -0.18880507895E+03  0.18880507897E+03  0.25500000920E-02 0. -1.
    10030    2    1    2    0    0  0.00000000000E+00  0.00000000000E+00  0.64532527793E+03  0.10229354359E+04  0.79369527628E+03 0.  0.
        4    1    3    3  502    0 -0.28045827904E+03  0.27760871303E+02 -0.37422919986E+02  0.28430546969E+03  0.12699999809E+01 0. -1.
       -4    1    3    3    0  502  0.28045827904E+03 -0.27760871303E+02  0.68274819791E+03  0.73862996616E+03  0.12699999809E+01 0.  1.
</event>
<event>
 5   0  0.6517392E-03  0.8040435E+03  0.7818609E-02  0.9554183E-01
       -1   -1    0    0    0  501  0.00000000000E+00  0.00000000000E+00  0.24294315927E+03  0.24294315932E+03  0.50400001928E-02 0.  1.
        1   -1    0    0  501    0  0.00000000000E+00  0.00000000000E+00 -0.66526463282E+03  0.66526463284E+03  0.50400001928E-02 0. -1.
    10030    2    1    2    0    0  0.00000000000E+00  0.00000000000E+00 -0.42232147355E+03  0.90820779216E+03  0.80404351046E+03 0.  0.
        3    1    3    3  502    0 -0.22193984852E+03 -0.28581966360E+03 -0.13340006790E+02  0.36211620019E+03  0.10100000352E+00 0.  1.
       -3    1    3    3    0  502  0.22193984852E+03  0.28581966360E+03 -0.40898146676E+03  0.54609159197E+03  0.10100000352E+00 0. -1.
</event>
<event>
 5   0  0.6551489E-03  0.7979035E+03  0.7818609E-02  0.9563057E-01
        1   -1    0    0  501    0  0.00000000000E+00  0.00000000000E+00  0.46786825200E+03  0.46786825203E+03  0.50400001928E-02 0.  1.
       -1   -1    0    0    0  501  0.00000000000E+00  0.00000000000E+00 -0.34018657026E+03  0.34018657030E+03  0.50400001928E-02 0. -1.
    10030    2    1    2    0    0  0.00000000000E+00  0.00000000000E+00  0.12768168174E+03  0.80805482233E+03  0.79790349294E+03 0.  0.
        4    1    3    3  502    0  0.28287695806E+03 -0.17846491519E+03 -0.15639262207E+03  0.36922806569E+03  0.12699999809E+01 0. -1.
       -4    1    3    3    0  502 -0.28287695806E+03  0.17846491519E+03  0.28407430381E+03  0.43882675664E+03  0.12699999809E+01 0.  1.
</event>
<event>
 5   0  0.6600401E-03  0.7994534E+03  0.7818609E-02  0.9560809E-01
        1   -1    0    0  501    0  0.00000000000E+00  0.00000000000E+00  0.63575389301E+03  0.63575389303E+03  0.50400001928E-02 0.  1.
       -1   -1    0    0    0  501  0.00000000000E+00  0.00000000000E+00 -0.25132594829E+03  0.25132594834E+03  0.50400001928E-02 0. -1.
    10030    2    1    2    0    0  0.00000000000E+00  0.00000000000E+00  0.38442794472E+03  0.88707984138E+03  0.79945343848E+03 0.  0.
        2    1    3    3  502    0  0.22507079610E+03 -0.14996288290E+03  0.51881536428E+03  0.58507701350E+03  0.25500000920E-02 0.  1.
       -2    1    3    3    0  502 -0.22507079610E+03  0.14996288290E+03 -0.13438741956E+03  0.30200282788E+03  0.25500000920E-02 0. -1.
</event>
<event>
 5   0  0.1106332E-02  0.7936760E+03  0.7818609E-02  0.9569216E-01
        2   -1    0    0  501    0  0.00000000000E+00  0.00000000000E+00  0.57875473998E+03  0.57875473999E+03  0.25500000920E-02 0.  1.
       -2   -1    0    0    0  501  0.00000000000E+00  0.00000000000E+00 -0.27210210805E+03  0.27210210806E+03  0.25500000920E-02 0. -1.
    10030    2    1    2    0    0  0.00000000000E+00  0.00000000000E+00  0.30665263194E+03  0.85085684805E+03  0.79367596612E+03 0.  0.
        1    1    3    3  502    0 -0.16806758608E+03 -0.14618889392E+03 -0.19875944940E+03  0.29853513185E+03  0.50400001928E-02 0. -1.
       -1    1    3    3    0  502  0.16806758608E+03  0.14618889392E+03  0.50541208134E+03  0.55232171620E+03  0.50400001928E-02 0.  1.
</event>
<event>
 5   0  0.6557679E-03  0.7973912E+03  0.7818609E-02  0.9563801E-01
       -1   -1    0    0    0  501  0.00000000000E+00  0.00000000000E+00  0.39462299164E+03  0.39462299167E+03  0.50400001928E-02 0.  1.
        1   -1    0    0  501    0  0.00000000000E+00  0.00000000000E+00 -0.40281019816E+03  0.40281019819E+03  0.50400001928E-02 0. -1.
    10030    2    1    2    0    0  0.00000000000E+00  0.00000000000E+00 -0.81872065193E+01  0.79743318986E+03  0.79739115993E+03 0.  0.
        1    1    3    3  502    0 -0.43934725018E+02  0.37430813132E+03  0.12599525902E+03  0.39738097911E+03  0.50400001928E-02 0.  1.
       -1    1    3    3    0  502  0.43934725018E+02 -0.37430813132E+03 -0.13418246554E+03  0.40005221074E+03  0.50400001928E-02 0. -1.
</event>
<event>
 5   0  0.1106332E-02  0.7938580E+03  0.7818609E-02  0.9568950E-01
        2   -1    0    0  501    0  0.00000000000E+00  0.00000000000E+00  0.79465396325E+03  0.79465396326E+03  0.25500000920E-02 0.  1.
       -2   -1    0    0    0  501  0.00000000000E+00  0.00000000000E+00 -0.19826571929E+03  0.19826571931E+03  0.25500000920E-02 0. -1.
    10030    2    1    2    0    0  0.00000000000E+00  0.00000000000E+00  0.59638824396E+03  0.99291968256E+03  0.79385802162E+03 0.  0.
        1    1    3    3  502    0 -0.26361953630E+03 -0.45099887716E+02 -0.68648283954E+02  0.27611926175E+03  0.50400001928E-02 0. -1.
       -1    1    3    3    0  502  0.26361953630E+03  0.45099887716E+02  0.66503652792E+03  0.71680042081E+03  0.50400001928E-02 0.  1.
</event>
<event>
 5   0  0.1121480E-02  0.7924263E+03  0.7818609E-02  0.9571045E-01
        2   -1    0    0  501    0  0.00000000000E+00  0.00000000000E+00  0.15504454628E+04  0.15504454628E+04  0.25500000920E-02 0.  1.
       -2   -1    0    0    0  501  0.00000000000E+00  0.00000000000E+00 -0.10125145881E+03  0.10125145884E+03  0.25500000920E-02 0. -1.
    10030    2    1    2    0    0  0.00000000000E+00  0.00000000000E+00  0.14491940040E+04  0.16516969216E+04  0.79242631188E+03 0.  0.
        2    1    3    3  502    0 -0.34110192247E+03  0.19394696358E+03  0.83912118000E+03  0.92633163658E+03  0.25500000920E-02 0. -1.
       -2    1    3    3    0  502  0.34110192247E+03 -0.19394696358E+03  0.61007282396E+03  0.72536528504E+03  0.25500000920E-02 0.  1.
</event>
<event>
 5   0  0.1119792E-02  0.7985087E+03  0.7818609E-02  0.9562178E-01
       -2   -1    0    0    0  501  0.00000000000E+00  0.00000000000E+00  0.48058726057E+03  0.48058726058E+03  0.25500000920E-02 0.  1.
        2   -1    0    0  501    0  0.00000000000E+00  0.00000000000E+00 -0.33168592608E+03  0.33168592609E+03  0.25500000920E-02 0. -1.
    10030    2    1    2    0    0  0.00000000000E+00  0.00000000000E+00  0.14890133449E+03  0.81227318666E+03  0.79850868647E+03 0.  0.
        4    1    3    3  502    0 -0.82897512253E+02 -0.36368262589E+03  0.21926105529E+03  0.43268241607E+03  0.12699999809E+01 0.  1.
       -4    1    3    3    0  502  0.82897512253E+02  0.36368262589E+03 -0.70359720796E+02  0.37959077060E+03  0.12699999809E+01 0. -1.
</event>
<event>
 5   0  0.6600401E-03  0.7810910E+03  0.7818609E-02  0.9587798E-01
       -1   -1    0    0    0  501  0.00000000000E+00  0.00000000000E+00  0.49292067723E+03  0.49292067726E+03  0.50400001928E-02 0.  1.
        1   -1    0    0  501    0  0.00000000000E+00  0.00000000000E+00 -0.30943274509E+03  0.30943274513E+03  0.50400001928E-02 0. -1.
    10030    2    1    2    0    0  0.00000000000E+00  0.00000000000E+00  0.18348793214E+03  0.80235342239E+03  0.78109102746E+03 0.  0.
        2    1    3    3  502    0  0.23331608416E+03 -0.20331582771E+03  0.33645578323E+03  0.45713916371E+03  0.25500000920E-02 0.  1.
       -2    1    3    3    0  502 -0.23331608416E+03  0.20331582771E+03 -0.15296785109E+03  0.34521425868E+03  0.25500000920E-02 0. -1.
</event>
<event>
 5   0  0.6557679E-03  0.7982528E+03  0.7818609E-02  0.9562550E-01
        1   -1    0    0  501    0  0.00000000000E+00  0.00000000000E+00  0.14053975917E+04  0.14053975917E+04  0.50400001928E-02 0.  1.
       -1   -1    0    0    0  501  0.00000000000E+00  0.00000000000E+00 -0.11335004252E+03  0.11335004263E+03  0.50400001928E-02 0. -1.
    10030    2    1    2    0    0  0.00000000000E+00  0.00000000000E+00  0.12920475492E+04  0.15187476344E+04  0.79825278418E+03 0.  0.
        1    1    3    3  502    0 -0.17348435196E+03  0.23239388664E+03  0.12429028356E+03  0.31551832520E+03  0.50400001928E-02 0. -1.
       -1    1    3    3    0  502  0.17348435196E+03 -0.23239388664E+03  0.11677572656E+04  0.12032293092E+04  0.50400001928E-02 0.  1.
</event>
<event>
 5   0  0.1119792E-02  0.7926539E+03  0.7818609E-02  0.9570712E-01
        2   -1    0    0  501    0  0.00000000000E+00  0.00000000000E+00  0.18677458162E+04  0.18677458162E+04  0.25500000920E-02 0.  1.
       -2   -1    0    0    0  501  0.00000000000E+00  0.00000000000E+00 -0.84098727181E+02  0.84098727219E+02  0.25500000920E-02 0. -1.
    10030    2    1    2    0    0  0.00000000000E+00  0.00000000000E+00  0.17836470891E+04  0.19518445435E+04  0.79265388634E+03 0.  0.
        4    1    3    3  502    0  0.25650713664E+03  0.48700829954E+02  0.15760295515E+03  0.30497210751E+03  0.12699999809E+01 0. -1.
       -4    1    3    3    0  502 -0.25650713664E+03 -0.48700829954E+02  0.16260441339E+04  0.16468724359E+04  0.12699999809E+01 0.  1.
</event>
<event>
 5   0  0.1154714E-02  0.7955633E+03  0.7818609E-02  0.9566461E-01
        2   -1    0    0  501    0  0.00000000000E+00  0.00000000000E+00  0.51234768176E+03  0.51234768176E+03  0.25500000920E-02 0.  1.
       -2   -1    0    0    0  501  0.00000000000E+00  0.00000000000E+00 -0.30883374680E+03  0.30883374681E+03  0.25500000920E-02 0. -1.
    10030    2    1    2    0    0  0.00000000000E+00  0.00000000000E+00  0.20351393496E+03  0.82118142857E+03  0.79556333306E+03 0.  0.
        5    1    3    3  502    0 -0.17763221152E+03 -0.11803060821E+03 -0.24479793731E+03  0.32470378370E+03  0.46999998093E+01 0. -1.
       -5    1    3    3    0  502  0.17763221152E+03  0.11803060821E+03  0.44831187226E+03  0.49647764487E+03  0.46999998093E+01 0.  1.
</event>
<event>
 5   0  0.6600401E-03  0.7991745E+03  0.7818609E-02  0.9561213E-01
        1   -1    0    0  501    0  0.00000000000E+00  0.00000000000E+00  0.21605989942E+03  0.21605989948E+03  0.50400001928E-02 0. -1.
       -1   -1    0    0    0  501  0.00000000000E+00  0.00000000000E+00 -0.73900794649E+03  0.73900794651E+03  0.50400001928E-02 0.  1.
    10030    2    1    2    0    0  0.00000000000E+00  0.00000000000E+00 -0.52294804706E+03  0.95506784599E+03  0.79917453070E+03 0.  0.
        2    1    3    3  502    0 -0.19750677188E+03  0.32985816433E+03 -0.13135615482E+03  0.40628779570E+03  0.25500000920E-02 0. -1.
       -2    1    3    3    0  502  0.19750677188E+03 -0.32985816433E+03 -0.39159189224E+03  0.54878005029E+03  0.25500000920E-02 0.  1.
</event>
<event>
 5   0  0.4385875E-03  0.7993045E+03  0.7818609E-02  0.9561024E-01
        3   -1    0    0  501    0  0.00000000000E+00  0.00000000000E+00  0.27417956363E+03  0.27417958223E+03  0.10100000352E+00 0.  1.
       -3   -1    0    0    0  501  0.00000000000E+00  0.00000000000E+00 -0.58254497640E+03  0.58254498516E+03  0.10100000352E+00 0. -1.
    10030    2    1    2    0    0  0.00000000000E+00  0.00000000000E+00 -0.30836541277E+03  0.85672456739E+03  0.79930454557E+03 0.  0.
        4    1    3    3  502    0  0.27283451744E+03 -0.15584739309E+03  0.11052695875E+03  0.33308393139E+03  0.12699999809E+01 0.  1.
       -4    1    3    3    0  502 -0.27283451744E+03  0.15584739309E+03 -0.41889237152E+03  0.52364063599E+03  0.12699999809E+01 0. -1.
</event>
<event>
 5   0  0.6517392E-03  0.7830857E+03  0.7818609E-02  0.9584828E-01
        1   -1    0    0  501    0  0.00000000000E+00  0.00000000000E+00  0.10795502886E+04  0.10795502886E+04  0.50400001928E-02 0.  1.
       -1   -1    0    0    0  501  0.00000000000E+00  0.00000000000E+00 -0.14200893809E+03  0.14200893818E+03  0.50400001928E-02 0. -1.
    10030    2    1    2    0    0  0.00000000000E+00  0.00000000000E+00  0.93754135053E+03  0.12215592268E+04  0.78308566623E+03 0.  0.
        3    1    3    3  502    0 -0.37721992895E+03  0.60224889882E+02  0.60281462311E+03  0.71365775565E+03  0.10100000352E+00 0.  1.
       -3    1    3    3    0  502  0.37721992895E+03 -0.60224889882E+02  0.33472672742E+03  0.50790147116E+03  0.10100000352E+00 0. -1.
</event>
<event>
 5   0  0.1121480E-02  0.8074891E+03  0.7818609E-02  0.9549240E-01
        2   -1    0    0  501    0  0.00000000000E+00  0.00000000000E+00  0.99143461467E+03  0.99143461467E+03  0.25500000920E-02 0. -1.
       -2   -1    0    0    0  501  0.00000000000E+00  0.00000000000E+00 -0.16441796377E+03  0.16441796379E+03  0.25500000920E-02 0.  1.
    10030    2    1    2    0    0  0.00000000000E+00  0.00000000000E+00  0.82701665090E+03  0.11558525785E+04  0.80748909731E+03 0.  0.
        2    1    3    3  502    0 -0.12551138032E+03  0.18928352432E+03 -0.64310805475E+02  0.23604499333E+03  0.25500000920E-02 0.  1.
       -2    1    3    3    0  502  0.12551138032E+03 -0.18928352432E+03  0.89132745637E+03  0.91980758513E+03  0.25500000920E-02 0. -1.
</event>
<event>
 5   0  0.1119792E-02  0.7986901E+03  0.7818609E-02  0.9561915E-01
        2   -1    0    0  501    0  0.00000000000E+00  0.00000000000E+00  0.47621543633E+03  0.47621543634E+03  0.25500000920E-02 0.  1.
       -2   -1    0    0    0  501  0.00000000000E+00  0.00000000000E+00 -0.33488302231E+03  0.33488302232E+03  0.25500000920E-02 0. -1.
    10030    2    1    2    0    0  0.00000000000E+00  0.00000000000E+00  0.14133241402E+03  0.81109845866E+03  0.79869008907E+03 0.  0.
        4    1    3    3  502    0  0.20060109968E+03 -0.62351191706E+02 -0.27423702519E+03  0.34545047573E+03  0.12699999809E+01 0. -1.
       -4    1    3    3    0  502 -0.20060109968E+03  0.62351191706E+02  0.41556943920E+03  0.46564798292E+03  0.12699999809E+01 0.  1.
</event>
<event>
 5   0  0.6557679E-03  0.8033477E+03  0.7818609E-02  0.9555184E-01
        1   -1    0    0  501    0  0.00000000000E+00  0.00000000000E+00  0.87407667865E+03  0.87407667867E+03  0.50400001928E-02 0. -1.
       -1   -1    0    0    0  501  0.00000000000E+00  0.00000000000E+00 -0.18458548639E+03  0.18458548646E+03  0.50400001928E-02 0.  1.
    10030    2    1    2    0    0  0.00000000000E+00  0.00000000000E+00  0.68949119226E+03  0.10586621651E+04  0.80334766798E+03 0.  0.
        1    1    3    3  502    0  0.13335856266E+02 -0.39872502980E+02  0.87116901689E+03  0.87218296107E+03  0.50400001928E-02 0. -1.
       -1    1    3    3    0  502 -0.13335856266E+02  0.39872502980E+02 -0.18167782463E+03  0.18647920405E+03  0.50400001928E-02 0.  1.
</event>
<event>
 5   0  0.6557679E-03  0.8197135E+03  0.7818609E-02  0.9531913E-01
        1   -1    0    0  501    0  0.00000000000E+00  0.00000000000E+00  0.93224361013E+03  0.93224361014E+03  0.50400001928E-02 0. -1.
       -1   -1    0    0    0  501  0.00000000000E+00  0.00000000000E+00 -0.18019168420E+03  0.18019168427E+03  0.50400001928E-02 0.  1.
    10030    2    1    2    0    0  0.00000000000E+00  0.00000000000E+00  0.75205192593E+03  0.11124352944E+04  0.81971347736E+03 0.  0.
        1    1    3    3  502    0  0.25553991398E+03 -0.28251091865E+03  0.58125595258E+03  0.69496154514E+03  0.50400001928E-02 0. -1.
       -1    1    3    3    0  502 -0.25553991398E+03  0.28251091865E+03  0.17079597335E+03  0.41747374927E+03  0.50400001928E-02 0.  1.
</event>
<event>
 5   0  0.1092868E-02  0.7994542E+03  0.7818609E-02  0.9560807E-01
       -2   -1    0    0    0  501  0.00000000000E+00  0.00000000000E+00  0.14449302384E+03  0.14449302387E+03  0.25500000920E-02 0. -1.
        2   -1    0    0  501    0  0.00000000000E+00  0.00000000000E+00 -0.11058094347E+04  0.11058094347E+04  0.25500000920E-02 0.  1.
    10030    2    1    2    0    0  0.00000000000E+00  0.00000000000E+00 -0.96131641083E+03  0.12503024585E+04  0.79945418638E+03 0.  0.
        3    1    3    3  502    0  0.50071426302E+02 -0.31530982714E+03 -0.10448371548E+03  0.33592304449E+03  0.10100000352E+00 0. -1.
       -3    1    3    3    0  502 -0.50071426302E+02  0.31530982714E+03 -0.85683269535E+03  0.91437941405E+03  0.10100000352E+00 0.  1.
</event>
<event>
 5   0  0.6551489E-03  0.7430350E+03  0.7818609E-02  0.9646341E-01
       -1   -1    0    0    0  501  0.00000000000E+00  0.00000000000E+00  0.37993250387E+03  0.37993250390E+03  0.50400001928E-02 0.  1.
        1   -1    0    0  501    0  0.00000000000E+00  0.00000000000E+00 -0.36328886296E+03  0.36328886299E+03  0.50400001928E-02 0. -1.
    10030    2    1    2    0    0  0.00000000000E+00  0.00000000000E+00  0.16643640915E+02  0.74322136690E+03  0.74303498533E+03 0.  0.
        4    1    3    3  502    0 -0.18567300424E+03 -0.21848271022E+03 -0.22798831391E+03  0.36631877286E+03  0.12699999809E+01 0. -1.
       -4    1    3    3    0  502  0.18567300424E+03  0.21848271022E+03  0.24463195483E+03  0.37690259404E+03  0.12699999809E+01 0.  1.
</event>
<event>
 5   0  0.6557679E-03  0.7991735E+03  0.7818609E-02  0.9561214E-01
       -1   -1    0    0    0  501  0.00000000000E+00  0.00000000000E+00  0.30964211686E+03  0.30964211690E+03  0.50400001928E-02 0. -1.
        1   -1    0    0  501    0  0.00000000000E+00  0.00000000000E+00 -0.51565847564E+03  0.51565847566E+03  0.50400001928E-02 0.  1.
    10030    2    1    2    0    0  0.00000000000E+00  0.00000000000E+00 -0.20601635878E+03  0.82530059256E+03  0.79917352809E+03 0.  0.
        1    1    3    3  502    0 -0.50230327398E+02  0.14741259463E+03 -0.48302786539E+03  0.50751303197E+03  0.50400001928E-02 0.  1.
       -1    1    3    3    0  502  0.50230327398E+02 -0.14741259463E+03  0.27701150661E+03  0.31778756059E+03  0.50400001928E-02 0. -1.
</event>
<event>
 5   0  0.4385875E-03  0.7964979E+03  0.7818609E-02  0.9565100E-01
       -3   -1    0    0    0  501  0.00000000000E+00  0.00000000000E+00  0.87087876525E+03  0.87087877110E+03  0.10100000352E+00 0. -1.
        3   -1    0    0  501    0  0.00000000000E+00  0.00000000000E+00 -0.18211743940E+03  0.18211746741E+03  0.10100000352E+00 0.  1.
    10030    2    1    2    0    0  0.00000000000E+00  0.00000000000E+00  0.68876132585E+03  0.10529962385E+04  0.79649790605E+03 0.  0.
        1    1    3    3  502    0  0.15853419233E+03 -0.36056201006E+03  0.26656946286E+03  0.47560207294E+03  0.50400001928E-02 0.  1.
       -1    1    3    3    0  502 -0.15853419233E+03  0.36056201006E+03  0.42219186299E+03  0.57739416557E+03  0.50400001928E-02 0. -1.
</event>
<event>
 5   0  0.6557679E-03  0.8038985E+03  0.7818609E-02  0.9554391E-01
       -1   -1    0    0    0  501  0.00000000000E+00  0.00000000000E+00  0.23146498315E+03  0.23146498320E+03  0.50400001928E-02 0.  1.
        1   -1    0    0  501    0  0.00000000000E+00  0.00000000000E+00 -0.69800276399E+03  0.69800276400E+03  0.50400001928E-02 0. -1.
    10030    2    1    2    0    0  0.00000000000E+00  0.00000000000E+00 -0.46653778084E+03  0.92946774721E+03  0.80389849618E+03 0.  0.
        1    1    3    3  502    0  0.17635431269E+03  0.33311718806E+03 -0.39470400120E+03  0.54576474161E+03  0.50400001928E-02 0. -1.
       -1    1    3    3    0  502 -0.17635431269E+03 -0.33311718806E+03 -0.71833779632E+02  0.38370300560E+03  0.50400001928E-02 0.  1.
</event>
<event>
 5   0  0.6517392E-03  0.8042831E+03  0.7818609E-02  0.9553838E-01
       -1   -1    0    0    0  501  0.00000000000E+00  0.00000000000E+00  0.24918142086E+03  0.24918142091E+03  0.50400001928E-02 0.  1.
        1   -1    0    0  501    0  0.00000000000E+00  0.00000000000E+00 -0.64899628566E+03  0.64899628568E+03  0.50400001928E-02 0. -1.
    10030    2    1    2    0    0  0.00000000000E+00  0.00000000000E+00 -0.39981486480E+03  0.89817770659E+03  0.80428307609E+03 0.  0.
        3    1    3    3  502    0  0.35678207023E+03 -0.13494804002E+03 -0.57710502663E+02  0.38579130558E+03  0.10100000352E+00 0.  1.
       -3    1    3    3    0  502 -0.35678207023E+03  0.13494804002E+03 -0.34210436214E+03  0.51238640101E+03  0.10100000352E+00 0. -1.
</event>
<event>
 5   0  0.1154714E-02  0.8001816E+03  0.7818609E-02  0.9559754E-01
       -2   -1    0    0    0  501  0.00000000000E+00  0.00000000000E+00  0.27942214573E+03  0.27942214574E+03  0.25500000920E-02 0. -1.
        2   -1    0    0  501    0  0.00000000000E+00  0.00000000000E+00 -0.57287027539E+03  0.57287027539E+03  0.25500000920E-02 0.  1.
    10030    2    1    2    0    0  0.00000000000E+00  0.00000000000E+00 -0.29344812965E+03  0.85229242113E+03  0.80018158334E+03 0.  0.
        5    1    3    3  502    0  0.46044520076E+02 -0.19575223654E+03 -0.51509603066E+03  0.55297834202E+03  0.46999998093E+01 0.  1.
       -5    1    3    3    0  502 -0.46044520076E+02  0.19575223654E+03  0.22164790101E+03  0.29931407912E+03  0.46999998093E+01 0. -1.
</event>
<event>
 5   0  0.6551489E-03  0.7980867E+03  0.7818609E-02  0.9562791E-01
       -1   -1    0    0    0  501  0.00000000000E+00  0.00000000000E+00  0.51185990376E+03  0.51185990378E+03  0.50400001928E-02 0.  1.
        1   -1    0    0  501    0  0.00000000000E+00  0.00000000000E+00 -0.31109214674E+03  0.31109214678E+03  0.50400001928E-02 0. -1.
    10030    2    1    2    0    0  0.00000000000E+00  0.00000000000E+00  0.20076775702E+03  0.82295205057E+03  0.79808670286E+03 0.  0.
        4    1    3    3  502    0 -0.36625871217E+03  0.12768410746E+03  0.19703412138E+03  0.43505486255E+03  0.12699999809E+01 0. -1.
       -4    1    3    3    0  502  0.36625871217E+03 -0.12768410746E+03  0.37336356353E+01  0.38789718802E+03  0.12699999809E+01 0.  1.
</event>
<event>
 5   0  0.6557679E-03  0.7981273E+03  0.7818609E-02  0.9562732E-01
       -1   -1    0    0    0  501  0.00000000000E+00  0.00000000000E+00  0.12836640588E+03  0.12836640598E+03  0.50400001928E-02 0.  1.
        1   -1    0    0  501    0  0.00000000000E+00  0.00000000000E+00 -0.12406034502E+04  0.12406034502E+04  0.50400001928E-02 0. -1.
    10030    2    1    2    0    0  0.00000000000E+00  0.00000000000E+00 -0.11122370443E+04  0.13689698562E+04  0.79812732342E+03 0.  0.
        1    1    3    3  502    0  0.37271051588E+02 -0.29413022234E+03 -0.10142804107E+04  0.10567244061E+04  0.50400001928E-02 0. -1.
       -1    1    3    3    0  502 -0.37271051588E+02  0.29413022234E+03 -0.97956633620E+02  0.31224545004E+03  0.50400001928E-02 0.  1.
</event>
<event>
 5   0  0.6557679E-03  0.8104778E+03  0.7818609E-02  0.9544974E-01
       -1   -1    0    0    0  501  0.00000000000E+00  0.00000000000E+00  0.41888118443E+03  0.41888118446E+03  0.50400001928E-02 0. -1.
        1   -1    0    0  501    0  0.00000000000E+00  0.00000000000E+00 -0.39204093870E+03  0.39204093873E+03  0.50400001928E-02 0.  1.
    10030    2    1    2    0    0  0.00000000000E+00  0.00000000000E+00  0.26840245736E+02  0.81092212319E+03  0.81047781653E+03 0.  0.
        1    1    3    3  502    0  0.30503171069E+03 -0.22424870143E+03 -0.13118158798E+03  0.40067497260E+03  0.50400001928E-02 0. -1.
       -1    1    3    3    0  502 -0.30503171069E+03  0.22424870143E+03  0.15802183371E+03  0.41024715059E+03  0.50400001928E-02 0.  1.
</event>
<event>
 5   0  0.1154714E-02  0.8027053E+03  0.7818609E-02  0.9556110E-01
       -2   -1    0    0    0  501  0.00000000000E+00  0.00000000000E+00  0.83023619577E+02  0.83023619616E+02  0.25500000920E-02 0. -1.
        2   -1    0    0  501    0  0.00000000000E+00  0.00000000000E+00 -0.19402182277E+04  0.19402182277E+04  0.25500000920E-02 0.  1.
    10030    2    1    2    0    0  0.00000000000E+00  0.00000000000E+00 -0.18571946081E+04  0.20232418473E+04  0.80270527611E+03 0.  0.
        5    1    3    3  502    0  0.38522011849E+02 -0.39932260194E+03 -0.90105952977E+03  0.98634317152E+03  0.46999998093E+01 0. -1.
       -5    1    3    3    0  502 -0.38522011849E+02  0.39932260194E+03 -0.95613507834E+03  0.10368986758E+04  0.46999998093E+01 0.  1.
</event>
<event>
 5   0  0.1119792E-02  0.8013909E+03  0.7818609E-02  0.9558006E-01
       -2   -1    0    0    0  501  0.00000000000E+00  0.00000000000E+00  0.11195890334E+04  0.11195890334E+04  0.25500000920E-02 0.  1.
        2   -1    0    0  501    0  0.00000000000E+00  0.00000000000E+00 -0.14340695870E+03  0.14340695872E+03  0.25500000920E-02 0. -1.
    10030    2    1    2    0    0  0.00000000000E+00  0.00000000000E+00  0.97618207472E+03  0.12629959921E+04  0.80139093653E+03 0.  0.
        4    1    3    3  502    0  0.37485274432E+03  0.44745545627E+01  0.71108677692E+03  0.80385360531E+03  0.12699999809E+01 0.  1.
       -4    1    3    3    0  502 -0.37485274432E+03 -0.44745545627E+01  0.26509529781E+03  0.45914238683E+03  0.12699999809E+01 0. -1.
</event>
<event>
 5   0  0.6596225E-03  0.8024072E+03  0.7818609E-02  0.9556539E-01
        1   -1    0    0  501    0  0.00000000000E+00  0.00000000000E+00  0.82153101579E+03  0.82153101581E+03  0.50400001928E-02 0. -1.
       -1   -1    0    0    0  501  0.00000000000E+00  0.00000000000E+00 -0.19593211522E+03  0.19593211529E+03  0.50400001928E-02 0.  1.
    10030    2    1    2    0    0  0.00000000000E+00  0.00000000000E+00  0.62559890057E+03  0.10174631311E+04  0.80240715273E+03 0.  0.
        5    1    3    3  502    0  0.84915515861E+02 -0.35710293012E+03  0.51808090324E+03  0.63495122634E+03  0.46999998093E+01 0. -1.
       -5    1    3    3    0  502 -0.84915515861E+02  0.35710293012E+03  0.10751799733E+03  0.38251190476E+03  0.46999998093E+01 0.  1.
</event>
<event>
 5   0  0.1119792E-02  0.7918511E+03  0.7818609E-02  0.9571888E-01
        2   -1    0    0  501    0  0.00000000000E+00  0.00000000000E+00  0.21290856199E+04  0.21290856199E+04  0.25500000920E-02 0. -1.
       -2   -1    0    0    0  501  0.00000000000E+00  0.00000000000E+00 -0.73626463941E+02  0.73626463986E+02  0.25500000920E-02 0.  1.
    10030    2    1    2    0    0  0.00000000000E+00  0.00000000000E+00  0.20554591559E+04  0.22027120839E+04  0.79185111144E+03 0.  0.
        4    1    3    3  502    0 -0.30341776818E+03  0.95414656243E+02  0.37187257781E+03  0.48934356611E+03  0.12699999809E+01 0.  1.
       -4    1    3    3    0  502  0.30341776818E+03 -0.95414656243E+02  0.16835865781E+04  0.17133685177E+04  0.12699999809E+01 0. -1.
</event>
<event>
 5   0  0.6517392E-03  0.8015582E+03  0.7818609E-02  0.9557764E-01
       -1   -1    0    0    0  501  0.00000000000E+00  0.00000000000E+00  0.25434546379E+03  0.25434546384E+03  0.50400001928E-02 0.  1.
        1   -1    0    0  501    0  0.00000000000E+00  0.00000000000E+00 -0.63151861957E+03  0.63151861959E+03  0.50400001928E-02 0. -1.
    10030    2    1    2    0    0  0.00000000000E+00  0.00000000000E+00 -0.37717315578E+03  0.88586408343E+03  0.80155822301E+03 0.  0.
        3    1    3    3  502    0 -0.16557658304E+03 -0.36421508289E+03 -0.21463818150E+03  0.45402399784E+03  0.10100000352E+00 0. -1.
       -3    1    3    3    0  502  0.16557658304E+03  0.36421508289E+03 -0.16253497428E+03  0.43184008559E+03  0.10100000352E+00 0.  1.
</event>
<event>
 5   0  0.1121480E-02  0.7956196E+03  0.7818609E-02  0.9566379E-01
        2   -1    0    0  501    0  0.00000000000E+00  0.00000000000E+00  0.11506136750E+04  0.11506136751E+04  0.25500000920E-02 0. -1.
       -2   -1    0    0    0  501  0.00000000000E+00  0.00000000000E+00 -0.13753760758E+03  0.13753760760E+03  0.25500000920E-02 0.  1.
    10030    2    1    2    0    0  0.00000000000E+00  0.00000000000E+00  0.10130760675E+04  0.12881512827E+04  0.79561963809E+03 0.  0.
        2    1    3    3  502    0  0.12219102935E+03 -0.15343973427E+03  0.10668764036E+04  0.10847578809E+04  0.25500000920E-02 0. -1.
       -2    1    3    3    0  502 -0.12219102935E+03  0.15343973427E+03 -0.53800336087E+02  0.20339340175E+03  0.25500000920E-02 0.  1.
</event>
<event>
 5   0  0.1106332E-02  0.7981734E+03  0.7818609E-02  0.9562665E-01
        2   -1    0    0  501    0  0.00000000000E+00  0.00000000000E+00  0.12094040316E+04  0.12094040316E+04  0.25500000920E-02 0. -1.
       -2   -1    0    0    0  501  0.00000000000E+00  0.00000000000E+00 -0.13169312859E+03  0.13169312862E+03  0.25500000920E-02 0.  1.
    10030    2    1    2    0    0  0.00000000000E+00  0.00000000000E+00  0.10777109030E+04  0.13410971602E+04  0.79817341643E+03 0.  0.
        1    1    3    3  502    0  0.36417285608E+03  0.86679706672E+02  0.77127719942E+03  0.85732360227E+03  0.50400001928E-02 0. -1.
       -1    1    3    3    0  502 -0.36417285608E+03 -0.86679706672E+02  0.30643370360E+03  0.48377355796E+03  0.50400001928E-02 0.  1.
</event>
<event>
 5   0  0.4385875E-03  0.8013458E+03  0.7818609E-02  0.9558071E-01
       -3   -1    0    0    0  501  0.00000000000E+00  0.00000000000E+00  0.26921602161E+03  0.26921604055E+03  0.10100000352E+00 0. -1.
        3   -1    0    0  501    0  0.00000000000E+00  0.00000000000E+00 -0.59631951298E+03  0.59631952154E+03  0.10100000352E+00 0.  1.
    10030    2    1    2    0    0  0.00000000000E+00  0.00000000000E+00 -0.32710349138E+03  0.86553556209E+03  0.80134581497E+03 0.  0.
        5    1    3    3  502    0  0.33088993407E+03  0.15763039178E+03 -0.33831886051E+03  0.49881582799E+03  0.46999998093E+01 0.  1.
       -5    1    3    3    0  502 -0.33088993407E+03 -0.15763039178E+03  0.11215369133E+02  0.36671973410E+03  0.46999998093E+01 0. -1.
</event>
<event>
 5   0  0.6551489E-03  0.7912898E+03  0.7818609E-02  0.9572711E-01
       -1   -1    0    0    0  501  0.00000000000E+00  0.00000000000E+00  0.13769993071E+03  0.13769993080E+03  0.50400001928E-02 0.  1.
        1   -1    0    0  501    0  0.00000000000E+00  0.00000000000E+00 -0.11367825049E+04  0.11367825049E+04  0.50400001928E-02 0. -1.
    10030    2    1    2    0    0  0.00000000000E+00  0.00000000000E+00 -0.99908257419E+03  0.12744824357E+04  0.79128976292E+03 0.  0.
        4    1    3    3  502    0 -0.31601318706E+03  0.54696096022E+01 -0.11622601067E+03  0.33675562280E+03  0.12699999809E+01 0.  1.
       -4    1    3    3    0  502  0.31601318706E+03 -0.54696096022E+01 -0.88285656352E+03  0.93772681292E+03  0.12699999809E+01 0. -1.
</event>
<event>
 5   0  0.1106332E-02  0.7578746E+03  0.7818609E-02  0.9623077E-01
        2   -1    0    0  501    0  0.00000000000E+00  0.00000000000E+00  0.60125381367E+03  0.60125381367E+03  0.25500000920E-02 0. -1.
       -2   -1    0    0    0  501  0.00000000000E+00  0.00000000000E+00 -0.23882342494E+03  0.23882342496E+03  0.25500000920E-02 0.  1.
    10030    2    1    2    0    0  0.00000000000E+00  0.00000000000E+00  0.36243038873E+03  0.84007723863E+03  0.75787464675E+03 0.  0.
        1    1    3    3  502    0 -0.74319733165E+02 -0.55956779275E+02 -0.22596855758E+03  0.24436933712E+03  0.50400001928E-02 0.  1.
       -1    1    3    3    0  502  0.74319733165E+02  0.55956779275E+02  0.58839894630E+03  0.59570790151E+03  0.50400001928E-02 0. -1.
</event>
<event>
 5   0  0.4385875E-03  0.7987991E+03  0.7818609E-02  0.9561757E-01
       -4   -1    0    0    0  501  0.00000000000E+00  0.00000000000E+00  0.13476680527E+04  0.13476686511E+04  0.12699999809E+01 0.  1.
        4   -1    0    0  501    0  0.00000000000E+00  0.00000000000E+00 -0.11836340490E+03  0.11837021804E+03  0.12699999809E+01 0. -1.
    10030    2    1    2    0    0  0.00000000000E+00  0.00000000000E+00  0.12293046478E+04  0.14660388692E+04  0.79879912917E+03 0.  0.
        3    1    3    3  502    0 -0.64271630398E+02 -0.97786915954E+02  0.13155049292E+04  0.13206991907E+04  0.10100000352E+00 0.  1.
       -3    1    3    3    0  502  0.64271630398E+02  0.97786915954E+02 -0.86200281415E+02  0.14533967842E+03  0.10100000352E+00 0. -1.
</event>
<event>
 5   0  0.1119792E-02  0.8064820E+03  0.7818609E-02  0.9550682E-01
       -2   -1    0    0    0  501  0.00000000000E+00  0.00000000000E+00  0.34106589252E+03  0.34106589253E+03  0.25500000920E-02 0.  1.
        2   -1    0    0  501    0  0.00000000000E+00  0.00000000000E+00 -0.47675043563E+03  0.47675043564E+03  0.25500000920E-02 0. -1.
    10030    2    1    2    0    0  0.00000000000E+00  0.00000000000E+00 -0.13568454311E+03  0.81781632817E+03  0.80648202174E+03 0.  0.
        4    1    3    3  502    0 -0.48199981778E+02 -0.30284556751E+03 -0.33336766965E+03  0.45296168941E+03  0.12699999809E+01 0. -1.
       -4    1    3    3    0  502  0.48199981778E+02  0.30284556751E+03  0.19768312655E+03  0.36485463876E+03  0.12699999809E+01 0.  1.
</event>
<event>
 5   0  0.1092868E-02  0.7991717E+03  0.7818609E-02  0.9561217E-01
       -2   -1    0    0    0  501  0.00000000000E+00  0.00000000000E+00  0.14512125915E+03  0.14512125917E+03  0.25500000920E-02 0. -1.
        2   -1    0    0  501    0  0.00000000000E+00  0.00000000000E+00 -0.11002442622E+04  0.11002442622E+04  0.25500000920E-02 0.  1.
    10030    2    1    2    0    0  0.00000000000E+00  0.00000000000E+00 -0.95512300304E+03  0.12453655214E+04  0.79917165293E+03 0.  0.
        3    1    3    3  502    0  0.10045160954E+03  0.38096099176E+03 -0.37364338188E+03  0.54298360023E+03  0.10100000352E+00 0.  1.
       -3    1    3    3    0  502 -0.10045160954E+03 -0.38096099176E+03 -0.58147962116E+03  0.70238192113E+03  0.10100000352E+00 0. -1.
</event>
<event>
 5   0  0.6600401E-03  0.8032534E+03  0.7818609E-02  0.9555320E-01
        1   -1    0    0  501    0  0.00000000000E+00  0.00000000000E+00  0.15892626836E+04  0.15892626836E+04  0.50400001928E-02 0. -1.
       -1   -1    0    0    0  501  0.00000000000E+00  0.00000000000E+00 -0.10149611586E+03  0.10149611598E+03  0.50400001928E-02 0.  1.
    10030    2    1    2    0    0  0.00000000000E+00  0.00000000000E+00  0.14877665678E+04  0.16907587996E+04  0.80325335873E+03 0.  0.
        2    1    3    3  502    0  0.30015325691E+01 -0.37920997250E+03  0.10222923114E+04  0.10903626839E+04  0.25500000920E-02 0. -1.
       -2    1    3    3    0  502 -0.30015325691E+01  0.37920997250E+03  0.46547425634E+03  0.60039611572E+03  0.25500000920E-02 0.  1.
</event>
<event>
 5   0  0.6551489E-03  0.8098234E+03  0.7818609E-02  0.9545906E-01
       -1   -1    0    0    0  501  0.00000000000E+00  0.00000000000E+00  0.26762463638E+03  0.26762463642E+03  0.50400001928E-02 0.  1.
        1   -1    0    0  501    0  0.00000000000E+00  0.00000000000E+00 -0.61262477725E+03  0.61262477727E+03  0.50400001928E-02 0. -1.
    10030    2    1    2    0    0  0.00000000000E+00  0.00000000000E+00 -0.34500014088E+03  0.88024941370E+03  0.80982339625E+03 0.  0.
        4    1    3    3  502    0  0.34304717972E+03 -0.20455484294E+03 -0.24482872044E+03  0.46847280234E+03  0.12699999809E+01 0. -1.
       -4    1    3    3    0  502 -0.34304717972E+03  0.20455484294E+03 -0.10017142044E+03  0.41177661135E+03  0.12699999809E+01 0.  1.
</event>
<event>
 5   0  0.6517392E-03  0.8096759E+03  0.7818609E-02  0.9546116E-01
        1   -1    0    0  501    0  0.00000000000E+00  0.00000000000E+00  0.50781045879E+03  0.50781045882E+03  0.50400001928E-02 0. -1.
       -1   -1    0    0    0  501  0.00000000000E+00  0.00000000000E+00 -0.32274592229E+03  0.32274592233E+03  0.50400001928E-02 0.  1.
    10030    2    1    2    0    0  0.00000000000E+00  0.00000000000E+00  0.18506453650E+03  0.83055638115E+03  0.80967587318E+03 0.  0.
        3    1    3    3  502    0  0.63027763927E+02 -0.10726430977E+03  0.48771477960E+03  0.50333274046E+03  0.10100000352E+00 0. -1.
       -3    1    3    3    0  502 -0.63027763927E+02  0.10726430977E+03 -0.30265024310E+03  0.32722364069E+03  0.10100000352E+00 0.  1.
</event>
<event>
 5   0  0.6517392E-03  0.7925455E+03  0.7818609E-02  0.9570870E-01
       -1   -1    0    0    0  501  0.00000000000E+00  0.00000000000E+00  0.10982404672E+03  0.10982404684E+03  0.50400001928E-02 0. -1.
        1   -1    0    0  501    0  0.00000000000E+00  0.00000000000E+00 -0.14298517121E+04  0.14298517121E+04  0.50400001928E-02 0.  1.
    10030    2    1    2    0    0  0.00000000000E+00  0.00000000000E+00 -0.13200276653E+04  0.15396757589E+04  0.79254552255E+03 0.  0.
        3    1    3    3  502    0 -0.28429309616E+03  0.14276215100E+03 -0.20099234619E+03  0.37629978702E+03  0.10100000352E+00 0. -1.
       -3    1    3    3    0  502  0.28429309616E+03 -0.14276215100E+03 -0.11190353191E+04  0.11633759719E+04  0.10100000352E+00 0.  1.
</event>
<event>
 5   0  0.1092868E-02  0.7991071E+03  0.7818609E-02  0.9561310E-01
        2   -1    0    0  501    0  0.00000000000E+00  0.00000000000E+00  0.12789197376E+04  0.12789197376E+04  0.25500000920E-02 0. -1.
       -2   -1    0    0    0  501  0.00000000000E+00  0.00000000000E+00 -0.12482647017E+03  0.12482647020E+03  0.25500000920E-02 0.  1.
    10030    2    1    2    0    0  0.00000000000E+00  0.00000000000E+00  0.11540932674E+04  0.14037462078E+04  0.79910709293E+03 0.  0.
        3    1    3    3  502    0 -0.38714591082E+03  0.20585151377E+00  0.40349393067E+03  0.55918633829E+03  0.10100000352E+00 0.  1.
       -3    1    3    3    0  502  0.38714591082E+03 -0.20585151377E+00  0.75059933675E+03  0.84455986950E+03  0.10100000352E+00 0. -1.
</event>
<event>
 5   0  0.1154714E-02  0.8003961E+03  0.7818609E-02  0.9559444E-01
        2   -1    0    0  501    0  0.00000000000E+00  0.00000000000E+00  0.70438700112E+03  0.70438700112E+03  0.25500000920E-02 0. -1.
       -2   -1    0    0    0  501  0.00000000000E+00  0.00000000000E+00 -0.22737283254E+03  0.22737283255E+03  0.25500000920E-02 0.  1.
    10030    2    1    2    0    0  0.00000000000E+00  0.00000000000E+00  0.47701416858E+03  0.93175983367E+03  0.80039607109E+03 0.  0.
        5    1    3    3  502    0 -0.36117300065E+03  0.24036604391E+02  0.39879229660E+02  0.36419244598E+03  0.46999998093E+01 0. -1.
       -5    1    3    3    0  502  0.36117300065E+03 -0.24036604391E+02  0.43713493892E+03  0.56756738770E+03  0.46999998093E+01 0.  1.
</event>
<event>
 5   0  0.1121480E-02  0.8134717E+03  0.7818609E-02  0.9540720E-01
        2   -1    0    0  501    0  0.00000000000E+00  0.00000000000E+00  0.12001784054E+04  0.12001784054E+04  0.25500000920E-02 0. -1.
       -2   -1    0    0    0  501  0.00000000000E+00  0.00000000000E+00 -0.13784120049E+03  0.13784120051E+03  0.25500000920E-02 0.  1.
    10030    2    1    2    0    0  0.00000000000E+00  0.00000000000E+00  0.10623372050E+04  0.13380196060E+04  0.81347165217E+03 0.  0.
        2    1    3    3  502    0  0.28980391719E+02  0.32101321255E+03  0.93922043797E+03  0.99298760156E+03  0.25500000920E-02 0. -1.
       -2    1    3    3    0  502 -0.28980391719E+02 -0.32101321255E+03  0.12311676699E+03  0.34503200440E+03  0.25500000920E-02 0.  1.
</event>
<event>
 5   0  0.6557679E-03  0.7980123E+03  0.7818609E-02  0.9562899E-01
       -1   -1    0    0    0  501  0.00000000000E+00  0.00000000000E+00  0.15298302818E+03  0.15298302826E+03  0.50400001928E-02 0.  1.
        1   -1    0    0  501    0  0.00000000000E+00  0.00000000000E+00 -0.10406768179E+04  0.10406768179E+04  0.50400001928E-02 0. -1.
    10030    2    1    2    0    0  0.00000000000E+00  0.00000000000E+00 -0.88769378970E+03  0.11936598462E+04  0.79801225808E+03 0.  0.
        1    1    3    3  502    0  0.38041555031E+03 -0.10341822324E+03 -0.53598777864E+03  0.66535270248E+03  0.50400001928E-02 0.  1.
       -1    1    3    3    0  502 -0.38041555031E+03  0.10341822324E+03 -0.35170601106E+03  0.52830714367E+03  0.50400001928E-02 0. -1.
</event>
<event>
 5   0  0.1121480E-02  0.8125061E+03  0.7818609E-02  0.9542089E-01
       -2   -1    0    0    0  501  0.00000000000E+00  0.00000000000E+00  0.14853184696E+03  0.14853184698E+03  0.25500000920E-02 0. -1.
        2   -1    0    0  501    0  0.00000000000E+00  0.00000000000E+00 -0.11111526039E+04  0.11111526040E+04  0.25500000920E-02 0.  1.
    10030    2    1    2    0    0  0.00000000000E+00  0.00000000000E+00 -0.96262075699E+03  0.12596844509E+04  0.81250611944E+03 0.  0.
        2    1    3    3  502    0  0.39760783574E+03  0.81078998305E+02 -0.45125745995E+03  0.60687650323E+03  0.25500000920E-02 0.  1.
       -2    1    3    3    0  502 -0.39760783574E+03 -0.81078998305E+02 -0.51136329704E+03  0.65280794770E+03  0.25500000920E-02 0. -1.
</event>
<event>
 5   0  0.6557679E-03  0.7949384E+03  0.7818609E-02  0.9567373E-01
       -1   -1    0    0    0  501  0.00000000000E+00  0.00000000000E+00  0.14753972506E+03  0.14753972514E+03  0.50400001928E-02 0.  1.
        1   -1    0    0  501    0  0.00000000000E+00  0.00000000000E+00 -0.10707744503E+04  0.10707744503E+04  0.50400001928E-02 0. -1.
    10030    2    1    2    0    0  0.00000000000E+00  0.00000000000E+00 -0.92323472528E+03  0.12183141755E+04  0.79493840782E+03 0.  0.
        1    1    3    3  502    0  0.25603257496E+03 -0.20598047085E+03 -0.11891606828E+03  0.34945910366E+03  0.50400001928E-02 0.  1.
       -1    1    3    3    0  502 -0.25603257496E+03  0.20598047085E+03 -0.80431865700E+03  0.86885507183E+03  0.50400001928E-02 0. -1.
</event>
<event>
 5   0  0.6596225E-03  0.7978970E+03  0.7818609E-02  0.9563066E-01
       -1   -1    0    0    0  501  0.00000000000E+00  0.00000000000E+00  0.29085607174E+03  0.29085607178E+03  0.50400001928E-02 0. -1.
        1   -1    0    0  501    0  0.00000000000E+00  0.00000000000E+00 -0.54721193311E+03  0.54721193314E+03  0.50400001928E-02 0.  1.
    10030    2    1    2    0    0  0.00000000000E+00  0.00000000000E+00 -0.25635586137E+03  0.83806800492E+03  0.79789701917E+03 0.  0.
        5    1    3    3  502    0  0.26987501675E+03  0.11403994908E+03 -0.41254870754E+03  0.50601992129E+03  0.46999998093E+01 0.  1.
       -5    1    3    3    0  502 -0.26987501675E+03 -0.11403994908E+03  0.15619284617E+03  0.33204808363E+03  0.46999998093E+01 0. -1.
</event>
<event>
 5   0  0.1119792E-02  0.7977311E+03  0.7818609E-02  0.9563307E-01
       -2   -1    0    0    0  501  0.00000000000E+00  0.00000000000E+00  0.33173325814E+03  0.33173325815E+03  0.25500000920E-02 0.  1.
        2   -1    0    0  501    0  0.00000000000E+00  0.00000000000E+00 -0.47958330234E+03  0.47958330235E+03  0.25500000920E-02 0. -1.
    10030    2    1    2    0    0  0.00000000000E+00  0.00000000000E+00 -0.14785004420E+03  0.81131656050E+03  0.79773111120E+03 0.  0.
        4    1    3    3  502    0 -0.17853836453E+03  0.13057741551E+03 -0.41148972519E+03  0.46717428855E+03  0.12699999809E+01 0. -1.
       -4    1    3    3    0  502  0.17853836453E+03 -0.13057741551E+03  0.26363968098E+03  0.34414227195E+03  0.12699999809E+01 0.  1.
</event>
<event>
 5   0  0.6557679E-03  0.7952160E+03  0.7818609E-02  0.9566968E-01
       -1   -1    0    0    0  501  0.00000000000E+00  0.00000000000E+00  0.13050990234E+03  0.13050990243E+03  0.50400001928E-02 0. -1.
        1   -1    0    0  501    0  0.00000000000E+00  0.00000000000E+00 -0.12113420158E+04  0.12113420158E+04  0.50400001928E-02 0.  1.
    10030    2    1    2    0    0  0.00000000000E+00  0.00000000000E+00 -0.10808321134E+04  0.13418519182E+04  0.79521601655E+03 0.  0.
        1    1    3    3  502    0  0.29060778208E+02 -0.33668775790E+03 -0.89392229596E+03  0.95566743504E+03  0.50400001928E-02 0.  1.
       -1    1    3    3    0  502 -0.29060778208E+02  0.33668775790E+03 -0.18690981745E+03  0.38618448316E+03  0.50400001928E-02 0. -1.
</event>
<event>
 5   0  0.6596225E-03  0.7959096E+03  0.7818609E-02  0.9565957E-01
       -1   -1    0    0    0  501  0.00000000000E+00  0.00000000000E+00  0.14037321021E+03  0.14037321030E+03  0.50400001928E-02 0.  1.
        1   -1    0    0  501    0  0.00000000000E+00  0.00000000000E+00 -0.11281925528E+04  0.11281925528E+04  0.50400001928E-02 0. -1.
    10030    2    1    2    0    0  0.00000000000E+00  0.00000000000E+00 -0.98781934254E+03  0.12685657631E+04  0.79590956881E+03 0.  0.
        5    1    3    3  502    0 -0.30677987497E+02  0.34601220145E+03 -0.80329994367E+03  0.87520196068E+03  0.46999998093E+01 0. -1.
       -5    1    3    3    0  502  0.30677987497E+02 -0.34601220145E+03 -0.18451939887E+03  0.39336380238E+03  0.46999998093E+01 0.  1.
</event>
<event>
 5   0  0.6557679E-03  0.7662266E+03  0.7818609E-02  0.9610232E-01
       -1   -1    0    0    0  501  0.00000000000E+00  0.00000000000E+00  0.11448219168E+03  0.11448219179E+03  0.50400001928E-02 0.  1.
        1   -1    0    0  501    0  0.00000000000E+00  0.00000000000E+00 -0.12820839703E+04  0.12820839703E+04  0.50400001928E-02 0. -1.
    10030    2    1    2    0    0  0.00000000000E+00  0.00000000000E+00 -0.11676017787E+04  0.13965661621E+04  0.76622655376E+03 0.  0.
        1    1    3    3  502    0  0.29924905240E+03  0.63264543548E+02 -0.10042907838E+04  0.10498344519E+04  0.50400001928E-02 0. -1.
       -1    1    3    3    0  502 -0.29924905240E+03 -0.63264543548E+02 -0.16331099482E+03  0.34673171024E+03  0.50400001928E-02 0.  1.
</event>
<event>
 5   0  0.6600401E-03  0.7976361E+03  0.7818609E-02  0.9563445E-01
       -1   -1    0    0    0  501  0.00000000000E+00  0.00000000000E+00  0.29480753712E+03  0.29480753716E+03  0.50400001928E-02 0.  1.
        1   -1    0    0  501    0  0.00000000000E+00  0.00000000000E+00 -0.53952435710E+03  0.53952435712E+03  0.50400001928E-02 0. -1.
    10030    2    1    2    0    0  0.00000000000E+00  0.00000000000E+00 -0.24471681998E+03  0.83433189429E+03  0.79763612496E+03 0.  0.
        2    1    3    3  502    0  0.95843256332E+02 -0.36990064042E+03 -0.24182046826E+03  0.45220521055E+03  0.25500000920E-02 0.  1.
       -2    1    3    3    0  502 -0.95843256332E+02  0.36990064042E+03 -0.28963517186E+01  0.38212668374E+03  0.25500000920E-02 0. -1.
</event>
<event>
 5   0  0.6600401E-03  0.8028868E+03  0.7818609E-02  0.9555848E-01
        1   -1    0    0  501    0  0.00000000000E+00  0.00000000000E+00  0.61241365688E+03  0.61241365690E+03  0.50400001928E-02 0.  1.
       -1   -1    0    0    0  501  0.00000000000E+00  0.00000000000E+00 -0.26315026253E+03  0.26315026258E+03  0.50400001928E-02 0. -1.
    10030    2    1    2    0    0  0.00000000000E+00  0.00000000000E+00  0.34926339436E+03  0.87556391948E+03  0.80288682793E+03 0.  0.
        2    1    3    3  502    0 -0.10127035762E+03 -0.29145345782E+03  0.45469790778E+03  0.54950067403E+03  0.25500000920E-02 0.  1.
       -2    1    3    3    0  502  0.10127035762E+03  0.29145345782E+03 -0.10543451342E+03  0.32606324545E+03  0.25500000920E-02 0. -1.
</event>
<event>
 5   0  0.4385875E-03  0.8040297E+03  0.7818609E-02  0.9554202E-01
       -3   -1    0    0    0  501  0.00000000000E+00  0.00000000000E+00  0.58250457725E+03  0.58250458601E+03  0.10100000352E+00 0. -1.
        3   -1    0    0  501    0  0.00000000000E+00  0.00000000000E+00 -0.27745007748E+03  0.27745009587E+03  0.10100000352E+00 0.  1.
    10030    2    1    2    0    0  0.00000000000E+00  0.00000000000E+00  0.30505449977E+03  0.85995468188E+03  0.80402973020E+03 0.  0.
        5    1    3    3  502    0  0.26308858973E+03 -0.26285826567E+03  0.31573105294E+03  0.48787115273E+03  0.46999998093E+01 0. -1.
       -5    1    3    3    0  502 -0.26308858973E+03  0.26285826567E+03 -0.10676553166E+02  0.37208352915E+03  0.46999998093E+01 0.  1.
</event>
<event>
 5   0  0.6596225E-03  0.7192723E+03  0.7818609E-02  0.9684830E-01
       -1   -1    0    0    0  501  0.00000000000E+00  0.00000000000E+00  0.81514349532E+02  0.81514349688E+02  0.50400001928E-02 0.  1.
        1   -1    0    0  501    0  0.00000000000E+00  0.00000000000E+00 -0.15866920643E+04  0.15866920643E+04  0.50400001928E-02 0. -1.
    10030    2    1    2    0    0  0.00000000000E+00  0.00000000000E+00 -0.15051777147E+04  0.16682064140E+04  0.71927233135E+03 0.  0.
        5    1    3    3  502    0  0.17776891613E+03 -0.15525510385E+03 -0.13818418278E+04  0.14018612135E+04  0.46999998093E+01 0. -1.
       -5    1    3    3    0  502 -0.17776891613E+03  0.15525510385E+03 -0.12333588692E+03  0.26634520047E+03  0.46999998093E+01 0.  1.
</event>
<event>
 5   0  0.1106332E-02  0.7971995E+03  0.7818609E-02  0.9564080E-01
       -2   -1    0    0    0  501  0.00000000000E+00  0.00000000000E+00  0.11897100248E+03  0.11897100250E+03  0.25500000920E-02 0.  1.
        2   -1    0    0  501    0  0.00000000000E+00  0.00000000000E+00 -0.13354662330E+04  0.13354662330E+04  0.25500000920E-02 0. -1.
    10030    2    1    2    0    0  0.00000000000E+00  0.00000000000E+00 -0.12164952305E+04  0.14544372355E+04  0.79719948954E+03 0.  0.
        1    1    3    3  502    0 -0.33984809252E+03  0.19568097030E+03 -0.73846139564E+03  0.83612977521E+03  0.50400001928E-02 0.  1.
       -1    1    3    3    0  502  0.33984809252E+03 -0.19568097030E+03 -0.47803383486E+03  0.61830746027E+03  0.50400001928E-02 0. -1.
</event>
<event>
 5   0  0.6600401E-03  0.8016150E+03  0.7818609E-02  0.9557682E-01
        1   -1    0    0  501    0  0.00000000000E+00  0.00000000000E+00  0.37894442633E+03  0.37894442637E+03  0.50400001928E-02 0. -1.
       -1   -1    0    0    0  501  0.00000000000E+00  0.00000000000E+00 -0.42393193193E+03  0.42393193196E+03  0.50400001928E-02 0.  1.
    10030    2    1    2    0    0  0.00000000000E+00  0.00000000000E+00 -0.44987505600E+02  0.80287635833E+03  0.80161497684E+03 0.  0.
        2    1    3    3  502    0 -0.37606924017E+02  0.71936177177E+02  0.37062552236E+03  0.37941055883E+03  0.25500000920E-02 0. -1.
       -2    1    3    3    0  502  0.37606924017E+02 -0.71936177177E+02 -0.41561302796E+03  0.42346579949E+03  0.25500000920E-02 0.  1.
</event>
<event>
 5   0  0.1092868E-02  0.8031166E+03  0.7818609E-02  0.9555517E-01
       -2   -1    0    0    0  501  0.00000000000E+00  0.00000000000E+00  0.99550246559E+02  0.99550246592E+02  0.25500000920E-02 0. -1.
        2   -1    0    0  501    0  0.00000000000E+00  0.00000000000E+00 -0.16197757945E+04  0.16197757945E+04  0.25500000920E-02 0.  1.
    10030    2    1    2    0    0  0.00000000000E+00  0.00000000000E+00 -0.15202255479E+04  0.17193260411E+04  0.80311662850E+03 0.  0.
        3    1    3    3  502    0  0.17977241126E+03  0.27095063341E+03 -0.12645318009E+04  0.13056695797E+04  0.10100000352E+00 0. -1.
       -3    1    3    3    0  502 -0.17977241126E+03 -0.27095063341E+03 -0.25569374704E+03  0.41365646142E+03  0.10100000352E+00 0.  1.
</event>
<event>
 5   0  0.6551489E-03  0.8017192E+03  0.7818609E-02  0.9557532E-01
        1   -1    0    0  501    0  0.00000000000E+00  0.00000000000E+00  0.42822280464E+03  0.42822280466E+03  0.50400001928E-02 0.  1.
       -1   -1    0    0    0  501  0.00000000000E+00  0.00000000000E+00 -0.37524490556E+03  0.37524490559E+03  0.50400001928E-02 0. -1.
    10030    2    1    2    0    0  0.00000000000E+00  0.00000000000E+00  0.52977899080E+02  0.80346771025E+03  0.80171921745E+03 0.  0.
        4    1    3    3  502    0  0.27972835380E+03  0.28116196846E+03  0.84812165075E+02  0.40557948749E+03  0.12699999809E+01 0. -1.
       -4    1    3    3    0  502 -0.27972835380E+03 -0.28116196846E+03 -0.31834265995E+02  0.39788822277E+03  0.12699999809E+01 0.  1.
</event>
<event>
 5   0  0.1106332E-02  0.8012282E+03  0.7818609E-02  0.9558241E-01
       -2   -1    0    0    0  501  0.00000000000E+00  0.00000000000E+00  0.10469868301E+03  0.10469868304E+03  0.25500000920E-02 0.  1.
        2   -1    0    0  501    0  0.00000000000E+00  0.00000000000E+00 -0.15328908911E+04  0.15328908911E+04  0.25500000920E-02 0. -1.
    10030    2    1    2    0    0  0.00000000000E+00  0.00000000000E+00 -0.14281922081E+04  0.16375895741E+04  0.80122820102E+03 0.  0.
        1    1    3    3  502    0 -0.21585540507E+03 -0.29001855165E+03 -0.36134798342E+03  0.51115230739E+03  0.50400001928E-02 0.  1.
       -1    1    3    3    0  502  0.21585540507E+03  0.29001855165E+03 -0.10668442247E+04  0.11264372668E+04  0.50400001928E-02 0. -1.
</event>
<event>
 5   0  0.6517392E-03  0.8041043E+03  0.7818609E-02  0.9554095E-01
        1   -1    0    0  501    0  0.00000000000E+00  0.00000000000E+00  0.14750860332E+03  0.14750860341E+03  0.50400001928E-02 0. -1.
       -1   -1    0    0    0  501  0.00000000000E+00  0.00000000000E+00 -0.10958407871E+04  0.10958407871E+04  0.50400001928E-02 0.  1.
    10030    2    1    2    0    0  0.00000000000E+00  0.00000000000E+00 -0.94833218379E+03  0.12433493905E+04  0.80410433161E+03 0.  0.
        3    1    3    3  502    0 -0.27118715687E+03  0.12835285193E+03 -0.88799921061E+03  0.93731506811E+03  0.10100000352E+00 0.  1.
       -3    1    3    3    0  502  0.27118715687E+03 -0.12835285193E+03 -0.60332973174E+02  0.30603432242E+03  0.10100000352E+00 0. -1.
</event>
<event>
 5   0  0.1119792E-02  0.7996383E+03  0.7818609E-02  0.9560541E-01
       -2   -1    0    0    0  501  0.00000000000E+00  0.00000000000E+00  0.13227132456E+03  0.13227132458E+03  0.25500000920E-02 0.  1.
        2   -1    0    0  501    0  0.00000000000E+00  0.00000000000E+00 -0.12085412106E+04  0.12085412107E+04  0.25500000920E-02 0. -1.
    10030    2    1    2    0    0  0.00000000000E+00  0.00000000000E+00 -0.10762698861E+04  0.13408125352E+04  0.79963828506E+03 0.  0.
        4    1    3    3  502    0 -0.25061195246E+03 -0.29408200731E+03 -0.71046908699E+03  0.80873884178E+03  0.12699999809E+01 0. -1.
       -4    1    3    3    0  502  0.25061195246E+03  0.29408200731E+03 -0.36580079910E+03  0.53207369345E+03  0.12699999809E+01 0.  1.
</event>
<event>
 5   0  0.4385875E-03  0.7811011E+03  0.7818609E-02  0.9587783E-01
        3   -1    0    0  501    0  0.00000000000E+00  0.00000000000E+00  0.79810226915E+03  0.79810227554E+03  0.10100000352E+00 0.  1.
       -3   -1    0    0    0  501  0.00000000000E+00  0.00000000000E+00 -0.19111552027E+03  0.19111554696E+03  0.10100000352E+00 0. -1.
    10030    2    1    2    0    0  0.00000000000E+00  0.00000000000E+00  0.60698674888E+03  0.98921782250E+03  0.78110113752E+03 0.  0.
        4    1    3    3  502    0  0.33283406467E+03 -0.14896915153E+03  0.12638267988E+03  0.38593330691E+03  0.12699999809E+01 0. -1.
       -4    1    3    3    0  502 -0.33283406467E+03  0.14896915153E+03  0.48060406900E+03  0.60328451559E+03  0.12699999809E+01 0.  1.
</event>
<event>
 5   0  0.1119792E-02  0.8034122E+03  0.7818609E-02  0.9555091E-01
        2   -1    0    0  501    0  0.00000000000E+00  0.00000000000E+00  0.49438443793E+03  0.49438443793E+03  0.25500000920E-02 0. -1.
       -2   -1    0    0    0  501  0.00000000000E+00  0.00000000000E+00 -0.32640143980E+03  0.32640143981E+03  0.25500000920E-02 0.  1.
    10030    2    1    2    0    0  0.00000000000E+00  0.00000000000E+00  0.16798299813E+03  0.82078587774E+03  0.80341220394E+03 0.  0.
        4    1    3    3  502    0 -0.26302038850E+03  0.30147653617E+03  0.47179634502E+02  0.40285897959E+03  0.12699999809E+01 0.  1.
       -4    1    3    3    0  502  0.26302038850E+03 -0.30147653617E+03  0.12080336363E+03  0.41792689814E+03  0.12699999809E+01 0. -1.
</event>
<event>
 5   0  0.1154714E-02  0.8046014E+03  0.7818609E-02  0.9553381E-01
        2   -1    0    0  501    0  0.00000000000E+00  0.00000000000E+00  0.27139516904E+03  0.27139516905E+03  0.25500000920E-02 0. -1.
       -2   -1    0    0    0  501  0.00000000000E+00  0.00000000000E+00 -0.59634755829E+03  0.59634755829E+03  0.25500000920E-02 0.  1.
    10030    2    1    2    0    0  0.00000000000E+00  0.00000000000E+00 -0.32495238925E+03  0.86774272734E+03  0.80460138303E+03 0.  0.
        5    1    3    3  502    0 -0.93223814200E+02 -0.38978585985E+03 -0.19983661425E+03  0.44786209760E+03  0.46999998093E+01 0. -1.
       -5    1    3    3    0  502  0.93223814200E+02  0.38978585985E+03 -0.12511577500E+03  0.41988062974E+03  0.46999998093E+01 0.  1.
</event>
<event>
 5   0  0.1121480E-02  0.8112474E+03  0.7818609E-02  0.9543878E-01
        2   -1    0    0  501    0  0.00000000000E+00  0.00000000000E+00  0.10791934754E+04  0.10791934754E+04  0.25500000920E-02 0.  1.
       -2   -1    0    0    0  501  0.00000000000E+00  0.00000000000E+00 -0.15245696903E+03  0.15245696905E+03  0.25500000920E-02 0. -1.
    10030    2    1    2    0    0  0.00000000000E+00  0.00000000000E+00  0.92673650634E+03  0.12316504444E+04  0.81124735134E+03 0.  0.
        2    1    3    3  502    0 -0.31222814646E+03 -0.15662923658E+02  0.85575884253E+03  0.91107350921E+03  0.25500000920E-02 0.  1.
       -2    1    3    3    0  502  0.31222814646E+03  0.15662923658E+02  0.70977663813E+02  0.32057693521E+03  0.25500000920E-02 0. -1.
</event>
<event>
 5   0  0.1092868E-02  0.7988126E+03  0.7818609E-02  0.9561737E-01
        2   -1    0    0  501    0  0.00000000000E+00  0.00000000000E+00  0.12561908168E+04  0.12561908168E+04  0.25500000920E-02 0. -1.
       -2   -1    0    0    0  501  0.00000000000E+00  0.00000000000E+00 -0.12699137843E+03  0.12699137846E+03  0.25500000920E-02 0.  1.
    10030    2    1    2    0    0  0.00000000000E+00  0.00000000000E+00  0.11291994383E+04  0.13831821952E+04  0.79881262738E+03 0.  0.
        3    1    3    3  502    0  0.14108402174E+03  0.18022451007E+03  0.11313737208E+04  0.11542928925E+04  0.10100000352E+00 0. -1.
       -3    1    3    3    0  502 -0.14108402174E+03 -0.18022451007E+03 -0.21742824797E+01  0.22888930278E+03  0.10100000352E+00 0.  1.
</event>
<event>
 5   0  0.1092868E-02  0.7629012E+03  0.7818609E-02  0.9615325E-01
       -2   -1    0    0    0  501  0.00000000000E+00  0.00000000000E+00  0.26556741786E+03  0.26556741787E+03  0.25500000920E-02 0.  1.
        2   -1    0    0  501    0  0.00000000000E+00  0.00000000000E+00 -0.54790066223E+03  0.54790066223E+03  0.25500000920E-02 0. -1.
    10030    2    1    2    0    0  0.00000000000E+00  0.00000000000E+00 -0.28233324437E+03  0.81346808010E+03  0.76290121017E+03 0.  0.
        3    1    3    3  502    0 -0.19147617286E+03 -0.72048616486E+02 -0.48445393895E+03  0.52587998353E+03  0.10100000352E+00 0. -1.
       -3    1    3    3    0  502  0.19147617286E+03  0.72048616486E+02  0.20212069458E+03  0.28758809657E+03  0.10100000352E+00 0.  1.
</event>
<event>
 5   0  0.1121480E-02  0.7971650E+03  0.7818609E-02  0.9564130E-01
        2   -1    0    0  501    0  0.00000000000E+00  0.00000000000E+00  0.10249655027E+04  0.10249655027E+04  0.25500000920E-02 0.  1.
       -2   -1    0    0    0  501  0.00000000000E+00  0.00000000000E+00 -0.15499838050E+03  0.15499838053E+03  0.25500000920E-02 0. -1.
    10030    2    1    2    0    0  0.00000000000E+00  0.00000000000E+00  0.86996712221E+03  0.11799638832E+04  0.79716495911E+03 0.  0.
        2    1    3    3  502    0  0.28229708293E+03 -0.25565783922E+03  0.60896485170E+03  0.71825536155E+03  0.25500000920E-02 0.  1.
       -2    1    3    3    0  502 -0.28229708293E+03  0.25565783922E+03  0.26100227051E+03  0.46170852169E+03  0.25500000920E-02 0. -1.
</event>
<event>
 5   0  0.4385875E-03  0.7797607E+03  0.7818609E-02  0.9589784E-01
       -3   -1    0    0    0  501  0.00000000000E+00  0.00000000000E+00  0.34846497706E+03  0.34846499170E+03  0.10100000352E+00 0. -1.
        3   -1    0    0  501    0  0.00000000000E+00  0.00000000000E+00 -0.43621789656E+03  0.43621790826E+03  0.10100000352E+00 0.  1.
    10030    2    1    2    0    0  0.00000000000E+00  0.00000000000E+00 -0.87752919502E+02  0.78468289995E+03  0.77976065469E+03 0.  0.
        2    1    3    3  502    0  0.34067862178E+03 -0.54230104792E+02  0.13893992680E+03  0.37189666693E+03  0.25500000920E-02 0. -1.
       -2    1    3    3    0  502 -0.34067862178E+03  0.54230104792E+02 -0.22669284631E+03  0.41278623303E+03  0.25500000920E-02 0.  1.
</event>
<event>
 5   0  0.4385875E-03  0.8001522E+03  0.7818609E-02  0.9559797E-01
        4   -1    0    0  501    0  0.00000000000E+00  0.00000000000E+00  0.11844401444E+04  0.11844408252E+04  0.12699999809E+01 0. -1.
       -4   -1    0    0    0  501  0.00000000000E+00  0.00000000000E+00 -0.13513263155E+03  0.13513859926E+03  0.12699999809E+01 0.  1.
    10030    2    1    2    0    0  0.00000000000E+00  0.00000000000E+00  0.10493075128E+04  0.13195794245E+04  0.80015223620E+03 0.  0.
        2    1    3    3  502    0  0.10734947074E+03  0.29748310011E+03  0.12055628348E+03  0.33845815283E+03  0.25500000920E-02 0.  1.
       -2    1    3    3    0  502 -0.10734947074E+03 -0.29748310011E+03  0.92875122932E+03  0.98112127165E+03  0.25500000920E-02 0. -1.
</event>
<event>
 5   0  0.1092868E-02  0.8011254E+03  0.7818609E-02  0.9558390E-01
        2   -1    0    0  501    0  0.00000000000E+00  0.00000000000E+00  0.82050582133E+03  0.82050582133E+03  0.25500000920E-02 0. -1.
       -2   -1    0    0    0  501  0.00000000000E+00  0.00000000000E+00 -0.19555069735E+03  0.19555069736E+03  0.25500000920E-02 0.  1.
    10030    2    1    2    0    0  0.00000000000E+00  0.00000000000E+00  0.62495512398E+03  0.10160565187E+04  0.80112542226E+03 0.  0.
        3    1    3    3  502    0  0.37235246084E+02 -0.24970085395E+03 -0.81944221644E+02  0.26542766562E+03  0.10100000352E+00 0.  1.
       -3    1    3    3    0  502 -0.37235246084E+02  0.24970085395E+03  0.70689934562E+03  0.75062885307E+03  0.10100000352E+00 0. -1.
</event>
<event>
 5   0  0.6551489E-03  0.8020473E+03  0.7818609E-02  0.9557058E-01
        1   -1    0    0  501    0  0.00000000000E+00  0.00000000000E+00  0.59419048103E+03  0.59419048106E+03  0.50400001928E-02 0. -1.
       -1   -1    0    0    0  501  0.00000000000E+00  0.00000000000E+00 -0.27065387666E+03  0.27065387671E+03  0.50400001928E-02 0.  1.
    10030    2    1    2    0    0  0.00000000000E+00  0.00000000000E+00  0.32353660437E+03  0.86484435776E+03  0.80204727341E+03 0.  0.
        4    1    3    3  502    0 -0.17517466625E+03 -0.23131970502E+03  0.46025063298E+03  0.54408384251E+03  0.12699999809E+01 0. -1.
       -4    1    3    3    0  502  0.17517466625E+03  0.23131970502E+03 -0.13671402861E+03  0.32076051525E+03  0.12699999809E+01 0.  1.
</event>
<event>
 5   0  0.1106332E-02  0.7978284E+03  0.7818609E-02  0.9563166E-01
        2   -1    0    0  501    0  0.00000000000E+00  0.00000000000E+00  0.46703492784E+03  0.46703492785E+03  0.25500000920E-02 0. -1.
       -2   -1    0    0    0  501  0.00000000000E+00  0.00000000000E+00 -0.34072940997E+03  0.34072940998E+03  0.25500000920E-02 0.  1.
    10030    2    1    2    0    0  0.00000000000E+00  0.00000000000E+00  0.12630551787E+03  0.80776433783E+03  0.79782839108E+03 0.  0.
        1    1    3    3  502    0 -0.64416300871E+02  0.18044192139E+03  0.41740132116E+03  0.45927400291E+03  0.50400001928E-02 0. -1.
       -1    1    3    3    0  502  0.64416300871E+02 -0.18044192139E+03 -0.29109580329E+03  0.34849033492E+03  0.50400001928E-02 0.  1.
</event>
<event>
 5   0  0.1121480E-02  0.8073700E+03  0.7818609E-02  0.9549410E-01
        2   -1    0    0  501    0  0.00000000000E+00  0.00000000000E+00  0.68530876117E+03  0.68530876118E+03  0.25500000920E-02 0.  1.
       -2   -1    0    0    0  501  0.00000000000E+00  0.00000000000E+00 -0.23779294923E+03  0.23779294924E+03  0.25500000920E-02 0. -1.
    10030    2    1    2    0    0  0.00000000000E+00  0.00000000000E+00  0.44751581194E+03  0.92310171042E+03  0.80737003031E+03 0.  0.
        2    1    3    3  502    0 -0.33671578763E+03 -0.83403027904E+02 -0.12303198162E+02  0.34710942856E+03  0.25500000920E-02 0. -1.
       -2    1    3    3    0  502  0.33671578763E+03  0.83403027904E+02  0.45981901011E+03  0.57599228186E+03  0.25500000920E-02 0.  1.
</event>
<event>
 5   0  0.6600401E-03  0.7991456E+03  0.7818609E-02  0.9561255E-01
        1   -1    0    0  501    0  0.00000000000E+00  0.00000000000E+00  0.28095471454E+03  0.28095471459E+03  0.50400001928E-02 0. -1.
       -1   -1    0    0    0  501  0.00000000000E+00  0.00000000000E+00 -0.56827101066E+03  0.56827101068E+03  0.50400001928E-02 0.  1.
    10030    2    1    2    0    0  0.00000000000E+00  0.00000000000E+00 -0.28731629611E+03  0.84922572527E+03  0.79914559277E+03 0.  0.
        2    1    3    3  502    0  0.20529553655E+03  0.14373907092E+03  0.18705375741E+03  0.31272397734E+03  0.25500000920E-02 0. -1.
       -2    1    3    3    0  502 -0.20529553655E+03 -0.14373907092E+03 -0.47437005353E+03  0.53650174792E+03  0.25500000920E-02 0.  1.
</event>
<event>
 5   0  0.1154714E-02  0.7999655E+03  0.7818609E-02  0.9560067E-01
       -2   -1    0    0    0  501  0.00000000000E+00  0.00000000000E+00  0.20159108185E+03  0.20159108186E+03  0.25500000920E-02 0.  1.
        2   -1    0    0  501    0  0.00000000000E+00  0.00000000000E+00 -0.79361753872E+03  0.79361753872E+03  0.25500000920E-02 0. -1.
    10030    2    1    2    0    0  0.00000000000E+00  0.00000000000E+00 -0.59202645687E+03  0.99520862059E+03  0.79996554479E+03 0.  0.
        5    1    3    3  502    0 -0.12107229514E+03  0.19784702910E+03  0.10933451778E+03  0.25647236567E+03  0.46999998093E+01 0.  1.
       -5    1    3    3    0  502  0.12107229514E+03 -0.19784702910E+03 -0.70136097465E+03  0.73873625492E+03  0.46999998093E+01 0. -1.
</event>
<event>
 5   0  0.6517392E-03  0.8356915E+03  0.7818609E-02  0.9509745E-01
        1   -1    0    0  501    0  0.00000000000E+00  0.00000000000E+00  0.20400512774E+03  0.20400512780E+03  0.50400001928E-02 0. -1.
       -1   -1    0    0    0  501  0.00000000000E+00  0.00000000000E+00 -0.85583676514E+03  0.85583676515E+03  0.50400001928E-02 0.  1.
    10030    2    1    2    0    0  0.00000000000E+00  0.00000000000E+00 -0.65183163740E+03  0.10598418930E+04  0.83569154270E+03 0.  0.
        3    1    3    3  502    0  0.28534467579E+03  0.21927235843E+02  0.60200200244E+02  0.29244907588E+03  0.10100000352E+00 0. -1.
       -3    1    3    3    0  502 -0.28534467579E+03 -0.21927235843E+02 -0.71203183764E+03  0.76739281707E+03  0.10100000352E+00 0.  1.
</event>
<event>
 5   0  0.6517392E-03  0.7970209E+03  0.7818609E-02  0.9564339E-01
        1   -1    0    0  501    0  0.00000000000E+00  0.00000000000E+00  0.32191361192E+03  0.32191361196E+03  0.50400001928E-02 0.  1.
       -1   -1    0    0    0  501  0.00000000000E+00  0.00000000000E+00 -0.49333292340E+03  0.49333292343E+03  0.50400001928E-02 0. -1.
    10030    2    1    2    0    0  0.00000000000E+00  0.00000000000E+00 -0.17141931148E+03  0.81524653538E+03  0.79702091133E+03 0.  0.
        3    1    3    3  502    0 -0.17079150443E+03 -0.32796194746E+03  0.66287843771E+02  0.37566323403E+03  0.10100000352E+00 0. -1.
       -3    1    3    3    0  502  0.17079150443E+03  0.32796194746E+03 -0.23770715525E+03  0.43958330135E+03  0.10100000352E+00 0.  1.
</event>
<event>
 5   0  0.6551489E-03  0.8069373E+03  0.7818609E-02  0.9550030E-01
        1   -1    0    0  501    0  0.00000000000E+00  0.00000000000E+00  0.52303976095E+03  0.52303976097E+03  0.50400001928E-02 0.  1.
       -1   -1    0    0    0  501  0.00000000000E+00  0.00000000000E+00 -0.31123244855E+03  0.31123244859E+03  0.50400001928E-02 0. -1.
    10030    2    1    2    0    0  0.00000000000E+00  0.00000000000E+00  0.21180731239E+03  0.83427220956E+03  0.80693728509E+03 0.  0.
        4    1    3    3  502    0 -0.37062398442E+02  0.33761970072E+03  0.33105267390E+03  0.47429755374E+03  0.12699999809E+01 0.  1.
       -4    1    3    3    0  502  0.37062398442E+02 -0.33761970072E+03 -0.11924536150E+03  0.35997465582E+03  0.12699999809E+01 0. -1.
</event>
<event>
 5   0  0.1119792E-02  0.7984135E+03  0.7818609E-02  0.9562316E-01
        2   -1    0    0  501    0  0.00000000000E+00  0.00000000000E+00  0.40514909506E+03  0.40514909507E+03  0.25500000920E-02 0. -1.
       -2   -1    0    0    0  501  0.00000000000E+00  0.00000000000E+00 -0.39335153551E+03  0.39335153552E+03  0.25500000920E-02 0.  1.
    10030    2    1    2    0    0  0.00000000000E+00  0.00000000000E+00  0.11797559552E+02  0.79850063059E+03  0.79841347348E+03 0.  0.
        4    1    3    3  502    0 -0.56130618362E+02 -0.38824483111E+03 -0.68134368089E+02  0.39815650217E+03  0.12699999809E+01 0.  1.
       -4    1    3    3    0  502  0.56130618362E+02  0.38824483111E+03  0.79931927641E+02  0.40034412842E+03  0.12699999809E+01 0. -1.
</event>
<event>
 5   0  0.1121480E-02  0.8019687E+03  0.7818609E-02  0.9557172E-01
        2   -1    0    0  501    0  0.00000000000E+00  0.00000000000E+00  0.13751450302E+04  0.13751450302E+04  0.25500000920E-02 0. -1.
       -2   -1    0    0    0  501  0.00000000000E+00  0.00000000000E+00 -0.11692470669E+03  0.11692470671E+03  0.25500000920E-02 0.  1.
    10030    2    1    2    0    0  0.00000000000E+00  0.00000000000E+00  0.12582203235E+04  0.14920697369E+04  0.80196865108E+03 0.  0.
        2    1    3    3  502    0 -0.29017128904E+03  0.10380124017E+03  0.11064108318E+04  0.11485290607E+04  0.25500000920E-02 0. -1.
       -2    1    3    3    0  502  0.29017128904E+03 -0.10380124017E+03  0.15180949165E+03  0.34354067620E+03  0.25500000920E-02 0.  1.
</event>
<event>
 5   0  0.1119792E-02  0.8012695E+03  0.7818609E-02  0.9558181E-01
       -2   -1    0    0    0  501  0.00000000000E+00  0.00000000000E+00  0.25184140899E+03  0.25184140900E+03  0.25500000920E-02 0.  1.
        2   -1    0    0  501    0  0.00000000000E+00  0.00000000000E+00 -0.63733840940E+03  0.63733840940E+03  0.25500000920E-02 0. -1.
    10030    2    1    2    0    0  0.00000000000E+00  0.00000000000E+00 -0.38549700041E+03  0.88917981840E+03  0.80126950031E+03 0.  0.
        4    1    3    3  502    0 -0.28232793738E+03 -0.19369419284E+03 -0.42361187524E+03  0.54467893140E+03  0.12699999809E+01 0. -1.
       -4    1    3    3    0  502  0.28232793738E+03  0.19369419284E+03  0.38114874831E+02  0.34450088701E+03  0.12699999809E+01 0.  1.
</event>
<event>
 5   0  0.1106332E-02  0.8023545E+03  0.7818609E-02  0.9556615E-01
        2   -1    0    0  501    0  0.00000000000E+00  0.00000000000E+00  0.17144229193E+04  0.17144229193E+04  0.25500000920E-02 0. -1.
       -2   -1    0    0    0  501  0.00000000000E+00  0.00000000000E+00 -0.93876015597E+02  0.93876015632E+02  0.25500000920E-02 0.  1.
    10030    2    1    2    0    0  0.00000000000E+00  0.00000000000E+00  0.16205469037E+04  0.18082989349E+04  0.80235451702E+03 0.  0.
        1    1    3    3  502    0 -0.36128634780E+03  0.15752028044E+03  0.64157786262E+03  0.75296920102E+03  0.50400001928E-02 0.  1.
       -1    1    3    3    0  502  0.36128634780E+03 -0.15752028044E+03  0.97896904108E+03  0.10553297339E+04  0.50400001928E-02 0. -1.
</event>
<event>
 5   0  0.1092868E-02  0.8001082E+03  0.7818609E-02  0.9559860E-01
       -2   -1    0    0    0  501  0.00000000000E+00  0.00000000000E+00  0.22880387995E+03  0.22880387997E+03  0.25500000920E-02 0.  1.
        2   -1    0    0  501    0  0.00000000000E+00  0.00000000000E+00 -0.69947804225E+03  0.69947804225E+03  0.25500000920E-02 0. -1.
    10030    2    1    2    0    0  0.00000000000E+00  0.00000000000E+00 -0.47067416230E+03  0.92828192222E+03  0.80010821772E+03 0.  0.
        3    1    3    3  502    0  0.28917863671E+03  0.24347722884E+03 -0.38722007162E+03  0.54115140115E+03  0.10100000352E+00 0.  1.
       -3    1    3    3    0  502 -0.28917863671E+03 -0.24347722884E+03 -0.83454090679E+02  0.38713052108E+03  0.10100000352E+00 0. -1.
</event>
<event>
 5   0  0.6557679E-03  0.7848246E+03  0.7818609E-02  0.9582246E-01
       -1   -1    0    0    0  501  0.00000000000E+00  0.00000000000E+00  0.11998271154E+04  0.11998271154E+04  0.50400001928E-02 0.  1.
        1   -1    0    0  501    0  0.00000000000E+00  0.00000000000E+00 -0.12834133295E+03  0.12834133304E+03  0.50400001928E-02 0. -1.
    10030    2    1    2    0    0  0.00000000000E+00  0.00000000000E+00  0.10714857824E+04  0.13281684484E+04  0.78482459534E+03 0.  0.
        1    1    3    3  502    0 -0.22831432257E+03 -0.29745802100E+03  0.33999926538E+03  0.50617013408E+03  0.50400001928E-02 0. -1.
       -1    1    3    3    0  502  0.22831432257E+03  0.29745802100E+03  0.73148651703E+03  0.82199831433E+03  0.50400001928E-02 0.  1.
</event>
<event>
 5   0  0.1121480E-02  0.8017170E+03  0.7818609E-02  0.9557535E-01
        2   -1    0    0  501    0  0.00000000000E+00  0.00000000000E+00  0.85424732131E+03  0.85424732131E+03  0.25500000920E-02 0. -1.
       -2   -1    0    0    0  501  0.00000000000E+00  0.00000000000E+00 -0.18810424437E+03  0.18810424439E+03  0.25500000920E-02 0.  1.
    10030    2    1    2    0    0  0.00000000000E+00  0.00000000000E+00  0.66614307693E+03  0.10423515657E+04  0.80171702463E+03 0.  0.
        2    1    3    3  502    0 -0.34430694340E+03 -0.17272418004E+03  0.18883916635E+03  0.42900016829E+03  0.25500000920E-02 0.  1.
       -2    1    3    3    0  502  0.34430694340E+03  0.17272418004E+03  0.47730391058E+03  0.61335139741E+03  0.25500000920E-02 0. -1.
</event>
<event>
 5   0  0.6600401E-03  0.7999456E+03  0.7818609E-02  0.9560096E-01
        1   -1    0    0  501    0  0.00000000000E+00  0.00000000000E+00  0.57779269192E+03  0.57779269194E+03  0.50400001928E-02 0.  1.
       -1   -1    0    0    0  501  0.00000000000E+00  0.00000000000E+00 -0.27687827147E+03  0.27687827152E+03  0.50400001928E-02 0. -1.
    10030    2    1    2    0    0  0.00000000000E+00  0.00000000000E+00  0.30091442045E+03  0.85467096346E+03  0.79994560274E+03 0.  0.
        2    1    3    3  502    0  0.22176996160E+03  0.22426698216E+03 -0.11233863962E+03  0.33480974465E+03  0.25500000920E-02 0. -1.
       -2    1    3    3    0  502 -0.22176996160E+03 -0.22426698216E+03  0.41325306007E+03  0.51986121881E+03  0.25500000920E-02 0.  1.
</event>
<event>
 5   0  0.1119792E-02  0.8006021E+03  0.7818609E-02  0.9559146E-01
        2   -1    0    0  501    0  0.00000000000E+00  0.00000000000E+00  0.37211599794E+03  0.37211599795E+03  0.25500000920E-02 0. -1.
       -2   -1    0    0    0  501  0.00000000000E+00  0.00000000000E+00 -0.43062093809E+03  0.43062093810E+03  0.25500000920E-02 0.  1.
    10030    2    1    2    0    0  0.00000000000E+00  0.00000000000E+00 -0.58504940154E+02  0.80273693605E+03  0.80060212370E+03 0.  0.
        4    1    3    3  502    0 -0.33786111510E+03  0.21365354474E+03 -0.50316986454E+02  0.40290368861E+03  0.12699999809E+01 0.  1.
       -4    1    3    3    0  502  0.33786111510E+03 -0.21365354474E+03 -0.81879537001E+01  0.39983324744E+03  0.12699999809E+01 0. -1.
</event>
<event>
 5   0  0.1119792E-02  0.7995419E+03  0.7818609E-02  0.9560680E-01
       -2   -1    0    0    0  501  0.00000000000E+00  0.00000000000E+00  0.87027410190E+02  0.87027410227E+02  0.25500000920E-02 0.  1.
        2   -1    0    0  501    0  0.00000000000E+00  0.00000000000E+00 -0.18363963026E+04  0.18363963026E+04  0.25500000920E-02 0. -1.
    10030    2    1    2    0    0  0.00000000000E+00  0.00000000000E+00 -0.17493688924E+04  0.19234237128E+04  0.79954190468E+03 0.  0.
        4    1    3    3  502    0 -0.38553653537E+03 -0.50358332851E+02 -0.10983047358E+04  0.11650962567E+04  0.12699999809E+01 0.  1.
       -4    1    3    3    0  502  0.38553653537E+03  0.50358332851E+02 -0.65106415657E+03  0.75832745610E+03  0.12699999809E+01 0. -1.
</event>
<event>
 5   0  0.6551489E-03  0.8256802E+03  0.7818609E-02  0.9523572E-01
        1   -1    0    0  501    0  0.00000000000E+00  0.00000000000E+00  0.27454150012E+03  0.27454150017E+03  0.50400001928E-02 0.  1.
       -1   -1    0    0    0  501  0.00000000000E+00  0.00000000000E+00 -0.62080577132E+03  0.62080577134E+03  0.50400001928E-02 0. -1.
    10030    2    1    2    0    0  0.00000000000E+00  0.00000000000E+00 -0.34626427120E+03  0.89534727150E+03  0.82568019904E+03 0.  0.
        4    1    3    3  502    0 -0.10779416744E+03  0.11795636590E+03  0.23964621060E+03  0.28803681353E+03  0.12699999809E+01 0.  1.
       -4    1    3    3    0  502  0.10779416744E+03 -0.11795636590E+03 -0.58591048180E+03  0.60731045798E+03  0.12699999809E+01 0. -1.
</event>
<event>
 5   0  0.6517392E-03  0.8061873E+03  0.7818609E-02  0.9551104E-01
        1   -1    0    0  501    0  0.00000000000E+00  0.00000000000E+00  0.97578760656E+03  0.97578760657E+03  0.50400001928E-02 0.  1.
       -1   -1    0    0    0  501  0.00000000000E+00  0.00000000000E+00 -0.16651624606E+03  0.16651624614E+03  0.50400001928E-02 0. -1.
    10030    2    1    2    0    0  0.00000000000E+00  0.00000000000E+00  0.80927136050E+03  0.11423038527E+04  0.80618729647E+03 0.  0.
        3    1    3    3  502    0  0.49554746464E+02 -0.39968969747E+03  0.38105546019E+03  0.55444639155E+03  0.10100000352E+00 0.  1.
       -3    1    3    3    0  502 -0.49554746464E+02  0.39968969747E+03  0.42821590031E+03  0.58785746116E+03  0.10100000352E+00 0. -1.
</event>
<event>
 5   0  0.1092868E-02  0.7620842E+03  0.7818609E-02  0.9616581E-01
        2   -1    0    0  501    0  0.00000000000E+00  0.00000000000E+00  0.11468664478E+04  0.11468664478E+04  0.25500000920E-02 0. -1.
       -2   -1    0    0    0  501  0.00000000000E+00  0.00000000000E+00 -0.12659981535E+03  0.12659981537E+03  0.25500000920E-02 0.  1.
    10030    2    1    2    0    0  0.00000000000E+00  0.00000000000E+00  0.10202666324E+04  0.12734662631E+04  0.76208419623E+03 0.  0.
        3    1    3    3  502    0 -0.69031315315E+02 -0.24012280093E+03  0.29384982912E+02  0.25157060529E+03  0.10100000352E+00 0.  1.
       -3    1    3    3    0  502  0.69031315315E+02  0.24012280093E+03  0.99088164950E+03  0.10218956579E+04  0.10100000352E+00 0. -1.
</event>
<event>
 5   0  0.6596225E-03  0.7981281E+03  0.7818609E-02  0.9562731E-01
       -1   -1    0    0    0  501  0.00000000000E+00  0.00000000000E+00  0.39584270720E+03  0.39584270724E+03  0.50400001928E-02 0. -1.
        1   -1    0    0  501    0  0.00000000000E+00  0.00000000000E+00 -0.40231158848E+03  0.40231158851E+03  0.50400001928E-02 0.  1.
    10030    2    1    2    0    0  0.00000000000E+00  0.00000000000E+00 -0.64688812724E+01  0.79815429574E+03  0.79812808082E+03 0.  0.
        5    1    3    3  502    0  0.12993851907E+03 -0.36234552647E+03  0.10189616892E+03  0.39822508526E+03  0.46999998093E+01 0. -1.
       -5    1    3    3    0  502 -0.12993851907E+03  0.36234552647E+03 -0.10836505019E+03  0.39992921048E+03  0.46999998093E+01 0.  1.
</event>
<event>
 5   0  0.6551489E-03  0.7979616E+03  0.7818609E-02  0.9562972E-01
        1   -1    0    0  501    0  0.00000000000E+00  0.00000000000E+00  0.20429684269E+04  0.20429684269E+04  0.50400001928E-02 0. -1.
       -1   -1    0    0    0  501  0.00000000000E+00  0.00000000000E+00 -0.77918817517E+02  0.77918817680E+02  0.50400001928E-02 0.  1.
    10030    2    1    2    0    0  0.00000000000E+00  0.00000000000E+00  0.19650496094E+04  0.21208872446E+04  0.79796161369E+03 0.  0.
        4    1    3    3  502    0  0.17454158125E+03 -0.16897493046E+02  0.19350472469E+04  0.19429770327E+04  0.12699999809E+01 0. -1.
       -4    1    3    3    0  502 -0.17454158125E+03  0.16897493046E+02  0.30002362503E+02  0.17791021193E+03  0.12699999809E+01 0.  1.
</event>
<event>
 5   0  0.1119792E-02  0.7986977E+03  0.7818609E-02  0.9561904E-01
        2   -1    0    0  501    0  0.00000000000E+00  0.00000000000E+00  0.61208647728E+03  0.61208647729E+03  0.25500000920E-02 0. -1.
       -2   -1    0    0    0  501  0.00000000000E+00  0.00000000000E+00 -0.26055058882E+03  0.26055058883E+03  0.25500000920E-02 0.  1.
    10030    2    1    2    0    0  0.00000000000E+00  0.00000000000E+00  0.35153588846E+03  0.87263706612E+03  0.79869767014E+03 0.  0.
        4    1    3    3  502    0 -0.25982718886E+03  0.65430676432E+02  0.49930028484E+03  0.56665132916E+03  0.12699999809E+01 0. -1.
       -4    1    3    3    0  502  0.25982718886E+03 -0.65430676432E+02 -0.14776439638E+03  0.30598573697E+03  0.12699999809E+01 0.  1.
</event>
<event>
 5   0  0.1106332E-02  0.7946967E+03  0.7818609E-02  0.9567725E-01
        2   -1    0    0  501    0  0.00000000000E+00  0.00000000000E+00  0.12567361263E+04  0.12567361263E+04  0.25500000920E-02 0.  1.
       -2   -1    0    0    0  501  0.00000000000E+00  0.00000000000E+00 -0.12563155355E+03  0.12563155358E+03  0.25500000920E-02 0. -1.
    10030    2    1    2    0    0  0.00000000000E+00  0.00000000000E+00  0.11311045728E+04  0.13823676799E+04  0.79469670183E+03 0.  0.
        1    1    3    3  502    0 -0.15682357304E+03 -0.98513791683E+02 -0.45965019623E+02  0.19081767022E+03  0.50400001928E-02 0. -1.
       -1    1    3    3    0  502  0.15682357304E+03  0.98513791683E+02  0.11770695924E+04  0.11915500097E+04  0.50400001928E-02 0.  1.
</event>
<event>
 5   0  0.6600401E-03  0.7920610E+03  0.7818609E-02  0.9571580E-01
       -1   -1    0    0    0  501  0.00000000000E+00  0.00000000000E+00  0.11751694292E+03  0.11751694303E+03  0.50400001928E-02 0. -1.
        1   -1    0    0  501    0  0.00000000000E+00  0.00000000000E+00 -0.13346173990E+04  0.13346173990E+04  0.50400001928E-02 0.  1.
    10030    2    1    2    0    0  0.00000000000E+00  0.00000000000E+00 -0.12171004561E+04  0.14521343420E+04  0.79206099963E+03 0.  0.
        2    1    3    3  502    0  0.19756097053E+03 -0.29646442201E+03 -0.92566705028E+03  0.99185733782E+03  0.25500000920E-02 0.  1.
       -2    1    3    3    0  502 -0.19756097053E+03  0.29646442201E+03 -0.29143340580E+03  0.46027700422E+03  0.25500000920E-02 0. -1.
</event>
<event>
 5   0  0.1121480E-02  0.8159847E+03  0.7818609E-02  0.9537164E-01
       -2   -1    0    0    0  501  0.00000000000E+00  0.00000000000E+00  0.35176916866E+03  0.35176916867E+03  0.25500000920E-02 0. -1.
        2   -1    0    0  501    0  0.00000000000E+00  0.00000000000E+00 -0.47320167025E+03  0.47320167026E+03  0.25500000920E-02 0.  1.
    10030    2    1    2    0    0  0.00000000000E+00  0.00000000000E+00 -0.12143250159E+03  0.82497083893E+03  0.81598470123E+03 0.  0.
        2    1    3    3  502    0  0.34602689285E+03  0.10709297066E+03  0.12911262651E+03  0.38454334642E+03  0.25500000920E-02 0. -1.
       -2    1    3    3    0  502 -0.34602689285E+03 -0.10709297066E+03 -0.25054512810E+03  0.44042749251E+03  0.25500000920E-02 0.  1.
</event>
<event>
 5   0  0.4385875E-03  0.8046415E+03  0.7818609E-02  0.9553323E-01
        3   -1    0    0  501    0  0.00000000000E+00  0.00000000000E+00  0.85909094044E+02  0.85909153415E+02  0.10100000352E+00 0. -1.
       -3   -1    0    0    0  501  0.00000000000E+00  0.00000000000E+00 -0.18841068349E+04  0.18841068376E+04  0.10100000352E+00 0.  1.
    10030    2    1    2    0    0  0.00000000000E+00  0.00000000000E+00 -0.17981977408E+04  0.19700159910E+04  0.80464146653E+03 0.  0.
        1    1    3    3  502    0 -0.15234136588E+03  0.21068366675E+03 -0.14739641105E+03  0.29886652742E+03  0.50400001928E-02 0. -1.
       -1    1    3    3    0  502  0.15234136588E+03 -0.21068366675E+03 -0.16508013298E+04  0.16711494636E+04  0.50400001928E-02 0.  1.
</event>
<event>
 5   0  0.1106332E-02  0.7832082E+03  0.7818609E-02  0.9584646E-01
        2   -1    0    0  501    0  0.00000000000E+00  0.00000000000E+00  0.16317144167E+04  0.16317144167E+04  0.25500000920E-02 0.  1.
       -2   -1    0    0    0  501  0.00000000000E+00  0.00000000000E+00 -0.93983218284E+02  0.93983218318E+02  0.25500000920E-02 0. -1.
    10030    2    1    2    0    0  0.00000000000E+00  0.00000000000E+00  0.15377311984E+04  0.17256976350E+04  0.78320820281E+03 0.  0.
        1    1    3    3  502    0  0.25808579629E+03  0.74791907747E+02  0.13965425668E+04  0.14221579549E+04  0.50400001928E-02 0.  1.
       -1    1    3    3    0  502 -0.25808579629E+03 -0.74791907747E+02  0.14118863165E+03  0.30353968018E+03  0.50400001928E-02 0. -1.
</event>
<event>
 5   0  0.1092868E-02  0.8003623E+03  0.7818609E-02  0.9559493E-01
       -2   -1    0    0    0  501  0.00000000000E+00  0.00000000000E+00  0.90607917585E+03  0.90607917585E+03  0.25500000920E-02 0. -1.
        2   -1    0    0  501    0  0.00000000000E+00  0.00000000000E+00 -0.17674499486E+03  0.17674499488E+03  0.25500000920E-02 0.  1.
    10030    2    1    2    0    0  0.00000000000E+00  0.00000000000E+00  0.72933418099E+03  0.10828241707E+04  0.80036231618E+03 0.  0.
        3    1    3    3  502    0  0.38974067365E+03  0.73211327548E+02  0.43736369048E+03  0.59037674338E+03  0.10100000352E+00 0.  1.
       -3    1    3    3    0  502 -0.38974067365E+03 -0.73211327548E+02  0.29197049051E+03  0.49244742735E+03  0.10100000352E+00 0. -1.
</event>
<event>
 5   0  0.1121480E-02  0.7976863E+03  0.7818609E-02  0.9563372E-01
        2   -1    0    0  501    0  0.00000000000E+00  0.00000000000E+00  0.51057069510E+03  0.51057069510E+03  0.25500000920E-02 0.  1.
       -2   -1    0    0    0  501  0.00000000000E+00  0.00000000000E+00 -0.31156477180E+03  0.31156477181E+03  0.25500000920E-02 0. -1.
    10030    2    1    2    0    0  0.00000000000E+00  0.00000000000E+00  0.19900592330E+03  0.82213546692E+03  0.79768625941E+03 0.  0.
        2    1    3    3  502    0 -0.12524021264E+03  0.25792498675E+03 -0.18624083468E+03  0.34190065540E+03  0.25500000920E-02 0. -1.
       -2    1    3    3    0  502  0.12524021264E+03 -0.25792498675E+03  0.38524675798E+03  0.48023481152E+03  0.25500000920E-02 0.  1.
</event>
<event>
 5   0  0.6596225E-03  0.7972441E+03  0.7818609E-02  0.9564015E-01
        1   -1    0    0  501    0  0.00000000000E+00  0.00000000000E+00  0.97834593515E+03  0.97834593516E+03  0.50400001928E-02 0.  1.
       -1   -1    0    0    0  501  0.00000000000E+00  0.00000000000E+00 -0.16241649965E+03  0.16241649972E+03  0.50400001928E-02 0. -1.
    10030    2    1    2    0    0  0.00000000000E+00  0.00000000000E+00  0.81592943551E+03  0.11407624349E+04  0.79724405870E+03 0.  0.
        5    1    3    3  502    0  0.24518028359E+02  0.71660585664E+02 -0.15198591934E+03  0.16987696409E+03  0.46999998093E+01 0. -1.
       -5    1    3    3    0  502 -0.24518028359E+02 -0.71660585664E+02  0.96791535485E+03  0.97088547080E+03  0.46999998093E+01 0.  1.
</event>
<event>
 5   0  0.1119792E-02  0.8186017E+03  0.7818609E-02  0.9533475E-01
        2   -1    0    0  501    0  0.00000000000E+00  0.00000000000E+00  0.89121254845E+03  0.89121254845E+03  0.25500000920E-02 0.  1.
       -2   -1    0    0    0  501  0.00000000000E+00  0.00000000000E+00 -0.18797670410E+03  0.18797670412E+03  0.25500000920E-02 0. -1.
    10030    2    1    2    0    0  0.00000000000E+00  0.00000000000E+00  0.70323584434E+03  0.10791892526E+04  0.81860172862E+03 0.  0.
        4    1    3    3  502    0  0.37661787467E+02 -0.31212046019E+03  0.69713169734E+03  0.76474296874E+03  0.12699999809E+01 0.  1.
       -4    1    3    3    0  502 -0.37661787467E+02  0.31212046019E+03  0.61041470012E+01  0.31444628383E+03  0.12699999809E+01 0. -1.
</event>
<event>
 5   0  0.6517392E-03  0.7964770E+03  0.7818609E-02  0.9565131E-01
       -1   -1    0    0    0  501  0.00000000000E+00  0.00000000000E+00  0.21820657564E+03  0.21820657570E+03  0.50400001928E-02 0. -1.
        1   -1    0    0  501    0  0.00000000000E+00  0.00000000000E+00 -0.72680621490E+03  0.72680621491E+03  0.50400001928E-02 0.  1.
    10030    2    1    2    0    0  0.00000000000E+00  0.00000000000E+00 -0.50859963926E+03  0.94501279061E+03  0.79647698107E+03 0.  0.
        3    1    3    3  502    0  0.19057101057E+03  0.14914271886E+02 -0.66881526217E+03  0.69559586736E+03  0.10100000352E+00 0.  1.
       -3    1    3    3    0  502 -0.19057101057E+03 -0.14914271886E+02  0.16021562292E+03  0.24941692325E+03  0.10100000352E+00 0. -1.
</event>
<event>
 5   0  0.6557679E-03  0.8011537E+03  0.7818609E-02  0.9558349E-01
        1   -1    0    0  501    0  0.00000000000E+00  0.00000000000E+00  0.34106071314E+03  0.34106071317E+03  0.50400001928E-02 0. -1.
       -1   -1    0    0    0  501  0.00000000000E+00  0.00000000000E+00 -0.47047868129E+03  0.47047868131E+03  0.50400001928E-02 0.  1.
    10030    2    1    2    0    0  0.00000000000E+00  0.00000000000E+00 -0.12941796815E+03  0.81153939449E+03  0.80115365463E+03 0.  0.
        1    1    3    3  502    0 -0.49828126116E+02 -0.28706808982E+03  0.21375625055E+03  0.36136223519E+03  0.50400001928E-02 0. -1.
       -1    1    3    3    0  502  0.49828126116E+02  0.28706808982E+03 -0.34317421870E+03  0.45017715930E+03  0.50400001928E-02 0.  1.
</event>
<event>
 5   0  0.1092868E-02  0.8012282E+03  0.7818609E-02  0.9558241E-01
       -2   -1    0    0    0  501  0.00000000000E+00  0.00000000000E+00  0.70605697975E+03  0.70605697975E+03  0.25500000920E-02 0. -1.
        2   -1    0    0  501    0  0.00000000000E+00  0.00000000000E+00 -0.22730693277E+03  0.22730693278E+03  0.25500000920E-02 0.  1.
    10030    2    1    2    0    0  0.00000000000E+00  0.00000000000E+00  0.47875004698E+03  0.93336391253E+03  0.80122817333E+03 0.  0.
        3    1    3    3  502    0 -0.28369086555E+03  0.15205351835E+03 -0.38478577718E+02  0.32416259930E+03  0.10100000352E+00 0.  1.
       -3    1    3    3    0  502  0.28369086555E+03 -0.15205351835E+03  0.51722862470E+03  0.60920131324E+03  0.10100000352E+00 0. -1.
</event>
<event>
 5   0  0.6596225E-03  0.7984112E+03  0.7818609E-02  0.9562320E-01
       -1   -1    0    0    0  501  0.00000000000E+00  0.00000000000E+00  0.81767653308E+03  0.81767653309E+03  0.50400001928E-02 0.  1.
        1   -1    0    0  501    0  0.00000000000E+00  0.00000000000E+00 -0.19489995972E+03  0.19489995978E+03  0.50400001928E-02 0. -1.
    10030    2    1    2    0    0  0.00000000000E+00  0.00000000000E+00  0.62277657336E+03  0.10125764929E+04  0.79841123089E+03 0.  0.
        5    1    3    3  502    0 -0.17826119666E+03 -0.33073674780E+03  0.14039132955E+03  0.40111802003E+03  0.46999998093E+01 0. -1.
       -5    1    3    3    0  502  0.17826119666E+03  0.33073674780E+03  0.48238524381E+03  0.61145847285E+03  0.46999998093E+01 0.  1.
</event>
<event>
 5   0  0.6517392E-03  0.8052168E+03  0.7818609E-02  0.9552497E-01
       -1   -1    0    0    0  501  0.00000000000E+00  0.00000000000E+00  0.36596180735E+03  0.36596180739E+03  0.50400001928E-02 0.  1.
        1   -1    0    0  501    0  0.00000000000E+00  0.00000000000E+00 -0.44292466842E+03  0.44292466845E+03  0.50400001928E-02 0. -1.
    10030    2    1    2    0    0  0.00000000000E+00  0.00000000000E+00 -0.76962861069E+02  0.80888647583E+03  0.80521677131E+03 0.  0.
        3    1    3    3  502    0  0.99185919113E+02 -0.11290927402E+03  0.33672735397E+03  0.36874336851E+03  0.10100000352E+00 0.  1.
       -3    1    3    3    0  502 -0.99185919113E+02  0.11290927402E+03 -0.41369021503E+03  0.44014310732E+03  0.10100000352E+00 0. -1.
</event>
<event>
 5   0  0.6551489E-03  0.8001764E+03  0.7818609E-02  0.9559762E-01
       -1   -1    0    0    0  501  0.00000000000E+00  0.00000000000E+00  0.72019895882E+03  0.72019895883E+03  0.50400001928E-02 0. -1.
        1   -1    0    0  501    0  0.00000000000E+00  0.00000000000E+00 -0.22225881221E+03  0.22225881227E+03  0.50400001928E-02 0.  1.
    10030    2    1    2    0    0  0.00000000000E+00  0.00000000000E+00  0.49794014660E+03  0.94245777110E+03  0.80017639350E+03 0.  0.
        4    1    3    3  502    0  0.17631790614E+03  0.35527832833E+03  0.31082774683E+03  0.50391090056E+03  0.12699999809E+01 0.  1.
       -4    1    3    3    0  502 -0.17631790614E+03 -0.35527832833E+03  0.18711239978E+03  0.43854687054E+03  0.12699999809E+01 0. -1.
</event>
<event>
 5   0  0.6596225E-03  0.7956339E+03  0.7818609E-02  0.9566358E-01
       -1   -1    0    0    0  501  0.00000000000E+00  0.00000000000E+00  0.19166831916E+03  0.19166831923E+03  0.50400001928E-02 0.  1.
        1   -1    0    0  501    0  0.00000000000E+00  0.00000000000E+00 -0.82568843181E+03  0.82568843183E+03  0.50400001928E-02 0. -1.
    10030    2    1    2    0    0  0.00000000000E+00  0.00000000000E+00 -0.63402011265E+03  0.10173567511E+04  0.79563387037E+03 0.  0.
        5    1    3    3  502    0 -0.74354398000E+02  0.24898729254E+03 -0.70212885210E+03  0.74868569059E+03  0.46999998093E+01 0. -1.
       -5    1    3    3    0  502  0.74354398000E+02 -0.24898729254E+03  0.68108739443E+02  0.26867106047E+03  0.46999998093E+01 0.  1.
</event>
<event>
 5   0  0.6551489E-03  0.8066483E+03  0.7818609E-02  0.9550444E-01
       -1   -1    0    0    0  501  0.00000000000E+00  0.00000000000E+00  0.24671090502E+03  0.24671090507E+03  0.50400001928E-02 0.  1.
        1   -1    0    0  501    0  0.00000000000E+00  0.00000000000E+00 -0.65935620370E+03  0.65935620372E+03  0.50400001928E-02 0. -1.
    10030    2    1    2    0    0  0.00000000000E+00  0.00000000000E+00 -0.41264529869E+03  0.90606710879E+03  0.80664828959E+03 0.  0.
        4    1    3    3  502    0 -0.23046717785E+03 -0.32845723371E+03 -0.16042752464E+03  0.43213178315E+03  0.12699999809E+01 0. -1.
       -4    1    3    3    0  502  0.23046717785E+03  0.32845723371E+03 -0.25221777405E+03  0.47393532564E+03  0.12699999809E+01 0.  1.
</event>
<event>
 5   0  0.1092868E-02  0.8000239E+03  0.7818609E-02  0.9559983E-01
        2   -1    0    0  501    0  0.00000000000E+00  0.00000000000E+00  0.91242570971E+03  0.91242570972E+03  0.25500000920E-02 0. -1.
       -2   -1    0    0    0  501  0.00000000000E+00  0.00000000000E+00 -0.17536720714E+03  0.17536720716E+03  0.25500000920E-02 0.  1.
    10030    2    1    2    0    0  0.00000000000E+00  0.00000000000E+00  0.73705850258E+03  0.10877929169E+04  0.80002387076E+03 0.  0.
        3    1    3    3  502    0  0.19649237211E+03 -0.99884387477E+02 -0.85340745774E+02  0.23636665639E+03  0.10100000352E+00 0.  1.
       -3    1    3    3    0  502 -0.19649237211E+03  0.99884387477E+02  0.82239924835E+03  0.85142626049E+03  0.10100000352E+00 0. -1.
</event>
<event>
 5   0  0.6551489E-03  0.7820890E+03  0.7818609E-02  0.9586311E-01
       -1   -1    0    0    0  501  0.00000000000E+00  0.00000000000E+00  0.29074901504E+03  0.29074901508E+03  0.50400001928E-02 0. -1.
        1   -1    0    0  501    0  0.00000000000E+00  0.00000000000E+00 -0.52593741986E+03  0.52593741988E+03  0.50400001928E-02 0.  1.
    10030    2    1    2    0    0  0.00000000000E+00  0.00000000000E+00 -0.23518840482E+03  0.81668643497E+03  0.78208896380E+03 0.  0.
        4    1    3    3  502    0 -0.16134271846E+03 -0.32891121868E+03  0.25203520072E+02  0.36722049630E+03  0.12699999809E+01 0. -1.
       -4    1    3    3    0  502  0.16134271846E+03  0.32891121868E+03 -0.26039192489E+03  0.44946593867E+03  0.12699999809E+01 0.  1.
</event>
<event>
 5   0  0.1092868E-02  0.7983480E+03  0.7818609E-02  0.9562411E-01
       -2   -1    0    0    0  501  0.00000000000E+00  0.00000000000E+00  0.31888173967E+03  0.31888173968E+03  0.25500000920E-02 0. -1.
        2   -1    0    0  501    0  0.00000000000E+00  0.00000000000E+00 -0.49968327633E+03  0.49968327633E+03  0.25500000920E-02 0.  1.
    10030    2    1    2    0    0  0.00000000000E+00  0.00000000000E+00 -0.18080153665E+03  0.81856501601E+03  0.79834797538E+03 0.  0.
        3    1    3    3  502    0 -0.31555093158E+03 -0.11240794452E+03 -0.31299737744E+03  0.45844880292E+03  0.10100000352E+00 0.  1.
       -3    1    3    3    0  502  0.31555093158E+03  0.11240794452E+03  0.13219584079E+03  0.36011621309E+03  0.10100000352E+00 0. -1.
</event>
<event>
 5   0  0.1119792E-02  0.8032913E+03  0.7818609E-02  0.9555265E-01
        2   -1    0    0  501    0  0.00000000000E+00  0.00000000000E+00  0.30827020526E+03  0.30827020527E+03  0.25500000920E-02 0.  1.
       -2   -1    0    0    0  501  0.00000000000E+00  0.00000000000E+00 -0.52330464825E+03  0.52330464826E+03  0.25500000920E-02 0. -1.
    10030    2    1    2    0    0  0.00000000000E+00  0.00000000000E+00 -0.21503444299E+03  0.83157485353E+03  0.80329130790E+03 0.  0.
        4    1    3    3  502    0  0.33852366984E+03  0.92896052383E+02  0.94520223348E+02  0.36354317090E+03  0.12699999809E+01 0.  1.
       -4    1    3    3    0  502 -0.33852366984E+03 -0.92896052383E+02 -0.30955466634E+03  0.46803168262E+03  0.12699999809E+01 0. -1.
</event>
<event>
 5   0  0.6551489E-03  0.8026145E+03  0.7818609E-02  0.9556240E-01
       -1   -1    0    0    0  501  0.00000000000E+00  0.00000000000E+00  0.41899349471E+03  0.41899349474E+03  0.50400001928E-02 0.  1.
        1   -1    0    0  501    0  0.00000000000E+00  0.00000000000E+00 -0.38436753815E+03  0.38436753819E+03  0.50400001928E-02 0. -1.
    10030    2    1    2    0    0  0.00000000000E+00  0.00000000000E+00  0.34625956555E+02  0.80336103292E+03  0.80261447305E+03 0.  0.
        4    1    3    3  502    0 -0.13850383127E+03 -0.37628257567E+03  0.33881234563E+02  0.40239463091E+03  0.12699999809E+01 0. -1.
       -4    1    3    3    0  502  0.13850383127E+03  0.37628257567E+03  0.74472199269E+00  0.40096640201E+03  0.12699999809E+01 0.  1.
</event>
<event>
 5   0  0.6557679E-03  0.8148433E+03  0.7818609E-02  0.9538777E-01
        1   -1    0    0  501    0  0.00000000000E+00  0.00000000000E+00  0.81754554507E+03  0.81754554509E+03  0.50400001928E-02 0. -1.
       -1   -1    0    0    0  501  0.00000000000E+00  0.00000000000E+00 -0.20303751876E+03  0.20303751883E+03  0.50400001928E-02 0.  1.
    10030    2    1    2    0    0  0.00000000000E+00  0.00000000000E+00  0.61450802631E+03  0.10205830639E+04  0.81484334442E+03 0.  0.
        1    1    3    3  502    0  0.11226226655E+03  0.20984741524E+03  0.72143571249E+03  0.75967640575E+03  0.50400001928E-02 0. -1.
       -1    1    3    3    0  502 -0.11226226655E+03 -0.20984741524E+03 -0.10692768619E+03  0.26090665816E+03  0.50400001928E-02 0.  1.
</event>
<event>
 5   0  0.1121480E-02  0.8017262E+03  0.7818609E-02  0.9557522E-01
       -2   -1    0    0    0  501  0.00000000000E+00  0.00000000000E+00  0.15203237485E+03  0.15203237487E+03  0.25500000920E-02 0.  1.
        2   -1    0    0  501    0  0.00000000000E+00  0.00000000000E+00 -0.10569540297E+04  0.10569540297E+04  0.25500000920E-02 0. -1.
    10030    2    1    2    0    0  0.00000000000E+00  0.00000000000E+00 -0.90492165482E+03  0.12089864046E+04  0.80172621575E+03 0.  0.
        2    1    3    3  502    0 -0.21005966402E+03  0.30513859665E+03 -0.22150553674E+03  0.43162405914E+03  0.25500000920E-02 0. -1.
       -2    1    3    3    0  502  0.21005966402E+03 -0.30513859665E+03 -0.68341611808E+03  0.77736234542E+03  0.25500000920E-02 0.  1.
</event>
<event>
 5   0  0.1092868E-02  0.8019743E+03  0.7818609E-02  0.9557164E-01
       -2   -1    0    0    0  501  0.00000000000E+00  0.00000000000E+00  0.15479825510E+03  0.15479825512E+03  0.25500000920E-02 0. -1.
        2   -1    0    0  501    0  0.00000000000E+00  0.00000000000E+00 -0.10387112805E+04  0.10387112805E+04  0.25500000920E-02 0.  1.
    10030    2    1    2    0    0  0.00000000000E+00  0.00000000000E+00 -0.88391302537E+03  0.11935095356E+04  0.80197429830E+03 0.  0.
        3    1    3    3  502    0  0.23667333210E+03  0.29979447182E+03 -0.62361432939E+03  0.73129052605E+03  0.10100000352E+00 0.  1.
       -3    1    3    3    0  502 -0.23667333210E+03 -0.29979447182E+03 -0.26029869597E+03  0.46221900955E+03  0.10100000352E+00 0. -1.
</event>
<event>
 5   0  0.6551489E-03  0.7984092E+03  0.7818609E-02  0.9562323E-01
        1   -1    0    0  501    0  0.00000000000E+00  0.00000000000E+00  0.38869758153E+03  0.38869758157E+03  0.50400001928E-02 0.  1.
       -1   -1    0    0    0  501  0.00000000000E+00  0.00000000000E+00 -0.40999560880E+03  0.40999560883E+03  0.50400001928E-02 0. -1.
    10030    2    1    2    0    0  0.00000000000E+00  0.00000000000E+00 -0.21298027269E+02  0.79869319040E+03  0.79840917231E+03 0.  0.
        4    1    3    3  502    0 -0.17627447773E+03  0.21308936642E+03 -0.29864536343E+03  0.40702633278E+03  0.12699999809E+01 0. -1.
       -4    1    3    3    0  502  0.17627447773E+03 -0.21308936642E+03  0.27734733616E+03  0.39166685762E+03  0.12699999809E+01 0.  1.
</event>
<event>
 5   0  0.6600401E-03  0.8000539E+03  0.7818609E-02  0.9559939E-01
       -1   -1    0    0    0  501  0.00000000000E+00  0.00000000000E+00  0.81610873932E+03  0.81610873933E+03  0.50400001928E-02 0. -1.
        1   -1    0    0  501    0  0.00000000000E+00  0.00000000000E+00 -0.19607874154E+03  0.19607874161E+03  0.50400001928E-02 0.  1.
    10030    2    1    2    0    0  0.00000000000E+00  0.00000000000E+00  0.62002999778E+03  0.10121874809E+04  0.80005393470E+03 0.  0.
        2    1    3    3  502    0  0.37584111199E+03  0.20282655792E+02  0.48141186763E+03  0.61108535729E+03  0.25500000920E-02 0. -1.
       -2    1    3    3    0  502 -0.37584111199E+03 -0.20282655792E+02  0.13861813014E+03  0.40110212365E+03  0.25500000920E-02 0.  1.
</event>
<event>
 5   0  0.6557679E-03  0.8011172E+03  0.7818609E-02  0.9558401E-01
       -1   -1    0    0    0  501  0.00000000000E+00  0.00000000000E+00  0.15283244643E+04  0.15283244643E+04  0.50400001928E-02 0. -1.
        1   -1    0    0  501    0  0.00000000000E+00  0.00000000000E+00 -0.10498241801E+03  0.10498241813E+03  0.50400001928E-02 0.  1.
    10030    2    1    2    0    0  0.00000000000E+00  0.00000000000E+00  0.14233420463E+04  0.16333068824E+04  0.80111721458E+03 0.  0.
        1    1    3    3  502    0 -0.15308923968E+03 -0.23180590721E+03  0.13000186599E+04  0.13293678234E+04  0.50400001928E-02 0. -1.
       -1    1    3    3    0  502  0.15308923968E+03  0.23180590721E+03  0.12332338638E+03  0.30393905898E+03  0.50400001928E-02 0.  1.
</event>
<event>
 5   0  0.1121480E-02  0.7980786E+03  0.7818609E-02  0.9562802E-01
        2   -1    0    0  501    0  0.00000000000E+00  0.00000000000E+00  0.67811228113E+03  0.67811228113E+03  0.25500000920E-02 0. -1.
       -2   -1    0    0    0  501  0.00000000000E+00  0.00000000000E+00 -0.23481709776E+03  0.23481709778E+03  0.25500000920E-02 0.  1.
    10030    2    1    2    0    0  0.00000000000E+00  0.00000000000E+00  0.44329518336E+03  0.91292937891E+03  0.79807858716E+03 0.  0.
        2    1    3    3  502    0  0.26212491306E+03  0.29464642434E+03  0.15200642299E+03  0.42264871710E+03  0.25500000920E-02 0.  1.
       -2    1    3    3    0  502 -0.26212491306E+03 -0.29464642434E+03  0.29128876037E+03  0.49028066181E+03  0.25500000920E-02 0. -1.
</event>
<event>
 5   0  0.4385875E-03  0.8112239E+03  0.7818609E-02  0.9543912E-01
       -3   -1    0    0    0  501  0.00000000000E+00  0.00000000000E+00  0.19794012103E+03  0.19794014679E+03  0.10100000352E+00 0. -1.
        3   -1    0    0  501    0  0.00000000000E+00  0.00000000000E+00 -0.83116567722E+03  0.83116568336E+03  0.10100000352E+00 0.  1.
    10030    2    1    2    0    0  0.00000000000E+00  0.00000000000E+00 -0.63322555619E+03  0.10291058301E+04  0.81122389304E+03 0.  0.
        3    1    3    3  502    0  0.53589790527E+02  0.29306479252E+03 -0.66578975569E+03  0.72940718892E+03  0.10100000352E+00 0.  1.
       -3    1    3    3    0  502 -0.53589790527E+02 -0.29306479252E+03  0.32564199501E+02  0.29969864123E+03  0.10100000352E+00 0. -1.
</event>
<event>
 5   0  0.6517392E-03  0.7908574E+03  0.7818609E-02  0.9573346E-01
        1   -1    0    0  501    0  0.00000000000E+00  0.00000000000E+00  0.18317625371E+04  0.18317625371E+04  0.50400001928E-02 0.  1.
       -1   -1    0    0    0  501  0.00000000000E+00  0.00000000000E+00 -0.85362522408E+02  0.85362522557E+02  0.50400001928E-02 0. -1.
    10030    2    1    2    0    0  0.00000000000E+00  0.00000000000E+00  0.17464000147E+04  0.19171250596E+04  0.79085743536E+03 0.  0.
        3    1    3    3  502    0  0.24345993545E+03  0.28482701080E+03  0.11794898154E+04  0.12375764223E+04  0.10100000352E+00 0.  1.
       -3    1    3    3    0  502 -0.24345993545E+03 -0.28482701080E+03  0.56691019932E+03  0.67954863736E+03  0.10100000352E+00 0. -1.
</event>
<event>
 5   0  0.6517392E-03  0.8087730E+03  0.7818609E-02  0.9547405E-01
       -1   -1    0    0    0  501  0.00000000000E+00  0.00000000000E+00  0.87980887731E+03  0.87980887732E+03  0.50400001928E-02 0. -1.
        1   -1    0    0  501    0  0.00000000000E+00  0.00000000000E+00 -0.18586813863E+03  0.18586813869E+03  0.50400001928E-02 0.  1.
    10030    2    1    2    0    0  0.00000000000E+00  0.00000000000E+00  0.69394073868E+03  0.10656770160E+04  0.80877299267E+03 0.  0.
        3    1    3    3  502    0 -0.14165039900E+03  0.20631987556E+03  0.76550875145E+03  0.80537965292E+03  0.10100000352E+00 0. -1.
       -3    1    3    3    0  502  0.14165039900E+03 -0.20631987556E+03 -0.71568012768E+02  0.26029736310E+03  0.10100000352E+00 0.  1.
</event>
<event>
 5   0  0.1092868E-02  0.7942344E+03  0.7818609E-02  0.9568400E-01
        2   -1    0    0  501    0  0.00000000000E+00  0.00000000000E+00  0.22634255792E+03  0.22634255793E+03  0.25500000920E-02 0.  1.
       -2   -1    0    0    0  501  0.00000000000E+00  0.00000000000E+00 -0.69674077086E+03  0.69674077087E+03  0.25500000920E-02 0. -1.
    10030    2    1    2    0    0  0.00000000000E+00  0.00000000000E+00 -0.47039821295E+03  0.92308332880E+03  0.79423444471E+03 0.  0.
        3    1    3    3  502    0 -0.20932731418E+03  0.33579389666E+03 -0.27420942440E+03  0.48142110894E+03  0.10100000352E+00 0. -1.
       -3    1    3    3    0  502  0.20932731418E+03 -0.33579389666E+03 -0.19618878855E+03  0.44166221986E+03  0.10100000352E+00 0.  1.
</event>
<event>
 5   0  0.1092868E-02  0.7341945E+03  0.7818609E-02  0.9660478E-01
        2   -1    0    0  501    0  0.00000000000E+00  0.00000000000E+00  0.85575257006E+03  0.85575257006E+03  0.25500000920E-02 0.  1.
       -2   -1    0    0    0  501  0.00000000000E+00  0.00000000000E+00 -0.15747588540E+03  0.15747588542E+03  0.25500000920E-02 0. -1.
    10030    2    1    2    0    0  0.00000000000E+00  0.00000000000E+00  0.69827668466E+03  0.10132284555E+04  0.73419450737E+03 0.  0.
        3    1    3    3  502    0 -0.13693811323E+03 -0.15792508732E+03 -0.67327276694E+02  0.21960271503E+03  0.10100000352E+00 0. -1.
       -3    1    3    3    0  502  0.13693811323E+03  0.15792508732E+03  0.76560396136E+03  0.79362574045E+03  0.10100000352E+00 0.  1.
</event>
<event>
 5   0  0.6557679E-03  0.7996298E+03  0.7818609E-02  0.9560553E-01
       -1   -1    0    0    0  501  0.00000000000E+00  0.00000000000E+00  0.30080291735E+03  0.30080291739E+03  0.50400001928E-02 0. -1.
        1   -1    0    0  501    0  0.00000000000E+00  0.00000000000E+00 -0.53141761242E+03  0.53141761244E+03  0.50400001928E-02 0.  1.
    10030    2    1    2    0    0  0.00000000000E+00  0.00000000000E+00 -0.23061469507E+03  0.83222052983E+03  0.79962983479E+03 0.  0.
        1    1    3    3  502    0 -0.19416865026E+03 -0.28638080289E+02  0.24721450056E+03  0.31565267891E+03  0.50400001928E-02 0. -1.
       -1    1    3    3    0  502  0.19416865026E+03  0.28638080289E+02 -0.47782919563E+03  0.51656785093E+03  0.50400001928E-02 0.  1.
</event>
<event>
 5   0  0.1106332E-02  0.8314402E+03  0.7818609E-02  0.9515591E-01
       -2   -1    0    0    0  501  0.00000000000E+00  0.00000000000E+00  0.57539005329E+03  0.57539005330E+03  0.25500000920E-02 0.  1.
        2   -1    0    0  501    0  0.00000000000E+00  0.00000000000E+00 -0.30035836111E+03  0.30035836112E+03  0.25500000920E-02 0. -1.
    10030    2    1    2    0    0  0.00000000000E+00  0.00000000000E+00  0.27503169218E+03  0.87574841442E+03  0.83144022855E+03 0.  0.
        1    1    3    3  502    0  0.23198370693E+03  0.50598211844E+02  0.49694369292E+03  0.55075371382E+03  0.50400001928E-02 0.  1.
       -1    1    3    3    0  502 -0.23198370693E+03 -0.50598211844E+02 -0.22191200074E+03  0.32499470060E+03  0.50400001928E-02 0. -1.
</event>
<event>
 5   0  0.6600401E-03  0.8044087E+03  0.7818609E-02  0.9553658E-01
       -1   -1    0    0    0  501  0.00000000000E+00  0.00000000000E+00  0.10536269050E+03  0.10536269062E+03  0.50400001928E-02 0.  1.
        1   -1    0    0  501    0  0.00000000000E+00  0.00000000000E+00 -0.15353474333E+04  0.15353474333E+04  0.50400001928E-02 0. -1.
    10030    2    1    2    0    0  0.00000000000E+00  0.00000000000E+00 -0.14299847428E+04  0.16407101240E+04  0.80440869346E+03 0.  0.
        2    1    3    3  502    0  0.14460840855E+03 -0.36548202404E+03 -0.88901667272E+03  0.97202846980E+03  0.25500000920E-02 0.  1.
       -2    1    3    3    0  502 -0.14460840855E+03  0.36548202404E+03 -0.54096807012E+03  0.66868165416E+03  0.25500000920E-02 0. -1.
</event>
<event>
 5   0  0.6557679E-03  0.7840030E+03  0.7818609E-02  0.9583465E-01
       -1   -1    0    0    0  501  0.00000000000E+00  0.00000000000E+00  0.50079612224E+03  0.50079612227E+03  0.50400001928E-02 0.  1.
        1   -1    0    0  501    0  0.00000000000E+00  0.00000000000E+00 -0.30684178481E+03  0.30684178485E+03  0.50400001928E-02 0. -1.
    10030    2    1    2    0    0  0.00000000000E+00  0.00000000000E+00  0.19395433743E+03  0.80763790712E+03  0.78400300000E+03 0.  0.
        1    1    3    3  502    0 -0.38424355251E+03 -0.75809237463E+02  0.79893257470E+02  0.39971625028E+03  0.50400001928E-02 0. -1.
       -1    1    3    3    0  502  0.38424355251E+03  0.75809237463E+02  0.11406107997E+03  0.40792165684E+03  0.50400001928E-02 0.  1.
</event>
<event>
 5   0  0.4385875E-03  0.8053824E+03  0.7818609E-02  0.9552259E-01
       -4   -1    0    0    0  501  0.00000000000E+00  0.00000000000E+00  0.71118038371E+03  0.71118151767E+03  0.12699999809E+01 0. -1.
        4   -1    0    0  501    0  0.00000000000E+00  0.00000000000E+00 -0.22801246814E+03  0.22801600498E+03  0.12699999809E+01 0.  1.
    10030    2    1    2    0    0  0.00000000000E+00  0.00000000000E+00  0.48316791557E+03  0.93919752265E+03  0.80538236380E+03 0.  0.
        4    1    3    3  502    0 -0.23347141811E+03  0.27042684404E+03  0.45824652687E+03  0.58106030095E+03  0.12699999809E+01 0. -1.
       -4    1    3    3    0  502  0.23347141811E+03 -0.27042684404E+03  0.24921388702E+02  0.35813722170E+03  0.12699999809E+01 0.  1.
</event>
<event>
 5   0  0.1106332E-02  0.7981675E+03  0.7818609E-02  0.9562673E-01
       -2   -1    0    0    0  501  0.00000000000E+00  0.00000000000E+00  0.19719989263E+03  0.19719989264E+03  0.25500000920E-02 0.  1.
        2   -1    0    0  501    0  0.00000000000E+00  0.00000000000E+00 -0.80764671822E+03  0.80764671823E+03  0.25500000920E-02 0. -1.
    10030    2    1    2    0    0  0.00000000000E+00  0.00000000000E+00 -0.61044682560E+03  0.10048466109E+04  0.79816751657E+03 0.  0.
        1    1    3    3  502    0 -0.23562127776E+03 -0.31720602241E+03 -0.37566567756E+03  0.54521715720E+03  0.50400001928E-02 0.  1.
       -1    1    3    3    0  502  0.23562127776E+03  0.31720602241E+03 -0.23478114803E+03  0.45962945367E+03  0.50400001928E-02 0. -1.
</event>
<event>
 5   0  0.6600401E-03  0.7975376E+03  0.7818609E-02  0.9563588E-01
       -1   -1    0    0    0  501  0.00000000000E+00  0.00000000000E+00  0.37787771892E+03  0.37787771895E+03  0.50400001928E-02 0. -1.
        1   -1    0    0  501    0  0.00000000000E+00  0.00000000000E+00 -0.42081486023E+03  0.42081486026E+03  0.50400001928E-02 0.  1.
    10030    2    1    2    0    0  0.00000000000E+00  0.00000000000E+00 -0.42937141308E+02  0.79869257921E+03  0.79753760913E+03 0.  0.
        2    1    3    3  502    0 -0.32638615474E+03 -0.17423683726E+03 -0.17044610222E+03  0.40735521506E+03  0.25500000920E-02 0. -1.
       -2    1    3    3    0  502  0.32638615474E+03  0.17423683726E+03  0.12750896091E+03  0.39133736415E+03  0.25500000920E-02 0.  1.
</event>
<event>
 5   0  0.6600401E-03  0.8023369E+03  0.7818609E-02  0.9556641E-01
       -1   -1    0    0    0  501  0.00000000000E+00  0.00000000000E+00  0.23864924777E+03  0.23864924782E+03  0.50400001928E-02 0.  1.
        1   -1    0    0  501    0  0.00000000000E+00  0.00000000000E+00 -0.67436264422E+03  0.67436264424E+03  0.50400001928E-02 0. -1.
    10030    2    1    2    0    0  0.00000000000E+00  0.00000000000E+00 -0.43571339645E+03  0.91301189206E+03  0.80233693122E+03 0.  0.
        2    1    3    3  502    0  0.58022652779E+02 -0.33515981002E+03  0.24172924347E+02  0.34100301578E+03  0.25500000920E-02 0.  1.
       -2    1    3    3    0  502 -0.58022652779E+02  0.33515981002E+03 -0.45988632079E+03  0.57200887629E+03  0.25500000920E-02 0. -1.
</event>
<event>
 5   0  0.1121480E-02  0.7988233E+03  0.7818609E-02  0.9561722E-01
        2   -1    0    0  501    0  0.00000000000E+00  0.00000000000E+00  0.90855067531E+03  0.90855067531E+03  0.25500000920E-02 0.  1.
       -2   -1    0    0    0  501  0.00000000000E+00  0.00000000000E+00 -0.17558698329E+03  0.17558698331E+03  0.25500000920E-02 0. -1.
    10030    2    1    2    0    0  0.00000000000E+00  0.00000000000E+00  0.73296369201E+03  0.10841376586E+04  0.79882331528E+03 0.  0.
        2    1    3    3  502    0 -0.30841708038E+03  0.13846544945E+02  0.22561239997E+02  0.30955101653E+03  0.25500000920E-02 0. -1.
       -2    1    3    3    0  502  0.30841708038E+03 -0.13846544945E+02  0.71040245202E+03  0.77458664210E+03  0.25500000920E-02 0.  1.
</event>
<event>
 5   0  0.4385875E-03  0.7973265E+03  0.7818609E-02  0.9563895E-01
        3   -1    0    0  501    0  0.00000000000E+00  0.00000000000E+00  0.10809625649E+04  0.10809625696E+04  0.10100000352E+00 0. -1.
       -3   -1    0    0    0  501  0.00000000000E+00  0.00000000000E+00 -0.14702854031E+03  0.14702857500E+03  0.10100000352E+00 0.  1.
    10030    2    1    2    0    0  0.00000000000E+00  0.00000000000E+00  0.93393402455E+03  0.12279911446E+04  0.79732646321E+03 0.  0.
        4    1    3    3  502    0 -0.22723038766E+03 -0.32745848930E+03  0.47967178455E+03  0.62365803537E+03  0.12699999809E+01 0.  1.
       -4    1    3    3    0  502  0.22723038766E+03  0.32745848930E+03  0.45426224000E+03  0.60433310920E+03  0.12699999809E+01 0. -1.
</event>
<event>
 5   0  0.6517392E-03  0.8027483E+03  0.7818609E-02  0.9556047E-01
       -1   -1    0    0    0  501  0.00000000000E+00  0.00000000000E+00  0.33491524808E+03  0.33491524812E+03  0.50400001928E-02 0.  1.
        1   -1    0    0  501    0  0.00000000000E+00  0.00000000000E+00 -0.48102087665E+03  0.48102087668E+03  0.50400001928E-02 0. -1.
    10030    2    1    2    0    0  0.00000000000E+00  0.00000000000E+00 -0.14610562857E+03  0.81593612480E+03  0.80274834478E+03 0.  0.
        3    1    3    3  502    0  0.27331861236E+03 -0.21165784956E+03 -0.28036209570E+03  0.44508990558E+03  0.10100000352E+00 0.  1.
       -3    1    3    3    0  502 -0.27331861236E+03  0.21165784956E+03  0.13425646713E+03  0.37084621922E+03  0.10100000352E+00 0. -1.
</event>
<event>
 5   0  0.1154714E-02  0.8021169E+03  0.7818609E-02  0.9556958E-01
        2   -1    0    0  501    0  0.00000000000E+00  0.00000000000E+00  0.64672679339E+03  0.64672679339E+03  0.25500000920E-02 0. -1.
       -2   -1    0    0    0  501  0.00000000000E+00  0.00000000000E+00 -0.24871070718E+03  0.24871070719E+03  0.25500000920E-02 0.  1.
    10030    2    1    2    0    0  0.00000000000E+00  0.00000000000E+00  0.39801608621E+03  0.89543750059E+03  0.80211689458E+03 0.  0.
        5    1    3    3  502    0  0.14864177399E+03 -0.27763962757E+03 -0.78168115799E+02  0.32451576864E+03  0.46999998093E+01 0.  1.
       -5    1    3    3    0  502 -0.14864177399E+03  0.27763962757E+03  0.47618420201E+03  0.57092173195E+03  0.46999998093E+01 0. -1.
</event>
<event>
 5   0  0.6517392E-03  0.8012189E+03  0.7818609E-02  0.9558254E-01
       -1   -1    0    0    0  501  0.00000000000E+00  0.00000000000E+00  0.40114959599E+03  0.40114959602E+03  0.50400001928E-02 0. -1.
        1   -1    0    0  501    0  0.00000000000E+00  0.00000000000E+00 -0.40007006441E+03  0.40007006444E+03  0.50400001928E-02 0.  1.
    10030    2    1    2    0    0  0.00000000000E+00  0.00000000000E+00  0.10795315752E+01  0.80121966046E+03  0.80121893321E+03 0.  0.
        3    1    3    3  502    0 -0.20933350950E+03 -0.17092720441E+03  0.29626170593E+03  0.40100827424E+03  0.10100000352E+00 0. -1.
       -3    1    3    3    0  502  0.20933350950E+03  0.17092720441E+03 -0.29518217435E+03  0.40021138623E+03  0.10100000352E+00 0.  1.
</event>
<event>
 5   0  0.1121480E-02  0.7996083E+03  0.7818609E-02  0.9560584E-01
        2   -1    0    0  501    0  0.00000000000E+00  0.00000000000E+00  0.17937927221E+03  0.17937927223E+03  0.25500000920E-02 0. -1.
       -2   -1    0    0    0  501  0.00000000000E+00  0.00000000000E+00 -0.89109152389E+03  0.89109152389E+03  0.25500000920E-02 0.  1.
    10030    2    1    2    0    0  0.00000000000E+00  0.00000000000E+00 -0.71171225168E+03  0.10704707961E+04  0.79960827670E+03 0.  0.
        2    1    3    3  502    0 -0.12866689296E+03 -0.19873752643E+02  0.15020542796E+03  0.19877576810E+03  0.25500000920E-02 0. -1.
       -2    1    3    3    0  502  0.12866689296E+03  0.19873752643E+02 -0.86191767964E+03  0.87169502802E+03  0.25500000920E-02 0.  1.
</event>
<event>
 5   0  0.1121480E-02  0.7033295E+03  0.7818609E-02  0.9711555E-01
       -2   -1    0    0    0  501  0.00000000000E+00  0.00000000000E+00  0.11627915193E+03  0.11627915196E+03  0.25500000920E-02 0. -1.
        2   -1    0    0  501    0  0.00000000000E+00  0.00000000000E+00 -0.10635449746E+04  0.10635449746E+04  0.25500000920E-02 0.  1.
    10030    2    1    2    0    0  0.00000000000E+00  0.00000000000E+00 -0.94726582265E+03  0.11798241265E+04  0.70332953217E+03 0.  0.
        2    1    3    3  502    0 -0.83071977191E+02 -0.88090006606E+02  0.80209514631E+02  0.14523900613E+03  0.25500000920E-02 0. -1.
       -2    1    3    3    0  502  0.83071977191E+02  0.88090006606E+02 -0.10274753373E+04  0.10345851204E+04  0.25500000920E-02 0.  1.
</event>
<event>
 5   0  0.6557679E-03  0.8026425E+03  0.7818609E-02  0.9556200E-01
        1   -1    0    0  501    0  0.00000000000E+00  0.00000000000E+00  0.45586202159E+03  0.45586202162E+03  0.50400001928E-02 0. -1.
       -1   -1    0    0    0  501  0.00000000000E+00  0.00000000000E+00 -0.35330587100E+03  0.35330587104E+03  0.50400001928E-02 0.  1.
    10030    2    1    2    0    0  0.00000000000E+00  0.00000000000E+00  0.10255615059E+03  0.80916789266E+03  0.80264245744E+03 0.  0.
        1    1    3    3  502    0 -0.32914747351E+03 -0.11379776244E+03 -0.14976926907E+03  0.37910265634E+03  0.50400001928E-02 0.  1.
       -1    1    3    3    0  502  0.32914747351E+03  0.11379776244E+03  0.25232541967E+03  0.43006523632E+03  0.50400001928E-02 0. -1.
</event>
<event>
 5   0  0.1092868E-02  0.7978967E+03  0.7818609E-02  0.9563067E-01
       -2   -1    0    0    0  501  0.00000000000E+00  0.00000000000E+00  0.26555178409E+03  0.26555178410E+03  0.25500000920E-02 0.  1.
        2   -1    0    0  501    0  0.00000000000E+00  0.00000000000E+00 -0.59935501137E+03  0.59935501138E+03  0.25500000920E-02 0. -1.
    10030    2    1    2    0    0  0.00000000000E+00  0.00000000000E+00 -0.33380322728E+03  0.86490679548E+03  0.79789671657E+03 0.  0.
        3    1    3    3  502    0 -0.24794957353E+03 -0.10050023099E+03  0.15389245444E+03  0.30864572762E+03  0.10100000352E+00 0.  1.
       -3    1    3    3    0  502  0.24794957353E+03  0.10050023099E+03 -0.48769568172E+03  0.55626106786E+03  0.10100000352E+00 0. -1.
</event>
<event>
 5   0  0.1121480E-02  0.8034333E+03  0.7818609E-02  0.9555061E-01
       -2   -1    0    0    0  501  0.00000000000E+00  0.00000000000E+00  0.12720505281E+03  0.12720505283E+03  0.25500000920E-02 0.  1.
        2   -1    0    0  501    0  0.00000000000E+00  0.00000000000E+00 -0.12686308585E+04  0.12686308585E+04  0.25500000920E-02 0. -1.
    10030    2    1    2    0    0  0.00000000000E+00  0.00000000000E+00 -0.11414258057E+04  0.13958359113E+04  0.80343327132E+03 0.  0.
        2    1    3    3  502    0 -0.15865848820E+03  0.32677436721E+03 -0.86871719096E+03  0.94160690355E+03  0.25500000920E-02 0.  1.
       -2    1    3    3    0  502  0.15865848820E+03 -0.32677436721E+03 -0.27270861469E+03  0.45422900775E+03  0.25500000920E-02 0. -1.
</event>
<event>
 5   0  0.6517392E-03  0.8010431E+03  0.7818609E-02  0.9558508E-01
        1   -1    0    0  501    0  0.00000000000E+00  0.00000000000E+00  0.37176282474E+03  0.37176282477E+03  0.50400001928E-02 0.  1.
       -1   -1    0    0    0  501  0.00000000000E+00  0.00000000000E+00 -0.43150499033E+03  0.43150499036E+03  0.50400001928E-02 0. -1.
    10030    2    1    2    0    0  0.00000000000E+00  0.00000000000E+00 -0.59742165586E+02  0.80326781513E+03  0.80104310526E+03 0.  0.
        3    1    3    3  502    0 -0.14199541641E+03  0.34028539118E+03  0.12696231406E+03  0.38996959513E+03  0.10100000352E+00 0.  1.
       -3    1    3    3    0  502  0.14199541641E+03 -0.34028539118E+03 -0.18670447965E+03  0.41329822000E+03  0.10100000352E+00 0. -1.
</event>
<event>
 5   0  0.6517392E-03  0.8089626E+03  0.7818609E-02  0.9547134E-01
        1   -1    0    0  501    0  0.00000000000E+00  0.00000000000E+00  0.16554606988E+04  0.16554606988E+04  0.50400001928E-02 0. -1.
       -1   -1    0    0    0  501  0.00000000000E+00  0.00000000000E+00 -0.98827548539E+02  0.98827548668E+02  0.50400001928E-02 0.  1.
    10030    2    1    2    0    0  0.00000000000E+00  0.00000000000E+00  0.15566331503E+04  0.17542882475E+04  0.80896260157E+03 0.  0.
        3    1    3    3  502    0  0.35967652427E+03 -0.11123689424E+03  0.10989729940E+04  0.11616722861E+04  0.10100000352E+00 0. -1.
       -3    1    3    3    0  502 -0.35967652427E+03  0.11123689424E+03  0.45766015630E+03  0.59261596132E+03  0.10100000352E+00 0.  1.
</event>
<event>
 5   0  0.6551489E-03  0.8008570E+03  0.7818609E-02  0.9558778E-01
       -1   -1    0    0    0  501  0.00000000000E+00  0.00000000000E+00  0.75813092896E+03  0.75813092898E+03  0.50400001928E-02 0.  1.
        1   -1    0    0  501    0  0.00000000000E+00  0.00000000000E+00 -0.21149773438E+03  0.21149773444E+03  0.50400001928E-02 0. -1.
    10030    2    1    2    0    0  0.00000000000E+00  0.00000000000E+00  0.54663319458E+03  0.96962866342E+03  0.80085697569E+03 0.  0.
        4    1    3    3  502    0  0.20273655408E+03 -0.33184423226E+03  0.38893205474E+03  0.54999314627E+03  0.12699999809E+01 0. -1.
       -4    1    3    3    0  502 -0.20273655408E+03  0.33184423226E+03  0.15770113984E+03  0.41963551714E+03  0.12699999809E+01 0.  1.
</event>
<event>
 5   0  0.1092868E-02  0.7988155E+03  0.7818609E-02  0.9561733E-01
       -2   -1    0    0    0  501  0.00000000000E+00  0.00000000000E+00  0.10388164694E+03  0.10388164698E+03  0.25500000920E-02 0.  1.
        2   -1    0    0  501    0  0.00000000000E+00  0.00000000000E+00 -0.15356566035E+04  0.15356566036E+04  0.25500000920E-02 0. -1.
    10030    2    1    2    0    0  0.00000000000E+00  0.00000000000E+00 -0.14317749566E+04  0.16395382505E+04  0.79881546591E+03 0.  0.
        3    1    3    3  502    0  0.32304000763E+03  0.23439759895E+03 -0.68479786264E+03  0.79261920479E+03  0.10100000352E+00 0.  1.
       -3    1    3    3    0  502 -0.32304000763E+03 -0.23439759895E+03 -0.74697709397E+03  0.84691904574E+03  0.10100000352E+00 0. -1.
</event>
<event>
 5   0  0.1121480E-02  0.7988938E+03  0.7818609E-02  0.9561620E-01
       -2   -1    0    0    0  501  0.00000000000E+00  0.00000000000E+00  0.72037086163E+02  0.72037086208E+02  0.25500000920E-02 0. -1.
        2   -1    0    0  501    0  0.00000000000E+00  0.00000000000E+00 -0.22149402135E+04  0.22149402135E+04  0.25500000920E-02 0.  1.
    10030    2    1    2    0    0  0.00000000000E+00  0.00000000000E+00 -0.21429031273E+04  0.22869772997E+04  0.79889383289E+03 0.  0.
        2    1    3    3  502    0  0.25351676352E+03 -0.15279534032E+03 -0.30363047633E+03  0.42403847888E+03  0.25500000920E-02 0. -1.
       -2    1    3    3    0  502 -0.25351676352E+03  0.15279534032E+03 -0.18392726510E+04  0.18629388208E+04  0.25500000920E-02 0.  1.
</event>
<event>
 5   0  0.1119792E-02  0.8131219E+03  0.7818609E-02  0.9541216E-01
        2   -1    0    0  501    0  0.00000000000E+00  0.00000000000E+00  0.41548730813E+03  0.41548730814E+03  0.25500000920E-02 0. -1.
       -2   -1    0    0    0  501  0.00000000000E+00  0.00000000000E+00 -0.39782633665E+03  0.39782633666E+03  0.25500000920E-02 0.  1.
    10030    2    1    2    0    0  0.00000000000E+00  0.00000000000E+00  0.17660971484E+02  0.81331364479E+03  0.81312186964E+03 0.  0.
        4    1    3    3  502    0 -0.66697639899E+02 -0.21034535036E+02  0.40942357522E+03  0.41535563518E+03  0.12699999809E+01 0. -1.
       -4    1    3    3    0  502  0.66697639899E+02  0.21034535036E+02 -0.39176260373E+03  0.39795800961E+03  0.12699999809E+01 0.  1.
</event>
<event>
 5   0  0.6600401E-03  0.7925514E+03  0.7818609E-02  0.9570862E-01
       -1   -1    0    0    0  501  0.00000000000E+00  0.00000000000E+00  0.72757197154E+02  0.72757197329E+02  0.50400001928E-02 0. -1.
        1   -1    0    0  501    0  0.00000000000E+00  0.00000000000E+00 -0.21583353178E+04  0.21583353178E+04  0.50400001928E-02 0.  1.
    10030    2    1    2    0    0  0.00000000000E+00  0.00000000000E+00 -0.20855781206E+04  0.22310925151E+04  0.79255139503E+03 0.  0.
        2    1    3    3  502    0  0.18483670062E+03  0.25116432319E+03 -0.35446808793E+03  0.47211836281E+03  0.25500000920E-02 0. -1.
       -2    1    3    3    0  502 -0.18483670062E+03 -0.25116432319E+03 -0.17311100327E+04  0.17589741523E+04  0.25500000920E-02 0.  1.
</event>
<event>
 5   0  0.6596225E-03  0.7780440E+03  0.7818609E-02  0.9592353E-01
       -1   -1    0    0    0  501  0.00000000000E+00  0.00000000000E+00  0.76780010072E+02  0.76780010238E+02  0.50400001928E-02 0.  1.
        1   -1    0    0  501    0  0.00000000000E+00  0.00000000000E+00 -0.19710616158E+04  0.19710616158E+04  0.50400001928E-02 0. -1.
    10030    2    1    2    0    0  0.00000000000E+00  0.00000000000E+00 -0.18942816057E+04  0.20478416260E+04  0.77804403702E+03 0.  0.
        5    1    3    3  502    0  0.36681092926E+03  0.11487515862E+03 -0.11043922769E+04  0.11693805844E+04  0.46999998093E+01 0. -1.
       -5    1    3    3    0  502 -0.36681092926E+03 -0.11487515862E+03 -0.78988932877E+03  0.87846104159E+03  0.46999998093E+01 0.  1.
</event>
<event>
 5   0  0.1092868E-02  0.8015496E+03  0.7818609E-02  0.9557777E-01
        2   -1    0    0  501    0  0.00000000000E+00  0.00000000000E+00  0.70239665407E+03  0.70239665408E+03  0.25500000920E-02 0. -1.
       -2   -1    0    0    0  501  0.00000000000E+00  0.00000000000E+00 -0.22867484193E+03  0.22867484194E+03  0.25500000920E-02 0.  1.
    10030    2    1    2    0    0  0.00000000000E+00  0.00000000000E+00  0.47372181214E+03  0.93107149602E+03  0.80154960882E+03 0.  0.
        3    1    3    3  502    0 -0.27947065119E+03  0.16167122793E+03 -0.38949926937E+02  0.32520537792E+03  0.10100000352E+00 0.  1.
       -3    1    3    3    0  502  0.27947065119E+03 -0.16167122793E+03  0.51267173908E+03  0.60586611811E+03  0.10100000352E+00 0. -1.
</event>
<event>
 5   0  0.1121480E-02  0.8058912E+03  0.7818609E-02  0.9551529E-01
        2   -1    0    0  501    0  0.00000000000E+00  0.00000000000E+00  0.17405439223E+04  0.17405439223E+04  0.25500000920E-02 0.  1.
       -2   -1    0    0    0  501  0.00000000000E+00  0.00000000000E+00 -0.93284153732E+02  0.93284153767E+02  0.25500000920E-02 0. -1.
    10030    2    1    2    0    0  0.00000000000E+00  0.00000000000E+00  0.16472597686E+04  0.18338280761E+04  0.80589122556E+03 0.  0.
        2    1    3    3  502    0  0.22163994156E+03 -0.20247495545E+03  0.14352552290E+04  0.14663144082E+04  0.25500000920E-02 0.  1.
       -2    1    3    3    0  502 -0.22163994156E+03  0.20247495545E+03  0.21200453958E+03  0.36751366789E+03  0.25500000920E-02 0. -1.
</event>
<event>
 5   0  0.6557679E-03  0.7946145E+03  0.7818609E-02  0.9567845E-01
       -1   -1    0    0    0  501  0.00000000000E+00  0.00000000000E+00  0.23103439220E+03  0.23103439225E+03  0.50400001928E-02 0. -1.
        1   -1    0    0  501    0  0.00000000000E+00  0.00000000000E+00 -0.68324486361E+03  0.68324486363E+03  0.50400001928E-02 0.  1.
    10030    2    1    2    0    0  0.00000000000E+00  0.00000000000E+00 -0.45221047141E+03  0.91427925588E+03  0.79461452748E+03 0.  0.
        1    1    3    3  502    0 -0.15861756648E+03 -0.18447738778E+03 -0.58751217963E+03  0.63589464555E+03  0.50400001928E-02 0.  1.
       -1    1    3    3    0  502  0.15861756648E+03  0.18447738778E+03  0.13530170822E+03  0.27838461033E+03  0.50400001928E-02 0. -1.
</event>
<event>
 5   0  0.6517392E-03  0.7759235E+03  0.7818609E-02  0.9595536E-01
       -1   -1    0    0    0  501  0.00000000000E+00  0.00000000000E+00  0.15074780519E+03  0.15074780527E+03  0.50400001928E-02 0.  1.
        1   -1    0    0  501    0  0.00000000000E+00  0.00000000000E+00 -0.99845123941E+03  0.99845123942E+03  0.50400001928E-02 0. -1.
    10030    2    1    2    0    0  0.00000000000E+00  0.00000000000E+00 -0.84770343422E+03  0.11491990447E+04  0.77592353485E+03 0.  0.
        3    1    3    3  502    0  0.37506086057E+03  0.48857395365E+02 -0.29595847802E+03  0.48025943523E+03  0.10100000352E+00 0.  1.
       -3    1    3    3    0  502 -0.37506086057E+03 -0.48857395365E+02 -0.55174495620E+03  0.66893960946E+03  0.10100000352E+00 0. -1.
</event>
<event>
 5   0  0.6551489E-03  0.7765587E+03  0.7818609E-02  0.9594581E-01
       -1   -1    0    0    0  501  0.00000000000E+00  0.00000000000E+00  0.11649171608E+03  0.11649171619E+03  0.50400001928E-02 0. -1.
        1   -1    0    0  501    0  0.00000000000E+00  0.00000000000E+00 -0.12941766854E+04  0.12941766854E+04  0.50400001928E-02 0.  1.
    10030    2    1    2    0    0  0.00000000000E+00  0.00000000000E+00 -0.11776849694E+04  0.14106684016E+04  0.77655872433E+03 0.  0.
        4    1    3    3  502    0  0.45662511949E+02 -0.29107615380E+03 -0.12946782842E+03  0.32182902884E+03  0.12699999809E+01 0. -1.
       -4    1    3    3    0  502 -0.45662511949E+02  0.29107615380E+03 -0.10482171409E+04  0.10888393728E+04  0.12699999809E+01 0.  1.
</event>
<event>
 5   0  0.4385875E-03  0.7963098E+03  0.7818609E-02  0.9565374E-01
        3   -1    0    0  501    0  0.00000000000E+00  0.00000000000E+00  0.22630907582E+03  0.22630909836E+03  0.10100000352E+00 0.  1.
       -3   -1    0    0    0  501  0.00000000000E+00  0.00000000000E+00 -0.70049033323E+03  0.70049034051E+03  0.10100000352E+00 0. -1.
    10030    2    1    2    0    0  0.00000000000E+00  0.00000000000E+00 -0.47418125741E+03  0.92679943887E+03  0.79630982351E+03 0.  0.
        4    1    3    3  502    0  0.28077355362E+02 -0.78904955750E+02  0.21593871322E+03  0.23161491898E+03  0.12699999809E+01 0.  1.
       -4    1    3    3    0  502 -0.28077355362E+02  0.78904955750E+02 -0.69011997064E+03  0.69518451989E+03  0.12699999809E+01 0. -1.
</event>
<event>
 5   0  0.6557679E-03  0.7899092E+03  0.7818609E-02  0.9574739E-01
        1   -1    0    0  501    0  0.00000000000E+00  0.00000000000E+00  0.36982867850E+03  0.36982867854E+03  0.50400001928E-02 0. -1.
       -1   -1    0    0    0  501  0.00000000000E+00  0.00000000000E+00 -0.42178753117E+03  0.42178753120E+03  0.50400001928E-02 0.  1.
    10030    2    1    2    0    0  0.00000000000E+00  0.00000000000E+00 -0.51958852664E+02  0.79161620973E+03  0.78990917272E+03 0.  0.
        1    1    3    3  502    0 -0.31382611188E+03 -0.18458922042E+03  0.12741708307E+03  0.38573970741E+03  0.50400001928E-02 0. -1.
       -1    1    3    3    0  502  0.31382611188E+03  0.18458922042E+03 -0.17937593574E+03  0.40587650232E+03  0.50400001928E-02 0.  1.
</event>
<event>
 5   0  0.1092868E-02  0.7935933E+03  0.7818609E-02  0.9569337E-01
       -2   -1    0    0    0  501  0.00000000000E+00  0.00000000000E+00  0.13245685022E+03  0.13245685024E+03  0.25500000920E-02 0.  1.
        2   -1    0    0  501    0  0.00000000000E+00  0.00000000000E+00 -0.11886707300E+04  0.11886707300E+04  0.25500000920E-02 0. -1.
    10030    2    1    2    0    0  0.00000000000E+00  0.00000000000E+00 -0.10562138798E+04  0.13211275803E+04  0.79359329853E+03 0.  0.
        3    1    3    3  502    0  0.10820884681E+03  0.93905109506E+02  0.87892906095E+02  0.16808479188E+03  0.10100000352E+00 0.  1.
       -3    1    3    3    0  502 -0.10820884681E+03 -0.93905109506E+02 -0.11441067859E+04  0.11530427884E+04  0.10100000352E+00 0. -1.
</event>
<event>
 5   0  0.6600401E-03  0.8007164E+03  0.7818609E-02  0.9558981E-01
       -1   -1    0    0    0  501  0.00000000000E+00  0.00000000000E+00  0.24398723475E+03  0.24398723480E+03  0.50400001928E-02 0. -1.
        1   -1    0    0  501    0  0.00000000000E+00  0.00000000000E+00 -0.65694696474E+03  0.65694696476E+03  0.50400001928E-02 0.  1.
    10030    2    1    2    0    0  0.00000000000E+00  0.00000000000E+00 -0.41295972999E+03  0.90093419956E+03  0.80071636261E+03 0.  0.
        2    1    3    3  502    0  0.32164649143E+03 -0.23719771094E+03 -0.23328263166E+03  0.46275263994E+03  0.25500000920E-02 0.  1.
       -2    1    3    3    0  502 -0.32164649143E+03  0.23719771094E+03 -0.17967709833E+03  0.43818155963E+03  0.25500000920E-02 0. -1.
</event>
<event>
 5   0  0.1106332E-02  0.7560254E+03  0.7818609E-02  0.9625945E-01
        2   -1    0    0  501    0  0.00000000000E+00  0.00000000000E+00  0.11754814963E+04  0.11754814963E+04  0.25500000920E-02 0.  1.
       -2   -1    0    0    0  501  0.00000000000E+00  0.00000000000E+00 -0.12156175742E+03  0.12156175745E+03  0.25500000920E-02 0. -1.
    10030    2    1    2    0    0  0.00000000000E+00  0.00000000000E+00  0.10539197389E+04  0.12970432538E+04  0.75602538721E+03 0.  0.
        1    1    3    3  502    0  0.28931724104E+03 -0.54152010752E+02  0.12004349268E+03  0.31787945261E+03  0.50400001928E-02 0. -1.
       -1    1    3    3    0  502 -0.28931724104E+03  0.54152010752E+02  0.93387624619E+03  0.97916380114E+03  0.50400001928E-02 0.  1.
</event>
<event>
 5   0  0.6600401E-03  0.8009715E+03  0.7818609E-02  0.9558612E-01
        1   -1    0    0  501    0  0.00000000000E+00  0.00000000000E+00  0.51731703110E+03  0.51731703112E+03  0.50400001928E-02 0. -1.
       -1   -1    0    0    0  501  0.00000000000E+00  0.00000000000E+00 -0.31003972993E+03  0.31003972997E+03  0.50400001928E-02 0.  1.
    10030    2    1    2    0    0  0.00000000000E+00  0.00000000000E+00  0.20727730117E+03  0.82735676109E+03  0.80097149172E+03 0.  0.
        2    1    3    3  502    0  0.21042949315E+02 -0.36147217179E+03 -0.73123871206E+02  0.36939414890E+03  0.25500000920E-02 0.  1.
       -2    1    3    3    0  502 -0.21042949315E+02  0.36147217179E+03  0.28040117237E+03  0.45796261219E+03  0.25500000920E-02 0. -1.
</event>
<event>
 5   0  0.6517392E-03  0.8004664E+03  0.7818609E-02  0.9559342E-01
       -1   -1    0    0    0  501  0.00000000000E+00  0.00000000000E+00  0.36161345159E+03  0.36161345163E+03  0.50400001928E-02 0.  1.
        1   -1    0    0  501    0  0.00000000000E+00  0.00000000000E+00 -0.44297752304E+03  0.44297752307E+03  0.50400001928E-02 0. -1.
    10030    2    1    2    0    0  0.00000000000E+00  0.00000000000E+00 -0.81364071449E+02  0.80459097470E+03  0.80046644179E+03 0.  0.
        3    1    3    3  502    0 -0.33877379486E+03 -0.21021287236E+03 -0.75926723323E+02  0.40585959802E+03  0.10100000352E+00 0.  1.
       -3    1    3    3    0  502  0.33877379486E+03  0.21021287236E+03 -0.54373481262E+01  0.39873137668E+03  0.10100000352E+00 0. -1.
</event>
<event>
 5   0  0.1106332E-02  0.7964126E+03  0.7818609E-02  0.9565224E-01
       -2   -1    0    0    0  501  0.00000000000E+00  0.00000000000E+00  0.21731047369E+03  0.21731047371E+03  0.25500000920E-02 0.  1.
        2   -1    0    0  501    0  0.00000000000E+00  0.00000000000E+00 -0.72968526674E+03  0.72968526675E+03  0.25500000920E-02 0. -1.
    10030    2    1    2    0    0  0.00000000000E+00  0.00000000000E+00 -0.51237479305E+03  0.94699574045E+03  0.79641258395E+03 0.  0.
        1    1    3    3  502    0 -0.29702940227E+02  0.28589898222E+02 -0.72714078702E+03  0.72830856861E+03  0.50400001928E-02 0. -1.
       -1    1    3    3    0  502  0.29702940227E+02 -0.28589898222E+02  0.21476599397E+03  0.21868717184E+03  0.50400001928E-02 0.  1.
</event>
<event>
 5   0  0.6551489E-03  0.8015411E+03  0.7818609E-02  0.9557789E-01
        1   -1    0    0  501    0  0.00000000000E+00  0.00000000000E+00  0.15443358472E+04  0.15443358472E+04  0.50400001928E-02 0. -1.
       -1   -1    0    0    0  501  0.00000000000E+00  0.00000000000E+00 -0.10400396584E+03  0.10400396596E+03  0.50400001928E-02 0.  1.
    10030    2    1    2    0    0  0.00000000000E+00  0.00000000000E+00  0.14403318813E+04  0.16483398131E+04  0.80154114755E+03 0.  0.
        4    1    3    3  502    0  0.10529029412E+03 -0.32322057776E+02  0.15125974717E+04  0.15166026130E+04  0.12699999809E+01 0. -1.
       -4    1    3    3    0  502 -0.10529029412E+03  0.32322057776E+02 -0.72265590361E+02  0.13173720016E+03  0.12699999809E+01 0.  1.
</event>
<event>
 5   0  0.1121480E-02  0.8010555E+03  0.7818609E-02  0.9558491E-01
       -2   -1    0    0    0  501  0.00000000000E+00  0.00000000000E+00  0.11034058990E+03  0.11034058993E+03  0.25500000920E-02 0.  1.
        2   -1    0    0  501    0  0.00000000000E+00  0.00000000000E+00 -0.14538843878E+04  0.14538843878E+04  0.25500000920E-02 0. -1.
    10030    2    1    2    0    0  0.00000000000E+00  0.00000000000E+00 -0.13435437979E+04  0.15642249778E+04  0.80105545632E+03 0.  0.
        2    1    3    3  502    0  0.17180256768E+03  0.35576996857E+03 -0.54321822148E+03  0.67169519051E+03  0.25500000920E-02 0. -1.
       -2    1    3    3    0  502 -0.17180256768E+03 -0.35576996857E+03 -0.80032557647E+03  0.89252978726E+03  0.25500000920E-02 0.  1.
</event>
<event>
 5   0  0.6517392E-03  0.8018113E+03  0.7818609E-02  0.9557399E-01
       -1   -1    0    0    0  501  0.00000000000E+00  0.00000000000E+00  0.30898659603E+03  0.30898659607E+03  0.50400001928E-02 0. -1.
        1   -1    0    0  501    0  0.00000000000E+00  0.00000000000E+00 -0.52016934067E+03  0.52016934069E+03  0.50400001928E-02 0.  1.
    10030    2    1    2    0    0  0.00000000000E+00  0.00000000000E+00 -0.21118274464E+03  0.82915593676E+03  0.80181133431E+03 0.  0.
        3    1    3    3  502    0 -0.10943104569E+03  0.13940013928E+03 -0.47746310089E+03  0.50929222997E+03  0.10100000352E+00 0.  1.
       -3    1    3    3    0  502  0.10943104569E+03 -0.13940013928E+03  0.26628035626E+03  0.31986370679E+03  0.10100000352E+00 0. -1.
</event>
<event>
 5   0  0.1092868E-02  0.7967394E+03  0.7818609E-02  0.9564749E-01
        2   -1    0    0  501    0  0.00000000000E+00  0.00000000000E+00  0.89961665756E+03  0.89961665757E+03  0.25500000920E-02 0. -1.
       -2   -1    0    0    0  501  0.00000000000E+00  0.00000000000E+00 -0.17640672691E+03  0.17640672693E+03  0.25500000920E-02 0.  1.
    10030    2    1    2    0    0  0.00000000000E+00  0.00000000000E+00  0.72320993065E+03  0.10760233845E+04  0.79673943055E+03 0.  0.
        3    1    3    3  502    0 -0.27629013062E+03  0.26633008044E+03  0.50599508539E+03  0.63505825297E+03  0.10100000352E+00 0. -1.
       -3    1    3    3    0  502  0.27629013062E+03 -0.26633008044E+03  0.21721484526E+03  0.44096513153E+03  0.10100000352E+00 0.  1.
</event>
<event>
 5   0  0.6600401E-03  0.7091531E+03  0.7818609E-02  0.9701706E-01
       -1   -1    0    0    0  501  0.00000000000E+00  0.00000000000E+00  0.56694608392E+03  0.56694608394E+03  0.50400001928E-02 0.  1.
        1   -1    0    0  501    0  0.00000000000E+00  0.00000000000E+00 -0.22175747042E+03  0.22175747048E+03  0.50400001928E-02 0. -1.
    10030    2    1    2    0    0  0.00000000000E+00  0.00000000000E+00  0.34518861350E+03  0.78870355442E+03  0.70915309903E+03 0.  0.
        2    1    3    3  502    0 -0.18973442097E+03  0.77444770729E+02  0.49441082986E+03  0.53519988014E+03  0.25500000920E-02 0.  1.
       -2    1    3    3    0  502  0.18973442097E+03 -0.77444770729E+02 -0.14922221636E+03  0.25350367428E+03  0.25500000920E-02 0. -1.
</event>
<event>
 5   0  0.1121480E-02  0.8044720E+03  0.7818609E-02  0.9553566E-01
        2   -1    0    0  501    0  0.00000000000E+00  0.00000000000E+00  0.39782778996E+03  0.39782778997E+03  0.25500000920E-02 0.  1.
       -2   -1    0    0    0  501  0.00000000000E+00  0.00000000000E+00 -0.40669310309E+03  0.40669310310E+03  0.25500000920E-02 0. -1.
    10030    2    1    2    0    0  0.00000000000E+00  0.00000000000E+00 -0.88653131232E+01  0.80452089307E+03  0.80447204650E+03 0.  0.
        2    1    3    3  502    0  0.36297750808E+03  0.16264746370E+03  0.55462127665E+02  0.40160044377E+03  0.25500000920E-02 0.  1.
       -2    1    3    3    0  502 -0.36297750808E+03 -0.16264746370E+03 -0.64327440788E+02  0.40292044930E+03  0.25500000920E-02 0. -1.
</event>
<event>
 5   0  0.1106332E-02  0.7965377E+03  0.7818609E-02  0.9565042E-01
       -2   -1    0    0    0  501  0.00000000000E+00  0.00000000000E+00  0.13527799699E+03  0.13527799701E+03  0.25500000920E-02 0.  1.
        2   -1    0    0  501    0  0.00000000000E+00  0.00000000000E+00 -0.11725342624E+04  0.11725342624E+04  0.25500000920E-02 0. -1.
    10030    2    1    2    0    0  0.00000000000E+00  0.00000000000E+00 -0.10372562654E+04  0.13078122594E+04  0.79653772397E+03 0.  0.
        1    1    3    3  502    0 -0.10730483520E+03 -0.12918384112E+03 -0.11115579867E+04  0.11241725625E+04  0.50400001928E-02 0. -1.
       -1    1    3    3    0  502  0.10730483520E+03  0.12918384112E+03  0.74301721294E+02  0.18363969690E+03  0.50400001928E-02 0.  1.
</event>
<event>
 5   0  0.6557679E-03  0.8015179E+03  0.7818609E-02  0.9557823E-01
        1   -1    0    0  501    0  0.00000000000E+00  0.00000000000E+00  0.16075291012E+04  0.16075291012E+04  0.50400001928E-02 0.  1.
       -1   -1    0    0    0  501  0.00000000000E+00  0.00000000000E+00 -0.99909702328E+02  0.99909702456E+02  0.50400001928E-02 0. -1.
    10030    2    1    2    0    0  0.00000000000E+00  0.00000000000E+00  0.15076193988E+04  0.17074388036E+04  0.80151794514E+03 0.  0.
        1    1    3    3  502    0  0.25977186546E+03 -0.13882241376E+03  0.13327327956E+04  0.13648918599E+04  0.50400001928E-02 0.  1.
       -1    1    3    3    0  502 -0.25977186546E+03  0.13882241376E+03  0.17488660319E+03  0.34254694371E+03  0.50400001928E-02 0. -1.
</event>
<event>
 5   0  0.6600401E-03  0.8050618E+03  0.7818609E-02  0.9552719E-01
        1   -1    0    0  501    0  0.00000000000E+00  0.00000000000E+00  0.10356241490E+04  0.10356241490E+04  0.50400001928E-02 0.  1.
       -1   -1    0    0    0  501  0.00000000000E+00  0.00000000000E+00 -0.15645744431E+03  0.15645744439E+03  0.50400001928E-02 0. -1.
    10030    2    1    2    0    0  0.00000000000E+00  0.00000000000E+00  0.87916670470E+03  0.11920815934E+04  0.80506175583E+03 0.  0.
        2    1    3    3  502    0  0.18563959143E+03  0.16316173962E+03  0.91004489932E+03  0.94300876452E+03  0.25500000920E-02 0.  1.
       -2    1    3    3    0  502 -0.18563959143E+03 -0.16316173962E+03 -0.30878194622E+02  0.24907282889E+03  0.25500000920E-02 0. -1.
</event>
<event>
 5   0  0.1121480E-02  0.8148563E+03  0.7818609E-02  0.9538759E-01
        2   -1    0    0  501    0  0.00000000000E+00  0.00000000000E+00  0.97279069990E+03  0.97279069990E+03  0.25500000920E-02 0.  1.
       -2   -1    0    0    0  501  0.00000000000E+00  0.00000000000E+00 -0.17064070148E+03  0.17064070150E+03  0.25500000920E-02 0. -1.
    10030    2    1    2    0    0  0.00000000000E+00  0.00000000000E+00  0.80214999842E+03  0.11434314014E+04  0.81485627551E+03 0.  0.
        2    1    3    3  502    0  0.23635144880E+03  0.33158474911E+03  0.42027590571E+03  0.58518568858E+03  0.25500000920E-02 0. -1.
       -2    1    3    3    0  502 -0.23635144880E+03 -0.33158474911E+03  0.38187409271E+03  0.55824571282E+03  0.25500000920E-02 0.  1.
</event>
<event>
 5   0  0.1119792E-02  0.7982391E+03  0.7818609E-02  0.9562569E-01
       -2   -1    0    0    0  501  0.00000000000E+00  0.00000000000E+00  0.20340991261E+03  0.20340991263E+03  0.25500000920E-02 0. -1.
        2   -1    0    0  501    0  0.00000000000E+00  0.00000000000E+00 -0.78312998712E+03  0.78312998713E+03  0.25500000920E-02 0.  1.
    10030    2    1    2    0    0  0.00000000000E+00  0.00000000000E+00 -0.57972007451E+03  0.98653989976E+03  0.79823906759E+03 0.  0.
        4    1    3    3  502    0 -0.13611622871E+03  0.36368037897E+03 -0.40382904143E+03  0.56024151343E+03  0.12699999809E+01 0.  1.
       -4    1    3    3    0  502  0.13611622871E+03 -0.36368037897E+03 -0.17589103308E+03  0.42629838632E+03  0.12699999809E+01 0. -1.
</event>
<event>
 5   0  0.1092868E-02  0.8001219E+03  0.7818609E-02  0.9559841E-01
        2   -1    0    0  501    0  0.00000000000E+00  0.00000000000E+00  0.80665815071E+03  0.80665815071E+03  0.25500000920E-02 0. -1.
       -2   -1    0    0    0  501  0.00000000000E+00  0.00000000000E+00 -0.19840966154E+03  0.19840966155E+03  0.25500000920E-02 0.  1.
    10030    2    1    2    0    0  0.00000000000E+00  0.00000000000E+00  0.60824848917E+03  0.10050678123E+04  0.80012191738E+03 0.  0.
        3    1    3    3  502    0  0.33649147822E+03  0.21269008709E+03  0.35413661617E+03  0.53280047032E+03  0.10100000352E+00 0. -1.
       -3    1    3    3    0  502 -0.33649147822E+03 -0.21269008709E+03  0.25411187300E+03  0.47226734194E+03  0.10100000352E+00 0.  1.
</event>
<event>
 5   0  0.1154714E-02  0.7982902E+03  0.7818609E-02  0.9562495E-01
        2   -1    0    0  501    0  0.00000000000E+00  0.00000000000E+00  0.71373214221E+03  0.71373214221E+03  0.25500000920E-02 0.  1.
       -2   -1    0    0    0  501  0.00000000000E+00  0.00000000000E+00 -0.22321655441E+03  0.22321655442E+03  0.25500000920E-02 0. -1.
    10030    2    1    2    0    0  0.00000000000E+00  0.00000000000E+00  0.49051558780E+03  0.93694869664E+03  0.79829024688E+03 0.  0.
        5    1    3    3  502    0  0.14967918071E+03 -0.51980813792E+02 -0.18468754789E+03  0.24338743288E+03  0.46999998093E+01 0. -1.
       -5    1    3    3    0  502 -0.14967918071E+03  0.51980813792E+02  0.67520313569E+03  0.69356126375E+03  0.46999998093E+01 0.  1.
</event>
<event>
 5   0  0.6551489E-03  0.8010144E+03  0.7818609E-02  0.9558550E-01
       -1   -1    0    0    0  501  0.00000000000E+00  0.00000000000E+00  0.84158794664E+02  0.84158794815E+02  0.50400001928E-02 0. -1.
        1   -1    0    0  501    0  0.00000000000E+00  0.00000000000E+00 -0.19059921239E+04  0.19059921239E+04  0.50400001928E-02 0.  1.
    10030    2    1    2    0    0  0.00000000000E+00  0.00000000000E+00 -0.18218333292E+04  0.19901509187E+04  0.80101435678E+03 0.  0.
        4    1    3    3  502    0 -0.17806102187E+03  0.28989067159E+03 -0.14359840915E+04  0.14757351568E+04  0.12699999809E+01 0.  1.
       -4    1    3    3    0  502  0.17806102187E+03 -0.28989067159E+03 -0.38584923772E+03  0.51441576194E+03  0.12699999809E+01 0. -1.
</event>
<event>
 5   0  0.6517392E-03  0.7835696E+03  0.7818609E-02  0.9584109E-01
        1   -1    0    0  501    0  0.00000000000E+00  0.00000000000E+00  0.10944520160E+04  0.10944520160E+04  0.50400001928E-02 0. -1.
       -1   -1    0    0    0  501  0.00000000000E+00  0.00000000000E+00 -0.14024856093E+03  0.14024856102E+03  0.50400001928E-02 0.  1.
    10030    2    1    2    0    0  0.00000000000E+00  0.00000000000E+00  0.95420345505E+03  0.12347005770E+04  0.78356957652E+03 0.  0.
        3    1    3    3  502    0  0.34336555603E+03  0.18865825923E+03  0.47416803371E+03  0.61508306613E+03  0.10100000352E+00 0. -1.
       -3    1    3    3    0  502 -0.34336555603E+03 -0.18865825923E+03  0.48003542133E+03  0.61961751088E+03  0.10100000352E+00 0.  1.
</event>
<event>
 5   0  0.6557679E-03  0.7992703E+03  0.7818609E-02  0.9561074E-01
       -1   -1    0    0    0  501  0.00000000000E+00  0.00000000000E+00  0.87237666778E+02  0.87237666924E+02  0.50400001928E-02 0.  1.
        1   -1    0    0  501    0  0.00000000000E+00  0.00000000000E+00 -0.18307260178E+04  0.18307260178E+04  0.50400001928E-02 0. -1.
    10030    2    1    2    0    0  0.00000000000E+00  0.00000000000E+00 -0.17434883510E+04  0.19179636847E+04  0.79927033336E+03 0.  0.
        1    1    3    3  502    0  0.36293784932E+03 -0.15343947047E+03 -0.10316532215E+04  0.11043441144E+04  0.50400001928E-02 0. -1.
       -1    1    3    3    0  502 -0.36293784932E+03  0.15343947047E+03 -0.71183512953E+03  0.81361957033E+03  0.50400001928E-02 0.  1.
</event>
<event>
 5   0  0.1119792E-02  0.7981131E+03  0.7818609E-02  0.9562752E-01
        2   -1    0    0  501    0  0.00000000000E+00  0.00000000000E+00  0.11973972600E+04  0.11973972600E+04  0.25500000920E-02 0.  1.
       -2   -1    0    0    0  501  0.00000000000E+00  0.00000000000E+00 -0.13299356578E+03  0.13299356580E+03  0.25500000920E-02 0. -1.
    10030    2    1    2    0    0  0.00000000000E+00  0.00000000000E+00  0.10644036942E+04  0.13303908258E+04  0.79811310294E+03 0.  0.
        4    1    3    3  502    0  0.38101390902E+03 -0.11215839139E+03  0.59661951797E+03  0.71673395744E+03  0.12699999809E+01 0. -1.
       -4    1    3    3    0  502 -0.38101390902E+03  0.11215839139E+03  0.46778417621E+03  0.61365686832E+03  0.12699999809E+01 0.  1.
</event>
<event>
 5   0  0.1119792E-02  0.7953996E+03  0.7818609E-02  0.9566700E-01
       -2   -1    0    0    0  501  0.00000000000E+00  0.00000000000E+00  0.54231418103E+03  0.54231418103E+03  0.25500000920E-02 0.  1.
        2   -1    0    0  501    0  0.00000000000E+00  0.00000000000E+00 -0.29164854398E+03  0.29164854399E+03  0.25500000920E-02 0. -1.
    10030    2    1    2    0    0  0.00000000000E+00  0.00000000000E+00  0.25066563705E+03  0.83396272502E+03  0.79539962606E+03 0.  0.
        4    1    3    3  502    0 -0.71552007986E+02  0.31817412908E+03 -0.11331865628E+03  0.34524947070E+03  0.12699999809E+01 0. -1.
       -4    1    3    3    0  502  0.71552007986E+02 -0.31817412908E+03  0.36398429332E+03  0.48871325432E+03  0.12699999809E+01 0.  1.
</event>
<event>
 5   0  0.6596225E-03  0.8032113E+03  0.7818609E-02  0.9555381E-01
       -1   -1    0    0    0  501  0.00000000000E+00  0.00000000000E+00  0.12262126413E+03  0.12262126424E+03  0.50400001928E-02 0. -1.
        1   -1    0    0  501    0  0.00000000000E+00  0.00000000000E+00 -0.13153272128E+04  0.13153272128E+04  0.50400001928E-02 0.  1.
    10030    2    1    2    0    0  0.00000000000E+00  0.00000000000E+00 -0.11927059487E+04  0.14379484771E+04  0.80321126901E+03 0.  0.
        5    1    3    3  502    0  0.30523382352E+03 -0.26062403458E+03 -0.57284534000E+03  0.69947583803E+03  0.46999998093E+01 0.  1.
       -5    1    3    3    0  502 -0.30523382352E+03  0.26062403458E+03 -0.61986060868E+03  0.73847263904E+03  0.46999998093E+01 0. -1.
</event>
<event>
 5   0  0.1121480E-02  0.8023923E+03  0.7818609E-02  0.9556561E-01
       -2   -1    0    0    0  501  0.00000000000E+00  0.00000000000E+00  0.12079538249E+03  0.12079538252E+03  0.25500000920E-02 0. -1.
        2   -1    0    0  501    0  0.00000000000E+00  0.00000000000E+00 -0.13324877755E+04  0.13324877755E+04  0.25500000920E-02 0.  1.
    10030    2    1    2    0    0  0.00000000000E+00  0.00000000000E+00 -0.12116923930E+04  0.14532831580E+04  0.80239234924E+03 0.  0.
        2    1    3    3  502    0 -0.38268103757E+03  0.89747918306E+02 -0.46028590532E+03  0.60527892743E+03  0.25500000920E-02 0. -1.
       -2    1    3    3    0  502  0.38268103757E+03 -0.89747918306E+02 -0.75140648767E+03  0.84800423058E+03  0.25500000920E-02 0.  1.
</event>
<event>
 5   0  0.6600401E-03  0.7989041E+03  0.7818609E-02  0.9561605E-01
       -1   -1    0    0    0  501  0.00000000000E+00  0.00000000000E+00  0.26361582808E+03  0.26361582813E+03  0.50400001928E-02 0. -1.
        1   -1    0    0  501    0  0.00000000000E+00  0.00000000000E+00 -0.60528211865E+03  0.60528211867E+03  0.50400001928E-02 0.  1.
    10030    2    1    2    0    0  0.00000000000E+00  0.00000000000E+00 -0.34166629057E+03  0.86889794679E+03  0.79890411680E+03 0.  0.
        2    1    3    3  502    0  0.26817287266E+03 -0.27877062848E+03 -0.62441275219E+02  0.39182734181E+03  0.25500000920E-02 0. -1.
       -2    1    3    3    0  502 -0.26817287266E+03  0.27877062848E+03 -0.27922501535E+03  0.47707060498E+03  0.25500000920E-02 0.  1.
</event>
<event>
 5   0  0.6517392E-03  0.7920863E+03  0.7818609E-02  0.9571543E-01
        1   -1    0    0  501    0  0.00000000000E+00  0.00000000000E+00  0.66749164188E+03  0.66749164190E+03  0.50400001928E-02 0.  1.
       -1   -1    0    0    0  501  0.00000000000E+00  0.00000000000E+00 -0.23498448719E+03  0.23498448725E+03  0.50400001928E-02 0. -1.
    10030    2    1    2    0    0  0.00000000000E+00  0.00000000000E+00  0.43250715469E+03  0.90247612915E+03  0.79208631148E+03 0.  0.
        3    1    3    3  502    0  0.24477393490E+03  0.53428217563E+02  0.56572760917E+03  0.61872174006E+03  0.10100000352E+00 0.  1.
       -3    1    3    3    0  502 -0.24477393490E+03 -0.53428217563E+02 -0.13322045448E+03  0.28375438909E+03  0.10100000352E+00 0. -1.
</event>
<event>
 5   0  0.1154714E-02  0.7937191E+03  0.7818609E-02  0.9569153E-01
        2   -1    0    0  501    0  0.00000000000E+00  0.00000000000E+00  0.11246832283E+04  0.11246832283E+04  0.25500000920E-02 0. -1.
       -2   -1    0    0    0  501  0.00000000000E+00  0.00000000000E+00 -0.14003721158E+03  0.14003721160E+03  0.25500000920E-02 0.  1.
    10030    2    1    2    0    0  0.00000000000E+00  0.00000000000E+00  0.98464601674E+03  0.12647204399E+04  0.79371910200E+03 0.  0.
        5    1    3    3  502    0 -0.12570838505E+01  0.29965611172E+01 -0.13997166325E+03  0.14008824415E+03  0.46999998093E+01 0.  1.
       -5    1    3    3    0  502  0.12570838505E+01 -0.29965611172E+01  0.11246176800E+04  0.11246321958E+04  0.46999998093E+01 0. -1.
</event>
<event>
 5   0  0.1106332E-02  0.7932058E+03  0.7818609E-02  0.9569904E-01
       -2   -1    0    0    0  501  0.00000000000E+00  0.00000000000E+00  0.10139833168E+03  0.10139833171E+03  0.25500000920E-02 0.  1.
        2   -1    0    0  501    0  0.00000000000E+00  0.00000000000E+00 -0.15512469112E+04  0.15512469112E+04  0.25500000920E-02 0. -1.
    10030    2    1    2    0    0  0.00000000000E+00  0.00000000000E+00 -0.14498485795E+04  0.16526452429E+04  0.79320577115E+03 0.  0.
        1    1    3    3  502    0 -0.22533729366E+03  0.22769804461E+03 -0.23776553973E+03  0.39894328838E+03  0.50400001928E-02 0.  1.
       -1    1    3    3    0  502  0.22533729366E+03 -0.22769804461E+03 -0.12120830397E+04  0.12537019545E+04  0.50400001928E-02 0. -1.
</event>
<event>
 5   0  0.6551489E-03  0.7947255E+03  0.7818609E-02  0.9567683E-01
        1   -1    0    0  501    0  0.00000000000E+00  0.00000000000E+00  0.91747963908E+03  0.91747963910E+03  0.50400001928E-02 0.  1.
       -1   -1    0    0    0  501  0.00000000000E+00  0.00000000000E+00 -0.17209882351E+03  0.17209882359E+03  0.50400001928E-02 0. -1.
    10030    2    1    2    0    0  0.00000000000E+00  0.00000000000E+00  0.74538081557E+03  0.10895784627E+04  0.79472552879E+03 0.  0.
        4    1    3    3  502    0  0.25834217591E+03  0.24789386108E+03  0.13640047802E+03  0.38314324935E+03  0.12699999809E+01 0. -1.
       -4    1    3    3    0  502 -0.25834217591E+03 -0.24789386108E+03  0.60898033755E+03  0.70643521333E+03  0.12699999809E+01 0.  1.
</event>
<event>
 5   0  0.6551489E-03  0.7914292E+03  0.7818609E-02  0.9572507E-01
        1   -1    0    0  501    0  0.00000000000E+00  0.00000000000E+00  0.55569951412E+03  0.55569951415E+03  0.50400001928E-02 0.  1.
       -1   -1    0    0    0  501  0.00000000000E+00  0.00000000000E+00 -0.28178904686E+03  0.28178904690E+03  0.50400001928E-02 0. -1.
    10030    2    1    2    0    0  0.00000000000E+00  0.00000000000E+00  0.27391046727E+03  0.83748856105E+03  0.79142917927E+03 0.  0.
        4    1    3    3  502    0 -0.60169479952E+02  0.38785018373E+03  0.19028978719E+03  0.43618797249E+03  0.12699999809E+01 0. -1.
       -4    1    3    3    0  502  0.60169479952E+02 -0.38785018373E+03  0.83620680079E+02  0.40130058856E+03  0.12699999809E+01 0.  1.
</event>
<event>
 5   0  0.6517392E-03  0.7979583E+03  0.7818609E-02  0.9562977E-01
        1   -1    0    0  501    0  0.00000000000E+00  0.00000000000E+00  0.59120224548E+03  0.59120224550E+03  0.50400001928E-02 0. -1.
       -1   -1    0    0    0  501  0.00000000000E+00  0.00000000000E+00 -0.26925534536E+03  0.26925534541E+03  0.50400001928E-02 0.  1.
    10030    2    1    2    0    0  0.00000000000E+00  0.00000000000E+00  0.32194690012E+03  0.86045759091E+03  0.79795830672E+03 0.  0.
        3    1    3    3  502    0 -0.27270045767E+02 -0.25572401952E+03  0.48989925728E+03  0.55329894455E+03  0.10100000352E+00 0. -1.
       -3    1    3    3    0  502  0.27270045767E+02  0.25572401952E+03 -0.16795235716E+03  0.30715864636E+03  0.10100000352E+00 0.  1.
</event>
<event>
 5   0  0.1119792E-02  0.7933721E+03  0.7818609E-02  0.9569661E-01
        2   -1    0    0  501    0  0.00000000000E+00  0.00000000000E+00  0.46363589408E+03  0.46363589409E+03  0.25500000920E-02 0.  1.
       -2   -1    0    0    0  501  0.00000000000E+00  0.00000000000E+00 -0.33940384439E+03  0.33940384440E+03  0.25500000920E-02 0. -1.
    10030    2    1    2    0    0  0.00000000000E+00  0.00000000000E+00  0.12423204969E+03  0.80303973849E+03  0.79337205611E+03 0.  0.
        4    1    3    3  502    0 -0.39155862750E+03  0.56872978255E+02  0.90843155066E+02  0.40596402076E+03  0.12699999809E+01 0. -1.
       -4    1    3    3    0  502  0.39155862750E+03 -0.56872978255E+02  0.33388894625E+02  0.39707571773E+03  0.12699999809E+01 0.  1.
</event>
<event>
 5   0  0.6596225E-03  0.7862571E+03  0.7818609E-02  0.9580125E-01
       -1   -1    0    0    0  501  0.00000000000E+00  0.00000000000E+00  0.16572053702E+03  0.16572053709E+03  0.50400001928E-02 0.  1.
        1   -1    0    0  501    0  0.00000000000E+00  0.00000000000E+00 -0.93259451858E+03  0.93259451860E+03  0.50400001928E-02 0. -1.
    10030    2    1    2    0    0  0.00000000000E+00  0.00000000000E+00 -0.76687398156E+03  0.10983150557E+04  0.78625711949E+03 0.  0.
        5    1    3    3  502    0  0.14094664506E+03  0.28199925097E+03 -0.55425102703E+02  0.32013054573E+03  0.46999998093E+01 0. -1.
       -5    1    3    3    0  502 -0.14094664506E+03 -0.28199925097E+03 -0.71144887886E+03  0.77818450996E+03  0.46999998093E+01 0.  1.
</event>
<event>
 5   0  0.1092868E-02  0.8036174E+03  0.7818609E-02  0.9554796E-01
       -2   -1    0    0    0  501  0.00000000000E+00  0.00000000000E+00  0.10593592384E+03  0.10593592387E+03  0.25500000920E-02 0. -1.
        2   -1    0    0  501    0  0.00000000000E+00  0.00000000000E+00 -0.15240368084E+04  0.15240368084E+04  0.25500000920E-02 0.  1.
    10030    2    1    2    0    0  0.00000000000E+00  0.00000000000E+00 -0.14181008845E+04  0.16299727323E+04  0.80361743955E+03 0.  0.
        3    1    3    3  502    0 -0.23579186040E+03  0.19466932060E+03 -0.18030599349E+03  0.35497071330E+03  0.10100000352E+00 0. -1.
       -3    1    3    3    0  502  0.23579186040E+03 -0.19466932060E+03 -0.12377948911E+04  0.12750020189E+04  0.10100000352E+00 0.  1.
</event>
<event>
 5   0  0.1092868E-02  0.8068108E+03  0.7818609E-02  0.9550211E-01
       -2   -1    0    0    0  501  0.00000000000E+00  0.00000000000E+00  0.21110552183E+03  0.21110552184E+03  0.25500000920E-02 0.  1.
        2   -1    0    0  501    0  0.00000000000E+00  0.00000000000E+00 -0.77087481613E+03  0.77087481613E+03  0.25500000920E-02 0. -1.
    10030    2    1    2    0    0  0.00000000000E+00  0.00000000000E+00 -0.55976929430E+03  0.98198033798E+03  0.80681083367E+03 0.  0.
        3    1    3    3  502    0 -0.15784215285E+03  0.27626238257E+03  0.21951816332E+02  0.31893093560E+03  0.10100000352E+00 0.  1.
       -3    1    3    3    0  502  0.15784215285E+03 -0.27626238257E+03 -0.58172111064E+03  0.66304940238E+03  0.10100000352E+00 0. -1.
</event>
<event>
 5   0  0.6596225E-03  0.8023432E+03  0.7818609E-02  0.9556632E-01
        1   -1    0    0  501    0  0.00000000000E+00  0.00000000000E+00  0.10707494560E+04  0.10707494560E+04  0.50400001928E-02 0. -1.
       -1   -1    0    0    0  501  0.00000000000E+00  0.00000000000E+00 -0.15030469241E+03  0.15030469249E+03  0.50400001928E-02 0.  1.
    10030    2    1    2    0    0  0.00000000000E+00  0.00000000000E+00  0.92044476357E+03  0.12210541485E+04  0.80234323750E+03 0.  0.
        5    1    3    3  502    0 -0.32815506181E+03  0.75557386126E+02  0.79198060103E+03  0.86061026347E+03  0.46999998093E+01 0. -1.
       -5    1    3    3    0  502  0.32815506181E+03 -0.75557386126E+02  0.12846416254E+03  0.36044388502E+03  0.46999998093E+01 0.  1.
</event>
<event>
 5   0  0.4385875E-03  0.8013540E+03  0.7818609E-02  0.9558059E-01
       -3   -1    0    0    0  501  0.00000000000E+00  0.00000000000E+00  0.36727050273E+03  0.36727051662E+03  0.10100000352E+00 0. -1.
        3   -1    0    0  501    0  0.00000000000E+00  0.00000000000E+00 -0.43712206366E+03  0.43712207533E+03  0.10100000352E+00 0.  1.
    10030    2    1    2    0    0  0.00000000000E+00  0.00000000000E+00 -0.69851560927E+02  0.80439259194E+03  0.80135398009E+03 0.  0.
        5    1    3    3  502    0 -0.27586773720E+03  0.93270424847E+02  0.24128589098E+03  0.37821072401E+03  0.46999998093E+01 0. -1.
       -5    1    3    3    0  502  0.27586773720E+03 -0.93270424847E+02 -0.31113745190E+03  0.42618186793E+03  0.46999998093E+01 0.  1.
</event>
<event>
 5   0  0.4385875E-03  0.8090936E+03  0.7818609E-02  0.9546947E-01
        3   -1    0    0  501    0  0.00000000000E+00  0.00000000000E+00  0.38405322397E+03  0.38405323725E+03  0.10100000352E+00 0. -1.
       -3   -1    0    0    0  501  0.00000000000E+00  0.00000000000E+00 -0.42613393496E+03  0.42613394693E+03  0.10100000352E+00 0.  1.
    10030    2    1    2    0    0  0.00000000000E+00  0.00000000000E+00 -0.42080710997E+02  0.81018718418E+03  0.80909362077E+03 0.  0.
        3    1    3    3  502    0  0.35415506743E+03 -0.35836331350E+02 -0.21351893082E+03  0.41509083157E+03  0.10100000352E+00 0.  1.
       -3    1    3    3    0  502 -0.35415506743E+03  0.35836331350E+02  0.17143821982E+03  0.39509635261E+03  0.10100000352E+00 0. -1.
</event>
<event>
 5   0  0.6596225E-03  0.8015509E+03  0.7818609E-02  0.9557775E-01
       -1   -1    0    0    0  501  0.00000000000E+00  0.00000000000E+00  0.49345972827E+03  0.49345972829E+03  0.50400001928E-02 0. -1.
        1   -1    0    0  501    0  0.00000000000E+00  0.00000000000E+00 -0.32549965260E+03  0.32549965264E+03  0.50400001928E-02 0.  1.
    10030    2    1    2    0    0  0.00000000000E+00  0.00000000000E+00  0.16796007567E+03  0.81895938093E+03  0.80155092202E+03 0.  0.
        5    1    3    3  502    0  0.36091159511E+03 -0.17089077583E+03  0.49512468620E+02  0.40241074948E+03  0.46999998093E+01 0. -1.
       -5    1    3    3    0  502 -0.36091159511E+03  0.17089077583E+03  0.11844760705E+03  0.41654863145E+03  0.46999998093E+01 0.  1.
</event>
<event>
 5   0  0.1092868E-02  0.8025697E+03  0.7818609E-02  0.9556305E-01
       -2   -1    0    0    0  501  0.00000000000E+00  0.00000000000E+00  0.30541684360E+03  0.30541684361E+03  0.25500000920E-02 0.  1.
        2   -1    0    0  501    0  0.00000000000E+00  0.00000000000E+00 -0.52724504580E+03  0.52724504580E+03  0.25500000920E-02 0. -1.
    10030    2    1    2    0    0  0.00000000000E+00  0.00000000000E+00 -0.22182820220E+03  0.83266188942E+03  0.80256966725E+03 0.  0.
        3    1    3    3  502    0 -0.70936819384E+02  0.36887575348E+03  0.35546049838E+02  0.37731271607E+03  0.10100000352E+00 0.  1.
       -3    1    3    3    0  502  0.70936819384E+02 -0.36887575348E+03 -0.25737425203E+03  0.45534917334E+03  0.10100000352E+00 0. -1.
</event>
<event>
 5   0  0.4385875E-03  0.8055914E+03  0.7818609E-02  0.9551959E-01
       -3   -1    0    0    0  501  0.00000000000E+00  0.00000000000E+00  0.48413697458E+03  0.48413698512E+03  0.10100000352E+00 0.  1.
        3   -1    0    0  501    0  0.00000000000E+00  0.00000000000E+00 -0.33512079403E+03  0.33512080925E+03  0.10100000352E+00 0. -1.
    10030    2    1    2    0    0  0.00000000000E+00  0.00000000000E+00  0.14901618055E+03  0.81925779437E+03  0.80559140485E+03 0.  0.
        2    1    3    3  502    0  0.28861259936E+03  0.64113031599E+02  0.35271183371E+03  0.46023184481E+03  0.25500000920E-02 0.  1.
       -2    1    3    3    0  502 -0.28861259936E+03 -0.64113031599E+02 -0.20369565316E+03  0.35902594955E+03  0.25500000920E-02 0. -1.
</event>
<event>
 5   0  0.1121480E-02  0.7979244E+03  0.7818609E-02  0.9563026E-01
        2   -1    0    0  501    0  0.00000000000E+00  0.00000000000E+00  0.10521104084E+04  0.10521104084E+04  0.25500000920E-02 0. -1.
       -2   -1    0    0    0  501  0.00000000000E+00  0.00000000000E+00 -0.15128719249E+03  0.15128719251E+03  0.25500000920E-02 0.  1.
    10030    2    1    2    0    0  0.00000000000E+00  0.00000000000E+00  0.90082321593E+03  0.12033976009E+04  0.79792438213E+03 0.  0.
        2    1    3    3  502    0 -0.25746000289E+03 -0.16453430711E+03  0.63505704455E+02  0.31207397490E+03  0.25500000920E-02 0.  1.
       -2    1    3    3    0  502  0.25746000289E+03  0.16453430711E+03  0.83731751147E+03  0.89132362604E+03  0.25500000920E-02 0. -1.
</event>
<event>
 5   0  0.1106332E-02  0.8021776E+03  0.7818609E-02  0.9556870E-01
       -2   -1    0    0    0  501  0.00000000000E+00  0.00000000000E+00  0.10464160907E+03  0.10464160910E+03  0.25500000920E-02 0. -1.
        2   -1    0    0  501    0  0.00000000000E+00  0.00000000000E+00 -0.15373638075E+04  0.15373638075E+04  0.25500000920E-02 0.  1.
    10030    2    1    2    0    0  0.00000000000E+00  0.00000000000E+00 -0.14327221984E+04  0.16420054166E+04  0.80217759273E+03 0.  0.
        1    1    3    3  502    0 -0.36436434568E+03  0.15572234876E+03 -0.84355791613E+03  0.93198754509E+03  0.50400001928E-02 0. -1.
       -1    1    3    3    0  502  0.36436434568E+03 -0.15572234876E+03 -0.58916428229E+03  0.71001787151E+03  0.50400001928E-02 0.  1.
</event>
<event>
 5   0  0.6557679E-03  0.8016196E+03  0.7818609E-02  0.9557676E-01
        1   -1    0    0  501    0  0.00000000000E+00  0.00000000000E+00  0.55641651662E+03  0.55641651664E+03  0.50400001928E-02 0. -1.
       -1   -1    0    0    0  501  0.00000000000E+00  0.00000000000E+00 -0.28871987939E+03  0.28871987943E+03  0.50400001928E-02 0.  1.
    10030    2    1    2    0    0  0.00000000000E+00  0.00000000000E+00  0.26769663723E+03  0.84513639607E+03  0.80161963448E+03 0.  0.
        1    1    3    3  502    0 -0.39073960709E+03 -0.67984356495E+02  0.19486221494E+03  0.44189432687E+03  0.50400001928E-02 0.  1.
       -1    1    3    3    0  502  0.39073960709E+03  0.67984356495E+02  0.72834422285E+02  0.40324206920E+03  0.50400001928E-02 0. -1.
</event>
<event>
 5   0  0.1119792E-02  0.8069989E+03  0.7818609E-02  0.9549941E-01
       -2   -1    0    0    0  501  0.00000000000E+00  0.00000000000E+00  0.57674130977E+02  0.57674131034E+02  0.25500000920E-02 0. -1.
        2   -1    0    0  501    0  0.00000000000E+00  0.00000000000E+00 -0.28229609072E+04  0.28229609072E+04  0.25500000920E-02 0.  1.
    10030    2    1    2    0    0  0.00000000000E+00  0.00000000000E+00 -0.27652867762E+04  0.28806350382E+04  0.80699892735E+03 0.  0.
        4    1    3    3  502    0 -0.17237858429E+03 -0.32879959337E+03 -0.81839627625E+03  0.89866435715E+03  0.12699999809E+01 0.  1.
       -4    1    3    3    0  502  0.17237858429E+03  0.32879959337E+03 -0.19468904999E+04  0.19819706810E+04  0.12699999809E+01 0. -1.
</event>
<event>
 5   0  0.1119792E-02  0.7978760E+03  0.7818609E-02  0.9563097E-01
       -2   -1    0    0    0  501  0.00000000000E+00  0.00000000000E+00  0.46786735509E+03  0.46786735510E+03  0.25500000920E-02 0. -1.
        2   -1    0    0  501    0  0.00000000000E+00  0.00000000000E+00 -0.34016375993E+03  0.34016375994E+03  0.25500000920E-02 0.  1.
    10030    2    1    2    0    0  0.00000000000E+00  0.00000000000E+00  0.12770359516E+03  0.80803111504E+03  0.79787597699E+03 0.  0.
        4    1    3    3  502    0 -0.35859619727E+03  0.13302937841E+03 -0.51001784059E+02  0.38586376235E+03  0.12699999809E+01 0.  1.
       -4    1    3    3    0  502  0.35859619727E+03 -0.13302937841E+03  0.17870537921E+03  0.42216735269E+03  0.12699999809E+01 0. -1.
</event>
<event>
 5   0  0.1154714E-02  0.8199397E+03  0.7818609E-02  0.9531595E-01
       -2   -1    0    0    0  501  0.00000000000E+00  0.00000000000E+00  0.30802232009E+03  0.30802232010E+03  0.25500000920E-02 0. -1.
        2   -1    0    0  501    0  0.00000000000E+00  0.00000000000E+00 -0.54565947548E+03  0.54565947548E+03  0.25500000920E-02 0.  1.
    10030    2    1    2    0    0  0.00000000000E+00  0.00000000000E+00 -0.23763715539E+03  0.85368179558E+03  0.81993974808E+03 0.  0.
        5    1    3    3  502    0 -0.51178637031E+02 -0.14339015964E+03  0.27746687679E+03  0.31652795846E+03  0.46999998093E+01 0. -1.
       -5    1    3    3    0  502  0.51178637031E+02  0.14339015964E+03 -0.51510403218E+03  0.53715383712E+03  0.46999998093E+01 0.  1.
</event>
<event>
 5   0  0.6551489E-03  0.8070230E+03  0.7818609E-02  0.9549907E-01
       -1   -1    0    0    0  501  0.00000000000E+00  0.00000000000E+00  0.20530079359E+03  0.20530079365E+03  0.50400001928E-02 0. -1.
        1   -1    0    0  501    0  0.00000000000E+00  0.00000000000E+00 -0.79308772167E+03  0.79308772169E+03  0.50400001928E-02 0.  1.
    10030    2    1    2    0    0  0.00000000000E+00  0.00000000000E+00 -0.58778692809E+03  0.99838851534E+03  0.80702301995E+03 0.  0.
        4    1    3    3  502    0  0.23279595473E+03 -0.87394675027E+02  0.99247990751E+02  0.26773786122E+03  0.12699999809E+01 0. -1.
       -4    1    3    3    0  502 -0.23279595473E+03  0.87394675027E+02 -0.68703491884E+03  0.73065065412E+03  0.12699999809E+01 0.  1.
</event>
<event>
 5   0  0.6600401E-03  0.7955695E+03  0.7818609E-02  0.9566452E-01
        1   -1    0    0  501    0  0.00000000000E+00  0.00000000000E+00  0.10743817827E+04  0.10743817827E+04  0.50400001928E-02 0. -1.
       -1   -1    0    0    0  501  0.00000000000E+00  0.00000000000E+00 -0.14727790501E+03  0.14727790509E+03  0.50400001928E-02 0.  1.
    10030    2    1    2    0    0  0.00000000000E+00  0.00000000000E+00  0.92710387768E+03  0.12216596878E+04  0.79556947701E+03 0.  0.
        2    1    3    3  502    0  0.45778657151E+02  0.28854979559E+03  0.87809006352E+03  0.92541819176E+03  0.25500000920E-02 0. -1.
       -2    1    3    3    0  502 -0.45778657151E+02 -0.28854979559E+03  0.49013814158E+02  0.29624149603E+03  0.25500000920E-02 0.  1.
</event>
<event>
 5   0  0.1092868E-02  0.8235634E+03  0.7818609E-02  0.9526523E-01
       -2   -1    0    0    0  501  0.00000000000E+00  0.00000000000E+00  0.11784517661E+03  0.11784517664E+03  0.25500000920E-02 0. -1.
        2   -1    0    0  501    0  0.00000000000E+00  0.00000000000E+00 -0.14388723049E+04  0.14388723049E+04  0.25500000920E-02 0.  1.
    10030    2    1    2    0    0  0.00000000000E+00  0.00000000000E+00 -0.13210271283E+04  0.15567174816E+04  0.82356338171E+03 0.  0.
        3    1    3    3  502    0 -0.36519693576E+03 -0.11447986800E+03 -0.37328872114E+03  0.53462035277E+03  0.10100000352E+00 0. -1.
       -3    1    3    3    0  502  0.36519693576E+03  0.11447986800E+03 -0.94773840716E+03  0.10220971288E+04  0.10100000352E+00 0.  1.
</event>
<event>
 5   0  0.1119792E-02  0.7989653E+03  0.7818609E-02  0.9561516E-01
        2   -1    0    0  501    0  0.00000000000E+00  0.00000000000E+00  0.13689448167E+04  0.13689448167E+04  0.25500000920E-02 0.  1.
       -2   -1    0    0    0  501  0.00000000000E+00  0.00000000000E+00 -0.11657620441E+03  0.11657620444E+03  0.25500000920E-02 0. -1.
    10030    2    1    2    0    0  0.00000000000E+00  0.00000000000E+00  0.12523686123E+04  0.14855210212E+04  0.79896530788E+03 0.  0.
        4    1    3    3  502    0 -0.31586803115E+03 -0.22910463588E+03  0.46707256252E+03  0.60862134275E+03  0.12699999809E+01 0. -1.
       -4    1    3    3    0  502  0.31586803115E+03  0.22910463588E+03  0.78529604978E+03  0.87689967841E+03  0.12699999809E+01 0.  1.
</event>
<event>
 5   0  0.1119792E-02  0.7967948E+03  0.7818609E-02  0.9564668E-01
       -2   -1    0    0    0  501  0.00000000000E+00  0.00000000000E+00  0.32705375748E+03  0.32705375749E+03  0.25500000920E-02 0.  1.
        2   -1    0    0  501    0  0.00000000000E+00  0.00000000000E+00 -0.48530391475E+03  0.48530391476E+03  0.25500000920E-02 0. -1.
    10030    2    1    2    0    0  0.00000000000E+00  0.00000000000E+00 -0.15825015727E+03  0.81235767225E+03  0.79679475110E+03 0.  0.
        4    1    3    3  502    0  0.27081385287E+03  0.25065569180E+03 -0.23222617657E+03  0.43600347329E+03  0.12699999809E+01 0. -1.
       -4    1    3    3    0  502 -0.27081385287E+03 -0.25065569180E+03  0.73976019298E+02  0.37635419895E+03  0.12699999809E+01 0.  1.
</event>
<event>
 5   0  0.6517392E-03  0.7992898E+03  0.7818609E-02  0.9561046E-01
        1   -1    0    0  501    0  0.00000000000E+00  0.00000000000E+00  0.49019546430E+03  0.49019546433E+03  0.50400001928E-02 0.  1.
       -1   -1    0    0    0  501  0.00000000000E+00  0.00000000000E+00 -0.32582111910E+03  0.32582111914E+03  0.50400001928E-02 0. -1.
    10030    2    1    2    0    0  0.00000000000E+00  0.00000000000E+00  0.16437434520E+03  0.81601658347E+03  0.79928977169E+03 0.  0.
        3    1    3    3  502    0  0.34469552244E+03 -0.20223627676E+03  0.80932738093E+02  0.40775560465E+03  0.10100000352E+00 0. -1.
       -3    1    3    3    0  502 -0.34469552244E+03  0.20223627676E+03  0.83441607104E+02  0.40826097882E+03  0.10100000352E+00 0.  1.
</event>
<event>
 5   0  0.6557679E-03  0.7951180E+03  0.7818609E-02  0.9567111E-01
        1   -1    0    0  501    0  0.00000000000E+00  0.00000000000E+00  0.61074315381E+03  0.61074315383E+03  0.50400001928E-02 0. -1.
       -1   -1    0    0    0  501  0.00000000000E+00  0.00000000000E+00 -0.25878826880E+03  0.25878826884E+03  0.50400001928E-02 0.  1.
    10030    2    1    2    0    0  0.00000000000E+00  0.00000000000E+00  0.35195488502E+03  0.86953142268E+03  0.79511801258E+03 0.  0.
        1    1    3    3  502    0 -0.10885194494E+03 -0.38213418379E+03  0.19056293363E+03  0.44066939086E+03  0.50400001928E-02 0.  1.
       -1    1    3    3    0  502  0.10885194494E+03  0.38213418379E+03  0.16139195139E+03  0.42886203182E+03  0.50400001928E-02 0. -1.
</event>
<event>
 5   0  0.6600401E-03  0.7824383E+03  0.7818609E-02  0.9585791E-01
        1   -1    0    0  501    0  0.00000000000E+00  0.00000000000E+00  0.11634849860E+04  0.11634849860E+04  0.50400001928E-02 0.  1.
       -1   -1    0    0    0  501  0.00000000000E+00  0.00000000000E+00 -0.13154653555E+03  0.13154653565E+03  0.50400001928E-02 0. -1.
    10030    2    1    2    0    0  0.00000000000E+00  0.00000000000E+00  0.10319384505E+04  0.12950315217E+04  0.78243828932E+03 0.  0.
        2    1    3    3  502    0 -0.27682483493E+02 -0.35244666635E+02  0.11592222814E+04  0.11600882742E+04  0.25500000920E-02 0.  1.
       -2    1    3    3    0  502  0.27682483493E+02  0.35244666635E+02 -0.12728383089E+03  0.13494324745E+03  0.25500000920E-02 0. -1.
</event>
<event>
 5   0  0.1106332E-02  0.8000325E+03  0.7818609E-02  0.9559970E-01
       -2   -1    0    0    0  501  0.00000000000E+00  0.00000000000E+00  0.15434719931E+03  0.15434719933E+03  0.25500000920E-02 0. -1.
        2   -1    0    0  501    0  0.00000000000E+00  0.00000000000E+00 -0.10367081613E+04  0.10367081613E+04  0.25500000920E-02 0.  1.
    10030    2    1    2    0    0  0.00000000000E+00  0.00000000000E+00 -0.88236096196E+03  0.11910553606E+04  0.80003250235E+03 0.  0.
        1    1    3    3  502    0  0.56169513257E+02 -0.89682389317E+02  0.13313133687E+03  0.17006439385E+03  0.50400001928E-02 0. -1.
       -1    1    3    3    0  502 -0.56169513257E+02  0.89682389317E+02 -0.10154922988E+04  0.10209909668E+04  0.50400001928E-02 0.  1.
</event>
<event>
 5   0  0.1119792E-02  0.8128761E+03  0.7818609E-02  0.9541564E-01
       -2   -1    0    0    0  501  0.00000000000E+00  0.00000000000E+00  0.15595072058E+03  0.15595072061E+03  0.25500000920E-02 0.  1.
        2   -1    0    0  501    0  0.00000000000E+00  0.00000000000E+00 -0.10592568649E+04  0.10592568649E+04  0.25500000920E-02 0. -1.
    10030    2    1    2    0    0  0.00000000000E+00  0.00000000000E+00 -0.90330614433E+03  0.12152075855E+04  0.81287605791E+03 0.  0.
        4    1    3    3  502    0 -0.43005208912E+02  0.23512832851E+03  0.39763204722E+02  0.24231694990E+03  0.12699999809E+01 0.  1.
       -4    1    3    3    0  502  0.43005208912E+02 -0.23512832851E+03 -0.94306934905E+03  0.97289063562E+03  0.12699999809E+01 0. -1.
</event>
<event>
 5   0  0.6596225E-03  0.8116135E+03  0.7818609E-02  0.9543357E-01
        1   -1    0    0  501    0  0.00000000000E+00  0.00000000000E+00  0.59425579217E+03  0.59425579219E+03  0.50400001928E-02 0.  1.
       -1   -1    0    0    0  501  0.00000000000E+00  0.00000000000E+00 -0.27711825516E+03  0.27711825521E+03  0.50400001928E-02 0. -1.
    10030    2    1    2    0    0  0.00000000000E+00  0.00000000000E+00  0.31713753701E+03  0.87137404740E+03  0.81161352447E+03 0.  0.
        5    1    3    3  502    0 -0.40828789875E+02 -0.59569714354E+02  0.58727127993E+03  0.59171377133E+03  0.46999998093E+01 0.  1.
       -5    1    3    3    0  502  0.40828789875E+02  0.59569714354E+02 -0.27013374292E+03  0.27966027607E+03  0.46999998093E+01 0. -1.
</event>
<event>
 5   0  0.1106332E-02  0.7995941E+03  0.7818609E-02  0.9560605E-01
       -2   -1    0    0    0  501  0.00000000000E+00  0.00000000000E+00  0.25794052365E+03  0.25794052366E+03  0.25500000920E-02 0. -1.
        2   -1    0    0  501    0  0.00000000000E+00  0.00000000000E+00 -0.61966880559E+03  0.61966880560E+03  0.25500000920E-02 0.  1.
    10030    2    1    2    0    0  0.00000000000E+00  0.00000000000E+00 -0.36172828195E+03  0.87760932926E+03  0.79959413757E+03 0.  0.
        1    1    3    3  502    0  0.17822875905E+03  0.31688196382E+03 -0.36339749134E+03  0.51404027690E+03  0.50400001928E-02 0.  1.
       -1    1    3    3    0  502 -0.17822875905E+03 -0.31688196382E+03  0.16692093893E+01  0.36356905236E+03  0.50400001928E-02 0. -1.
</event>
<event>
 5   0  0.6557679E-03  0.8063838E+03  0.7818609E-02  0.9550823E-01
       -1   -1    0    0    0  501  0.00000000000E+00  0.00000000000E+00  0.97000274720E+02  0.97000274851E+02  0.50400001928E-02 0. -1.
        1   -1    0    0  501    0  0.00000000000E+00  0.00000000000E+00 -0.16759095890E+04  0.16759095890E+04  0.50400001928E-02 0.  1.
    10030    2    1    2    0    0  0.00000000000E+00  0.00000000000E+00 -0.15789093143E+04  0.17729098639E+04  0.80638375644E+03 0.  0.
        1    1    3    3  502    0 -0.32750178568E+02 -0.30798365445E+03 -0.22190586101E+03  0.38101012688E+03  0.50400001928E-02 0. -1.
       -1    1    3    3    0  502  0.32750178568E+02  0.30798365445E+03 -0.13570034533E+04  0.13918997370E+04  0.50400001928E-02 0.  1.
</event>
<event>
 5   0  0.6596225E-03  0.8044162E+03  0.7818609E-02  0.9553647E-01
        1   -1    0    0  501    0  0.00000000000E+00  0.00000000000E+00  0.45387104203E+03  0.45387104206E+03  0.50400001928E-02 0.  1.
       -1   -1    0    0    0  501  0.00000000000E+00  0.00000000000E+00 -0.35642579727E+03  0.35642579731E+03  0.50400001928E-02 0. -1.
    10030    2    1    2    0    0  0.00000000000E+00  0.00000000000E+00  0.97445244755E+02  0.81029683937E+03  0.80441618094E+03 0.  0.
        5    1    3    3  502    0  0.16653533585E+03 -0.15918905468E+03  0.38079009961E+03  0.44508242291E+03  0.46999998093E+01 0.  1.
       -5    1    3    3    0  502 -0.16653533585E+03  0.15918905468E+03 -0.28334485486E+03  0.36521441646E+03  0.46999998093E+01 0. -1.
</event>
<event>
 5   0  0.6596225E-03  0.8032052E+03  0.7818609E-02  0.9555389E-01
        1   -1    0    0  501    0  0.00000000000E+00  0.00000000000E+00  0.14509348524E+04  0.14509348524E+04  0.50400001928E-02 0. -1.
       -1   -1    0    0    0  501  0.00000000000E+00  0.00000000000E+00 -0.11115911625E+03  0.11115911636E+03  0.50400001928E-02 0.  1.
    10030    2    1    2    0    0  0.00000000000E+00  0.00000000000E+00  0.13397757361E+04  0.15620939687E+04  0.80320516936E+03 0.  0.
        5    1    3    3  502    0 -0.10440588098E+03 -0.32961448715E+03  0.10671098560E+04  0.11217360798E+04  0.46999998093E+01 0. -1.
       -5    1    3    3    0  502  0.10440588098E+03  0.32961448715E+03  0.27266588015E+03  0.44035788890E+03  0.46999998093E+01 0.  1.
</event>
<event>
 5   0  0.4385875E-03  0.7834912E+03  0.7818609E-02  0.9584225E-01
       -4   -1    0    0    0  501  0.00000000000E+00  0.00000000000E+00  0.82657793678E+03  0.82657891243E+03  0.12699999809E+01 0. -1.
        4   -1    0    0  501    0  0.00000000000E+00  0.00000000000E+00 -0.18565934022E+03  0.18566368388E+03  0.12699999809E+01 0.  1.
    10030    2    1    2    0    0  0.00000000000E+00  0.00000000000E+00  0.64091859656E+03  0.10122425963E+04  0.78349117823E+03 0.  0.
        2    1    3    3  502    0 -0.18955445674E+03  0.13061050851E+03  0.72998264126E+03  0.76541796004E+03  0.25500000920E-02 0. -1.
       -2    1    3    3    0  502  0.18955445674E+03 -0.13061050851E+03 -0.89064044704E+02  0.24682463627E+03  0.25500000920E-02 0.  1.
</event>
<event>
 5   0  0.1154714E-02  0.7972978E+03  0.7818609E-02  0.9563937E-01
       -2   -1    0    0    0  501  0.00000000000E+00  0.00000000000E+00  0.30256099816E+03  0.30256099817E+03  0.25500000920E-02 0.  1.
        2   -1    0    0  501    0  0.00000000000E+00  0.00000000000E+00 -0.52525258919E+03  0.52525258919E+03  0.25500000920E-02 0. -1.
    10030    2    1    2    0    0  0.00000000000E+00  0.00000000000E+00 -0.22269159103E+03  0.82781358736E+03  0.79729780554E+03 0.  0.
        5    1    3    3  502    0  0.36220362022E+03 -0.81944553285E+02  0.39087479778E+02  0.37343847336E+03  0.46999998093E+01 0.  1.
       -5    1    3    3    0  502 -0.36220362022E+03  0.81944553285E+02 -0.26177907080E+03  0.45437511400E+03  0.46999998093E+01 0. -1.
</event>
<event>
 5   0  0.1119792E-02  0.7999696E+03  0.7818609E-02  0.9560061E-01
       -2   -1    0    0    0  501  0.00000000000E+00  0.00000000000E+00  0.20602592534E+03  0.20602592536E+03  0.25500000920E-02 0. -1.
        2   -1    0    0  501    0  0.00000000000E+00  0.00000000000E+00 -0.77654235929E+03  0.77654235929E+03  0.25500000920E-02 0.  1.
    10030    2    1    2    0    0  0.00000000000E+00  0.00000000000E+00 -0.57051643395E+03  0.98256828465E+03  0.79996964480E+03 0.  0.
        4    1    3    3  502    0 -0.29261540025E+02  0.32820991477E+03 -0.67707315600E+01  0.32958373986E+03  0.12699999809E+01 0. -1.
       -4    1    3    3    0  502  0.29261540025E+02 -0.32820991477E+03 -0.56374570239E+03  0.65298454479E+03  0.12699999809E+01 0.  1.
</event>
<event>
 5   0  0.6557679E-03  0.7951972E+03  0.7818609E-02  0.9566995E-01
        1   -1    0    0  501    0  0.00000000000E+00  0.00000000000E+00  0.21583696660E+04  0.21583696660E+04  0.50400001928E-02 0. -1.
       -1   -1    0    0    0  501  0.00000000000E+00  0.00000000000E+00 -0.73242611961E+02  0.73242612135E+02  0.50400001928E-02 0.  1.
    10030    2    1    2    0    0  0.00000000000E+00  0.00000000000E+00  0.20851270540E+04  0.22316122781E+04  0.79519716326E+03 0.  0.
        1    1    3    3  502    0 -0.12344495743E+03  0.33870868567E+03  0.57194381142E+03  0.67607836432E+03  0.50400001928E-02 0.  1.
       -1    1    3    3    0  502  0.12344495743E+03 -0.33870868567E+03  0.15131832426E+04  0.15555339138E+04  0.50400001928E-02 0. -1.
</event>
<event>
 5   0  0.1154714E-02  0.8038271E+03  0.7818609E-02  0.9554494E-01
       -2   -1    0    0    0  501  0.00000000000E+00  0.00000000000E+00  0.10647966261E+04  0.10647966261E+04  0.25500000920E-02 0. -1.
        2   -1    0    0  501    0  0.00000000000E+00  0.00000000000E+00 -0.15170456895E+03  0.15170456898E+03  0.25500000920E-02 0.  1.
    10030    2    1    2    0    0  0.00000000000E+00  0.00000000000E+00  0.91309205718E+03  0.12165011951E+04  0.80382712869E+03 0.  0.
        5    1    3    3  502    0 -0.85464202103E+02  0.12578282080E+02 -0.13744631216E+03  0.16240665548E+03  0.46999998093E+01 0.  1.
       -5    1    3    3    0  502  0.85464202103E+02 -0.12578282080E+02  0.10505383693E+04  0.10540945396E+04  0.46999998093E+01 0. -1.
</event>
<event>
 5   0  0.6517392E-03  0.8019577E+03  0.7818609E-02  0.9557188E-01
        1   -1    0    0  501    0  0.00000000000E+00  0.00000000000E+00  0.14989418906E+03  0.14989418915E+03  0.50400001928E-02 0. -1.
       -1   -1    0    0    0  501  0.00000000000E+00  0.00000000000E+00 -0.10726503699E+04  0.10726503700E+04  0.50400001928E-02 0.  1.
    10030    2    1    2    0    0  0.00000000000E+00  0.00000000000E+00 -0.92275618088E+03  0.12225445591E+04  0.80195774803E+03 0.  0.
        3    1    3    3  502    0 -0.42783842935E+02 -0.20628474700E+03 -0.98148193017E+03  0.10038379568E+04  0.10100000352E+00 0.  1.
       -3    1    3    3    0  502  0.42783842935E+02  0.20628474700E+03  0.58725749289E+02  0.21870660230E+03  0.10100000352E+00 0. -1.
</event>
<event>
 5   0  0.1092868E-02  0.7980244E+03  0.7818609E-02  0.9562881E-01
       -2   -1    0    0    0  501  0.00000000000E+00  0.00000000000E+00  0.54114130332E+03  0.54114130332E+03  0.25500000920E-02 0. -1.
        2   -1    0    0  501    0  0.00000000000E+00  0.00000000000E+00 -0.29421287519E+03  0.29421287521E+03  0.25500000920E-02 0.  1.
    10030    2    1    2    0    0  0.00000000000E+00  0.00000000000E+00  0.24692842812E+03  0.83535417853E+03  0.79802440750E+03 0.  0.
        3    1    3    3  502    0  0.31915223174E+03 -0.14989961413E+03  0.31896992210E+03  0.47546804598E+03  0.10100000352E+00 0.  1.
       -3    1    3    3    0  502 -0.31915223174E+03  0.14989961413E+03 -0.72041493982E+02  0.35988613255E+03  0.10100000352E+00 0. -1.
</event>
<event>
 5   0  0.1154714E-02  0.8003682E+03  0.7818609E-02  0.9559484E-01
        2   -1    0    0  501    0  0.00000000000E+00  0.00000000000E+00  0.80790812115E+03  0.80790812116E+03  0.25500000920E-02 0.  1.
       -2   -1    0    0    0  501  0.00000000000E+00  0.00000000000E+00 -0.19822466685E+03  0.19822466687E+03  0.25500000920E-02 0. -1.
    10030    2    1    2    0    0  0.00000000000E+00  0.00000000000E+00  0.60968345430E+03  0.10061327880E+04  0.80036821070E+03 0.  0.
        5    1    3    3  502    0  0.19019680106E+03  0.11433466285E+03  0.72343104701E+03  0.75671778626E+03  0.46999998093E+01 0.  1.
       -5    1    3    3    0  502 -0.19019680106E+03 -0.11433466285E+03 -0.11374759271E+03  0.24941500177E+03  0.46999998093E+01 0. -1.
</event>
<event>
 5   0  0.6551489E-03  0.7495337E+03  0.7818609E-02  0.9636082E-01
        1   -1    0    0  501    0  0.00000000000E+00  0.00000000000E+00  0.49867321164E+03  0.49867321167E+03  0.50400001928E-02 0.  1.
       -1   -1    0    0    0  501  0.00000000000E+00  0.00000000000E+00 -0.28164777917E+03  0.28164777921E+03  0.50400001928E-02 0. -1.
    10030    2    1    2    0    0  0.00000000000E+00  0.00000000000E+00  0.21702543248E+03  0.78032099088E+03  0.74953372870E+03 0.  0.
        4    1    3    3  502    0 -0.25157621765E+02  0.64766694026E+02 -0.27488146274E+03  0.28352964932E+03  0.12699999809E+01 0. -1.
       -4    1    3    3    0  502  0.25157621765E+02 -0.64766694026E+02  0.49190689521E+03  0.49679134156E+03  0.12699999809E+01 0.  1.
</event>
<event>
 5   0  0.1092868E-02  0.7981835E+03  0.7818609E-02  0.9562650E-01
        2   -1    0    0  501    0  0.00000000000E+00  0.00000000000E+00  0.12815895351E+04  0.12815895351E+04  0.25500000920E-02 0.  1.
       -2   -1    0    0    0  501  0.00000000000E+00  0.00000000000E+00 -0.12427864052E+03  0.12427864055E+03  0.25500000920E-02 0. -1.
    10030    2    1    2    0    0  0.00000000000E+00  0.00000000000E+00  0.11573108945E+04  0.14058681756E+04  0.79818345045E+03 0.  0.
        3    1    3    3  502    0  0.13182399477E+03  0.20655903894E+03  0.23821071168E+02  0.24619434558E+03  0.10100000352E+00 0. -1.
       -3    1    3    3    0  502 -0.13182399477E+03 -0.20655903894E+03  0.11334898234E+04  0.11596738300E+04  0.10100000352E+00 0.  1.
</event>
<event>
 5   0  0.1121480E-02  0.8349910E+03  0.7818609E-02  0.9510706E-01
       -2   -1    0    0    0  501  0.00000000000E+00  0.00000000000E+00  0.11932037670E+03  0.11932037672E+03  0.25500000920E-02 0. -1.
        2   -1    0    0  501    0  0.00000000000E+00  0.00000000000E+00 -0.14607941662E+04  0.14607941662E+04  0.25500000920E-02 0.  1.
    10030    2    1    2    0    0  0.00000000000E+00  0.00000000000E+00 -0.13414737895E+04  0.15801145430E+04  0.83499104238E+03 0.  0.
        2    1    3    3  502    0  0.11611720768E+03 -0.15197173229E+03  0.31544891322E+02  0.19383934974E+03  0.25500000920E-02 0. -1.
       -2    1    3    3    0  502 -0.11611720768E+03  0.15197173229E+03 -0.13730186809E+04  0.13862751932E+04  0.25500000920E-02 0.  1.
</event>
<event>
 5   0  0.1119792E-02  0.7981924E+03  0.7818609E-02  0.9562637E-01
        2   -1    0    0  501    0  0.00000000000E+00  0.00000000000E+00  0.19368773662E+04  0.19368773662E+04  0.25500000920E-02 0. -1.
       -2   -1    0    0    0  501  0.00000000000E+00  0.00000000000E+00 -0.82234308019E+02  0.82234308059E+02  0.25500000920E-02 0.  1.
    10030    2    1    2    0    0  0.00000000000E+00  0.00000000000E+00  0.18546430581E+04  0.20191116742E+04  0.79819238274E+03 0.  0.
        4    1    3    3  502    0  0.49686304886E+02  0.32074551368E+03  0.33987689824E+03  0.46996205410E+03  0.12699999809E+01 0.  1.
       -4    1    3    3    0  502 -0.49686304886E+02 -0.32074551368E+03  0.15147661599E+04  0.15491496201E+04  0.12699999809E+01 0. -1.
</event>
<event>
 5   0  0.1154714E-02  0.7966187E+03  0.7818609E-02  0.9564924E-01
       -2   -1    0    0    0  501  0.00000000000E+00  0.00000000000E+00  0.69403082148E+03  0.69403082149E+03  0.25500000920E-02 0.  1.
        2   -1    0    0  501    0  0.00000000000E+00  0.00000000000E+00 -0.22859263663E+03  0.22859263664E+03  0.25500000920E-02 0. -1.
    10030    2    1    2    0    0  0.00000000000E+00  0.00000000000E+00  0.46543818486E+03  0.92262345813E+03  0.79661869271E+03 0.  0.
        5    1    3    3  502    0 -0.99341279996E+02 -0.35186505690E+03  0.49776870246E+02  0.36902240445E+03  0.46999998093E+01 0. -1.
       -5    1    3    3    0  502  0.99341279996E+02  0.35186505690E+03  0.41566131461E+03  0.55360105368E+03  0.46999998093E+01 0.  1.
</event>
<event>
 5   0  0.1106332E-02  0.7972399E+03  0.7818609E-02  0.9564021E-01
        2   -1    0    0  501    0  0.00000000000E+00  0.00000000000E+00  0.34968744226E+03  0.34968744227E+03  0.25500000920E-02 0. -1.
       -2   -1    0    0    0  501  0.00000000000E+00  0.00000000000E+00 -0.45439967305E+03  0.45439967306E+03  0.25500000920E-02 0.  1.
    10030    2    1    2    0    0  0.00000000000E+00  0.00000000000E+00 -0.10471223079E+03  0.80408711533E+03  0.79723988721E+03 0.  0.
        1    1    3    3  502    0 -0.33411366897E+03  0.12673011417E+03  0.12581156166E+03  0.37884167498E+03  0.50400001928E-02 0. -1.
       -1    1    3    3    0  502  0.33411366897E+03 -0.12673011417E+03 -0.23052379245E+03  0.42524544035E+03  0.50400001928E-02 0.  1.
</event>
<event>
 5   0  0.1106332E-02  0.8222658E+03  0.7818609E-02  0.9528336E-01
        2   -1    0    0  501    0  0.00000000000E+00  0.00000000000E+00  0.19404788680E+04  0.19404788680E+04  0.25500000920E-02 0. -1.
       -2   -1    0    0    0  501  0.00000000000E+00  0.00000000000E+00 -0.87107504147E+02  0.87107504184E+02  0.25500000920E-02 0.  1.
    10030    2    1    2    0    0  0.00000000000E+00  0.00000000000E+00  0.18533713639E+04  0.20275863722E+04  0.82226582340E+03 0.  0.
        1    1    3    3  502    0 -0.37536027430E+03 -0.16473834330E+03  0.84885633340E+03  0.94265111895E+03  0.50400001928E-02 0. -1.
       -1    1    3    3    0  502  0.37536027430E+03  0.16473834330E+03  0.10045150305E+04  0.10849352532E+04  0.50400001928E-02 0.  1.
</event>
<event>
 5   0  0.6557679E-03  0.7728132E+03  0.7818609E-02  0.9600225E-01
       -1   -1    0    0    0  501  0.00000000000E+00  0.00000000000E+00  0.48509619912E+03  0.48509619915E+03  0.50400001928E-02 0.  1.
        1   -1    0    0  501    0  0.00000000000E+00  0.00000000000E+00 -0.30779471932E+03  0.30779471936E+03  0.50400001928E-02 0. -1.
    10030    2    1    2    0    0  0.00000000000E+00  0.00000000000E+00  0.17730147981E+03  0.79289091850E+03  0.77281316882E+03 0.  0.
        1    1    3    3  502    0  0.12314494608E+03 -0.98654526883E+02  0.45053626213E+03  0.47736811471E+03  0.50400001928E-02 0.  1.
       -1    1    3    3    0  502 -0.12314494608E+03  0.98654526883E+02 -0.27323478232E+03  0.31552280380E+03  0.50400001928E-02 0. -1.
</event>
<event>
 5   0  0.6600401E-03  0.8023262E+03  0.7818609E-02  0.9556656E-01
        1   -1    0    0  501    0  0.00000000000E+00  0.00000000000E+00  0.36765281989E+03  0.36765281992E+03  0.50400001928E-02 0.  1.
       -1   -1    0    0    0  501  0.00000000000E+00  0.00000000000E+00 -0.43772768189E+03  0.43772768192E+03  0.50400001928E-02 0. -1.
    10030    2    1    2    0    0  0.00000000000E+00  0.00000000000E+00 -0.70074862006E+02  0.80538050184E+03  0.80232615965E+03 0.  0.
        2    1    3    3  502    0  0.24166949690E+02  0.19744893261E+03  0.31465881799E+03  0.37226374278E+03  0.25500000920E-02 0.  1.
       -2    1    3    3    0  502 -0.24166949690E+02 -0.19744893261E+03 -0.38473368000E+03  0.43311675906E+03  0.25500000920E-02 0. -1.
</event>
<event>
 5   0  0.1106332E-02  0.7917621E+03  0.7818609E-02  0.9572018E-01
        2   -1    0    0  501    0  0.00000000000E+00  0.00000000000E+00  0.32034946708E+03  0.32034946709E+03  0.25500000920E-02 0. -1.
       -2   -1    0    0    0  501  0.00000000000E+00  0.00000000000E+00 -0.48922140439E+03  0.48922140440E+03  0.25500000920E-02 0.  1.
    10030    2    1    2    0    0  0.00000000000E+00  0.00000000000E+00 -0.16887193731E+03  0.80957087149E+03  0.79176212638E+03 0.  0.
        1    1    3    3  502    0  0.11342846754E+03  0.18631423532E+03 -0.42223445950E+03  0.47524830389E+03  0.50400001928E-02 0.  1.
       -1    1    3    3    0  502 -0.11342846754E+03 -0.18631423532E+03  0.25336252219E+03  0.33432256761E+03  0.50400001928E-02 0. -1.
</event>
<event>
 5   0  0.6517392E-03  0.8002326E+03  0.7818609E-02  0.9559680E-01
       -1   -1    0    0    0  501  0.00000000000E+00  0.00000000000E+00  0.13169101025E+03  0.13169101035E+03  0.50400001928E-02 0.  1.
        1   -1    0    0  501    0  0.00000000000E+00  0.00000000000E+00 -0.12156719914E+04  0.12156719914E+04  0.50400001928E-02 0. -1.
    10030    2    1    2    0    0  0.00000000000E+00  0.00000000000E+00 -0.10839809812E+04  0.13473630018E+04  0.80023264807E+03 0.  0.
        3    1    3    3  502    0 -0.76219451078E+02  0.34699886765E+03 -0.85188283519E+03  0.92299620474E+03  0.10100000352E+00 0. -1.
       -3    1    3    3    0  502  0.76219451078E+02 -0.34699886765E+03 -0.23209814599E+03  0.42436679706E+03  0.10100000352E+00 0.  1.
</event>
<event>
 5   0  0.1154714E-02  0.8264407E+03  0.7818609E-02  0.9522515E-01
       -2   -1    0    0    0  501  0.00000000000E+00  0.00000000000E+00  0.15803629658E+03  0.15803629660E+03  0.25500000920E-02 0. -1.
        2   -1    0    0  501    0  0.00000000000E+00  0.00000000000E+00 -0.10804545875E+04  0.10804545875E+04  0.25500000920E-02 0.  1.
    10030    2    1    2    0    0  0.00000000000E+00  0.00000000000E+00 -0.92241829089E+03  0.12384908841E+04  0.82644066126E+03 0.  0.
        5    1    3    3  502    0  0.17869702699E+02  0.25915238494E+03 -0.94274149339E+03  0.97788695576E+03  0.46999998093E+01 0.  1.
       -5    1    3    3    0  502 -0.17869702699E+02 -0.25915238494E+03  0.20323202499E+02  0.26060392832E+03  0.46999998093E+01 0. -1.
</event>
<event>
 5   0  0.6517392E-03  0.8204395E+03  0.7818609E-02  0.9530894E-01
       -1   -1    0    0    0  501  0.00000000000E+00  0.00000000000E+00  0.16040928096E+03  0.16040928104E+03  0.50400001928E-02 0. -1.
        1   -1    0    0  501    0  0.00000000000E+00  0.00000000000E+00 -0.10490681139E+04  0.10490681139E+04  0.50400001928E-02 0.  1.
    10030    2    1    2    0    0  0.00000000000E+00  0.00000000000E+00 -0.88865883295E+03  0.12094773950E+04  0.82043954534E+03 0.  0.
        3    1    3    3  502    0 -0.11723979043E+03 -0.33086862861E+03 -0.75726269225E+03  0.83466521021E+03  0.10100000352E+00 0.  1.
       -3    1    3    3    0  502  0.11723979043E+03  0.33086862861E+03 -0.13139614070E+03  0.37481218476E+03  0.10100000352E+00 0. -1.
</event>
<event>
 5   0  0.1121480E-02  0.8063356E+03  0.7818609E-02  0.9550892E-01
       -2   -1    0    0    0  501  0.00000000000E+00  0.00000000000E+00  0.72116968510E+03  0.72116968510E+03  0.25500000920E-02 0. -1.
        2   -1    0    0  501    0  0.00000000000E+00  0.00000000000E+00 -0.22538976018E+03  0.22538976020E+03  0.25500000920E-02 0.  1.
    10030    2    1    2    0    0  0.00000000000E+00  0.00000000000E+00  0.49577992491E+03  0.94655944530E+03  0.80633556881E+03 0.  0.
        2    1    3    3  502    0  0.28622400342E+03 -0.20031621269E+02  0.58037354134E+03  0.64742481686E+03  0.25500000920E-02 0. -1.
       -2    1    3    3    0  502 -0.28622400342E+03  0.20031621269E+02 -0.84593616427E+02  0.29913462844E+03  0.25500000920E-02 0.  1.
</event>
<event>
 5   0  0.6551489E-03  0.8001413E+03  0.7818609E-02  0.9559813E-01
       -1   -1    0    0    0  501  0.00000000000E+00  0.00000000000E+00  0.15757744318E+03  0.15757744326E+03  0.50400001928E-02 0. -1.
        1   -1    0    0  501    0  0.00000000000E+00  0.00000000000E+00 -0.10157323573E+04  0.10157323573E+04  0.50400001928E-02 0.  1.
    10030    2    1    2    0    0  0.00000000000E+00  0.00000000000E+00 -0.85815491409E+03  0.11733098005E+04  0.80014125719E+03 0.  0.
        4    1    3    3  502    0 -0.20551390661E+03  0.32925269796E+03 -0.28681918316E+03  0.48260766846E+03  0.12699999809E+01 0. -1.
       -4    1    3    3    0  502  0.20551390661E+03 -0.32925269796E+03 -0.57133573093E+03  0.69070213208E+03  0.12699999809E+01 0.  1.
</event>
<event>
 5   0  0.6596225E-03  0.8071915E+03  0.7818609E-02  0.9549666E-01
       -1   -1    0    0    0  501  0.00000000000E+00  0.00000000000E+00  0.13004667788E+04  0.13004667788E+04  0.50400001928E-02 0. -1.
        1   -1    0    0  501    0  0.00000000000E+00  0.00000000000E+00 -0.12525466113E+03  0.12525466123E+03  0.50400001928E-02 0.  1.
    10030    2    1    2    0    0  0.00000000000E+00  0.00000000000E+00  0.11752121177E+04  0.14257214401E+04  0.80719149095E+03 0.  0.
        5    1    3    3  502    0 -0.29288259314E+03 -0.20957845966E+02  0.10766056475E+04  0.11159396287E+04  0.46999998093E+01 0. -1.
       -5    1    3    3    0  502  0.29288259314E+03  0.20957845966E+02  0.98606470162E+02  0.30978181133E+03  0.46999998093E+01 0.  1.
</event>
<event>
 5   0  0.6557679E-03  0.8008858E+03  0.7818609E-02  0.9558736E-01
       -1   -1    0    0    0  501  0.00000000000E+00  0.00000000000E+00  0.23065757908E+03  0.23065757914E+03  0.50400001928E-02 0. -1.
        1   -1    0    0  501    0  0.00000000000E+00  0.00000000000E+00 -0.69520591522E+03  0.69520591524E+03  0.50400001928E-02 0.  1.
    10030    2    1    2    0    0  0.00000000000E+00  0.00000000000E+00 -0.46454833614E+03  0.92586349437E+03  0.80088579311E+03 0.  0.
        1    1    3    3  502    0  0.29178599736E+03 -0.14806059911E+03 -0.49915261966E+03  0.59683695178E+03  0.50400001928E-02 0.  1.
       -1    1    3    3    0  502 -0.29178599736E+03  0.14806059911E+03  0.34604283528E+02  0.32902654259E+03  0.50400001928E-02 0. -1.
</event>
<event>
 5   0  0.6600401E-03  0.7983941E+03  0.7818609E-02  0.9562344E-01
       -1   -1    0    0    0  501  0.00000000000E+00  0.00000000000E+00  0.29909096246E+03  0.29909096250E+03  0.50400001928E-02 0.  1.
        1   -1    0    0  501    0  0.00000000000E+00  0.00000000000E+00 -0.53280875592E+03  0.53280875594E+03  0.50400001928E-02 0. -1.
    10030    2    1    2    0    0  0.00000000000E+00  0.00000000000E+00 -0.23371779346E+03  0.83189971845E+03  0.79839409728E+03 0.  0.
        2    1    3    3  502    0 -0.26311734454E+03 -0.28922684345E+03 -0.20070565542E+03  0.43950615934E+03  0.25500000920E-02 0. -1.
       -2    1    3    3    0  502  0.26311734454E+03  0.28922684345E+03 -0.33012138037E+02  0.39239355911E+03  0.25500000920E-02 0.  1.
</event>
<event>
 5   0  0.1092868E-02  0.7960123E+03  0.7818609E-02  0.9565807E-01
       -2   -1    0    0    0  501  0.00000000000E+00  0.00000000000E+00  0.24870889536E+03  0.24870889537E+03  0.25500000920E-02 0.  1.
        2   -1    0    0  501    0  0.00000000000E+00  0.00000000000E+00 -0.63692497726E+03  0.63692497726E+03  0.25500000920E-02 0. -1.
    10030    2    1    2    0    0  0.00000000000E+00  0.00000000000E+00 -0.38821608190E+03  0.88563387263E+03  0.79601233038E+03 0.  0.
        3    1    3    3  502    0  0.20889175380E+03 -0.26242801988E+03 -0.43248421424E+03  0.54730872110E+03  0.10100000352E+00 0. -1.
       -3    1    3    3    0  502 -0.20889175380E+03  0.26242801988E+03  0.44268132338E+02  0.33832515154E+03  0.10100000352E+00 0.  1.
</event>
<event>
 5   0  0.1106332E-02  0.7976954E+03  0.7818609E-02  0.9563359E-01
       -2   -1    0    0    0  501  0.00000000000E+00  0.00000000000E+00  0.81083620813E+02  0.81083620853E+02  0.25500000920E-02 0. -1.
        2   -1    0    0  501    0  0.00000000000E+00  0.00000000000E+00 -0.19619190277E+04  0.19619190277E+04  0.25500000920E-02 0.  1.
    10030    2    1    2    0    0  0.00000000000E+00  0.00000000000E+00 -0.18808354069E+04  0.20430026486E+04  0.79769542697E+03 0.  0.
        1    1    3    3  502    0  0.29545233072E+03  0.17279813100E+03 -0.41599067765E+03  0.53870169641E+03  0.50400001928E-02 0. -1.
       -1    1    3    3    0  502 -0.29545233072E+03 -0.17279813100E+03 -0.14648447293E+04  0.15043009522E+04  0.50400001928E-02 0.  1.
</event>
<event>
 5   0  0.6600401E-03  0.8056810E+03  0.7818609E-02  0.9551830E-01
       -1   -1    0    0    0  501  0.00000000000E+00  0.00000000000E+00  0.67028941714E+03  0.67028941716E+03  0.50400001928E-02 0.  1.
        1   -1    0    0  501    0  0.00000000000E+00  0.00000000000E+00 -0.24210510222E+03  0.24210510227E+03  0.50400001928E-02 0. -1.
    10030    2    1    2    0    0  0.00000000000E+00  0.00000000000E+00  0.42818431492E+03  0.91239451943E+03  0.80568104827E+03 0.  0.
        2    1    3    3  502    0 -0.81741380012E+02  0.24191691689E+03  0.56692849786E+03  0.62178241337E+03  0.25500000920E-02 0.  1.
       -2    1    3    3    0  502  0.81741380012E+02 -0.24191691689E+03 -0.13874418293E+03  0.29061210606E+03  0.25500000920E-02 0. -1.
</event>
<event>
 5   0  0.6551489E-03  0.8044794E+03  0.7818609E-02  0.9553556E-01
        1   -1    0    0  501    0  0.00000000000E+00  0.00000000000E+00  0.32360354421E+03  0.32360354425E+03  0.50400001928E-02 0. -1.
       -1   -1    0    0    0  501  0.00000000000E+00  0.00000000000E+00 -0.49998458145E+03  0.49998458148E+03  0.50400001928E-02 0.  1.
    10030    2    1    2    0    0  0.00000000000E+00  0.00000000000E+00 -0.17638103724E+03  0.82358812573E+03  0.80447941586E+03 0.  0.
        4    1    3    3  502    0  0.38382734344E+03 -0.10815814574E+03 -0.34275025174E+02  0.40024742886E+03  0.12699999809E+01 0. -1.
       -4    1    3    3    0  502 -0.38382734344E+03  0.10815814574E+03 -0.14210601207E+03  0.42334069687E+03  0.12699999809E+01 0.  1.
</event>
<event>
 5   0  0.6517392E-03  0.8029423E+03  0.7818609E-02  0.9555768E-01
        1   -1    0    0  501    0  0.00000000000E+00  0.00000000000E+00  0.64713656305E+03  0.64713656307E+03  0.50400001928E-02 0.  1.
       -1   -1    0    0    0  501  0.00000000000E+00  0.00000000000E+00 -0.24906499654E+03  0.24906499659E+03  0.50400001928E-02 0. -1.
    10030    2    1    2    0    0  0.00000000000E+00  0.00000000000E+00  0.39807156652E+03  0.89620155966E+03  0.80294225413E+03 0.  0.
        3    1    3    3  502    0 -0.22316146848E+03  0.39515811893E+02 -0.17083941564E+03  0.28381095211E+03  0.10100000352E+00 0. -1.
       -3    1    3    3    0  502  0.22316146848E+03 -0.39515811893E+02  0.56891098215E+03  0.61239060755E+03  0.10100000352E+00 0.  1.
</event>
<event>
 5   0  0.6551489E-03  0.8016644E+03  0.7818609E-02  0.9557611E-01
        1   -1    0    0  501    0  0.00000000000E+00  0.00000000000E+00  0.61522393974E+03  0.61522393976E+03  0.50400001928E-02 0.  1.
       -1   -1    0    0    0  501  0.00000000000E+00  0.00000000000E+00 -0.26115119396E+03  0.26115119401E+03  0.50400001928E-02 0. -1.
    10030    2    1    2    0    0  0.00000000000E+00  0.00000000000E+00  0.35407274578E+03  0.87637513377E+03  0.80166443466E+03 0.  0.
        4    1    3    3  502    0 -0.29992888824E+03  0.26507923768E+03  0.15409196042E+03  0.42891757415E+03  0.12699999809E+01 0. -1.
       -4    1    3    3    0  502  0.29992888824E+03 -0.26507923768E+03  0.19998078536E+03  0.44745755962E+03  0.12699999809E+01 0.  1.
</event>
<event>
 5   0  0.1121480E-02  0.8017925E+03  0.7818609E-02  0.9557426E-01
        2   -1    0    0  501    0  0.00000000000E+00  0.00000000000E+00  0.20121553976E+03  0.20121553978E+03  0.25500000920E-02 0.  1.
       -2   -1    0    0    0  501  0.00000000000E+00  0.00000000000E+00 -0.79873457485E+03  0.79873457485E+03  0.25500000920E-02 0. -1.
    10030    2    1    2    0    0  0.00000000000E+00  0.00000000000E+00 -0.59751903509E+03  0.99995011463E+03  0.80179251334E+03 0.  0.
        2    1    3    3  502    0  0.15683258632E+03 -0.32418220485E+03 -0.79080814441E+02  0.36870630222E+03  0.25500000920E-02 0.  1.
       -2    1    3    3    0  502 -0.15683258632E+03  0.32418220485E+03 -0.51843822065E+03  0.63124381241E+03  0.25500000920E-02 0. -1.
</event>
<event>
 5   0  0.1106332E-02  0.7981911E+03  0.7818609E-02  0.9562639E-01
       -2   -1    0    0    0  501  0.00000000000E+00  0.00000000000E+00  0.11856821679E+03  0.11856821682E+03  0.25500000920E-02 0. -1.
        2   -1    0    0  501    0  0.00000000000E+00  0.00000000000E+00 -0.13433385682E+04  0.13433385682E+04  0.25500000920E-02 0.  1.
    10030    2    1    2    0    0  0.00000000000E+00  0.00000000000E+00 -0.12247703514E+04  0.14619067850E+04  0.79819110142E+03 0.  0.
        1    1    3    3  502    0 -0.30042691284E+02 -0.21569271571E+03  0.15335231242E+00  0.21777496287E+03  0.50400001928E-02 0. -1.
       -1    1    3    3    0  502  0.30042691284E+02  0.21569271571E+03 -0.12249237037E+04  0.12441318221E+04  0.50400001928E-02 0.  1.
</event>
<event>
 5   0  0.4385875E-03  0.7936554E+03  0.7818609E-02  0.9569246E-01
        3   -1    0    0  501    0  0.00000000000E+00  0.00000000000E+00  0.17680582052E+03  0.17680584937E+03  0.10100000352E+00 0. -1.
       -3   -1    0    0    0  501  0.00000000000E+00  0.00000000000E+00 -0.89065064476E+03  0.89065065049E+03  0.10100000352E+00 0.  1.
    10030    2    1    2    0    0  0.00000000000E+00  0.00000000000E+00 -0.71384482424E+03  0.10674564999E+04  0.79365543279E+03 0.  0.
        4    1    3    3  502    0  0.19268214989E+02  0.21764874593E+03 -0.80245316018E+03  0.83166996332E+03  0.12699999809E+01 0.  1.
       -4    1    3    3    0  502 -0.19268214989E+02 -0.21764874593E+03  0.88608335939E+02  0.23578653653E+03  0.12699999809E+01 0. -1.
</event>
<event>
 5   0  0.6557679E-03  0.8032988E+03  0.7818609E-02  0.9555254E-01
        1   -1    0    0  501    0  0.00000000000E+00  0.00000000000E+00  0.11000685230E+04  0.11000685230E+04  0.50400001928E-02 0. -1.
       -1   -1    0    0    0  501  0.00000000000E+00  0.00000000000E+00 -0.14664745225E+03  0.14664745234E+03  0.50400001928E-02 0.  1.
    10030    2    1    2    0    0  0.00000000000E+00  0.00000000000E+00  0.95342107074E+03  0.12467159753E+04  0.80329881429E+03 0.  0.
        1    1    3    3  502    0 -0.21763670558E+03  0.60965611161E+02 -0.38588606903E+02  0.22928502342E+03  0.50400001928E-02 0.  1.
       -1    1    3    3    0  502  0.21763670558E+03 -0.60965611161E+02  0.99200967764E+03  0.10174309519E+04  0.50400001928E-02 0. -1.
</event>
<event>
 5   0  0.1121480E-02  0.7308942E+03  0.7818609E-02  0.9665810E-01
       -2   -1    0    0    0  501  0.00000000000E+00  0.00000000000E+00  0.80985898442E+02  0.80985898483E+02  0.25500000920E-02 0. -1.
        2   -1    0    0  501    0  0.00000000000E+00  0.00000000000E+00 -0.16490722779E+04  0.16490722779E+04  0.25500000920E-02 0.  1.
    10030    2    1    2    0    0  0.00000000000E+00  0.00000000000E+00 -0.15680863795E+04  0.17300581764E+04  0.73089424696E+03 0.  0.
        2    1    3    3  502    0  0.32909859617E+03  0.11729325582E+03 -0.10377478790E+04  0.10949813944E+04  0.25500000920E-02 0.  1.
       -2    1    3    3    0  502 -0.32909859617E+03 -0.11729325582E+03 -0.53033850051E+03  0.63507678197E+03  0.25500000920E-02 0. -1.
</event>
<event>
 5   0  0.6557679E-03  0.8097379E+03  0.7818609E-02  0.9546028E-01
        1   -1    0    0  501    0  0.00000000000E+00  0.00000000000E+00  0.11690393297E+04  0.11690393297E+04  0.50400001928E-02 0. -1.
       -1   -1    0    0    0  501  0.00000000000E+00  0.00000000000E+00 -0.14021672673E+03  0.14021672682E+03  0.50400001928E-02 0.  1.
    10030    2    1    2    0    0  0.00000000000E+00  0.00000000000E+00  0.10288226029E+04  0.13092560565E+04  0.80973790398E+03 0.  0.
        1    1    3    3  502    0 -0.17039534158E+03  0.36717778391E+03  0.50139852801E+03  0.64440249948E+03  0.50400001928E-02 0.  1.
       -1    1    3    3    0  502  0.17039534158E+03 -0.36717778391E+03  0.52742407493E+03  0.66485355701E+03  0.50400001928E-02 0. -1.
</event>
<event>
 5   0  0.1106332E-02  0.8009573E+03  0.7818609E-02  0.9558632E-01
        2   -1    0    0  501    0  0.00000000000E+00  0.00000000000E+00  0.26030646716E+04  0.26030646716E+04  0.25500000920E-02 0. -1.
       -2   -1    0    0    0  501  0.00000000000E+00  0.00000000000E+00 -0.61613204761E+02  0.61613204813E+02  0.25500000920E-02 0.  1.
    10030    2    1    2    0    0  0.00000000000E+00  0.00000000000E+00  0.25414514668E+04  0.26646778764E+04  0.80095731893E+03 0.  0.
        1    1    3    3  502    0  0.21012684001E+03 -0.26589590762E+03  0.19805984982E+04  0.20093840682E+04  0.50400001928E-02 0.  1.
       -1    1    3    3    0  502 -0.21012684001E+03  0.26589590762E+03  0.56085296865E+03  0.65529380819E+03  0.50400001928E-02 0. -1.
</event>
<event>
 5   0  0.6517392E-03  0.7858544E+03  0.7818609E-02  0.9580721E-01
        1   -1    0    0  501    0  0.00000000000E+00  0.00000000000E+00  0.92375226374E+03  0.92375226375E+03  0.50400001928E-02 0. -1.
       -1   -1    0    0    0  501  0.00000000000E+00  0.00000000000E+00 -0.16713548770E+03  0.16713548778E+03  0.50400001928E-02 0.  1.
    10030    2    1    2    0    0  0.00000000000E+00  0.00000000000E+00  0.75661677604E+03  0.10908877515E+04  0.78585440169E+03 0.  0.
        3    1    3    3  502    0 -0.32931932982E+03  0.20500080055E+03  0.46516769886E+03  0.60568766496E+03  0.10100000352E+00 0.  1.
       -3    1    3    3    0  502  0.32931932982E+03 -0.20500080055E+03  0.29144907718E+03  0.48520008657E+03  0.10100000352E+00 0. -1.
</event>
<event>
 5   0  0.1154714E-02  0.8001493E+03  0.7818609E-02  0.9559801E-01
        2   -1    0    0  501    0  0.00000000000E+00  0.00000000000E+00  0.32424055331E+03  0.32424055332E+03  0.25500000920E-02 0.  1.
       -2   -1    0    0    0  501  0.00000000000E+00  0.00000000000E+00 -0.49364495123E+03  0.49364495124E+03  0.25500000920E-02 0. -1.
    10030    2    1    2    0    0  0.00000000000E+00  0.00000000000E+00 -0.16940439793E+03  0.81788550456E+03  0.80014926640E+03 0.  0.
        5    1    3    3  502    0 -0.14084413967E+03  0.47800708345E+01 -0.46740440610E+03  0.48820988273E+03  0.46999998093E+01 0. -1.
       -5    1    3    3    0  502  0.14084413967E+03 -0.47800708345E+01  0.29800000817E+03  0.32967562183E+03  0.46999998093E+01 0.  1.
</event>
<event>
 5   0  0.1106332E-02  0.8013409E+03  0.7818609E-02  0.9558078E-01
        2   -1    0    0  501    0  0.00000000000E+00  0.00000000000E+00  0.14339539417E+04  0.14339539417E+04  0.25500000920E-02 0.  1.
       -2   -1    0    0    0  501  0.00000000000E+00  0.00000000000E+00 -0.11195393878E+03  0.11195393880E+03  0.25500000920E-02 0. -1.
    10030    2    1    2    0    0  0.00000000000E+00  0.00000000000E+00  0.13220000029E+04  0.15459078805E+04  0.80134085586E+03 0.  0.
        1    1    3    3  502    0 -0.37570677100E+02  0.30209835110E+03  0.11635497780E+04  0.12027148688E+04  0.50400001928E-02 0.  1.
       -1    1    3    3    0  502  0.37570677100E+02 -0.30209835110E+03  0.15845022485E+03  0.34319301172E+03  0.50400001928E-02 0. -1.
</event>
<event>
 5   0  0.6600401E-03  0.7993208E+03  0.7818609E-02  0.9561001E-01
        1   -1    0    0  501    0  0.00000000000E+00  0.00000000000E+00  0.10923024381E+03  0.10923024393E+03  0.50400001928E-02 0. -1.
       -1   -1    0    0    0  501  0.00000000000E+00  0.00000000000E+00 -0.14623096734E+04  0.14623096734E+04  0.50400001928E-02 0.  1.
    10030    2    1    2    0    0  0.00000000000E+00  0.00000000000E+00 -0.13530794296E+04  0.15715399174E+04  0.79932081733E+03 0.  0.
        2    1    3    3  502    0 -0.47247258193E+02  0.10500935673E+03  0.75909873340E+02  0.13791873435E+03  0.25500000920E-02 0. -1.
       -2    1    3    3    0  502  0.47247258193E+02 -0.10500935673E+03 -0.14289893030E+04  0.14336211830E+04  0.25500000920E-02 0.  1.
</event>
<event>
 5   0  0.1121480E-02  0.7931388E+03  0.7818609E-02  0.9570002E-01
       -2   -1    0    0    0  501  0.00000000000E+00  0.00000000000E+00  0.28063261779E+03  0.28063261780E+03  0.25500000920E-02 0. -1.
        2   -1    0    0  501    0  0.00000000000E+00  0.00000000000E+00 -0.56040278202E+03  0.56040278203E+03  0.25500000920E-02 0.  1.
    10030    2    1    2    0    0  0.00000000000E+00  0.00000000000E+00 -0.27977016423E+03  0.84103539983E+03  0.79313882705E+03 0.  0.
        2    1    3    3  502    0  0.16142600878E+03 -0.37225883416E+02  0.24218337250E+03  0.29342274729E+03  0.25500000920E-02 0. -1.
       -2    1    3    3    0  502 -0.16142600878E+03  0.37225883416E+02 -0.52195353673E+03  0.54761265254E+03  0.25500000920E-02 0.  1.
</event>
<event>
 5   0  0.1106332E-02  0.8088173E+03  0.7818609E-02  0.9547341E-01
       -2   -1    0    0    0  501  0.00000000000E+00  0.00000000000E+00  0.21296392953E+03  0.21296392954E+03  0.25500000920E-02 0.  1.
        2   -1    0    0  501    0  0.00000000000E+00  0.00000000000E+00 -0.76795338797E+03  0.76795338797E+03  0.25500000920E-02 0. -1.
    10030    2    1    2    0    0  0.00000000000E+00  0.00000000000E+00 -0.55498945844E+03  0.98091731752E+03  0.80881733712E+03 0.  0.
        1    1    3    3  502    0 -0.17560375557E+03 -0.87827552685E+02  0.15128083845E+03  0.24786336980E+03  0.50400001928E-02 0.  1.
       -1    1    3    3    0  502  0.17560375557E+03  0.87827552685E+02 -0.70627029688E+03  0.73305394772E+03  0.50400001928E-02 0. -1.
</event>
<event>
 5   0  0.6600401E-03  0.7928611E+03  0.7818609E-02  0.9570408E-01
        1   -1    0    0  501    0  0.00000000000E+00  0.00000000000E+00  0.13753615672E+04  0.13753615672E+04  0.50400001928E-02 0.  1.
       -1   -1    0    0    0  501  0.00000000000E+00  0.00000000000E+00 -0.11426607913E+03  0.11426607924E+03  0.50400001928E-02 0. -1.
    10030    2    1    2    0    0  0.00000000000E+00  0.00000000000E+00  0.12610954880E+04  0.14896276464E+04  0.79286108179E+03 0.  0.
        2    1    3    3  502    0 -0.64117682190E+02  0.30323945497E+03  0.10949267144E+04  0.11379498030E+04  0.25500000920E-02 0.  1.
       -2    1    3    3    0  502  0.64117682190E+02 -0.30323945497E+03  0.16616877366E+03  0.35167784344E+03  0.25500000920E-02 0. -1.
</event>
<event>
 5   0  0.6551489E-03  0.8110254E+03  0.7818609E-02  0.9544194E-01
        1   -1    0    0  501    0  0.00000000000E+00  0.00000000000E+00  0.68216599969E+03  0.68216599971E+03  0.50400001928E-02 0. -1.
       -1   -1    0    0    0  501  0.00000000000E+00  0.00000000000E+00 -0.24105648493E+03  0.24105648499E+03  0.50400001928E-02 0.  1.
    10030    2    1    2    0    0  0.00000000000E+00  0.00000000000E+00  0.44110951476E+03  0.92322248470E+03  0.81102537090E+03 0.  0.
        4    1    3    3  502    0 -0.80596809360E+02 -0.16351078310E+03  0.63289045728E+03  0.65862247585E+03  0.12699999809E+01 0. -1.
       -4    1    3    3    0  502  0.80596809360E+02  0.16351078310E+03 -0.19178094253E+03  0.26460000885E+03  0.12699999809E+01 0.  1.
</event>
<event>
 5   0  0.1154714E-02  0.7990673E+03  0.7818609E-02  0.9561368E-01
       -2   -1    0    0    0  501  0.00000000000E+00  0.00000000000E+00  0.31534030642E+03  0.31534030643E+03  0.25500000920E-02 0. -1.
        2   -1    0    0  501    0  0.00000000000E+00  0.00000000000E+00 -0.50620598141E+03  0.50620598142E+03  0.25500000920E-02 0.  1.
    10030    2    1    2    0    0  0.00000000000E+00  0.00000000000E+00 -0.19086567499E+03  0.82154628785E+03  0.79906732957E+03 0.  0.
        5    1    3    3  502    0 -0.11857912364E+03 -0.38091506962E+03 -0.11718846127E+03  0.41582751746E+03  0.46999998093E+01 0.  1.
       -5    1    3    3    0  502  0.11857912364E+03  0.38091506962E+03 -0.73677213720E+02  0.40571877039E+03  0.46999998093E+01 0. -1.
</event>
<event>
 5   0  0.6517392E-03  0.7928011E+03  0.7818609E-02  0.9570496E-01
        1   -1    0    0  501    0  0.00000000000E+00  0.00000000000E+00  0.30537005865E+03  0.30537005869E+03  0.50400001928E-02 0. -1.
       -1   -1    0    0    0  501  0.00000000000E+00  0.00000000000E+00 -0.51456715605E+03  0.51456715608E+03  0.50400001928E-02 0.  1.
    10030    2    1    2    0    0  0.00000000000E+00  0.00000000000E+00 -0.20919709741E+03  0.81993721476E+03  0.79280111667E+03 0.  0.
        3    1    3    3  502    0 -0.25214674836E+03 -0.78942867114E+02  0.20102143402E+03  0.33199335252E+03  0.10100000352E+00 0. -1.
       -3    1    3    3    0  502  0.25214674836E+03  0.78942867114E+02 -0.41021853143E+03  0.48794386225E+03  0.10100000352E+00 0.  1.
</event>
<event>
 5   0  0.6557679E-03  0.8095898E+03  0.7818609E-02  0.9546239E-01
       -1   -1    0    0    0  501  0.00000000000E+00  0.00000000000E+00  0.91856892707E+02  0.91856892846E+02  0.50400001928E-02 0.  1.
        1   -1    0    0  501    0  0.00000000000E+00  0.00000000000E+00 -0.17838498625E+04  0.17838498625E+04  0.50400001928E-02 0. -1.
    10030    2    1    2    0    0  0.00000000000E+00  0.00000000000E+00 -0.16919929698E+04  0.18757067554E+04  0.80958978641E+03 0.  0.
        1    1    3    3  502    0 -0.43931010029E+02  0.38243903053E+03 -0.11360148826E+04  0.11994662810E+04  0.50400001928E-02 0. -1.
       -1    1    3    3    0  502  0.43931010029E+02 -0.38243903053E+03 -0.55597808725E+03  0.67624047442E+03  0.50400001928E-02 0.  1.
</event>
<event>
 5   0  0.1092868E-02  0.8026018E+03  0.7818609E-02  0.9556259E-01
        2   -1    0    0  501    0  0.00000000000E+00  0.00000000000E+00  0.73431661497E+03  0.73431661497E+03  0.25500000920E-02 0. -1.
       -2   -1    0    0    0  501  0.00000000000E+00  0.00000000000E+00 -0.21930924058E+03  0.21930924059E+03  0.25500000920E-02 0.  1.
    10030    2    1    2    0    0  0.00000000000E+00  0.00000000000E+00  0.51500737439E+03  0.95362585556E+03  0.80260181704E+03 0.  0.
        3    1    3    3  502    0  0.31854754607E+03  0.23305269464E+03  0.34364637567E+03  0.52333444307E+03  0.10100000352E+00 0.  1.
       -3    1    3    3    0  502 -0.31854754607E+03 -0.23305269464E+03  0.17136099872E+03  0.43029141250E+03  0.10100000352E+00 0. -1.
</event>
<event>
 5   0  0.1154714E-02  0.7972906E+03  0.7818609E-02  0.9563947E-01
        2   -1    0    0  501    0  0.00000000000E+00  0.00000000000E+00  0.88083245513E+03  0.88083245513E+03  0.25500000920E-02 0.  1.
       -2   -1    0    0    0  501  0.00000000000E+00  0.00000000000E+00 -0.18041803297E+03  0.18041803298E+03  0.25500000920E-02 0. -1.
    10030    2    1    2    0    0  0.00000000000E+00  0.00000000000E+00  0.70041442216E+03  0.10612504881E+04  0.79729055918E+03 0.  0.
        5    1    3    3  502    0  0.23116713325E+03 -0.10342926165E+02  0.78224336963E+03  0.81576467130E+03  0.46999998093E+01 0.  1.
       -5    1    3    3    0  502 -0.23116713325E+03  0.10342926165E+02 -0.81828947464E+02  0.24548581682E+03  0.46999998093E+01 0. -1.
</event>
<event>
 5   0  0.6596225E-03  0.8038366E+03  0.7818609E-02  0.9554480E-01
       -1   -1    0    0    0  501  0.00000000000E+00  0.00000000000E+00  0.47536614070E+03  0.47536614072E+03  0.50400001928E-02 0. -1.
        1   -1    0    0  501    0  0.00000000000E+00  0.00000000000E+00 -0.33981872020E+03  0.33981872024E+03  0.50400001928E-02 0.  1.
    10030    2    1    2    0    0  0.00000000000E+00  0.00000000000E+00  0.13554742050E+03  0.81518486096E+03  0.80383658435E+03 0.  0.
        5    1    3    3  502    0  0.18605036384E+03 -0.31298293113E+03  0.24030242590E+03  0.43628018400E+03  0.46999998093E+01 0. -1.
       -5    1    3    3    0  502 -0.18605036384E+03  0.31298293113E+03 -0.10475500540E+03  0.37890467696E+03  0.46999998093E+01 0.  1.
</event>
<event>
 5   0  0.6600401E-03  0.8001687E+03  0.7818609E-02  0.9559773E-01
       -1   -1    0    0    0  501  0.00000000000E+00  0.00000000000E+00  0.16237165630E+03  0.16237165637E+03  0.50400001928E-02 0.  1.
        1   -1    0    0  501    0  0.00000000000E+00  0.00000000000E+00 -0.98580919269E+03  0.98580919270E+03  0.50400001928E-02 0. -1.
    10030    2    1    2    0    0  0.00000000000E+00  0.00000000000E+00 -0.82343753639E+03  0.11481808491E+04  0.80016866087E+03 0.  0.
        2    1    3    3  502    0  0.26103797067E+03 -0.18256242158E+03 -0.75906989985E+03  0.82319923030E+03  0.25500000920E-02 0. -1.
       -2    1    3    3    0  502 -0.26103797067E+03  0.18256242158E+03 -0.64367636544E+02  0.32498161878E+03  0.25500000920E-02 0.  1.
</event>
<event>
 5   0  0.1119792E-02  0.8060217E+03  0.7818609E-02  0.9551342E-01
       -2   -1    0    0    0  501  0.00000000000E+00  0.00000000000E+00  0.11548231218E+03  0.11548231221E+03  0.25500000920E-02 0.  1.
        2   -1    0    0  501    0  0.00000000000E+00  0.00000000000E+00 -0.14064296807E+04  0.14064296808E+04  0.25500000920E-02 0. -1.
    10030    2    1    2    0    0  0.00000000000E+00  0.00000000000E+00 -0.12909473686E+04  0.15219119930E+04  0.80602171553E+03 0.  0.
        4    1    3    3  502    0 -0.34368341123E+03  0.43252043416E+02 -0.10343974955E+04  0.10908569191E+04  0.12699999809E+01 0. -1.
       -4    1    3    3    0  502  0.34368341123E+03 -0.43252043416E+02 -0.25654987312E+03  0.43105507387E+03  0.12699999809E+01 0.  1.
</event>
<event>
 5   0  0.1154714E-02  0.8009801E+03  0.7818609E-02  0.9558600E-01
        2   -1    0    0  501    0  0.00000000000E+00  0.00000000000E+00  0.10185800143E+04  0.10185800143E+04  0.25500000920E-02 0.  1.
       -2   -1    0    0    0  501  0.00000000000E+00  0.00000000000E+00 -0.15746653786E+03  0.15746653788E+03  0.25500000920E-02 0. -1.
    10030    2    1    2    0    0  0.00000000000E+00  0.00000000000E+00  0.86111347639E+03  0.11760465521E+04  0.80098007065E+03 0.  0.
        5    1    3    3  502    0 -0.35212535294E+03 -0.95764542439E+02  0.67273974264E+03  0.76535218239E+03  0.46999998093E+01 0. -1.
       -5    1    3    3    0  502  0.35212535294E+03  0.95764542439E+02  0.18837373375E+03  0.41069436975E+03  0.46999998093E+01 0.  1.
</event>
<event>
 5   0  0.6557679E-03  0.7116996E+03  0.7818609E-02  0.9697431E-01
        1   -1    0    0  501    0  0.00000000000E+00  0.00000000000E+00  0.11581313525E+03  0.11581313536E+03  0.50400001928E-02 0. -1.
       -1   -1    0    0    0  501  0.00000000000E+00  0.00000000000E+00 -0.10933913522E+04  0.10933913522E+04  0.50400001928E-02 0.  1.
    10030    2    1    2    0    0  0.00000000000E+00  0.00000000000E+00 -0.97757821691E+03  0.12092044875E+04  0.71169960130E+03 0.  0.
        1    1    3    3  502    0  0.31052607657E+02  0.35293277167E+03 -0.43235458209E+03  0.55897789798E+03  0.50400001928E-02 0.  1.
       -1    1    3    3    0  502 -0.31052607657E+02 -0.35293277167E+03 -0.54522363483E+03  0.65022658955E+03  0.50400001928E-02 0. -1.
</event>
<event>
 5   0  0.1121480E-02  0.7991556E+03  0.7818609E-02  0.9561240E-01
       -2   -1    0    0    0  501  0.00000000000E+00  0.00000000000E+00  0.10942611356E+03  0.10942611359E+03  0.25500000920E-02 0. -1.
        2   -1    0    0  501    0  0.00000000000E+00  0.00000000000E+00 -0.14590888628E+04  0.14590888628E+04  0.25500000920E-02 0.  1.
    10030    2    1    2    0    0  0.00000000000E+00  0.00000000000E+00 -0.13496627492E+04  0.15685149764E+04  0.79915561342E+03 0.  0.
        2    1    3    3  502    0 -0.21089531512E+02  0.36972362237E+03 -0.38027953432E+03  0.53080396523E+03  0.25500000920E-02 0.  1.
       -2    1    3    3    0  502  0.21089531512E+02 -0.36972362237E+03 -0.96938321492E+03  0.10377110112E+04  0.25500000920E-02 0. -1.
</event>
<event>
 5   0  0.4385875E-03  0.7948151E+03  0.7818609E-02  0.9567553E-01
       -3   -1    0    0    0  501  0.00000000000E+00  0.00000000000E+00  0.43029997445E+03  0.43029998630E+03  0.10100000352E+00 0. -1.
        3   -1    0    0  501    0  0.00000000000E+00  0.00000000000E+00 -0.36702938062E+03  0.36702939452E+03  0.10100000352E+00 0.  1.
    10030    2    1    2    0    0  0.00000000000E+00  0.00000000000E+00  0.63270593831E+02  0.79732938082E+03  0.79481505615E+03 0.  0.
        5    1    3    3  502    0 -0.35420836350E+03 -0.17985223396E+03  0.21590503106E+02  0.39786760443E+03  0.46999998093E+01 0. -1.
       -5    1    3    3    0  502  0.35420836350E+03  0.17985223396E+03  0.41680090725E+02  0.39946177639E+03  0.46999998093E+01 0.  1.
</event>
<event>
 5   0  0.6600401E-03  0.8064693E+03  0.7818609E-02  0.9550700E-01
       -1   -1    0    0    0  501  0.00000000000E+00  0.00000000000E+00  0.16700250051E+03  0.16700250058E+03  0.50400001928E-02 0.  1.
        1   -1    0    0  501    0  0.00000000000E+00  0.00000000000E+00 -0.97362713038E+03  0.97362713039E+03  0.50400001928E-02 0. -1.
    10030    2    1    2    0    0  0.00000000000E+00  0.00000000000E+00 -0.80662462987E+03  0.11406296310E+04  0.80646925642E+03 0.  0.
        2    1    3    3  502    0  0.39390548645E+03 -0.44500669748E+02 -0.50778599418E+03  0.64419597776E+03  0.25500000920E-02 0. -1.
       -2    1    3    3    0  502 -0.39390548645E+03  0.44500669748E+02 -0.29883863569E+03  0.49643365322E+03  0.25500000920E-02 0.  1.
</event>
<event>
 5   0  0.1106332E-02  0.8035994E+03  0.7818609E-02  0.9554822E-01
       -2   -1    0    0    0  501  0.00000000000E+00  0.00000000000E+00  0.25868944504E+03  0.25868944506E+03  0.25500000920E-02 0. -1.
        2   -1    0    0  501    0  0.00000000000E+00  0.00000000000E+00 -0.62408038455E+03  0.62408038456E+03  0.25500000920E-02 0.  1.
    10030    2    1    2    0    0  0.00000000000E+00  0.00000000000E+00 -0.36539093951E+03  0.88276982961E+03  0.80359942347E+03 0.  0.
        1    1    3    3  502    0  0.29038778103E+03 -0.38869033038E+02  0.11936179110E+03  0.31635913501E+03  0.50400001928E-02 0. -1.
       -1    1    3    3    0  502 -0.29038778103E+03  0.38869033038E+02 -0.48475273061E+03  0.56641069461E+03  0.50400001928E-02 0.  1.
</event>
<event>
 5   0  0.6557679E-03  0.7733732E+03  0.7818609E-02  0.9599379E-01
       -1   -1    0    0    0  501  0.00000000000E+00  0.00000000000E+00  0.19861544724E+03  0.19861544731E+03  0.50400001928E-02 0. -1.
        1   -1    0    0  501    0  0.00000000000E+00  0.00000000000E+00 -0.75284441823E+03  0.75284441824E+03  0.50400001928E-02 0.  1.
    10030    2    1    2    0    0  0.00000000000E+00  0.00000000000E+00 -0.55422897098E+03  0.95145986555E+03  0.77337321099E+03 0.  0.
        1    1    3    3  502    0 -0.55431700477E+02 -0.35636544365E+03 -0.10550346208E+03  0.37576586245E+03  0.50400001928E-02 0. -1.
       -1    1    3    3    0  502  0.55431700477E+02  0.35636544365E+03 -0.44872550890E+03  0.57569400310E+03  0.50400001928E-02 0.  1.
</event>
<event>
 5   0  0.6517392E-03  0.7983779E+03  0.7818609E-02  0.9562368E-01
        1   -1    0    0  501    0  0.00000000000E+00  0.00000000000E+00  0.18650714440E+03  0.18650714446E+03  0.50400001928E-02 0. -1.
       -1   -1    0    0    0  501  0.00000000000E+00  0.00000000000E+00 -0.85440061701E+03  0.85440061703E+03  0.50400001928E-02 0.  1.
    10030    2    1    2    0    0  0.00000000000E+00  0.00000000000E+00 -0.66789347262E+03  0.10409077615E+04  0.79837790373E+03 0.  0.
        3    1    3    3  502    0 -0.47020082269E+02 -0.39588194002E+03 -0.36061563210E+03  0.53756584981E+03  0.10100000352E+00 0.  1.
       -3    1    3    3    0  502  0.47020082269E+02  0.39588194002E+03 -0.30727784052E+03  0.50334191168E+03  0.10100000352E+00 0. -1.
</event>
<event>
 5   0  0.1119792E-02  0.8000211E+03  0.7818609E-02  0.9559987E-01
        2   -1    0    0  501    0  0.00000000000E+00  0.00000000000E+00  0.11127977178E+04  0.11127977178E+04  0.25500000920E-02 0. -1.
       -2   -1    0    0    0  501  0.00000000000E+00  0.00000000000E+00 -0.14378933991E+03  0.14378933993E+03  0.25500000920E-02 0.  1.
    10030    2    1    2    0    0  0.00000000000E+00  0.00000000000E+00  0.96900837793E+03  0.12565870578E+04  0.80002112301E+03 0.  0.
        4    1    3    3  502    0 -0.27826877004E+03  0.11142748540E+03  0.90053681220E+03  0.94911419540E+03  0.12699999809E+01 0. -1.
       -4    1    3    3    0  502  0.27826877004E+03 -0.11142748540E+03  0.68471565730E+02  0.30747286237E+03  0.12699999809E+01 0.  1.
</event>
<event>
 5   0  0.1106332E-02  0.7883998E+03  0.7818609E-02  0.9576961E-01
        2   -1    0    0  501    0  0.00000000000E+00  0.00000000000E+00  0.59191884298E+03  0.59191884298E+03  0.25500000920E-02 0.  1.
       -2   -1    0    0    0  501  0.00000000000E+00  0.00000000000E+00 -0.26252509318E+03  0.26252509319E+03  0.25500000920E-02 0. -1.
    10030    2    1    2    0    0  0.00000000000E+00  0.00000000000E+00  0.32939374980E+03  0.85444393618E+03  0.78839977021E+03 0.  0.
        1    1    3    3  502    0 -0.35494258201E+03  0.92780423289E+02  0.83892025976E+01  0.36696433371E+03  0.50400001928E-02 0. -1.
       -1    1    3    3    0  502  0.35494258201E+03 -0.92780423289E+02  0.32100454720E+03  0.48747960246E+03  0.50400001928E-02 0.  1.
</event>
<event>
 5   0  0.4385875E-03  0.7998529E+03  0.7818609E-02  0.9560230E-01
       -4   -1    0    0    0  501  0.00000000000E+00  0.00000000000E+00  0.35948524032E+03  0.35948748366E+03  0.12699999809E+01 0.  1.
        4   -1    0    0  501    0  0.00000000000E+00  0.00000000000E+00 -0.44491266286E+03  0.44491447546E+03  0.12699999809E+01 0. -1.
    10030    2    1    2    0    0  0.00000000000E+00  0.00000000000E+00 -0.85427422541E+02  0.80440195912E+03  0.79985290355E+03 0.  0.
        4    1    3    3  502    0 -0.17829187032E+03  0.17068661264E+03 -0.35917404844E+03  0.43580904159E+03  0.12699999809E+01 0. -1.
       -4    1    3    3    0  502  0.17829187032E+03 -0.17068661264E+03  0.27374662590E+03  0.36859291753E+03  0.12699999809E+01 0.  1.
</event>
<event>
 5   0  0.6551489E-03  0.7991203E+03  0.7818609E-02  0.9561291E-01
       -1   -1    0    0    0  501  0.00000000000E+00  0.00000000000E+00  0.64203251921E+03  0.64203251923E+03  0.50400001928E-02 0. -1.
        1   -1    0    0  501    0  0.00000000000E+00  0.00000000000E+00 -0.24866077294E+03  0.24866077299E+03  0.50400001928E-02 0.  1.
    10030    2    1    2    0    0  0.00000000000E+00  0.00000000000E+00  0.39337174627E+03  0.89069329222E+03  0.79912027257E+03 0.  0.
        4    1    3    3  502    0 -0.18126738032E+03 -0.32735538854E+03  0.40534413350E+02  0.37638287041E+03  0.12699999809E+01 0.  1.
       -4    1    3    3    0  502  0.18126738032E+03  0.32735538854E+03  0.35283733292E+03  0.51431042181E+03  0.12699999809E+01 0. -1.
</event>
<event>
 5   0  0.6596225E-03  0.7737411E+03  0.7818609E-02  0.9598823E-01
       -1   -1    0    0    0  501  0.00000000000E+00  0.00000000000E+00  0.29699552733E+03  0.29699552737E+03  0.50400001928E-02 0.  1.
        1   -1    0    0  501    0  0.00000000000E+00  0.00000000000E+00 -0.50394301126E+03  0.50394301128E+03  0.50400001928E-02 0. -1.
    10030    2    1    2    0    0  0.00000000000E+00  0.00000000000E+00 -0.20694748393E+03  0.80093853865E+03  0.77374109468E+03 0.  0.
        5    1    3    3  502    0 -0.20247922119E+03  0.23069595183E+03 -0.34718141440E+03  0.46343875723E+03  0.46999998093E+01 0. -1.
       -5    1    3    3    0  502  0.20247922119E+03 -0.23069595183E+03  0.14023393047E+03  0.33749978142E+03  0.46999998093E+01 0.  1.
</event>
<event>
 5   0  0.1121480E-02  0.7979797E+03  0.7818609E-02  0.9562946E-01
        2   -1    0    0  501    0  0.00000000000E+00  0.00000000000E+00  0.76849964099E+03  0.76849964100E+03  0.25500000920E-02 0.  1.
       -2   -1    0    0    0  501  0.00000000000E+00  0.00000000000E+00 -0.20714767767E+03  0.20714767768E+03  0.25500000920E-02 0. -1.
    10030    2    1    2    0    0  0.00000000000E+00  0.00000000000E+00  0.56135196333E+03  0.97564731868E+03  0.79797973891E+03 0.  0.
        2    1    3    3  502    0 -0.33650869283E+03 -0.19868888431E+03  0.18227348052E+03  0.43120644105E+03  0.25500000920E-02 0. -1.
       -2    1    3    3    0  502  0.33650869283E+03  0.19868888431E+03  0.37907848280E+03  0.54444087762E+03  0.25500000920E-02 0.  1.
</event>
<event>
 5   0  0.6551489E-03  0.8077226E+03  0.7818609E-02  0.9548906E-01
        1   -1    0    0  501    0  0.00000000000E+00  0.00000000000E+00  0.30342304802E+03  0.30342304807E+03  0.50400001928E-02 0. -1.
       -1   -1    0    0    0  501  0.00000000000E+00  0.00000000000E+00 -0.53754636897E+03  0.53754636899E+03  0.50400001928E-02 0.  1.
    10030    2    1    2    0    0  0.00000000000E+00  0.00000000000E+00 -0.23412332095E+03  0.84096941706E+03  0.80772262010E+03 0.  0.
        4    1    3    3  502    0 -0.22751418757E+03  0.22241412925E+03  0.14191677980E+03  0.34838590058E+03  0.12699999809E+01 0. -1.
       -4    1    3    3    0  502  0.22751418757E+03 -0.22241412925E+03 -0.37604010075E+03  0.49258351648E+03  0.12699999809E+01 0.  1.
</event>
<event>
 5   0  0.1154714E-02  0.7965872E+03  0.7818609E-02  0.9564970E-01
       -2   -1    0    0    0  501  0.00000000000E+00  0.00000000000E+00  0.40255791425E+03  0.40255791426E+03  0.25500000920E-02 0.  1.
        2   -1    0    0  501    0  0.00000000000E+00  0.00000000000E+00 -0.39407443357E+03  0.39407443357E+03  0.25500000920E-02 0. -1.
    10030    2    1    2    0    0  0.00000000000E+00  0.00000000000E+00  0.84834806882E+01  0.79663234784E+03  0.79658717550E+03 0.  0.
        5    1    3    3  502    0 -0.93195947071E+02  0.26773597559E+03 -0.27550194511E+03  0.39533713326E+03  0.46999998093E+01 0. -1.
       -5    1    3    3    0  502  0.93195947071E+02 -0.26773597559E+03  0.28398542580E+03  0.40129521458E+03  0.46999998093E+01 0.  1.
</event>
<event>
 5   0  0.6596225E-03  0.7894250E+03  0.7818609E-02  0.9575451E-01
        1   -1    0    0  501    0  0.00000000000E+00  0.00000000000E+00  0.71822055671E+03  0.71822055672E+03  0.50400001928E-02 0. -1.
       -1   -1    0    0    0  501  0.00000000000E+00  0.00000000000E+00 -0.21692217723E+03  0.21692217729E+03  0.50400001928E-02 0.  1.
    10030    2    1    2    0    0  0.00000000000E+00  0.00000000000E+00  0.50129837948E+03  0.93514273401E+03  0.78942502348E+03 0.  0.
        5    1    3    3  502    0 -0.38893052492E+03  0.64223899802E+02  0.27386874185E+03  0.48001858327E+03  0.46999998093E+01 0. -1.
       -5    1    3    3    0  502  0.38893052492E+03 -0.64223899802E+02  0.22742963763E+03  0.45512415074E+03  0.46999998093E+01 0.  1.
</event>
<event>
 5   0  0.6557679E-03  0.8014946E+03  0.7818609E-02  0.9557856E-01
       -1   -1    0    0    0  501  0.00000000000E+00  0.00000000000E+00  0.83562368112E+02  0.83562368264E+02  0.50400001928E-02 0. -1.
        1   -1    0    0  501    0  0.00000000000E+00  0.00000000000E+00 -0.19218984305E+04  0.19218984305E+04  0.50400001928E-02 0.  1.
    10030    2    1    2    0    0  0.00000000000E+00  0.00000000000E+00 -0.18383360624E+04  0.20054607988E+04  0.80149456463E+03 0.  0.
        1    1    3    3  502    0  0.64836952286E+02 -0.32926073347E+02 -0.19052520112E+04  0.19066392378E+04  0.50400001928E-02 0.  1.
       -1    1    3    3    0  502 -0.64836952286E+02  0.32926073347E+02  0.66915948829E+02  0.98821561012E+02  0.50400001928E-02 0. -1.
</event>
<event>
 5   0  0.1121480E-02  0.8012564E+03  0.7818609E-02  0.9558200E-01
        2   -1    0    0  501    0  0.00000000000E+00  0.00000000000E+00  0.16963497871E+04  0.16963497871E+04  0.25500000920E-02 0.  1.
       -2   -1    0    0    0  501  0.00000000000E+00  0.00000000000E+00 -0.94616666596E+02  0.94616666630E+02  0.25500000920E-02 0. -1.
    10030    2    1    2    0    0  0.00000000000E+00  0.00000000000E+00  0.16017331205E+04  0.17909664537E+04  0.80125641905E+03 0.  0.
        2    1    3    3  502    0 -0.61310199095E+02 -0.74020439329E+02 -0.68464406417E+02  0.11800568166E+03  0.25500000920E-02 0. -1.
       -2    1    3    3    0  502  0.61310199095E+02  0.74020439329E+02  0.16701975269E+04  0.16729607721E+04  0.25500000920E-02 0.  1.
</event>
<event>
 5   0  0.6596225E-03  0.8005887E+03  0.7818609E-02  0.9559165E-01
       -1   -1    0    0    0  501  0.00000000000E+00  0.00000000000E+00  0.12062010440E+03  0.12062010451E+03  0.50400001928E-02 0.  1.
        1   -1    0    0  501    0  0.00000000000E+00  0.00000000000E+00 -0.13284316051E+04  0.13284316051E+04  0.50400001928E-02 0. -1.
    10030    2    1    2    0    0  0.00000000000E+00  0.00000000000E+00 -0.12078115007E+04  0.14490517096E+04  0.80058868087E+03 0.  0.
        5    1    3    3  502    0 -0.30624941061E+03 -0.23593653510E+03 -0.41616665615E+03  0.56804183454E+03  0.46999998093E+01 0. -1.
       -5    1    3    3    0  502  0.30624941061E+03  0.23593653510E+03 -0.79164484455E+03  0.88100987509E+03  0.46999998093E+01 0.  1.
</event>
<event>
 5   0  0.1106332E-02  0.8090619E+03  0.7818609E-02  0.9546992E-01
       -2   -1    0    0    0  501  0.00000000000E+00  0.00000000000E+00  0.18263817887E+03  0.18263817888E+03  0.25500000920E-02 0. -1.
        2   -1    0    0  501    0  0.00000000000E+00  0.00000000000E+00 -0.89600807820E+03  0.89600807820E+03  0.25500000920E-02 0.  1.
    10030    2    1    2    0    0  0.00000000000E+00  0.00000000000E+00 -0.71336989933E+03  0.10786462571E+04  0.80906188555E+03 0.  0.
        1    1    3    3  502    0 -0.80941790658E+02  0.39376376132E+03 -0.29641267187E+03  0.49946165546E+03  0.50400001928E-02 0.  1.
       -1    1    3    3    0  502  0.80941790658E+02 -0.39376376132E+03 -0.41695722747E+03  0.57918460163E+03  0.50400001928E-02 0. -1.
</event>
<event>
 5   0  0.6557679E-03  0.7837749E+03  0.7818609E-02  0.9583804E-01
       -1   -1    0    0    0  501  0.00000000000E+00  0.00000000000E+00  0.26394080992E+03  0.26394080997E+03  0.50400001928E-02 0.  1.
        1   -1    0    0  501    0  0.00000000000E+00  0.00000000000E+00 -0.58185679899E+03  0.58185679901E+03  0.50400001928E-02 0. -1.
    10030    2    1    2    0    0  0.00000000000E+00  0.00000000000E+00 -0.31791598907E+03  0.84579760897E+03  0.78377485239E+03 0.  0.
        1    1    3    3  502    0  0.14791941664E+03  0.20856979575E+03 -0.47943379601E+03  0.54335833324E+03  0.50400001928E-02 0. -1.
       -1    1    3    3    0  502 -0.14791941664E+03 -0.20856979575E+03  0.16151780694E+03  0.30243927573E+03  0.50400001928E-02 0.  1.
</event>
<event>
 5   0  0.6600401E-03  0.8242661E+03  0.7818609E-02  0.9525542E-01
        1   -1    0    0  501    0  0.00000000000E+00  0.00000000000E+00  0.16187435193E+04  0.16187435193E+04  0.50400001928E-02 0. -1.
       -1   -1    0    0    0  501  0.00000000000E+00  0.00000000000E+00 -0.10492932335E+03  0.10492932347E+03  0.50400001928E-02 0.  1.
    10030    2    1    2    0    0  0.00000000000E+00  0.00000000000E+00  0.15138141960E+04  0.17236728428E+04  0.82426612759E+03 0.  0.
        2    1    3    3  502    0 -0.43360399507E+02 -0.79328472361E+02  0.15977526865E+04  0.16003083384E+04  0.25500000920E-02 0. -1.
       -2    1    3    3    0  502  0.43360399507E+02  0.79328472361E+02 -0.83938490459E+02  0.12336450446E+03  0.25500000920E-02 0.  1.
</event>
<event>
 5   0  0.1119792E-02  0.8243981E+03  0.7818609E-02  0.9525358E-01
       -2   -1    0    0    0  501  0.00000000000E+00  0.00000000000E+00  0.90047841708E+02  0.90047841744E+02  0.25500000920E-02 0.  1.
        2   -1    0    0  501    0  0.00000000000E+00  0.00000000000E+00 -0.18868642048E+04  0.18868642048E+04  0.25500000920E-02 0. -1.
    10030    2    1    2    0    0  0.00000000000E+00  0.00000000000E+00 -0.17968163631E+04  0.19769120465E+04  0.82439808169E+03 0.  0.
        4    1    3    3  502    0 -0.27146262539E+03  0.20481239300E+03 -0.33978914254E+03  0.48072689502E+03  0.12699999809E+01 0.  1.
       -4    1    3    3    0  502  0.27146262539E+03 -0.20481239300E+03 -0.14570272205E+04  0.14961851515E+04  0.12699999809E+01 0. -1.
</event>
<event>
 5   0  0.1121480E-02  0.7993567E+03  0.7818609E-02  0.9560949E-01
        2   -1    0    0  501    0  0.00000000000E+00  0.00000000000E+00  0.57474810892E+03  0.57474810892E+03  0.25500000920E-02 0.  1.
       -2   -1    0    0    0  501  0.00000000000E+00  0.00000000000E+00 -0.27793528249E+03  0.27793528250E+03  0.25500000920E-02 0. -1.
    10030    2    1    2    0    0  0.00000000000E+00  0.00000000000E+00  0.29681282642E+03  0.85268339143E+03  0.79935668640E+03 0.  0.
        2    1    3    3  502    0  0.23469426762E+03 -0.20113575398E+03  0.41869909013E+03  0.52042859151E+03  0.25500000920E-02 0.  1.
       -2    1    3    3    0  502 -0.23469426762E+03  0.20113575398E+03 -0.12188626370E+03  0.33225479992E+03  0.25500000920E-02 0. -1.
</event>
<event>
 5   0  0.1119792E-02  0.7951236E+03  0.7818609E-02  0.9567102E-01
       -2   -1    0    0    0  501  0.00000000000E+00  0.00000000000E+00  0.99312390133E+02  0.99312390166E+02  0.25500000920E-02 0.  1.
        2   -1    0    0  501    0  0.00000000000E+00  0.00000000000E+00 -0.15914970668E+04  0.15914970668E+04  0.25500000920E-02 0. -1.
    10030    2    1    2    0    0  0.00000000000E+00  0.00000000000E+00 -0.14921846766E+04  0.16908094569E+04  0.79512358189E+03 0.  0.
        4    1    3    3  502    0  0.13695875957E+03  0.26437221820E+03 -0.18588294568E+03  0.35100492015E+03  0.12699999809E+01 0.  1.
       -4    1    3    3    0  502 -0.13695875957E+03 -0.26437221820E+03 -0.13063017310E+04  0.13398045368E+04  0.12699999809E+01 0. -1.
</event>
<event>
 5   0  0.6600401E-03  0.7990717E+03  0.7818609E-02  0.9561362E-01
        1   -1    0    0  501    0  0.00000000000E+00  0.00000000000E+00  0.17083949264E+04  0.17083949264E+04  0.50400001928E-02 0. -1.
       -1   -1    0    0    0  501  0.00000000000E+00  0.00000000000E+00 -0.93437940482E+02  0.93437940617E+02  0.50400001928E-02 0.  1.
    10030    2    1    2    0    0  0.00000000000E+00  0.00000000000E+00  0.16149569859E+04  0.18018328670E+04  0.79907172038E+03 0.  0.
        2    1    3    3  502    0  0.18495434941E+03 -0.12589301668E+03  0.15538894805E+04  0.15699139087E+04  0.25500000920E-02 0. -1.
       -2    1    3    3    0  502 -0.18495434941E+03  0.12589301668E+03  0.61067505393E+02  0.23191895833E+03  0.25500000920E-02 0.  1.
</event>
<event>
 5   0  0.1106332E-02  0.7862694E+03  0.7818609E-02  0.9580107E-01
       -2   -1    0    0    0  501  0.00000000000E+00  0.00000000000E+00  0.66223307486E+02  0.66223307535E+02  0.25500000920E-02 0. -1.
        2   -1    0    0  501    0  0.00000000000E+00  0.00000000000E+00 -0.23338445045E+04  0.23338445045E+04  0.25500000920E-02 0.  1.
    10030    2    1    2    0    0  0.00000000000E+00  0.00000000000E+00 -0.22676211970E+04  0.24000678121E+04  0.78626942535E+03 0.  0.
        1    1    3    3  502    0  0.82697993740E+02  0.22864363043E+03 -0.19080804780E+03  0.30907050819E+03  0.50400001928E-02 0. -1.
       -1    1    3    3    0  502 -0.82697993740E+02 -0.22864363043E+03 -0.20768131492E+04  0.20909973039E+04  0.50400001928E-02 0.  1.
</event>
<event>
 5   0  0.6551489E-03  0.7891317E+03  0.7818609E-02  0.9575883E-01
       -1   -1    0    0    0  501  0.00000000000E+00  0.00000000000E+00  0.16248059609E+03  0.16248059617E+03  0.50400001928E-02 0.  1.
        1   -1    0    0  501    0  0.00000000000E+00  0.00000000000E+00 -0.95815866820E+03  0.95815866821E+03  0.50400001928E-02 0. -1.
    10030    2    1    2    0    0  0.00000000000E+00  0.00000000000E+00 -0.79567807211E+03  0.11206392644E+04  0.78913165343E+03 0.  0.
        4    1    3    3  502    0  0.36958784732E+03  0.12821453116E+03 -0.47089354976E+03  0.61218991415E+03  0.12699999809E+01 0.  1.
       -4    1    3    3    0  502 -0.36958784732E+03 -0.12821453116E+03 -0.32478452235E+03  0.50844935023E+03  0.12699999809E+01 0. -1.
</event>
<event>
 5   0  0.6600401E-03  0.7934737E+03  0.7818609E-02  0.9569512E-01
        1   -1    0    0  501    0  0.00000000000E+00  0.00000000000E+00  0.41848796101E+03  0.41848796104E+03  0.50400001928E-02 0. -1.
       -1   -1    0    0    0  501  0.00000000000E+00  0.00000000000E+00 -0.37611623259E+03  0.37611623263E+03  0.50400001928E-02 0.  1.
    10030    2    1    2    0    0  0.00000000000E+00  0.00000000000E+00  0.42371728415E+02  0.79460419367E+03  0.79347366763E+03 0.  0.
        2    1    3    3  502    0  0.13954060544E+03 -0.16786146825E+03 -0.31057312575E+03  0.37961127424E+03  0.25500000920E-02 0.  1.
       -2    1    3    3    0  502 -0.13954060544E+03  0.16786146825E+03  0.35294485416E+03  0.41499291943E+03  0.25500000920E-02 0. -1.
</event>
<event>
 5   0  0.6557679E-03  0.8091716E+03  0.7818609E-02  0.9546836E-01
        1   -1    0    0  501    0  0.00000000000E+00  0.00000000000E+00  0.86791913453E+03  0.86791913454E+03  0.50400001928E-02 0. -1.
       -1   -1    0    0    0  501  0.00000000000E+00  0.00000000000E+00 -0.18860013742E+03  0.18860013749E+03  0.50400001928E-02 0.  1.
    10030    2    1    2    0    0  0.00000000000E+00  0.00000000000E+00  0.67931899711E+03  0.10565192720E+04  0.80917159635E+03 0.  0.
        1    1    3    3  502    0 -0.30124277909E+03 -0.19178515718E+03  0.58794791969E+03  0.68790371039E+03  0.50400001928E-02 0. -1.
       -1    1    3    3    0  502  0.30124277909E+03  0.19178515718E+03  0.91371077418E+02  0.36861556164E+03  0.50400001928E-02 0.  1.
</event>
<event>
 5   0  0.1106332E-02  0.8024157E+03  0.7818609E-02  0.9556527E-01
       -2   -1    0    0    0  501  0.00000000000E+00  0.00000000000E+00  0.42950397293E+03  0.42950397294E+03  0.25500000920E-02 0. -1.
        2   -1    0    0  501    0  0.00000000000E+00  0.00000000000E+00 -0.37477587590E+03  0.37477587591E+03  0.25500000920E-02 0.  1.
    10030    2    1    2    0    0  0.00000000000E+00  0.00000000000E+00  0.54728097031E+02  0.80427984885E+03  0.80241567199E+03 0.  0.
        1    1    3    3  502    0 -0.10485166320E+03 -0.29199014470E+03 -0.22761959103E+03  0.38478928536E+03  0.50400001928E-02 0.  1.
       -1    1    3    3    0  502  0.10485166320E+03  0.29199014470E+03  0.28234768806E+03  0.41949056349E+03  0.50400001928E-02 0. -1.
</event>
<event>
 5   0  0.6557679E-03  0.7969558E+03  0.7818609E-02  0.9564434E-01
       -1   -1    0    0    0  501  0.00000000000E+00  0.00000000000E+00  0.77228062729E+02  0.77228062893E+02  0.50400001928E-02 0. -1.
        1   -1    0    0  501    0  0.00000000000E+00  0.00000000000E+00 -0.20560484574E+04  0.20560484574E+04  0.50400001928E-02 0.  1.
    10030    2    1    2    0    0  0.00000000000E+00  0.00000000000E+00 -0.19788203947E+04  0.21332765203E+04  0.79695580662E+03 0.  0.
        1    1    3    3  502    0 -0.15916032311E+03  0.18647116430E+03 -0.14853801789E+03  0.28664794846E+03  0.50400001928E-02 0. -1.
       -1    1    3    3    0  502  0.15916032311E+03 -0.18647116430E+03 -0.18302823768E+04  0.18466285719E+04  0.50400001928E-02 0.  1.
</event>
<event>
 5   0  0.6596225E-03  0.8051891E+03  0.7818609E-02  0.9552536E-01
        1   -1    0    0  501    0  0.00000000000E+00  0.00000000000E+00  0.17015814738E+03  0.17015814745E+03  0.50400001928E-02 0. -1.
       -1   -1    0    0    0  501  0.00000000000E+00  0.00000000000E+00 -0.95253947138E+03  0.95253947140E+03  0.50400001928E-02 0.  1.
    10030    2    1    2    0    0  0.00000000000E+00  0.00000000000E+00 -0.78238132401E+03  0.11226976188E+04  0.80518905060E+03 0.  0.
        5    1    3    3  502    0 -0.11152938783E+03  0.30433871926E+03 -0.58301168407E+02  0.32936602227E+03  0.46999998093E+01 0. -1.
       -5    1    3    3    0  502  0.11152938783E+03 -0.30433871926E+03 -0.72408015560E+03  0.79333159657E+03  0.46999998093E+01 0.  1.
</event>
<event>
 5   0  0.6517392E-03  0.8023437E+03  0.7818609E-02  0.9556631E-01
        1   -1    0    0  501    0  0.00000000000E+00  0.00000000000E+00  0.32784774693E+03  0.32784774697E+03  0.50400001928E-02 0.  1.
       -1   -1    0    0    0  501  0.00000000000E+00  0.00000000000E+00 -0.49089507525E+03  0.49089507528E+03  0.50400001928E-02 0. -1.
    10030    2    1    2    0    0  0.00000000000E+00  0.00000000000E+00 -0.16304732832E+03  0.81874282225E+03  0.80234367805E+03 0.  0.
        3    1    3    3  502    0  0.35737045496E+03 -0.17778512842E+03 -0.40481708751E+02  0.40119817162E+03  0.10100000352E+00 0.  1.
       -3    1    3    3    0  502 -0.35737045496E+03  0.17778512842E+03 -0.12256561957E+03  0.41754465063E+03  0.10100000352E+00 0. -1.
</event>
<event>
 5   0  0.1121480E-02  0.8083463E+03  0.7818609E-02  0.9548014E-01
       -2   -1    0    0    0  501  0.00000000000E+00  0.00000000000E+00  0.34996756949E+03  0.34996756950E+03  0.25500000920E-02 0.  1.
        2   -1    0    0  501    0  0.00000000000E+00  0.00000000000E+00 -0.46677450026E+03  0.46677450027E+03  0.25500000920E-02 0. -1.
    10030    2    1    2    0    0  0.00000000000E+00  0.00000000000E+00 -0.11680693077E+03  0.81674206976E+03  0.80834630540E+03 0.  0.
        2    1    3    3  502    0 -0.20049617089E+03 -0.15837512280E+03  0.25801776568E+03  0.36311783415E+03  0.25500000920E-02 0.  1.
       -2    1    3    3    0  502  0.20049617089E+03  0.15837512280E+03 -0.37482469645E+03  0.45362423562E+03  0.25500000920E-02 0. -1.
</event>
<event>
 5   0  0.1121480E-02  0.8099972E+03  0.7818609E-02  0.9545658E-01
       -2   -1    0    0    0  501  0.00000000000E+00  0.00000000000E+00  0.32416095730E+03  0.32416095731E+03  0.25500000920E-02 0. -1.
        2   -1    0    0  501    0  0.00000000000E+00  0.00000000000E+00 -0.50599516549E+03  0.50599516549E+03  0.25500000920E-02 0.  1.
    10030    2    1    2    0    0  0.00000000000E+00  0.00000000000E+00 -0.18183420819E+03  0.83015612280E+03  0.80999722775E+03 0.  0.
        2    1    3    3  502    0 -0.11197953532E+03 -0.38907839378E+03 -0.10129149797E+03  0.41735042878E+03  0.25500000920E-02 0.  1.
       -2    1    3    3    0  502  0.11197953532E+03  0.38907839378E+03 -0.80542710219E+02  0.41280569402E+03  0.25500000920E-02 0. -1.
</event>
<event>
 5   0  0.4385875E-03  0.7999629E+03  0.7818609E-02  0.9560071E-01
        3   -1    0    0  501    0  0.00000000000E+00  0.00000000000E+00  0.41539682580E+03  0.41539683808E+03  0.10100000352E+00 0.  1.
       -3   -1    0    0    0  501  0.00000000000E+00  0.00000000000E+00 -0.38513815169E+03  0.38513816494E+03  0.10100000352E+00 0. -1.
    10030    2    1    2    0    0  0.00000000000E+00  0.00000000000E+00  0.30258674111E+02  0.80053500302E+03  0.79996293895E+03 0.  0.
        5    1    3    3  502    0 -0.23211266958E+03 -0.31221153399E+03 -0.77731162202E+02  0.39675755432E+03  0.46999998093E+01 0.  1.
       -5    1    3    3    0  502  0.23211266958E+03  0.31221153399E+03  0.10798983631E+03  0.40377744870E+03  0.46999998093E+01 0. -1.
</event>
<event>
 5   0  0.1119792E-02  0.7980392E+03  0.7818609E-02  0.9562860E-01
        2   -1    0    0  501    0  0.00000000000E+00  0.00000000000E+00  0.12027655081E+04  0.12027655081E+04  0.25500000920E-02 0.  1.
       -2   -1    0    0    0  501  0.00000000000E+00  0.00000000000E+00 -0.13237545027E+03  0.13237545030E+03  0.25500000920E-02 0. -1.
    10030    2    1    2    0    0  0.00000000000E+00  0.00000000000E+00  0.10703900578E+04  0.13351409584E+04  0.79803916126E+03 0.  0.
        4    1    3    3  502    0 -0.14019932637E+03  0.16838062072E+03  0.10931115584E+04  0.11148553165E+04  0.12699999809E+01 0.  1.
       -4    1    3    3    0  502  0.14019932637E+03 -0.16838062072E+03 -0.22721500628E+02  0.22028564192E+03  0.12699999809E+01 0. -1.
</event>
<event>
 5   0  0.4385875E-03  0.8023115E+03  0.7818609E-02  0.9556677E-01
        3   -1    0    0  501    0  0.00000000000E+00  0.00000000000E+00  0.53889335074E+03  0.53889336021E+03  0.10100000352E+00 0. -1.
       -3   -1    0    0    0  501  0.00000000000E+00  0.00000000000E+00 -0.29862293566E+03  0.29862295274E+03  0.10100000352E+00 0.  1.
    10030    2    1    2    0    0  0.00000000000E+00  0.00000000000E+00  0.24027041509E+03  0.83751631295E+03  0.80231147448E+03 0.  0.
        5    1    3    3  502    0 -0.17655470056E+03  0.35995442691E+03  0.10672293169E+03  0.41491038296E+03  0.46999998093E+01 0. -1.
       -5    1    3    3    0  502  0.17655470056E+03 -0.35995442691E+03  0.13354748340E+03  0.42260592999E+03  0.46999998093E+01 0.  1.
</event>
<event>
 5   0  0.6596225E-03  0.7953305E+03  0.7818609E-02  0.9566801E-01
       -1   -1    0    0    0  501  0.00000000000E+00  0.00000000000E+00  0.39139333919E+03  0.39139333922E+03  0.50400001928E-02 0. -1.
        1   -1    0    0  501    0  0.00000000000E+00  0.00000000000E+00 -0.40403768368E+03  0.40403768371E+03  0.50400001928E-02 0.  1.
    10030    2    1    2    0    0  0.00000000000E+00  0.00000000000E+00 -0.12644344490E+02  0.79543102293E+03  0.79533051795E+03 0.  0.
        5    1    3    3  502    0  0.22511466078E+03  0.90070633284E+02 -0.32152265414E+03  0.40272600686E+03  0.46999998093E+01 0.  1.
       -5    1    3    3    0  502 -0.22511466078E+03 -0.90070633284E+02  0.30887830965E+03  0.39270501607E+03  0.46999998093E+01 0. -1.
</event>
<event>
 5   0  0.6517392E-03  0.7995586E+03  0.7818609E-02  0.9560656E-01
        1   -1    0    0  501    0  0.00000000000E+00  0.00000000000E+00  0.59344710593E+03  0.59344710595E+03  0.50400001928E-02 0.  1.
       -1   -1    0    0    0  501  0.00000000000E+00  0.00000000000E+00 -0.26931379959E+03  0.26931379963E+03  0.50400001928E-02 0. -1.
    10030    2    1    2    0    0  0.00000000000E+00  0.00000000000E+00  0.32413330634E+03  0.86276090558E+03  0.79955861569E+03 0.  0.
        3    1    3    3  502    0  0.88243651512E+01  0.39347904013E+03  0.23775282465E+03  0.45981522406E+03  0.10100000352E+00 0. -1.
       -3    1    3    3    0  502 -0.88243651512E+01 -0.39347904013E+03  0.86380481690E+02  0.40294568153E+03  0.10100000352E+00 0.  1.
</event>
<event>
 5   0  0.6551489E-03  0.8034532E+03  0.7818609E-02  0.9555032E-01
       -1   -1    0    0    0  501  0.00000000000E+00  0.00000000000E+00  0.10382495939E+03  0.10382495951E+03  0.50400001928E-02 0. -1.
        1   -1    0    0  501    0  0.00000000000E+00  0.00000000000E+00 -0.15543877304E+04  0.15543877305E+04  0.50400001928E-02 0.  1.
    10030    2    1    2    0    0  0.00000000000E+00  0.00000000000E+00 -0.14505627711E+04  0.16582126900E+04  0.80345315506E+03 0.  0.
        4    1    3    3  502    0  0.59980479562E+02 -0.34640324558E+03 -0.32407599259E+03  0.47814195418E+03  0.12699999809E+01 0. -1.
       -4    1    3    3    0  502 -0.59980479562E+02  0.34640324558E+03 -0.11264867785E+04  0.11800707358E+04  0.12699999809E+01 0.  1.
</event>
<event>
 5   0  0.1154714E-02  0.7719753E+03  0.7818609E-02  0.9601492E-01
        2   -1    0    0  501    0  0.00000000000E+00  0.00000000000E+00  0.66076780348E+03  0.66076780348E+03  0.25500000920E-02 0.  1.
       -2   -1    0    0    0  501  0.00000000000E+00  0.00000000000E+00 -0.22547477731E+03  0.22547477732E+03  0.25500000920E-02 0. -1.
    10030    2    1    2    0    0  0.00000000000E+00  0.00000000000E+00  0.43529302617E+03  0.88624258080E+03  0.77197531916E+03 0.  0.
        5    1    3    3  502    0 -0.14675439949E+03  0.52049939711E+02  0.62307507984E+03  0.64225438504E+03  0.46999998093E+01 0.  1.
       -5    1    3    3    0  502  0.14675439949E+03 -0.52049939711E+02 -0.18778205366E+03  0.24398819576E+03  0.46999998093E+01 0. -1.
</event>
<event>
 5   0  0.6517392E-03  0.8073325E+03  0.7818609E-02  0.9549464E-01
       -1   -1    0    0    0  501  0.00000000000E+00  0.00000000000E+00  0.15153051726E+04  0.15153051726E+04  0.50400001928E-02 0. -1.
        1   -1    0    0  501    0  0.00000000000E+00  0.00000000000E+00 -0.10753374161E+03  0.10753374172E+03  0.50400001928E-02 0.  1.
    10030    2    1    2    0    0  0.00000000000E+00  0.00000000000E+00  0.14077714310E+04  0.16228389143E+04  0.80733248413E+03 0.  0.
        3    1    3    3  502    0  0.20531816379E+03 -0.31667961915E+03  0.99172612445E+03  0.10611136818E+04  0.10100000352E+00 0. -1.
       -3    1    3    3    0  502 -0.20531816379E+03  0.31667961915E+03  0.41604530651E+03  0.56172523251E+03  0.10100000352E+00 0.  1.
</event>
<event>
 5   0  0.6600401E-03  0.7945743E+03  0.7818609E-02  0.9567904E-01
       -1   -1    0    0    0  501  0.00000000000E+00  0.00000000000E+00  0.26252348410E+03  0.26252348415E+03  0.50400001928E-02 0.  1.
        1   -1    0    0  501    0  0.00000000000E+00  0.00000000000E+00 -0.60123033848E+03  0.60123033851E+03  0.50400001928E-02 0. -1.
    10030    2    1    2    0    0  0.00000000000E+00  0.00000000000E+00 -0.33870685438E+03  0.86375382266E+03  0.79457430927E+03 0.  0.
        2    1    3    3  502    0 -0.19211315270E+02  0.12507567897E+03 -0.57873704127E+03  0.59240996198E+03  0.25500000920E-02 0. -1.
       -2    1    3    3    0  502  0.19211315270E+02 -0.12507567897E+03  0.24003018689E+03  0.27134386068E+03  0.25500000920E-02 0.  1.
</event>
<event>
 5   0  0.1092868E-02  0.8020861E+03  0.7818609E-02  0.9557003E-01
        2   -1    0    0  501    0  0.00000000000E+00  0.00000000000E+00  0.16034623528E+04  0.16034623528E+04  0.25500000920E-02 0.  1.
       -2   -1    0    0    0  501  0.00000000000E+00  0.00000000000E+00 -0.10030514020E+03  0.10030514023E+03  0.25500000920E-02 0. -1.
    10030    2    1    2    0    0  0.00000000000E+00  0.00000000000E+00  0.15031572126E+04  0.17037674930E+04  0.80208607052E+03 0.  0.
        3    1    3    3  502    0 -0.71095522989E+02  0.33917857309E+03  0.11803182272E+04  0.12301413762E+04  0.10100000352E+00 0.  1.
       -3    1    3    3    0  502  0.71095522989E+02 -0.33917857309E+03  0.32283898541E+03  0.47362611682E+03  0.10100000352E+00 0. -1.
</event>
<event>
 5   0  0.6517392E-03  0.7998157E+03  0.7818609E-02  0.9560284E-01
       -1   -1    0    0    0  501  0.00000000000E+00  0.00000000000E+00  0.75194636035E+02  0.75194636204E+02  0.50400001928E-02 0. -1.
        1   -1    0    0  501    0  0.00000000000E+00  0.00000000000E+00 -0.21268311619E+04  0.21268311619E+04  0.50400001928E-02 0.  1.
    10030    2    1    2    0    0  0.00000000000E+00  0.00000000000E+00 -0.20516365258E+04  0.22020257981E+04  0.79981571707E+03 0.  0.
        3    1    3    3  502    0  0.29860176392E+01 -0.39590421991E+03 -0.87063104787E+03  0.95642433018E+03  0.10100000352E+00 0.  1.
       -3    1    3    3    0  502 -0.29860176392E+01  0.39590421991E+03 -0.11810054780E+04  0.12456014679E+04  0.10100000352E+00 0. -1.
</event>
<event>
 5   0  0.6517392E-03  0.7979182E+03  0.7818609E-02  0.9563035E-01
       -1   -1    0    0    0  501  0.00000000000E+00  0.00000000000E+00  0.47101062373E+03  0.47101062376E+03  0.50400001928E-02 0. -1.
        1   -1    0    0  501    0  0.00000000000E+00  0.00000000000E+00 -0.33792948815E+03  0.33792948819E+03  0.50400001928E-02 0.  1.
    10030    2    1    2    0    0  0.00000000000E+00  0.00000000000E+00  0.13308113558E+03  0.80894011195E+03  0.79791823896E+03 0.  0.
        3    1    3    3  502    0  0.32923404038E+03 -0.16258494827E+03  0.22470665070E+03  0.43049042709E+03  0.10100000352E+00 0. -1.
       -3    1    3    3    0  502 -0.32923404038E+03  0.16258494827E+03 -0.91625515113E+02  0.37844968486E+03  0.10100000352E+00 0.  1.
</event>
<event>
 5   0  0.6517392E-03  0.7995343E+03  0.7818609E-02  0.9560691E-01
       -1   -1    0    0    0  501  0.00000000000E+00  0.00000000000E+00  0.10980338132E+03  0.10980338144E+03  0.50400001928E-02 0. -1.
        1   -1    0    0  501    0  0.00000000000E+00  0.00000000000E+00 -0.14554542131E+04  0.14554542131E+04  0.50400001928E-02 0.  1.
    10030    2    1    2    0    0  0.00000000000E+00  0.00000000000E+00 -0.13456508318E+04  0.15652575946E+04  0.79953434961E+03 0.  0.
        3    1    3    3  502    0  0.92452304294E+02  0.23597632297E+03 -0.67574183136E+02  0.26229474642E+03  0.10100000352E+00 0. -1.
       -3    1    3    3    0  502 -0.92452304294E+02 -0.23597632297E+03 -0.12780766487E+04  0.13029628481E+04  0.10100000352E+00 0.  1.
</event>
<event>
 5   0  0.4385875E-03  0.8029759E+03  0.7818609E-02  0.9555720E-01
        4   -1    0    0  501    0  0.00000000000E+00  0.00000000000E+00  0.89647925617E+03  0.89648015575E+03  0.12699999809E+01 0. -1.
       -4   -1    0    0    0  501  0.00000000000E+00  0.00000000000E+00 -0.17980302519E+03  0.17980751032E+03  0.12699999809E+01 0.  1.
    10030    2    1    2    0    0  0.00000000000E+00  0.00000000000E+00  0.71667623098E+03  0.10762876661E+04  0.80297591500E+03 0.  0.
        4    1    3    3  502    0 -0.18927964222E+02 -0.13653421785E+03  0.86376933227E+03  0.87469933848E+03  0.12699999809E+01 0. -1.
       -4    1    3    3    0  502  0.18927964222E+02  0.13653421785E+03 -0.14709310129E+03  0.20158832759E+03  0.12699999809E+01 0.  1.
</event>
<event>
 5   0  0.6551489E-03  0.7991278E+03  0.7818609E-02  0.9561280E-01
       -1   -1    0    0    0  501  0.00000000000E+00  0.00000000000E+00  0.37207819026E+03  0.37207819030E+03  0.50400001928E-02 0.  1.
        1   -1    0    0  501    0  0.00000000000E+00  0.00000000000E+00 -0.42908001317E+03  0.42908001320E+03  0.50400001928E-02 0. -1.
    10030    2    1    2    0    0  0.00000000000E+00  0.00000000000E+00 -0.57001822905E+02  0.80115820350E+03  0.79912781156E+03 0.  0.
        4    1    3    3  502    0  0.26705283344E+03 -0.38500460440E+02  0.26695144051E+03  0.37955788201E+03  0.12699999809E+01 0.  1.
       -4    1    3    3    0  502 -0.26705283344E+03  0.38500460440E+02 -0.32395326341E+03  0.42160032149E+03  0.12699999809E+01 0. -1.
</event>
<event>
 5   0  0.6600401E-03  0.7869203E+03  0.7818609E-02  0.9579145E-01
       -1   -1    0    0    0  501  0.00000000000E+00  0.00000000000E+00  0.27839811439E+03  0.27839811444E+03  0.50400001928E-02 0.  1.
        1   -1    0    0  501    0  0.00000000000E+00  0.00000000000E+00 -0.55607730823E+03  0.55607730826E+03  0.50400001928E-02 0. -1.
    10030    2    1    2    0    0  0.00000000000E+00  0.00000000000E+00 -0.27767919384E+03  0.83447542270E+03  0.78692026051E+03 0.  0.
        2    1    3    3  502    0 -0.33587219426E+03  0.20331373198E+03 -0.11150862893E+03  0.40814308621E+03  0.25500000920E-02 0.  1.
       -2    1    3    3    0  502  0.33587219426E+03 -0.20331373198E+03 -0.16617056491E+03  0.42633233649E+03  0.25500000920E-02 0. -1.
</event>
<event>
 5   0  0.1092868E-02  0.8005785E+03  0.7818609E-02  0.9559180E-01
       -2   -1    0    0    0  501  0.00000000000E+00  0.00000000000E+00  0.11643878281E+03  0.11643878284E+03  0.25500000920E-02 0. -1.
        2   -1    0    0  501    0  0.00000000000E+00  0.00000000000E+00 -0.13761004902E+04  0.13761004902E+04  0.25500000920E-02 0.  1.
    10030    2    1    2    0    0  0.00000000000E+00  0.00000000000E+00 -0.12596617074E+04  0.14925392730E+04  0.80057845617E+03 0.  0.
        3    1    3    3  502    0  0.11995288427E+03 -0.26972603934E+03 -0.12580512417E+03  0.32088591463E+03  0.10100000352E+00 0. -1.
       -3    1    3    3    0  502 -0.11995288427E+03  0.26972603934E+03 -0.11338565832E+04  0.11716533584E+04  0.10100000352E+00 0.  1.
</event>
<event>
 5   0  0.1119792E-02  0.7998771E+03  0.7818609E-02  0.9560195E-01
       -2   -1    0    0    0  501  0.00000000000E+00  0.00000000000E+00  0.24740523926E+03  0.24740523927E+03  0.25500000920E-02 0.  1.
        2   -1    0    0  501    0  0.00000000000E+00  0.00000000000E+00 -0.64651355954E+03  0.64651355954E+03  0.25500000920E-02 0. -1.
    10030    2    1    2    0    0  0.00000000000E+00  0.00000000000E+00 -0.39910832028E+03  0.89391879882E+03  0.79987709529E+03 0.  0.
        4    1    3    3  502    0  0.23316795758E+02 -0.30090361164E+03  0.93715024022E+02  0.31602337744E+03  0.12699999809E+01 0.  1.
       -4    1    3    3    0  502 -0.23316795758E+02  0.30090361164E+03 -0.49282334430E+03  0.57789542138E+03  0.12699999809E+01 0. -1.
</event>
<event>
 5   0  0.1119792E-02  0.8091656E+03  0.7818609E-02  0.9546844E-01
       -2   -1    0    0    0  501  0.00000000000E+00  0.00000000000E+00  0.27979773483E+03  0.27979773485E+03  0.25500000920E-02 0. -1.
        2   -1    0    0  501    0  0.00000000000E+00  0.00000000000E+00 -0.58501992459E+03  0.58501992459E+03  0.25500000920E-02 0.  1.
    10030    2    1    2    0    0  0.00000000000E+00  0.00000000000E+00 -0.30522218975E+03  0.86481765944E+03  0.80916561899E+03 0.  0.
        4    1    3    3  502    0  0.33507588194E+03 -0.22615860020E+03 -0.13530886037E+03  0.42630231022E+03  0.12699999809E+01 0.  1.
       -4    1    3    3    0  502 -0.33507588194E+03  0.22615860020E+03 -0.16991332938E+03  0.43851534922E+03  0.12699999809E+01 0. -1.
</event>
<event>
 5   0  0.6596225E-03  0.7979031E+03  0.7818609E-02  0.9563057E-01
        1   -1    0    0  501    0  0.00000000000E+00  0.00000000000E+00  0.13093344422E+04  0.13093344422E+04  0.50400001928E-02 0.  1.
       -1   -1    0    0    0  501  0.00000000000E+00  0.00000000000E+00 -0.12155972404E+03  0.12155972414E+03  0.50400001928E-02 0. -1.
    10030    2    1    2    0    0  0.00000000000E+00  0.00000000000E+00  0.11877747182E+04  0.14308941664E+04  0.79790308572E+03 0.  0.
        5    1    3    3  502    0 -0.14784645036E+03 -0.26406036666E+03  0.10599907251E+04  0.11023560574E+04  0.46999998093E+01 0.  1.
       -5    1    3    3    0  502  0.14784645036E+03  0.26406036666E+03  0.12778399310E+03  0.32853810892E+03  0.46999998093E+01 0. -1.
</event>
<event>
 5   0  0.6517392E-03  0.7975517E+03  0.7818609E-02  0.9563568E-01
       -1   -1    0    0    0  501  0.00000000000E+00  0.00000000000E+00  0.14644748414E+03  0.14644748423E+03  0.50400001928E-02 0. -1.
        1   -1    0    0  501    0  0.00000000000E+00  0.00000000000E+00 -0.10858648324E+04  0.10858648325E+04  0.50400001928E-02 0.  1.
    10030    2    1    2    0    0  0.00000000000E+00  0.00000000000E+00 -0.93941734831E+03  0.12323123167E+04  0.79755168582E+03 0.  0.
        3    1    3    3  502    0 -0.46624967076E+02 -0.20617967835E+03 -0.99217422053E+03  0.10144425274E+04  0.10100000352E+00 0.  1.
       -3    1    3    3    0  502  0.46624967076E+02  0.20617967835E+03  0.52756872218E+02  0.21786978929E+03  0.10100000352E+00 0. -1.
</event>
<event>
 5   0  0.1119792E-02  0.7541595E+03  0.7818609E-02  0.9628847E-01
        2   -1    0    0  501    0  0.00000000000E+00  0.00000000000E+00  0.70038031393E+03  0.70038031393E+03  0.25500000920E-02 0. -1.
       -2   -1    0    0    0  501  0.00000000000E+00  0.00000000000E+00 -0.20301701318E+03  0.20301701320E+03  0.25500000920E-02 0.  1.
    10030    2    1    2    0    0  0.00000000000E+00  0.00000000000E+00  0.49736330075E+03  0.90339732713E+03  0.75415945113E+03 0.  0.
        4    1    3    3  502    0 -0.26365360399E+02 -0.36307670588E+03  0.13090023861E+03  0.38685438081E+03  0.12699999809E+01 0.  1.
       -4    1    3    3    0  502  0.26365360399E+02  0.36307670588E+03  0.36646306213E+03  0.51654294632E+03  0.12699999809E+01 0. -1.
</event>
<event>
 5   0  0.4385875E-03  0.7856017E+03  0.7818609E-02  0.9581095E-01
       -3   -1    0    0    0  501  0.00000000000E+00  0.00000000000E+00  0.39242625080E+03  0.39242626379E+03  0.10100000352E+00 0. -1.
        3   -1    0    0  501    0  0.00000000000E+00  0.00000000000E+00 -0.39317573920E+03  0.39317575217E+03  0.10100000352E+00 0.  1.
    10030    2    1    2    0    0  0.00000000000E+00  0.00000000000E+00 -0.74948839989E+00  0.78560201596E+03  0.78560165845E+03 0.  0.
        5    1    3    3  502    0  0.10346925742E+03 -0.78197394294E+02 -0.37111698193E+03  0.39315470744E+03  0.46999998093E+01 0.  1.
       -5    1    3    3    0  502 -0.10346925742E+03  0.78197394294E+02  0.37036749353E+03  0.39244730852E+03  0.46999998093E+01 0. -1.
</event>
<event>
 5   0  0.1154714E-02  0.8116366E+03  0.7818609E-02  0.9543325E-01
       -2   -1    0    0    0  501  0.00000000000E+00  0.00000000000E+00  0.69855879794E+03  0.69855879794E+03  0.25500000920E-02 0. -1.
        2   -1    0    0  501    0  0.00000000000E+00  0.00000000000E+00 -0.23575466973E+03  0.23575466975E+03  0.25500000920E-02 0.  1.
    10030    2    1    2    0    0  0.00000000000E+00  0.00000000000E+00  0.46280412820E+03  0.93431346769E+03  0.81163661501E+03 0.  0.
        5    1    3    3  502    0  0.24094084769E+03  0.32641395578E+02 -0.14258529252E+03  0.28190531821E+03  0.46999998093E+01 0.  1.
       -5    1    3    3    0  502 -0.24094084769E+03 -0.32641395578E+02  0.60538942072E+03  0.65240814948E+03  0.46999998093E+01 0. -1.
</event>
<event>
 5   0  0.6596225E-03  0.8084951E+03  0.7818609E-02  0.9547802E-01
        1   -1    0    0  501    0  0.00000000000E+00  0.00000000000E+00  0.17348741023E+04  0.17348741024E+04  0.50400001928E-02 0. -1.
       -1   -1    0    0    0  501  0.00000000000E+00  0.00000000000E+00 -0.94194782555E+02  0.94194782690E+02  0.50400001928E-02 0.  1.
    10030    2    1    2    0    0  0.00000000000E+00  0.00000000000E+00  0.16406793198E+04  0.18290688850E+04  0.80849511801E+03 0.  0.
        5    1    3    3  502    0 -0.27919835795E+02  0.32926440415E+03  0.13470235508E+04  0.13869711970E+04  0.46999998093E+01 0. -1.
       -5    1    3    3    0  502  0.27919835795E+02 -0.32926440415E+03  0.29365576904E+03  0.44209768802E+03  0.46999998093E+01 0.  1.
</event>
<event>
 5   0  0.6517392E-03  0.8273446E+03  0.7818609E-02  0.9521259E-01
       -1   -1    0    0    0  501  0.00000000000E+00  0.00000000000E+00  0.15510924908E+03  0.15510924916E+03  0.50400001928E-02 0. -1.
        1   -1    0    0  501    0  0.00000000000E+00  0.00000000000E+00 -0.11032532882E+04  0.11032532882E+04  0.50400001928E-02 0.  1.
    10030    2    1    2    0    0  0.00000000000E+00  0.00000000000E+00 -0.94814403912E+03  0.12583625374E+04  0.82734464194E+03 0.  0.
        3    1    3    3  502    0 -0.42834295984E+02 -0.29182715033E+03 -0.32921487927E+02  0.29678560806E+03  0.10100000352E+00 0. -1.
       -3    1    3    3    0  502  0.42834295984E+02  0.29182715033E+03 -0.91522255120E+03  0.96157692932E+03  0.10100000352E+00 0.  1.
</event>
<event>
 5   0  0.1121480E-02  0.7988775E+03  0.7818609E-02  0.9561643E-01
       -2   -1    0    0    0  501  0.00000000000E+00  0.00000000000E+00  0.12627147111E+03  0.12627147113E+03  0.25500000920E-02 0. -1.
        2   -1    0    0  501    0  0.00000000000E+00  0.00000000000E+00 -0.12635578883E+04  0.12635578883E+04  0.25500000920E-02 0.  1.
    10030    2    1    2    0    0  0.00000000000E+00  0.00000000000E+00 -0.11372864172E+04  0.13898293595E+04  0.79887749601E+03 0.  0.
        2    1    3    3  502    0 -0.13908152729E+03  0.46061321030E+02 -0.12151247274E+04  0.12239254142E+04  0.25500000920E-02 0.  1.
       -2    1    3    3    0  502  0.13908152729E+03 -0.46061321030E+02  0.77838310112E+02  0.16590394527E+03  0.25500000920E-02 0. -1.
</event>
<event>
 5   0  0.1154714E-02  0.7671083E+03  0.7818609E-02  0.9608886E-01
       -2   -1    0    0    0  501  0.00000000000E+00  0.00000000000E+00  0.41659682175E+03  0.41659682176E+03  0.25500000920E-02 0. -1.
        2   -1    0    0  501    0  0.00000000000E+00  0.00000000000E+00 -0.35313223594E+03  0.35313223595E+03  0.25500000920E-02 0.  1.
    10030    2    1    2    0    0  0.00000000000E+00  0.00000000000E+00  0.63464585810E+02  0.76972905770E+03  0.76710825091E+03 0.  0.
        5    1    3    3  502    0 -0.22505580574E+02 -0.27921793770E+03  0.29458627253E+03  0.40653698461E+03  0.46999998093E+01 0. -1.
       -5    1    3    3    0  502  0.22505580574E+02  0.27921793770E+03 -0.23112168672E+03  0.36319207310E+03  0.46999998093E+01 0.  1.
</event>
<event>
 5   0  0.1106332E-02  0.7989085E+03  0.7818609E-02  0.9561598E-01
       -2   -1    0    0    0  501  0.00000000000E+00  0.00000000000E+00  0.84440330110E+02  0.84440330148E+02  0.25500000920E-02 0. -1.
        2   -1    0    0  501    0  0.00000000000E+00  0.00000000000E+00 -0.18896619637E+04  0.18896619637E+04  0.25500000920E-02 0.  1.
    10030    2    1    2    0    0  0.00000000000E+00  0.00000000000E+00 -0.18052216336E+04  0.19741022939E+04  0.79890845546E+03 0.  0.
        1    1    3    3  502    0 -0.31891497245E+03 -0.37821882392E+02 -0.14895781144E+04  0.15238045194E+04  0.50400001928E-02 0.  1.
       -1    1    3    3    0  502  0.31891497245E+03  0.37821882392E+02 -0.31564351919E+03  0.45029777444E+03  0.50400001928E-02 0. -1.
</event>
<event>
 5   0  0.1119792E-02  0.8304472E+03  0.7818609E-02  0.9516962E-01
       -2   -1    0    0    0  501  0.00000000000E+00  0.00000000000E+00  0.30696470576E+03  0.30696470577E+03  0.25500000920E-02 0.  1.
        2   -1    0    0  501    0  0.00000000000E+00  0.00000000000E+00 -0.56166272362E+03  0.56166272362E+03  0.25500000920E-02 0. -1.
    10030    2    1    2    0    0  0.00000000000E+00  0.00000000000E+00 -0.25469801786E+03  0.86862742940E+03  0.83044718725E+03 0.  0.
        4    1    3    3  502    0 -0.29396539230E+02  0.46033215576E+02  0.30318880515E+03  0.30807187136E+03  0.12699999809E+01 0.  1.
       -4    1    3    3    0  502  0.29396539230E+02 -0.46033215576E+02 -0.55788682301E+03  0.56055555803E+03  0.12699999809E+01 0. -1.
</event>
<event>
 5   0  0.1154714E-02  0.7994260E+03  0.7818609E-02  0.9560848E-01
        2   -1    0    0  501    0  0.00000000000E+00  0.00000000000E+00  0.15327340193E+04  0.15327340193E+04  0.25500000920E-02 0. -1.
       -2   -1    0    0    0  501  0.00000000000E+00  0.00000000000E+00 -0.10423887181E+03  0.10423887184E+03  0.25500000920E-02 0.  1.
    10030    2    1    2    0    0  0.00000000000E+00  0.00000000000E+00  0.14284951475E+04  0.16369728912E+04  0.79942595651E+03 0.  0.
        5    1    3    3  502    0 -0.39057320552E+03  0.69026807258E+02  0.81531793349E+03  0.90668492414E+03  0.46999998093E+01 0. -1.
       -5    1    3    3    0  502  0.39057320552E+03 -0.69026807258E+02  0.61317721401E+03  0.73028796702E+03  0.46999998093E+01 0.  1.
</event>
<event>
 5   0  0.1092868E-02  0.7992457E+03  0.7818609E-02  0.9561110E-01
       -2   -1    0    0    0  501  0.00000000000E+00  0.00000000000E+00  0.10073404933E+03  0.10073404936E+03  0.25500000920E-02 0.  1.
        2   -1    0    0  501    0  0.00000000000E+00  0.00000000000E+00 -0.15853471384E+04  0.15853471384E+04  0.25500000920E-02 0. -1.
    10030    2    1    2    0    0  0.00000000000E+00  0.00000000000E+00 -0.14846130891E+04  0.16860811878E+04  0.79924573660E+03 0.  0.
        3    1    3    3  502    0 -0.24555596650E+03  0.29269308650E+03 -0.98951104435E+03  0.10607068835E+04  0.10100000352E+00 0. -1.
       -3    1    3    3    0  502  0.24555596650E+03 -0.29269308650E+03 -0.49510204476E+03  0.62537430432E+03  0.10100000352E+00 0.  1.
</event>
<event>
 5   0  0.6600401E-03  0.7634399E+03  0.7818609E-02  0.9614498E-01
        1   -1    0    0  501    0  0.00000000000E+00  0.00000000000E+00  0.85040533852E+03  0.85040533853E+03  0.50400001928E-02 0.  1.
       -1   -1    0    0    0  501  0.00000000000E+00  0.00000000000E+00 -0.17134197952E+03  0.17134197959E+03  0.50400001928E-02 0. -1.
    10030    2    1    2    0    0  0.00000000000E+00  0.00000000000E+00  0.67906335900E+03  0.10217473181E+04  0.76343993645E+03 0.  0.
        2    1    3    3  502    0  0.45245321320E+02  0.35969280942E+03  0.49948554378E+03  0.61718057706E+03  0.25500000920E-02 0.  1.
       -2    1    3    3    0  502 -0.45245321320E+02 -0.35969280942E+03  0.17957781522E+03  0.40456674106E+03  0.25500000920E-02 0. -1.
</event>
<event>
 5   0  0.1154714E-02  0.7805369E+03  0.7818609E-02  0.9588624E-01
       -2   -1    0    0    0  501  0.00000000000E+00  0.00000000000E+00  0.16532619678E+03  0.16532619680E+03  0.25500000920E-02 0. -1.
        2   -1    0    0  501    0  0.00000000000E+00  0.00000000000E+00 -0.92126629715E+03  0.92126629715E+03  0.25500000920E-02 0.  1.
    10030    2    1    2    0    0  0.00000000000E+00  0.00000000000E+00 -0.75594010037E+03  0.10865924939E+04  0.78053687456E+03 0.  0.
        5    1    3    3  502    0 -0.16202676425E+03 -0.34640699010E+03 -0.48613332691E+03  0.61854520987E+03  0.46999998093E+01 0.  1.
       -5    1    3    3    0  502  0.16202676425E+03  0.34640699010E+03 -0.26980677347E+03  0.46804728408E+03  0.46999998093E+01 0. -1.
</event>
<event>
 5   0  0.6596225E-03  0.8072158E+03  0.7818609E-02  0.9549631E-01
       -1   -1    0    0    0  501  0.00000000000E+00  0.00000000000E+00  0.20376858722E+03  0.20376858728E+03  0.50400001928E-02 0.  1.
        1   -1    0    0  501    0  0.00000000000E+00  0.00000000000E+00 -0.79943292707E+03  0.79943292708E+03  0.50400001928E-02 0. -1.
    10030    2    1    2    0    0  0.00000000000E+00  0.00000000000E+00 -0.59566433985E+03  0.10032015144E+04  0.80721575347E+03 0.  0.
        5    1    3    3  502    0  0.20038032646E+02  0.18550285240E+03 -0.74257889099E+03  0.76567508144E+03  0.46999998093E+01 0. -1.
       -5    1    3    3    0  502 -0.20038032646E+02 -0.18550285240E+03  0.14691455114E+03  0.23752643292E+03  0.46999998093E+01 0.  1.
</event>
<event>
 5   0  0.6596225E-03  0.8061351E+03  0.7818609E-02  0.9551179E-01
        1   -1    0    0  501    0  0.00000000000E+00  0.00000000000E+00  0.34787102141E+03  0.34787102144E+03  0.50400001928E-02 0.  1.
       -1   -1    0    0    0  501  0.00000000000E+00  0.00000000000E+00 -0.46702212735E+03  0.46702212738E+03  0.50400001928E-02 0. -1.
    10030    2    1    2    0    0  0.00000000000E+00  0.00000000000E+00 -0.11915110594E+03  0.81489314882E+03  0.80613513628E+03 0.  0.
        5    1    3    3  502    0  0.10941431657E+03  0.15958417105E+03  0.29782287788E+03  0.35518890313E+03  0.46999998093E+01 0.  1.
       -5    1    3    3    0  502 -0.10941431657E+03 -0.15958417105E+03 -0.41697398383E+03  0.45970424569E+03  0.46999998093E+01 0. -1.
</event>
<event>
 5   0  0.6596225E-03  0.7982390E+03  0.7818609E-02  0.9562570E-01
        1   -1    0    0  501    0  0.00000000000E+00  0.00000000000E+00  0.23143752195E+03  0.23143752200E+03  0.50400001928E-02 0. -1.
       -1   -1    0    0    0  501  0.00000000000E+00  0.00000000000E+00 -0.68829107056E+03  0.68829107058E+03  0.50400001928E-02 0.  1.
    10030    2    1    2    0    0  0.00000000000E+00  0.00000000000E+00 -0.45685354862E+03  0.91972859259E+03  0.79823901128E+03 0.  0.
        5    1    3    3  502    0  0.17298832627E+03  0.16730096315E+03  0.13839865372E+03  0.27765239175E+03  0.46999998093E+01 0. -1.
       -5    1    3    3    0  502 -0.17298832627E+03 -0.16730096315E+03 -0.59525220234E+03  0.64207620084E+03  0.46999998093E+01 0.  1.
</event>
<event>
 5   0  0.6551489E-03  0.7955536E+03  0.7818609E-02  0.9566476E-01
       -1   -1    0    0    0  501  0.00000000000E+00  0.00000000000E+00  0.92489584867E+03  0.92489584869E+03  0.50400001928E-02 0.  1.
        1   -1    0    0  501    0  0.00000000000E+00  0.00000000000E+00 -0.17107480353E+03  0.17107480360E+03  0.50400001928E-02 0. -1.
    10030    2    1    2    0    0  0.00000000000E+00  0.00000000000E+00  0.75382104514E+03  0.10959706523E+04  0.79555358247E+03 0.  0.
        4    1    3    3  502    0 -0.24732295381E+03 -0.30851539072E+03  0.31726779539E+03  0.50696238192E+03  0.12699999809E+01 0. -1.
       -4    1    3    3    0  502  0.24732295381E+03  0.30851539072E+03  0.43655324976E+03  0.58900827037E+03  0.12699999809E+01 0.  1.
</event>
<event>
 5   0  0.1092868E-02  0.8003828E+03  0.7818609E-02  0.9559463E-01
        2   -1    0    0  501    0  0.00000000000E+00  0.00000000000E+00  0.22594253411E+03  0.22594253413E+03  0.25500000920E-02 0. -1.
       -2   -1    0    0    0  501  0.00000000000E+00  0.00000000000E+00 -0.70882249741E+03  0.70882249742E+03  0.25500000920E-02 0.  1.
    10030    2    1    2    0    0  0.00000000000E+00  0.00000000000E+00 -0.48287996330E+03  0.93476503155E+03  0.80038278670E+03 0.  0.
        3    1    3    3  502    0  0.38644271942E+03  0.99592196188E+02 -0.20647007774E+03  0.44931779860E+03  0.10100000352E+00 0. -1.
       -3    1    3    3    0  502 -0.38644271942E+03 -0.99592196188E+02 -0.27640988556E+03  0.48544723294E+03  0.10100000352E+00 0.  1.
</event>
<event>
 5   0  0.4385875E-03  0.7975591E+03  0.7818609E-02  0.9563557E-01
       -4   -1    0    0    0  501  0.00000000000E+00  0.00000000000E+00  0.11654069146E+03  0.11654761115E+03  0.12699999809E+01 0. -1.
        4   -1    0    0  501    0  0.00000000000E+00  0.00000000000E+00 -0.13644982862E+04  0.13644988772E+04  0.12699999809E+01 0.  1.
    10030    2    1    2    0    0  0.00000000000E+00  0.00000000000E+00 -0.12479575947E+04  0.14810464883E+04  0.79755911532E+03 0.  0.
        4    1    3    3  502    0  0.39239324093E+03  0.37912761085E+02 -0.51234871676E+03  0.64646164113E+03  0.12699999809E+01 0.  1.
       -4    1    3    3    0  502 -0.39239324093E+03 -0.37912761085E+02 -0.73560887794E+03  0.83458484720E+03  0.12699999809E+01 0. -1.
</event>
<event>
 5   0  0.6551489E-03  0.7974460E+03  0.7818609E-02  0.9563721E-01
       -1   -1    0    0    0  501  0.00000000000E+00  0.00000000000E+00  0.23668919092E+03  0.23668919098E+03  0.50400001928E-02 0.  1.
        1   -1    0    0  501    0  0.00000000000E+00  0.00000000000E+00 -0.67168271618E+03  0.67168271620E+03  0.50400001928E-02 0. -1.
    10030    2    1    2    0    0  0.00000000000E+00  0.00000000000E+00 -0.43499352526E+03  0.90837190718E+03  0.79744601995E+03 0.  0.
        4    1    3    3  502    0  0.25998578336E+03 -0.24082485960E+03 -0.42564150270E+03  0.55386056212E+03  0.12699999809E+01 0. -1.
       -4    1    3    3    0  502 -0.25998578336E+03  0.24082485960E+03 -0.93520225542E+01  0.35451134506E+03  0.12699999809E+01 0.  1.
</event>
<event>
 5   0  0.1121480E-02  0.8032979E+03  0.7818609E-02  0.9555256E-01
       -2   -1    0    0    0  501  0.00000000000E+00  0.00000000000E+00  0.14231261846E+03  0.14231261848E+03  0.25500000920E-02 0. -1.
        2   -1    0    0  501    0  0.00000000000E+00  0.00000000000E+00 -0.11335740716E+04  0.11335740716E+04  0.25500000920E-02 0.  1.
    10030    2    1    2    0    0  0.00000000000E+00  0.00000000000E+00 -0.99126145319E+03  0.12758866901E+04  0.80329793817E+03 0.  0.
        2    1    3    3  502    0  0.65059613104E+02  0.25941829138E+03 -0.19690335563E+02  0.26817589840E+03  0.25500000920E-02 0. -1.
       -2    1    3    3    0  502 -0.65059613104E+02 -0.25941829138E+03 -0.97157111762E+03  0.10077107917E+04  0.25500000920E-02 0.  1.
</event>
<event>
 5   0  0.1121480E-02  0.8058188E+03  0.7818609E-02  0.9551633E-01
        2   -1    0    0  501    0  0.00000000000E+00  0.00000000000E+00  0.41179911636E+03  0.41179911637E+03  0.25500000920E-02 0. -1.
       -2   -1    0    0    0  501  0.00000000000E+00  0.00000000000E+00 -0.39421155613E+03  0.39421155614E+03  0.25500000920E-02 0.  1.
    10030    2    1    2    0    0  0.00000000000E+00  0.00000000000E+00  0.17587560233E+02  0.80601067251E+03  0.80581876493E+03 0.  0.
        2    1    3    3  502    0  0.23153491960E+03 -0.32404445577E+03  0.69822589198E+02  0.40433701571E+03  0.25500000920E-02 0.  1.
       -2    1    3    3    0  502 -0.23153491960E+03  0.32404445577E+03 -0.52235028965E+02  0.40167365679E+03  0.25500000920E-02 0. -1.
</event>
<event>
 5   0  0.6551489E-03  0.7686094E+03  0.7818609E-02  0.9606599E-01
        1   -1    0    0  501    0  0.00000000000E+00  0.00000000000E+00  0.66373253225E+03  0.66373253227E+03  0.50400001928E-02 0.  1.
       -1   -1    0    0    0  501  0.00000000000E+00  0.00000000000E+00 -0.22251447997E+03  0.22251448003E+03  0.50400001928E-02 0. -1.
    10030    2    1    2    0    0  0.00000000000E+00  0.00000000000E+00  0.44121805228E+03  0.88624701229E+03  0.76860939179E+03 0.  0.
        4    1    3    3  502    0  0.34757723565E+03 -0.12494929562E+03  0.98221174722E+02  0.38219271747E+03  0.12699999809E+01 0.  1.
       -4    1    3    3    0  502 -0.34757723565E+03  0.12494929562E+03  0.34299687756E+03  0.50405429483E+03  0.12699999809E+01 0. -1.
</event>
<event>
 5   0  0.1154714E-02  0.7972308E+03  0.7818609E-02  0.9564034E-01
        2   -1    0    0  501    0  0.00000000000E+00  0.00000000000E+00  0.41286251905E+03  0.41286251906E+03  0.25500000920E-02 0. -1.
       -2   -1    0    0    0  501  0.00000000000E+00  0.00000000000E+00 -0.38485989245E+03  0.38485989246E+03  0.25500000920E-02 0.  1.
    10030    2    1    2    0    0  0.00000000000E+00  0.00000000000E+00  0.28002626605E+02  0.79772241152E+03  0.79723076882E+03 0.  0.
        5    1    3    3  502    0 -0.55795475777E+01  0.29128709607E+03  0.28618529544E+03  0.40841574041E+03  0.46999998093E+01 0. -1.
       -5    1    3    3    0  502  0.55795475777E+01 -0.29128709607E+03 -0.25818266884E+03  0.38930667111E+03  0.46999998093E+01 0.  1.
</event>
<event>
 5   0  0.6517392E-03  0.7988423E+03  0.7818609E-02  0.9561694E-01
       -1   -1    0    0    0  501  0.00000000000E+00  0.00000000000E+00  0.90310546521E+02  0.90310546662E+02  0.50400001928E-02 0. -1.
        1   -1    0    0  501    0  0.00000000000E+00  0.00000000000E+00 -0.17665406129E+04  0.17665406129E+04  0.50400001928E-02 0.  1.
    10030    2    1    2    0    0  0.00000000000E+00  0.00000000000E+00 -0.16762300664E+04  0.18568511596E+04  0.79884228316E+03 0.  0.
        3    1    3    3  502    0  0.92138991081E+02 -0.38459177899E+03 -0.96829975430E+03  0.10459468698E+04  0.10100000352E+00 0.  1.
       -3    1    3    3    0  502 -0.92138991081E+02  0.38459177899E+03 -0.70793031210E+03  0.81090428975E+03  0.10100000352E+00 0. -1.
</event>
<event>
 5   0  0.1119792E-02  0.7988185E+03  0.7818609E-02  0.9561729E-01
       -2   -1    0    0    0  501  0.00000000000E+00  0.00000000000E+00  0.15060906730E+03  0.15060906732E+03  0.25500000920E-02 0. -1.
        2   -1    0    0  501    0  0.00000000000E+00  0.00000000000E+00 -0.10592174428E+04  0.10592174428E+04  0.25500000920E-02 0.  1.
    10030    2    1    2    0    0  0.00000000000E+00  0.00000000000E+00 -0.90860837551E+03  0.12098265101E+04  0.79881850541E+03 0.  0.
        4    1    3    3  502    0  0.33315533655E+03  0.21926878480E+03 -0.42200334562E+03  0.58065455727E+03  0.12699999809E+01 0.  1.
       -4    1    3    3    0  502 -0.33315533655E+03 -0.21926878480E+03 -0.48660502989E+03  0.62917195287E+03  0.12699999809E+01 0. -1.
</event>
<event>
 5   0  0.4385875E-03  0.8076543E+03  0.7818609E-02  0.9549003E-01
        3   -1    0    0  501    0  0.00000000000E+00  0.00000000000E+00  0.23990536518E+03  0.23990538644E+03  0.10100000352E+00 0.  1.
       -3   -1    0    0    0  501  0.00000000000E+00  0.00000000000E+00 -0.67975289693E+03  0.67975290444E+03  0.10100000352E+00 0. -1.
    10030    2    1    2    0    0  0.00000000000E+00  0.00000000000E+00 -0.43984753175E+03  0.91965829088E+03  0.80765433249E+03 0.  0.
        2    1    3    3  502    0 -0.61832260376E+01 -0.61250563383E+02  0.23453079937E+03  0.24247589500E+03  0.25500000920E-02 0.  1.
       -2    1    3    3    0  502  0.61832260376E+01  0.61250563383E+02 -0.67437833112E+03  0.67718239588E+03  0.25500000920E-02 0. -1.
</event>
<event>
 5   0  0.4385875E-03  0.8015060E+03  0.7818609E-02  0.9557840E-01
        4   -1    0    0  501    0  0.00000000000E+00  0.00000000000E+00  0.31454366203E+03  0.31454622589E+03  0.12699999809E+01 0. -1.
       -4   -1    0    0    0  501  0.00000000000E+00  0.00000000000E+00 -0.51058498615E+03  0.51058656561E+03  0.12699999809E+01 0.  1.
    10030    2    1    2    0    0  0.00000000000E+00  0.00000000000E+00 -0.19604132413E+03  0.82513279150E+03  0.80150603419E+03 0.  0.
        4    1    3    3  502    0 -0.20109380973E+03  0.31239734835E+03  0.56642920590E+02  0.37582024549E+03  0.12699999809E+01 0. -1.
       -4    1    3    3    0  502  0.20109380973E+03 -0.31239734835E+03 -0.25268424472E+03  0.44931254601E+03  0.12699999809E+01 0.  1.
</event>
<event>
 5   0  0.6557679E-03  0.8047860E+03  0.7818609E-02  0.9553115E-01
       -1   -1    0    0    0  501  0.00000000000E+00  0.00000000000E+00  0.66878607491E+03  0.66878607493E+03  0.50400001928E-02 0.  1.
        1   -1    0    0  501    0  0.00000000000E+00  0.00000000000E+00 -0.24211051843E+03  0.24211051848E+03  0.50400001928E-02 0. -1.
    10030    2    1    2    0    0  0.00000000000E+00  0.00000000000E+00  0.42667555647E+03  0.91089659341E+03  0.80478604200E+03 0.  0.
        1    1    3    3  502    0  0.19148896932E+03  0.17962132682E+03  0.55848373423E+03  0.61711905484E+03  0.50400001928E-02 0.  1.
       -1    1    3    3    0  502 -0.19148896932E+03 -0.17962132682E+03 -0.13180817776E+03  0.29377753857E+03  0.50400001928E-02 0. -1.
</event>
<event>
 5   0  0.6557679E-03  0.8218168E+03  0.7818609E-02  0.9528964E-01
       -1   -1    0    0    0  501  0.00000000000E+00  0.00000000000E+00  0.14674175267E+03  0.14674175276E+03  0.50400001928E-02 0. -1.
        1   -1    0    0  501    0  0.00000000000E+00  0.00000000000E+00 -0.11506317214E+04  0.11506317214E+04  0.50400001928E-02 0.  1.
    10030    2    1    2    0    0  0.00000000000E+00  0.00000000000E+00 -0.10038899687E+04  0.12973734741E+04  0.82181680571E+03 0.  0.
        1    1    3    3  502    0 -0.21409424844E+03  0.26821693556E+03 -0.85869899087E+03  0.92473814060E+03  0.50400001928E-02 0.  1.
       -1    1    3    3    0  502  0.21409424844E+03 -0.26821693556E+03 -0.14519097784E+03  0.37263533354E+03  0.50400001928E-02 0. -1.
</event>
<event>
 5   0  0.6517392E-03  0.7991044E+03  0.7818609E-02  0.9561314E-01
       -1   -1    0    0    0  501  0.00000000000E+00  0.00000000000E+00  0.37486531109E+03  0.37486531112E+03  0.50400001928E-02 0.  1.
        1   -1    0    0  501    0  0.00000000000E+00  0.00000000000E+00 -0.42586488249E+03  0.42586488252E+03  0.50400001928E-02 0. -1.
    10030    2    1    2    0    0  0.00000000000E+00  0.00000000000E+00 -0.50999571397E+02  0.80073019364E+03  0.79910442792E+03 0.  0.
        3    1    3    3  502    0 -0.15218060382E+03  0.36877826003E+03 -0.47581411934E+02  0.40177150497E+03  0.10100000352E+00 0. -1.
       -3    1    3    3    0  502  0.15218060382E+03 -0.36877826003E+03 -0.34181594635E+01  0.39895868867E+03  0.10100000352E+00 0.  1.
</event>
<event>
 5   0  0.1119792E-02  0.7872766E+03  0.7818609E-02  0.9578619E-01
       -2   -1    0    0    0  501  0.00000000000E+00  0.00000000000E+00  0.16997444999E+03  0.16997445001E+03  0.25500000920E-02 0.  1.
        2   -1    0    0  501    0  0.00000000000E+00  0.00000000000E+00 -0.91161411439E+03  0.91161411439E+03  0.25500000920E-02 0. -1.
    10030    2    1    2    0    0  0.00000000000E+00  0.00000000000E+00 -0.74163966440E+03  0.10815885644E+04  0.78727659106E+03 0.  0.
        4    1    3    3  502    0  0.27569343206E+03  0.27694165933E+03 -0.43592780556E+03  0.58543848158E+03  0.12699999809E+01 0.  1.
       -4    1    3    3    0  502 -0.27569343206E+03 -0.27694165933E+03 -0.30571185884E+03  0.49615008282E+03  0.12699999809E+01 0. -1.
</event>
<event>
 5   0  0.1106332E-02  0.7979224E+03  0.7818609E-02  0.9563029E-01
       -2   -1    0    0    0  501  0.00000000000E+00  0.00000000000E+00  0.15950248539E+03  0.15950248541E+03  0.25500000920E-02 0. -1.
        2   -1    0    0  501    0  0.00000000000E+00  0.00000000000E+00 -0.99791572700E+03  0.99791572701E+03  0.25500000920E-02 0.  1.
    10030    2    1    2    0    0  0.00000000000E+00  0.00000000000E+00 -0.83841324162E+03  0.11574182124E+04  0.79792239892E+03 0.  0.
        1    1    3    3  502    0  0.13289391097E+03 -0.28362907909E+03 -0.60762433248E+02  0.31905848899E+03  0.50400001928E-02 0. -1.
       -1    1    3    3    0  502 -0.13289391097E+03  0.28362907909E+03 -0.77765080837E+03  0.83835972342E+03  0.50400001928E-02 0.  1.
</event>
<event>
 5   0  0.4385875E-03  0.7989864E+03  0.7818609E-02  0.9561485E-01
       -4   -1    0    0    0  501  0.00000000000E+00  0.00000000000E+00  0.67710240643E+03  0.67710359746E+03  0.12699999809E+01 0.  1.
        4   -1    0    0  501    0  0.00000000000E+00  0.00000000000E+00 -0.23569949222E+03  0.23570291371E+03  0.12699999809E+01 0. -1.
    10030    2    1    2    0    0  0.00000000000E+00  0.00000000000E+00  0.44140291421E+03  0.91280651117E+03  0.79898635418E+03 0.  0.
        4    1    3    3  502    0 -0.12421854754E+03  0.76819404461E+02 -0.20410424778E+03  0.25098132464E+03  0.12699999809E+01 0. -1.
       -4    1    3    3    0  502  0.12421854754E+03 -0.76819404461E+02  0.64550716199E+03  0.66182518654E+03  0.12699999809E+01 0.  1.
</event>
<event>
 5   0  0.6600401E-03  0.8033753E+03  0.7818609E-02  0.9555144E-01
        1   -1    0    0  501    0  0.00000000000E+00  0.00000000000E+00  0.58689583008E+03  0.58689583011E+03  0.50400001928E-02 0. -1.
       -1   -1    0    0    0  501  0.00000000000E+00  0.00000000000E+00 -0.27492604376E+03  0.27492604381E+03  0.50400001928E-02 0.  1.
    10030    2    1    2    0    0  0.00000000000E+00  0.00000000000E+00  0.31196978632E+03  0.86182187392E+03  0.80337525154E+03 0.  0.
        2    1    3    3  502    0 -0.38778436530E+03  0.19652391806E+02  0.26637938821E+03  0.47087249755E+03  0.25500000920E-02 0. -1.
       -2    1    3    3    0  502  0.38778436530E+03 -0.19652391806E+02  0.45590398104E+02  0.39094937637E+03  0.25500000920E-02 0.  1.
</event>
<event>
 5   0  0.4385875E-03  0.8123600E+03  0.7818609E-02  0.9542297E-01
       -3   -1    0    0    0  501  0.00000000000E+00  0.00000000000E+00  0.20929735844E+04  0.20929735869E+04  0.10100000352E+00 0. -1.
        3   -1    0    0  501    0  0.00000000000E+00  0.00000000000E+00 -0.78826663001E+02  0.78826727706E+02  0.10100000352E+00 0.  1.
    10030    2    1    2    0    0  0.00000000000E+00  0.00000000000E+00  0.20141469214E+04  0.21718003146E+04  0.81236000965E+03 0.  0.
        5    1    3    3  502    0  0.35366364980E+02 -0.28127865523E+03  0.22951135001E+03  0.36478214243E+03  0.46999998093E+01 0.  1.
       -5    1    3    3    0  502 -0.35366364980E+02  0.28127865523E+03  0.17846355714E+04  0.18070181721E+04  0.46999998093E+01 0. -1.
</event>
<event>
 5   0  0.6596225E-03  0.8005571E+03  0.7818609E-02  0.9559211E-01
        1   -1    0    0  501    0  0.00000000000E+00  0.00000000000E+00  0.59406510970E+03  0.59406510972E+03  0.50400001928E-02 0.  1.
       -1   -1    0    0    0  501  0.00000000000E+00  0.00000000000E+00 -0.26970598517E+03  0.26970598522E+03  0.50400001928E-02 0. -1.
    10030    2    1    2    0    0  0.00000000000E+00  0.00000000000E+00  0.32435912453E+03  0.86377109494E+03  0.80055709527E+03 0.  0.
        5    1    3    3  502    0  0.26352182402E+03 -0.25937118956E+03 -0.31647452990E+01  0.36979625650E+03  0.46999998093E+01 0.  1.
       -5    1    3    3    0  502 -0.26352182402E+03  0.25937118956E+03  0.32752386983E+03  0.49397483844E+03  0.46999998093E+01 0. -1.
</event>
<event>
 5   0  0.1119792E-02  0.8014322E+03  0.7818609E-02  0.9557946E-01
        2   -1    0    0  501    0  0.00000000000E+00  0.00000000000E+00  0.17934618233E+04  0.17934618233E+04  0.25500000920E-02 0. -1.
       -2   -1    0    0    0  501  0.00000000000E+00  0.00000000000E+00 -0.89532655362E+02  0.89532655398E+02  0.25500000920E-02 0.  1.
    10030    2    1    2    0    0  0.00000000000E+00  0.00000000000E+00  0.17039291679E+04  0.18829944787E+04  0.80143221639E+03 0.  0.
        4    1    3    3  502    0 -0.19661072286E+03 -0.59163695866E+02  0.43451907810E+02  0.20987091376E+03  0.12699999809E+01 0.  1.
       -4    1    3    3    0  502  0.19661072286E+03  0.59163695866E+02  0.16604772601E+04  0.16731235649E+04  0.12699999809E+01 0. -1.
</event>
<event>
 5   0  0.6517392E-03  0.8113656E+03  0.7818609E-02  0.9543710E-01
        1   -1    0    0  501    0  0.00000000000E+00  0.00000000000E+00  0.16990336723E+03  0.16990336731E+03  0.50400001928E-02 0. -1.
       -1   -1    0    0    0  501  0.00000000000E+00  0.00000000000E+00 -0.96865952900E+03  0.96865952902E+03  0.50400001928E-02 0.  1.
    10030    2    1    2    0    0  0.00000000000E+00  0.00000000000E+00 -0.79875616177E+03  0.11385628963E+04  0.81136555443E+03 0.  0.
        3    1    3    3  502    0  0.12315001134E+03  0.32554975005E+03 -0.10693922400E+03  0.36412164572E+03  0.10100000352E+00 0. -1.
       -3    1    3    3    0  502 -0.12315001134E+03 -0.32554975005E+03 -0.69181693777E+03  0.77444125060E+03  0.10100000352E+00 0.  1.
</event>
<event>
 5   0  0.1119792E-02  0.7957147E+03  0.7818609E-02  0.9566241E-01
       -2   -1    0    0    0  501  0.00000000000E+00  0.00000000000E+00  0.24633069435E+03  0.24633069436E+03  0.25500000920E-02 0. -1.
        2   -1    0    0  501    0  0.00000000000E+00  0.00000000000E+00 -0.64259338454E+03  0.64259338454E+03  0.25500000920E-02 0.  1.
    10030    2    1    2    0    0  0.00000000000E+00  0.00000000000E+00 -0.39626269019E+03  0.88892407890E+03  0.79571470919E+03 0.  0.
        4    1    3    3  502    0  0.32460577717E+02 -0.17512792362E+03  0.19930241254E+03  0.26729486206E+03  0.12699999809E+01 0. -1.
       -4    1    3    3    0  502 -0.32460577717E+02  0.17512792362E+03 -0.59556510274E+03  0.62162921684E+03  0.12699999809E+01 0.  1.
</event>
<event>
 5   0  0.6557679E-03  0.7994590E+03  0.7818609E-02  0.9560801E-01
        1   -1    0    0  501    0  0.00000000000E+00  0.00000000000E+00  0.24575121532E+03  0.24575121537E+03  0.50400001928E-02 0.  1.
       -1   -1    0    0    0  501  0.00000000000E+00  0.00000000000E+00 -0.65018463698E+03  0.65018463699E+03  0.50400001928E-02 0. -1.
    10030    2    1    2    0    0  0.00000000000E+00  0.00000000000E+00 -0.40443342165E+03  0.89593585237E+03  0.79945897894E+03 0.  0.
        1    1    3    3  502    0  0.35365622309E+03 -0.10853347118E+03 -0.32511075184E+02  0.37136129111E+03  0.50400001928E-02 0.  1.
       -1    1    3    3    0  502 -0.35365622309E+03  0.10853347118E+03 -0.37192234647E+03  0.52457456126E+03  0.50400001928E-02 0. -1.
</event>
<event>
 5   0  0.6557679E-03  0.8067021E+03  0.7818609E-02  0.9550366E-01
        1   -1    0    0  501    0  0.00000000000E+00  0.00000000000E+00  0.25743122791E+03  0.25743122796E+03  0.50400001928E-02 0.  1.
       -1   -1    0    0    0  501  0.00000000000E+00  0.00000000000E+00 -0.63198270775E+03  0.63198270778E+03  0.50400001928E-02 0. -1.
    10030    2    1    2    0    0  0.00000000000E+00  0.00000000000E+00 -0.37455147985E+03  0.88941393573E+03  0.80670213711E+03 0.  0.
        1    1    3    3  502    0  0.13929125841E+03 -0.16099402723E+03  0.19044517925E+03  0.28564050448E+03  0.50400001928E-02 0.  1.
       -1    1    3    3    0  502 -0.13929125841E+03  0.16099402723E+03 -0.56499665910E+03  0.60377343125E+03  0.50400001928E-02 0. -1.
</event>
<event>
 5   0  0.1119792E-02  0.7739121E+03  0.7818609E-02  0.9598565E-01
       -2   -1    0    0    0  501  0.00000000000E+00  0.00000000000E+00  0.87083296474E+02  0.87083296511E+02  0.25500000920E-02 0.  1.
        2   -1    0    0  501    0  0.00000000000E+00  0.00000000000E+00 -0.17194453068E+04  0.17194453068E+04  0.25500000920E-02 0. -1.
    10030    2    1    2    0    0  0.00000000000E+00  0.00000000000E+00 -0.16323620103E+04  0.18065286033E+04  0.77391205045E+03 0.  0.
        4    1    3    3  502    0 -0.36704017140E+03 -0.33870906524E+02 -0.54129393879E+03  0.65487897111E+03  0.12699999809E+01 0.  1.
       -4    1    3    3    0  502  0.36704017140E+03  0.33870906524E+02 -0.10910680715E+04  0.11516496322E+04  0.12699999809E+01 0. -1.
</event>
<event>
 5   0  0.1106332E-02  0.7964396E+03  0.7818609E-02  0.9565185E-01
       -2   -1    0    0    0  501  0.00000000000E+00  0.00000000000E+00  0.22747863872E+03  0.22747863874E+03  0.25500000920E-02 0. -1.
        2   -1    0    0  501    0  0.00000000000E+00  0.00000000000E+00 -0.69711605565E+03  0.69711605565E+03  0.25500000920E-02 0.  1.
    10030    2    1    2    0    0  0.00000000000E+00  0.00000000000E+00 -0.46963741692E+03  0.92459469439E+03  0.79643960569E+03 0.  0.
        1    1    3    3  502    0  0.21801028493E+03  0.26513139443E+03 -0.45323278974E+00  0.34325405474E+03  0.50400001928E-02 0. -1.
       -1    1    3    3    0  502 -0.21801028493E+03 -0.26513139443E+03 -0.46918418413E+03  0.58134063965E+03  0.50400001928E-02 0.  1.
</event>
<event>
 5   0  0.1119792E-02  0.7974423E+03  0.7818609E-02  0.9563727E-01
       -2   -1    0    0    0  501  0.00000000000E+00  0.00000000000E+00  0.19218577630E+03  0.19218577632E+03  0.25500000920E-02 0. -1.
        2   -1    0    0  501    0  0.00000000000E+00  0.00000000000E+00 -0.82721285906E+03  0.82721285906E+03  0.25500000920E-02 0.  1.
    10030    2    1    2    0    0  0.00000000000E+00  0.00000000000E+00 -0.63502708276E+03  0.10193986354E+04  0.79744227502E+03 0.  0.
        4    1    3    3  502    0  0.11755671861E+03 -0.32646269635E+03 -0.66427334564E+02  0.35328696251E+03  0.12699999809E+01 0. -1.
       -4    1    3    3    0  502 -0.11755671861E+03  0.32646269635E+03 -0.56859974819E+03  0.66611167288E+03  0.12699999809E+01 0.  1.
</event>
<event>
 5   0  0.1119792E-02  0.8032521E+03  0.7818609E-02  0.9555322E-01
       -2   -1    0    0    0  501  0.00000000000E+00  0.00000000000E+00  0.16665451128E+03  0.16665451130E+03  0.25500000920E-02 0. -1.
        2   -1    0    0  501    0  0.00000000000E+00  0.00000000000E+00 -0.96789143204E+03  0.96789143205E+03  0.25500000920E-02 0.  1.
    10030    2    1    2    0    0  0.00000000000E+00  0.00000000000E+00 -0.80123692077E+03  0.11345459433E+04  0.80325207398E+03 0.  0.
        4    1    3    3  502    0 -0.65085596111E+02 -0.27223748195E+03  0.61852609807E+01  0.27998080605E+03  0.12699999809E+01 0. -1.
       -4    1    3    3    0  502  0.65085596111E+02  0.27223748195E+03 -0.80742218175E+03  0.85456513729E+03  0.12699999809E+01 0.  1.
</event>
<event>
 5   0  0.6557679E-03  0.7958017E+03  0.7818609E-02  0.9566114E-01
        1   -1    0    0  501    0  0.00000000000E+00  0.00000000000E+00  0.12249399399E+04  0.12249399399E+04  0.50400001928E-02 0. -1.
       -1   -1    0    0    0  501  0.00000000000E+00  0.00000000000E+00 -0.12925131775E+03  0.12925131785E+03  0.50400001928E-02 0.  1.
    10030    2    1    2    0    0  0.00000000000E+00  0.00000000000E+00  0.10956886222E+04  0.13541912578E+04  0.79580173782E+03 0.  0.
        1    1    3    3  502    0 -0.18915656618E+03 -0.34998810334E+03  0.56025861972E+03  0.68714016038E+03  0.50400001928E-02 0. -1.
       -1    1    3    3    0  502  0.18915656618E+03  0.34998810334E+03  0.53543000245E+03  0.66705109741E+03  0.50400001928E-02 0.  1.
</event>
<event>
 5   0  0.6517392E-03  0.7983106E+03  0.7818609E-02  0.9562466E-01
       -1   -1    0    0    0  501  0.00000000000E+00  0.00000000000E+00  0.42168025080E+03  0.42168025083E+03  0.50400001928E-02 0.  1.
        1   -1    0    0  501    0  0.00000000000E+00  0.00000000000E+00 -0.37783357105E+03  0.37783357108E+03  0.50400001928E-02 0. -1.
    10030    2    1    2    0    0  0.00000000000E+00  0.00000000000E+00  0.43846679750E+02  0.79951382191E+03  0.79831060378E+03 0.  0.
        3    1    3    3  502    0 -0.38948101738E+03  0.79903554841E+02 -0.13413034100E+02  0.39781900490E+03  0.10100000352E+00 0.  1.
       -3    1    3    3    0  502  0.38948101738E+03 -0.79903554841E+02  0.57259713850E+02  0.40169481701E+03  0.10100000352E+00 0. -1.
</event>
<event>
 5   0  0.1121480E-02  0.8779452E+03  0.7818609E-02  0.9453579E-01
        2   -1    0    0  501    0  0.00000000000E+00  0.00000000000E+00  0.72070653399E+03  0.72070653399E+03  0.25500000920E-02 0.  1.
       -2   -1    0    0    0  501  0.00000000000E+00  0.00000000000E+00 -0.26737225152E+03  0.26737225153E+03  0.25500000920E-02 0. -1.
    10030    2    1    2    0    0  0.00000000000E+00  0.00000000000E+00  0.45333428246E+03  0.98807878553E+03  0.87794516614E+03 0.  0.
        2    1    3    3  502    0 -0.20643655908E+03 -0.15999152965E+03  0.62374916672E+03  0.67622212732E+03  0.25500000920E-02 0.  1.
       -2    1    3    3    0  502  0.20643655908E+03  0.15999152965E+03 -0.17041488426E+03  0.31185665821E+03  0.25500000920E-02 0. -1.
</event>
<event>
 5   0  0.4385875E-03  0.7863165E+03  0.7818609E-02  0.9580037E-01
       -3   -1    0    0    0  501  0.00000000000E+00  0.00000000000E+00  0.29652153971E+03  0.29652155692E+03  0.10100000352E+00 0.  1.
        3   -1    0    0  501    0  0.00000000000E+00  0.00000000000E+00 -0.52128897521E+03  0.52128898499E+03  0.10100000352E+00 0. -1.
    10030    2    1    2    0    0  0.00000000000E+00  0.00000000000E+00 -0.22476743549E+03  0.81781054191E+03  0.78631652812E+03 0.  0.
        3    1    3    3  502    0 -0.11521699913E+03 -0.13026766308E+03  0.25434181872E+03  0.30811425135E+03  0.10100000352E+00 0.  1.
       -3    1    3    3    0  502  0.11521699913E+03  0.13026766308E+03 -0.47910925422E+03  0.50969629056E+03  0.10100000352E+00 0. -1.
</event>
<event>
 5   0  0.6600401E-03  0.7995277E+03  0.7818609E-02  0.9560701E-01
        1   -1    0    0  501    0  0.00000000000E+00  0.00000000000E+00  0.20204538653E+04  0.20204538653E+04  0.50400001928E-02 0. -1.
       -1   -1    0    0    0  501  0.00000000000E+00  0.00000000000E+00 -0.79096652610E+02  0.79096652771E+02  0.50400001928E-02 0.  1.
    10030    2    1    2    0    0  0.00000000000E+00  0.00000000000E+00  0.19413572127E+04  0.20995505180E+04  0.79952770476E+03 0.  0.
        2    1    3    3  502    0 -0.32154704440E+02 -0.27521988680E+03  0.21399637072E+03  0.35010620930E+03  0.25500000920E-02 0.  1.
       -2    1    3    3    0  502  0.32154704440E+02  0.27521988680E+03  0.17273608419E+04  0.17494443087E+04  0.25500000920E-02 0. -1.
</event>
<event>
 5   0  0.6600401E-03  0.8092961E+03  0.7818609E-02  0.9546658E-01
       -1   -1    0    0    0  501  0.00000000000E+00  0.00000000000E+00  0.30458760359E+03  0.30458760363E+03  0.50400001928E-02 0.  1.
        1   -1    0    0  501    0  0.00000000000E+00  0.00000000000E+00 -0.53757943209E+03  0.53757943211E+03  0.50400001928E-02 0. -1.
    10030    2    1    2    0    0  0.00000000000E+00  0.00000000000E+00 -0.23299182850E+03  0.84216703575E+03  0.80929606693E+03 0.  0.
        2    1    3    3  502    0 -0.94725276636E+02 -0.25599082661E+03  0.19436097014E+03  0.33508262871E+03  0.25500000920E-02 0.  1.
       -2    1    3    3    0  502  0.94725276636E+02  0.25599082661E+03 -0.42735279864E+03  0.50708440703E+03  0.25500000920E-02 0. -1.
</event>
<event>
 5   0  0.6551489E-03  0.7994388E+03  0.7818609E-02  0.9560830E-01
        1   -1    0    0  501    0  0.00000000000E+00  0.00000000000E+00  0.83481502258E+03  0.83481502259E+03  0.50400001928E-02 0.  1.
       -1   -1    0    0    0  501  0.00000000000E+00  0.00000000000E+00 -0.19139044091E+03  0.19139044098E+03  0.50400001928E-02 0. -1.
    10030    2    1    2    0    0  0.00000000000E+00  0.00000000000E+00  0.64342458166E+03  0.10262054636E+04  0.79943884142E+03 0.  0.
        4    1    3    3  502    0  0.29506426938E+03 -0.15866434449E+03  0.41837607149E+02  0.33762300803E+03  0.12699999809E+01 0. -1.
       -4    1    3    3    0  502 -0.29506426938E+03  0.15866434449E+03  0.60158697451E+03  0.68858245554E+03  0.12699999809E+01 0.  1.
</event>
<event>
 5   0  0.1121480E-02  0.7968028E+03  0.7818609E-02  0.9564656E-01
        2   -1    0    0  501    0  0.00000000000E+00  0.00000000000E+00  0.80599653830E+03  0.80599653830E+03  0.25500000920E-02 0. -1.
       -2   -1    0    0    0  501  0.00000000000E+00  0.00000000000E+00 -0.19692848675E+03  0.19692848677E+03  0.25500000920E-02 0.  1.
    10030    2    1    2    0    0  0.00000000000E+00  0.00000000000E+00  0.60906805155E+03  0.10029250251E+04  0.79680280779E+03 0.  0.
        2    1    3    3  502    0  0.13272372670E+03  0.69252088397E+02  0.76924725751E+03  0.78367900480E+03  0.25500000920E-02 0. -1.
       -2    1    3    3    0  502 -0.13272372670E+03 -0.69252088397E+02 -0.16017920596E+03  0.21924602027E+03  0.25500000920E-02 0.  1.
</event>
<event>
 5   0  0.6557679E-03  0.8094720E+03  0.7818609E-02  0.9546407E-01
        1   -1    0    0  501    0  0.00000000000E+00  0.00000000000E+00  0.69984555797E+03  0.69984555798E+03  0.50400001928E-02 0. -1.
       -1   -1    0    0    0  501  0.00000000000E+00  0.00000000000E+00 -0.23406769265E+03  0.23406769270E+03  0.50400001928E-02 0.  1.
    10030    2    1    2    0    0  0.00000000000E+00  0.00000000000E+00  0.46577786532E+03  0.93391325069E+03  0.80947201310E+03 0.  0.
        1    1    3    3  502    0 -0.99748308404E+02  0.33502651241E+03  0.46825789586E+03  0.58434403061E+03  0.50400001928E-02 0. -1.
       -1    1    3    3    0  502  0.99748308404E+02 -0.33502651241E+03 -0.24800305437E+01  0.34956922008E+03  0.50400001928E-02 0.  1.
</event>
<event>
 5   0  0.1121480E-02  0.8048041E+03  0.7818609E-02  0.9553089E-01
        2   -1    0    0  501    0  0.00000000000E+00  0.00000000000E+00  0.11656830159E+04  0.11656830159E+04  0.25500000920E-02 0. -1.
       -2   -1    0    0    0  501  0.00000000000E+00  0.00000000000E+00 -0.13891203937E+03  0.13891203940E+03  0.25500000920E-02 0.  1.
    10030    2    1    2    0    0  0.00000000000E+00  0.00000000000E+00  0.10267709765E+04  0.13045950553E+04  0.80480408800E+03 0.  0.
        2    1    3    3  502    0 -0.16727892977E+03  0.14743900963E+03 -0.29608901454E+02  0.22493818920E+03  0.25500000920E-02 0.  1.
       -2    1    3    3    0  502  0.16727892977E+03 -0.14743900963E+03  0.10563798780E+04  0.10796568661E+04  0.25500000920E-02 0. -1.
</event>
<event>
 5   0  0.1121480E-02  0.8026470E+03  0.7818609E-02  0.9556194E-01
        2   -1    0    0  501    0  0.00000000000E+00  0.00000000000E+00  0.10284530601E+04  0.10284530601E+04  0.25500000920E-02 0. -1.
       -2   -1    0    0    0  501  0.00000000000E+00  0.00000000000E+00 -0.15660466684E+03  0.15660466686E+03  0.25500000920E-02 0.  1.
    10030    2    1    2    0    0  0.00000000000E+00  0.00000000000E+00  0.87184839330E+03  0.11850577270E+04  0.80264699304E+03 0.  0.
        2    1    3    3  502    0 -0.24224228649E+03  0.98444755912E+02  0.88542071872E+03  0.92322399474E+03  0.25500000920E-02 0. -1.
       -2    1    3    3    0  502  0.24224228649E+03 -0.98444755912E+02 -0.13572325418E+02  0.26183373227E+03  0.25500000920E-02 0.  1.
</event>
<event>
 5   0  0.1121480E-02  0.8063869E+03  0.7818609E-02  0.9550818E-01
       -2   -1    0    0    0  501  0.00000000000E+00  0.00000000000E+00  0.37015049209E+03  0.37015049210E+03  0.25500000920E-02 0. -1.
        2   -1    0    0  501    0  0.00000000000E+00  0.00000000000E+00 -0.43918612991E+03  0.43918612992E+03  0.25500000920E-02 0.  1.
    10030    2    1    2    0    0  0.00000000000E+00  0.00000000000E+00 -0.69035637823E+02  0.80933662202E+03  0.80638690990E+03 0.  0.
        2    1    3    3  502    0  0.36293013738E+03  0.98123788984E+02  0.11168038407E+03  0.39219774448E+03  0.25500000920E-02 0. -1.
       -2    1    3    3    0  502 -0.36293013738E+03 -0.98123788984E+02 -0.18071602190E+03  0.41713887754E+03  0.25500000920E-02 0.  1.
</event>
<event>
 5   0  0.1106332E-02  0.8358009E+03  0.7818609E-02  0.9509595E-01
       -2   -1    0    0    0  501  0.00000000000E+00  0.00000000000E+00  0.72404032098E+03  0.72404032099E+03  0.25500000920E-02 0. -1.
        2   -1    0    0  501    0  0.00000000000E+00  0.00000000000E+00 -0.24120311727E+03  0.24120311728E+03  0.25500000920E-02 0.  1.
    10030    2    1    2    0    0  0.00000000000E+00  0.00000000000E+00  0.48283720371E+03  0.96524343827E+03  0.83580089126E+03 0.  0.
        1    1    3    3  502    0 -0.44096692803E+02 -0.18189418407E+03 -0.19009400574E+03  0.26676908284E+03  0.50400001928E-02 0.  1.
       -1    1    3    3    0  502  0.44096692803E+02  0.18189418407E+03  0.67293120945E+03  0.69847435543E+03  0.50400001928E-02 0. -1.
</event>
<event>
 5   0  0.6600401E-03  0.7982917E+03  0.7818609E-02  0.9562493E-01
       -1   -1    0    0    0  501  0.00000000000E+00  0.00000000000E+00  0.11926329192E+03  0.11926329203E+03  0.50400001928E-02 0. -1.
        1   -1    0    0  501    0  0.00000000000E+00  0.00000000000E+00 -0.13358462671E+04  0.13358462671E+04  0.50400001928E-02 0.  1.
    10030    2    1    2    0    0  0.00000000000E+00  0.00000000000E+00 -0.12165829751E+04  0.14551095591E+04  0.79829173463E+03 0.  0.
        2    1    3    3  502    0  0.23538147546E+03 -0.27083031634E+03 -0.92695960716E+03  0.99398572049E+03  0.25500000920E-02 0.  1.
       -2    1    3    3    0  502 -0.23538147546E+03  0.27083031634E+03 -0.28962336797E+03  0.46112383859E+03  0.25500000920E-02 0. -1.
</event>
<event>
 5   0  0.1119792E-02  0.7987469E+03  0.7818609E-02  0.9561833E-01
        2   -1    0    0  501    0  0.00000000000E+00  0.00000000000E+00  0.14142610407E+04  0.14142610407E+04  0.25500000920E-02 0.  1.
       -2   -1    0    0    0  501  0.00000000000E+00  0.00000000000E+00 -0.11277915212E+03  0.11277915215E+03  0.25500000920E-02 0. -1.
    10030    2    1    2    0    0  0.00000000000E+00  0.00000000000E+00  0.13014818886E+04  0.15270401929E+04  0.79874692130E+03 0.  0.
        4    1    3    3  502    0 -0.35792384801E+03  0.17716661448E+03  0.65028090121E+03  0.76312800607E+03  0.12699999809E+01 0. -1.
       -4    1    3    3    0  502  0.35792384801E+03 -0.17716661448E+03  0.65120098740E+03  0.76391218681E+03  0.12699999809E+01 0.  1.
</event>
<event>
 5   0  0.1154714E-02  0.8049946E+03  0.7818609E-02  0.9552816E-01
       -2   -1    0    0    0  501  0.00000000000E+00  0.00000000000E+00  0.54343396273E+03  0.54343396273E+03  0.25500000920E-02 0.  1.
        2   -1    0    0  501    0  0.00000000000E+00  0.00000000000E+00 -0.29811177923E+03  0.29811177924E+03  0.25500000920E-02 0. -1.
    10030    2    1    2    0    0  0.00000000000E+00  0.00000000000E+00  0.24532218350E+03  0.84154574197E+03  0.80499457273E+03 0.  0.
        5    1    3    3  502    0  0.21372661131E+03 -0.19501618172E+03  0.41513483290E+03  0.50603299794E+03  0.46999998093E+01 0.  1.
       -5    1    3    3    0  502 -0.21372661131E+03  0.19501618172E+03 -0.16981264940E+03  0.33551274404E+03  0.46999998093E+01 0. -1.
</event>
<event>
 5   0  0.6517392E-03  0.7990704E+03  0.7818609E-02  0.9561364E-01
        1   -1    0    0  501    0  0.00000000000E+00  0.00000000000E+00  0.13010204432E+04  0.13010204432E+04  0.50400001928E-02 0.  1.
       -1   -1    0    0    0  501  0.00000000000E+00  0.00000000000E+00 -0.12269476185E+03  0.12269476195E+03  0.50400001928E-02 0. -1.
    10030    2    1    2    0    0  0.00000000000E+00  0.00000000000E+00  0.11783256814E+04  0.14237152052E+04  0.79907044377E+03 0.  0.
        3    1    3    3  502    0 -0.36199002282E+03  0.80074717428E+02  0.32381511810E+03  0.49224483532E+03  0.10100000352E+00 0. -1.
       -3    1    3    3    0  502  0.36199002282E+03 -0.80074717428E+02  0.85451056328E+03  0.93147036987E+03  0.10100000352E+00 0.  1.
</event>
<event>
 5   0  0.1154714E-02  0.8014173E+03  0.7818609E-02  0.9557968E-01
       -2   -1    0    0    0  501  0.00000000000E+00  0.00000000000E+00  0.91558233713E+02  0.91558233749E+02  0.25500000920E-02 0.  1.
        2   -1    0    0  501    0  0.00000000000E+00  0.00000000000E+00 -0.17537192678E+04  0.17537192678E+04  0.25500000920E-02 0. -1.
    10030    2    1    2    0    0  0.00000000000E+00  0.00000000000E+00 -0.16621610341E+04  0.18452775016E+04  0.80141734103E+03 0.  0.
        5    1    3    3  502    0 -0.27079289463E+02 -0.39973701078E+03 -0.84197386300E+03  0.93245109345E+03  0.46999998093E+01 0. -1.
       -5    1    3    3    0  502  0.27079289463E+02  0.39973701078E+03 -0.82018717110E+03  0.91282640811E+03  0.46999998093E+01 0.  1.
</event>
<event>
 5   0  0.6517392E-03  0.7985459E+03  0.7818609E-02  0.9562124E-01
        1   -1    0    0  501    0  0.00000000000E+00  0.00000000000E+00  0.45075280145E+03  0.45075280148E+03  0.50400001928E-02 0. -1.
       -1   -1    0    0    0  501  0.00000000000E+00  0.00000000000E+00 -0.35367252176E+03  0.35367252180E+03  0.50400001928E-02 0.  1.
    10030    2    1    2    0    0  0.00000000000E+00  0.00000000000E+00  0.97080279691E+02  0.80442532328E+03  0.79854587847E+03 0.  0.
        3    1    3    3  502    0  0.28676099009E+03  0.22028933593E+03  0.21907808307E+03  0.42279365374E+03  0.10100000352E+00 0. -1.
       -3    1    3    3    0  502 -0.28676099009E+03 -0.22028933593E+03 -0.12199780338E+03  0.38163166954E+03  0.10100000352E+00 0.  1.
</event>
<event>
 5   0  0.1154714E-02  0.8004201E+03  0.7818609E-02  0.9559409E-01
        2   -1    0    0  501    0  0.00000000000E+00  0.00000000000E+00  0.12451350121E+04  0.12451350121E+04  0.25500000920E-02 0.  1.
       -2   -1    0    0    0  501  0.00000000000E+00  0.00000000000E+00 -0.12863509787E+03  0.12863509789E+03  0.25500000920E-02 0. -1.
    10030    2    1    2    0    0  0.00000000000E+00  0.00000000000E+00  0.11164999142E+04  0.13737701100E+04  0.80042005011E+03 0.  0.
        5    1    3    3  502    0  0.17013487249E+03 -0.21818548159E+03  0.10544842363E+04  0.10901879993E+04  0.46999998093E+01 0.  1.
       -5    1    3    3    0  502 -0.17013487249E+03  0.21818548159E+03  0.62015677967E+02  0.28358211073E+03  0.46999998093E+01 0. -1.
</event>
<event>
 5   0  0.1121480E-02  0.7987068E+03  0.7818609E-02  0.9561891E-01
        2   -1    0    0  501    0  0.00000000000E+00  0.00000000000E+00  0.79895219607E+03  0.79895219608E+03  0.25500000920E-02 0.  1.
       -2   -1    0    0    0  501  0.00000000000E+00  0.00000000000E+00 -0.19961535340E+03  0.19961535342E+03  0.25500000920E-02 0. -1.
    10030    2    1    2    0    0  0.00000000000E+00  0.00000000000E+00  0.59933684267E+03  0.99856754949E+03  0.79870676716E+03 0.  0.
        2    1    3    3  502    0  0.11031683365E+03 -0.26815804975E+03  0.64298039588E+03  0.70533845275E+03  0.25500000920E-02 0.  1.
       -2    1    3    3    0  502 -0.11031683365E+03  0.26815804975E+03 -0.43643553210E+02  0.29322909674E+03  0.25500000920E-02 0. -1.
</event>
<event>
 5   0  0.6557679E-03  0.7230847E+03  0.7818609E-02  0.9678549E-01
        1   -1    0    0  501    0  0.00000000000E+00  0.00000000000E+00  0.13603752916E+04  0.13603752916E+04  0.50400001928E-02 0. -1.
       -1   -1    0    0    0  501  0.00000000000E+00  0.00000000000E+00 -0.96085888717E+02  0.96085888850E+02  0.50400001928E-02 0.  1.
    10030    2    1    2    0    0  0.00000000000E+00  0.00000000000E+00  0.12642894029E+04  0.14564611805E+04  0.72308469486E+03 0.  0.
        1    1    3    3  502    0  0.35675981819E+03 -0.58333549094E+02  0.62066213514E+03  0.71826308331E+03  0.50400001928E-02 0. -1.
       -1    1    3    3    0  502 -0.35675981819E+03  0.58333549094E+02  0.64362726774E+03  0.73819809715E+03  0.50400001928E-02 0.  1.
</event>
<event>
 5   0  0.6557679E-03  0.7723103E+03  0.7818609E-02  0.9600985E-01
        1   -1    0    0  501    0  0.00000000000E+00  0.00000000000E+00  0.67579847817E+03  0.67579847819E+03  0.50400001928E-02 0. -1.
       -1   -1    0    0    0  501  0.00000000000E+00  0.00000000000E+00 -0.22065129100E+03  0.22065129105E+03  0.50400001928E-02 0.  1.
    10030    2    1    2    0    0  0.00000000000E+00  0.00000000000E+00  0.45514718717E+03  0.89644976924E+03  0.77231031767E+03 0.  0.
        1    1    3    3  502    0  0.58419994659E+02 -0.47763295986E+02 -0.21200989558E+03  0.22503871682E+03  0.50400001928E-02 0.  1.
       -1    1    3    3    0  502 -0.58419994659E+02  0.47763295986E+02  0.66715708275E+03  0.67141105242E+03  0.50400001928E-02 0. -1.
</event>
<event>
 5   0  0.1119792E-02  0.7990232E+03  0.7818609E-02  0.9561432E-01
       -2   -1    0    0    0  501  0.00000000000E+00  0.00000000000E+00  0.10671213495E+04  0.10671213495E+04  0.25500000920E-02 0.  1.
        2   -1    0    0  501    0  0.00000000000E+00  0.00000000000E+00 -0.14957017174E+03  0.14957017176E+03  0.25500000920E-02 0. -1.
    10030    2    1    2    0    0  0.00000000000E+00  0.00000000000E+00  0.91755117779E+03  0.12166915213E+04  0.79902321252E+03 0.  0.
        4    1    3    3  502    0  0.22836063955E+02  0.25288544326E+03 -0.10893640469E+02  0.25415117062E+03  0.12699999809E+01 0. -1.
       -4    1    3    3    0  502 -0.22836063955E+02 -0.25288544326E+03  0.92844481826E+03  0.96254035068E+03  0.12699999809E+01 0.  1.
</event>
<event>
 5   0  0.1119792E-02  0.8030232E+03  0.7818609E-02  0.9555651E-01
       -2   -1    0    0    0  501  0.00000000000E+00  0.00000000000E+00  0.23380613108E+03  0.23380613110E+03  0.25500000920E-02 0.  1.
        2   -1    0    0  501    0  0.00000000000E+00  0.00000000000E+00 -0.68950953533E+03  0.68950953534E+03  0.25500000920E-02 0. -1.
    10030    2    1    2    0    0  0.00000000000E+00  0.00000000000E+00 -0.45570340425E+03  0.92331566643E+03  0.80302317976E+03 0.  0.
        4    1    3    3  502    0  0.16943685681E+03 -0.72663030839E+02  0.18225968837E+03  0.25924693133E+03  0.12699999809E+01 0.  1.
       -4    1    3    3    0  502 -0.16943685681E+03  0.72663030839E+02 -0.63796309262E+03  0.66406873510E+03  0.12699999809E+01 0. -1.
</event>
<event>
 5   0  0.1106332E-02  0.8007841E+03  0.7818609E-02  0.9558883E-01
       -2   -1    0    0    0  501  0.00000000000E+00  0.00000000000E+00  0.12889336535E+03  0.12889336538E+03  0.25500000920E-02 0.  1.
        2   -1    0    0  501    0  0.00000000000E+00  0.00000000000E+00 -0.12437705938E+04  0.12437705938E+04  0.25500000920E-02 0. -1.
    10030    2    1    2    0    0  0.00000000000E+00  0.00000000000E+00 -0.11148772284E+04  0.13726639591E+04  0.80078405972E+03 0.  0.
        1    1    3    3  502    0 -0.23318323622E+03  0.25388271732E+02 -0.11136658572E+04  0.11380995683E+04  0.50400001928E-02 0. -1.
       -1    1    3    3    0  502  0.23318323622E+03 -0.25388271732E+02 -0.12113712546E+01  0.23456439082E+03  0.50400001928E-02 0.  1.
</event>
<event>
 5   0  0.4385875E-03  0.8006724E+03  0.7818609E-02  0.9559044E-01
       -4   -1    0    0    0  501  0.00000000000E+00  0.00000000000E+00  0.63934661375E+03  0.63934787512E+03  0.12699999809E+01 0.  1.
        4   -1    0    0  501    0  0.00000000000E+00  0.00000000000E+00 -0.25067321232E+03  0.25067642944E+03  0.12699999809E+01 0. -1.
    10030    2    1    2    0    0  0.00000000000E+00  0.00000000000E+00  0.38867340143E+03  0.89002430455E+03  0.80067237352E+03 0.  0.
        2    1    3    3  502    0 -0.21527096666E+03 -0.26714932362E+03 -0.34982944775E+02  0.34486831781E+03  0.25500000920E-02 0. -1.
       -2    1    3    3    0  502  0.21527096666E+03  0.26714932362E+03  0.42365634621E+03  0.54515598675E+03  0.25500000920E-02 0.  1.
</event>
<event>
 5   0  0.6517392E-03  0.7807475E+03  0.7818609E-02  0.9588310E-01
       -1   -1    0    0    0  501  0.00000000000E+00  0.00000000000E+00  0.14545862438E+03  0.14545862446E+03  0.50400001928E-02 0.  1.
        1   -1    0    0  501    0  0.00000000000E+00  0.00000000000E+00 -0.10476632886E+04  0.10476632886E+04  0.50400001928E-02 0. -1.
    10030    2    1    2    0    0  0.00000000000E+00  0.00000000000E+00 -0.90220466418E+03  0.11931219130E+04  0.78074749010E+03 0.  0.
        3    1    3    3  502    0 -0.32286980399E+03 -0.10415479938E+03 -0.74623685523E+03  0.81973324129E+03  0.10100000352E+00 0. -1.
       -3    1    3    3    0  502  0.32286980399E+03  0.10415479938E+03 -0.15596780895E+03  0.37338867175E+03  0.10100000352E+00 0.  1.
</event>
<event>
 5   0  0.6557679E-03  0.7979748E+03  0.7818609E-02  0.9562953E-01
       -1   -1    0    0    0  501  0.00000000000E+00  0.00000000000E+00  0.35327538330E+03  0.35327538333E+03  0.50400001928E-02 0. -1.
        1   -1    0    0  501    0  0.00000000000E+00  0.00000000000E+00 -0.45061430435E+03  0.45061430438E+03  0.50400001928E-02 0.  1.
    10030    2    1    2    0    0  0.00000000000E+00  0.00000000000E+00 -0.97338921052E+02  0.80388968771E+03  0.79797478936E+03 0.  0.
        1    1    3    3  502    0  0.26270094846E+03 -0.57510924443E+02 -0.34559415128E+03  0.43789794722E+03  0.50400001928E-02 0.  1.
       -1    1    3    3    0  502 -0.26270094846E+03  0.57510924443E+02  0.24825523022E+03  0.36599174050E+03  0.50400001928E-02 0. -1.
</event>
<event>
 5   0  0.1121480E-02  0.7946428E+03  0.7818609E-02  0.9567804E-01
       -2   -1    0    0    0  501  0.00000000000E+00  0.00000000000E+00  0.15040051411E+03  0.15040051413E+03  0.25500000920E-02 0.  1.
        2   -1    0    0  501    0  0.00000000000E+00  0.00000000000E+00 -0.10496261259E+04  0.10496261259E+04  0.25500000920E-02 0. -1.
    10030    2    1    2    0    0  0.00000000000E+00  0.00000000000E+00 -0.89922561182E+03  0.12000266401E+04  0.79464283544E+03 0.  0.
        2    1    3    3  502    0  0.30553573235E+03 -0.60994739739E+02 -0.77271124396E+02  0.32100353376E+03  0.25500000920E-02 0.  1.
       -2    1    3    3    0  502 -0.30553573235E+03  0.60994739739E+02 -0.82195448742E+03  0.87902310630E+03  0.25500000920E-02 0. -1.
</event>
<event>
 5   0  0.6596225E-03  0.8003019E+03  0.7818609E-02  0.9559580E-01
        1   -1    0    0  501    0  0.00000000000E+00  0.00000000000E+00  0.15750979203E+04  0.15750979204E+04  0.50400001928E-02 0. -1.
       -1   -1    0    0    0  501  0.00000000000E+00  0.00000000000E+00 -0.10165767686E+03  0.10165767698E+03  0.50400001928E-02 0.  1.
    10030    2    1    2    0    0  0.00000000000E+00  0.00000000000E+00  0.14734402435E+04  0.16767555973E+04  0.80030193182E+03 0.  0.
        5    1    3    3  502    0 -0.30090270936E+03  0.43351556351E+02  0.12817698814E+04  0.13173374347E+04  0.46999998093E+01 0. -1.
       -5    1    3    3    0  502  0.30090270936E+03 -0.43351556351E+02  0.19167036207E+03  0.35941816264E+03  0.46999998093E+01 0.  1.
</event>
<event>
 5   0  0.6557679E-03  0.8088856E+03  0.7818609E-02  0.9547244E-01
       -1   -1    0    0    0  501  0.00000000000E+00  0.00000000000E+00  0.14810344263E+03  0.14810344271E+03  0.50400001928E-02 0.  1.
        1   -1    0    0  501    0  0.00000000000E+00  0.00000000000E+00 -0.11044576936E+04  0.11044576937E+04  0.50400001928E-02 0. -1.
    10030    2    1    2    0    0  0.00000000000E+00  0.00000000000E+00 -0.95635425101E+03  0.12525611364E+04  0.80888562040E+03 0.  0.
        1    1    3    3  502    0  0.25889598869E+03 -0.30287882933E+03 -0.58558635812E+03  0.70828956018E+03  0.50400001928E-02 0.  1.
       -1    1    3    3    0  502 -0.25889598869E+03  0.30287882933E+03 -0.37076789290E+03  0.54427157619E+03  0.50400001928E-02 0. -1.
</event>
<event>
 5   0  0.6600401E-03  0.7950016E+03  0.7818609E-02  0.9567280E-01
        1   -1    0    0  501    0  0.00000000000E+00  0.00000000000E+00  0.54159158320E+03  0.54159158322E+03  0.50400001928E-02 0.  1.
       -1   -1    0    0    0  501  0.00000000000E+00  0.00000000000E+00 -0.29174544822E+03  0.29174544827E+03  0.50400001928E-02 0. -1.
    10030    2    1    2    0    0  0.00000000000E+00  0.00000000000E+00  0.24984613498E+03  0.83333703149E+03  0.79500158295E+03 0.  0.
        2    1    3    3  502    0 -0.98913010887E+02  0.13748296699E+03  0.50187684839E+03  0.52968454847E+03  0.25500000920E-02 0.  1.
       -2    1    3    3    0  502  0.98913010887E+02 -0.13748296699E+03 -0.25203071341E+03  0.30365248302E+03  0.25500000920E-02 0. -1.
</event>
<event>
 5   0  0.1121480E-02  0.7977642E+03  0.7818609E-02  0.9563259E-01
        2   -1    0    0  501    0  0.00000000000E+00  0.00000000000E+00  0.16696364925E+04  0.16696364925E+04  0.25500000920E-02 0.  1.
       -2   -1    0    0    0  501  0.00000000000E+00  0.00000000000E+00 -0.95294361087E+02  0.95294361121E+02  0.25500000920E-02 0. -1.
    10030    2    1    2    0    0  0.00000000000E+00  0.00000000000E+00  0.15743421314E+04  0.17649308536E+04  0.79776423292E+03 0.  0.
        2    1    3    3  502    0  0.38160998697E+03  0.82837852214E+02  0.96715671200E+03  0.10430150514E+04  0.25500000920E-02 0.  1.
       -2    1    3    3    0  502 -0.38160998697E+03 -0.82837852214E+02  0.60718541940E+03  0.72191580219E+03  0.25500000920E-02 0. -1.
</event>
<event>
 5   0  0.1092868E-02  0.7965970E+03  0.7818609E-02  0.9564956E-01
        2   -1    0    0  501    0  0.00000000000E+00  0.00000000000E+00  0.52544682708E+03  0.52544682708E+03  0.25500000920E-02 0.  1.
       -2   -1    0    0    0  501  0.00000000000E+00  0.00000000000E+00 -0.30191766583E+03  0.30191766584E+03  0.25500000920E-02 0. -1.
    10030    2    1    2    0    0  0.00000000000E+00  0.00000000000E+00  0.22352916125E+03  0.82736449292E+03  0.79659696097E+03 0.  0.
        3    1    3    3  502    0  0.98026073018E+02 -0.26055642094E+03 -0.18409355934E+03  0.33375021839E+03  0.10100000352E+00 0. -1.
       -3    1    3    3    0  502 -0.98026073018E+02  0.26055642094E+03  0.40762272059E+03  0.49361427453E+03  0.10100000352E+00 0.  1.
</event>
<event>
 5   0  0.6596225E-03  0.7974756E+03  0.7818609E-02  0.9563678E-01
        1   -1    0    0  501    0  0.00000000000E+00  0.00000000000E+00  0.19516022198E+03  0.19516022205E+03  0.50400001928E-02 0.  1.
       -1   -1    0    0    0  501  0.00000000000E+00  0.00000000000E+00 -0.81467340239E+03  0.81467340241E+03  0.50400001928E-02 0. -1.
    10030    2    1    2    0    0  0.00000000000E+00  0.00000000000E+00 -0.61951318041E+03  0.10098336245E+04  0.79747562244E+03 0.  0.
        5    1    3    3  502    0  0.16497948849E+03  0.51825427998E+02  0.14516624796E+03  0.22583054743E+03  0.46999998093E+01 0.  1.
       -5    1    3    3    0  502 -0.16497948849E+03 -0.51825427998E+02 -0.76467942837E+03  0.78400307702E+03  0.46999998093E+01 0. -1.
</event>
<event>
 5   0  0.6557679E-03  0.7994867E+03  0.7818609E-02  0.9560760E-01
        1   -1    0    0  501    0  0.00000000000E+00  0.00000000000E+00  0.11630703144E+04  0.11630703145E+04  0.50400001928E-02 0. -1.
       -1   -1    0    0    0  501  0.00000000000E+00  0.00000000000E+00 -0.13739043249E+03  0.13739043259E+03  0.50400001928E-02 0.  1.
    10030    2    1    2    0    0  0.00000000000E+00  0.00000000000E+00  0.10256798819E+04  0.13004607470E+04  0.79948666928E+03 0.  0.
        1    1    3    3  502    0  0.16739815873E+03 -0.36211121603E+03  0.55424874683E+03  0.68288970538E+03  0.50400001928E-02 0. -1.
       -1    1    3    3    0  502 -0.16739815873E+03  0.36211121603E+03  0.47143113511E+03  0.61757104166E+03  0.50400001928E-02 0.  1.
</event>
<event>
 5   0  0.6517392E-03  0.7987925E+03  0.7818609E-02  0.9561767E-01
        1   -1    0    0  501    0  0.00000000000E+00  0.00000000000E+00  0.28952299269E+03  0.28952299273E+03  0.50400001928E-02 0. -1.
       -1   -1    0    0    0  501  0.00000000000E+00  0.00000000000E+00 -0.55096609672E+03  0.55096609674E+03  0.50400001928E-02 0.  1.
    10030    2    1    2    0    0  0.00000000000E+00  0.00000000000E+00 -0.26144310403E+03  0.84048908947E+03  0.79879247172E+03 0.  0.
        3    1    3    3  502    0  0.15202351884E+03  0.13757321118E+03 -0.49136639316E+03  0.53242697268E+03  0.10100000352E+00 0.  1.
       -3    1    3    3    0  502 -0.15202351884E+03 -0.13757321118E+03  0.22992328913E+03  0.30806211679E+03  0.10100000352E+00 0. -1.
</event>
<event>
 5   0  0.1154714E-02  0.7963228E+03  0.7818609E-02  0.9565355E-01
        2   -1    0    0  501    0  0.00000000000E+00  0.00000000000E+00  0.78759946124E+03  0.78759946124E+03  0.25500000920E-02 0. -1.
       -2   -1    0    0    0  501  0.00000000000E+00  0.00000000000E+00 -0.20128570121E+03  0.20128570123E+03  0.25500000920E-02 0.  1.
    10030    2    1    2    0    0  0.00000000000E+00  0.00000000000E+00  0.58631376003E+03  0.98888516247E+03  0.79632282358E+03 0.  0.
        5    1    3    3  502    0 -0.28241842747E+02  0.31426035159E+03  0.59467302498E+03  0.67321264612E+03  0.46999998093E+01 0. -1.
       -5    1    3    3    0  502  0.28241842747E+02 -0.31426035159E+03 -0.83592649502E+01  0.31567251634E+03  0.46999998093E+01 0.  1.
</event>
<event>
 5   0  0.6596225E-03  0.8182979E+03  0.7818609E-02  0.9533903E-01
        1   -1    0    0  501    0  0.00000000000E+00  0.00000000000E+00  0.72548815167E+03  0.72548815169E+03  0.50400001928E-02 0. -1.
       -1   -1    0    0    0  501  0.00000000000E+00  0.00000000000E+00 -0.23074512687E+03  0.23074512692E+03  0.50400001928E-02 0.  1.
    10030    2    1    2    0    0  0.00000000000E+00  0.00000000000E+00  0.49474302480E+03  0.95623327861E+03  0.81829788129E+03 0.  0.
        5    1    3    3  502    0  0.28387048870E+03 -0.25237016715E+03  0.42500708563E+03  0.57002304204E+03  0.46999998093E+01 0. -1.
       -5    1    3    3    0  502 -0.28387048870E+03  0.25237016715E+03  0.69735939166E+02  0.38621023657E+03  0.46999998093E+01 0.  1.
</event>
<event>
 5   0  0.1121480E-02  0.7974494E+03  0.7818609E-02  0.9563716E-01
        2   -1    0    0  501    0  0.00000000000E+00  0.00000000000E+00  0.51294204516E+03  0.51294204516E+03  0.25500000920E-02 0.  1.
       -2   -1    0    0    0  501  0.00000000000E+00  0.00000000000E+00 -0.30994023039E+03  0.30994023040E+03  0.25500000920E-02 0. -1.
    10030    2    1    2    0    0  0.00000000000E+00  0.00000000000E+00  0.20300181477E+03  0.82288227556E+03  0.79744937309E+03 0.  0.
        2    1    3    3  502    0 -0.17885611900E+03 -0.27417950183E+03  0.33639531052E+03  0.46938866142E+03  0.25500000920E-02 0. -1.
       -2    1    3    3    0  502  0.17885611900E+03  0.27417950183E+03 -0.13339349575E+03  0.35349361414E+03  0.25500000920E-02 0.  1.
</event>
<event>
 5   0  0.1121480E-02  0.7970947E+03  0.7818609E-02  0.9564232E-01
       -2   -1    0    0    0  501  0.00000000000E+00  0.00000000000E+00  0.13488251499E+03  0.13488251502E+03  0.25500000920E-02 0.  1.
        2   -1    0    0  501    0  0.00000000000E+00  0.00000000000E+00 -0.11776172338E+04  0.11776172338E+04  0.25500000920E-02 0. -1.
    10030    2    1    2    0    0  0.00000000000E+00  0.00000000000E+00 -0.10427347188E+04  0.13124997488E+04  0.79709465989E+03 0.  0.
        2    1    3    3  502    0 -0.30735767305E+03 -0.19084616152E+01 -0.10361110247E+03  0.32435727519E+03  0.25500000920E-02 0.  1.
       -2    1    3    3    0  502  0.30735767305E+03  0.19084616152E+01 -0.93912361631E+03  0.98814247360E+03  0.25500000920E-02 0. -1.
</event>
<event>
 5   0  0.1154714E-02  0.8004247E+03  0.7818609E-02  0.9559403E-01
       -2   -1    0    0    0  501  0.00000000000E+00  0.00000000000E+00  0.94635941058E+02  0.94635941093E+02  0.25500000920E-02 0. -1.
        2   -1    0    0  501    0  0.00000000000E+00  0.00000000000E+00 -0.16924852110E+04  0.16924852110E+04  0.25500000920E-02 0.  1.
    10030    2    1    2    0    0  0.00000000000E+00  0.00000000000E+00 -0.15978492700E+04  0.17871211521E+04  0.80042471403E+03 0.  0.
        5    1    3    3  502    0 -0.16721905015E+03 -0.36044792215E+03 -0.90513542108E+03  0.98852270374E+03  0.46999998093E+01 0.  1.
       -5    1    3    3    0  502  0.16721905015E+03  0.36044792215E+03 -0.69271384890E+03  0.79859844839E+03  0.46999998093E+01 0. -1.
</event>
<event>
 5   0  0.1106332E-02  0.8014514E+03  0.7818609E-02  0.9557919E-01
        2   -1    0    0  501    0  0.00000000000E+00  0.00000000000E+00  0.23864377500E+03  0.23864377501E+03  0.25500000920E-02 0. -1.
       -2   -1    0    0    0  501  0.00000000000E+00  0.00000000000E+00 -0.67289031529E+03  0.67289031530E+03  0.25500000920E-02 0.  1.
    10030    2    1    2    0    0  0.00000000000E+00  0.00000000000E+00 -0.43424654029E+03  0.91153409031E+03  0.80145139593E+03 0.  0.
        1    1    3    3  502    0 -0.28606576686E+02 -0.14713840414E+03 -0.63980460095E+03  0.65712858226E+03  0.50400001928E-02 0.  1.
       -1    1    3    3    0  502  0.28606576686E+02  0.14713840414E+03  0.20555806065E+03  0.25440550805E+03  0.50400001928E-02 0. -1.
</event>
<event>
 5   0  0.1121480E-02  0.8014677E+03  0.7818609E-02  0.9557895E-01
       -2   -1    0    0    0  501  0.00000000000E+00  0.00000000000E+00  0.24941495174E+03  0.24941495176E+03  0.25500000920E-02 0.  1.
        2   -1    0    0  501    0  0.00000000000E+00  0.00000000000E+00 -0.64385722965E+03  0.64385722966E+03  0.25500000920E-02 0. -1.
    10030    2    1    2    0    0  0.00000000000E+00  0.00000000000E+00 -0.39444227791E+03  0.89327218141E+03  0.80146770333E+03 0.  0.
        2    1    3    3  502    0 -0.52716322380E+02 -0.28723735977E+02  0.24437459018E+03  0.25164062467E+03  0.25500000920E-02 0.  1.
       -2    1    3    3    0  502  0.52716322380E+02  0.28723735977E+02 -0.63881686808E+03  0.64163155674E+03  0.25500000920E-02 0. -1.
</event>
<event>
 5   0  0.1106332E-02  0.7997319E+03  0.7818609E-02  0.9560405E-01
       -2   -1    0    0    0  501  0.00000000000E+00  0.00000000000E+00  0.21830377226E+03  0.21830377227E+03  0.25500000920E-02 0.  1.
        2   -1    0    0  501    0  0.00000000000E+00  0.00000000000E+00 -0.73243249799E+03  0.73243249799E+03  0.25500000920E-02 0. -1.
    10030    2    1    2    0    0  0.00000000000E+00  0.00000000000E+00 -0.51412872573E+03  0.95073627027E+03  0.79973189819E+03 0.  0.
        1    1    3    3  502    0  0.12534102334E+03  0.27398053565E+03 -0.56960630539E+03  0.64438113660E+03  0.50400001928E-02 0. -1.
       -1    1    3    3    0  502 -0.12534102334E+03 -0.27398053565E+03  0.55477579661E+02  0.30635513366E+03  0.50400001928E-02 0.  1.
</event>
<event>
 5   0  0.6551489E-03  0.8000528E+03  0.7818609E-02  0.9559941E-01
        1   -1    0    0  501    0  0.00000000000E+00  0.00000000000E+00  0.22813827179E+04  0.22813827179E+04  0.50400001928E-02 0. -1.
       -1   -1    0    0    0  501  0.00000000000E+00  0.00000000000E+00 -0.70142164469E+02  0.70142164650E+02  0.50400001928E-02 0.  1.
    10030    2    1    2    0    0  0.00000000000E+00  0.00000000000E+00  0.22112405534E+04  0.23515248825E+04  0.80005280334E+03 0.  0.
        4    1    3    3  502    0 -0.18617444874E+03 -0.23397299877E+03  0.18866725204E+04  0.19102196475E+04  0.12699999809E+01 0. -1.
       -4    1    3    3    0  502  0.18617444874E+03  0.23397299877E+03  0.32456803297E+03  0.44130523501E+03  0.12699999809E+01 0.  1.
</event>
<event>
 5   0  0.6551489E-03  0.8061983E+03  0.7818609E-02  0.9551088E-01
       -1   -1    0    0    0  501  0.00000000000E+00  0.00000000000E+00  0.53226819832E+03  0.53226819835E+03  0.50400001928E-02 0.  1.
        1   -1    0    0  501    0  0.00000000000E+00  0.00000000000E+00 -0.30527644638E+03  0.30527644642E+03  0.50400001928E-02 0. -1.
    10030    2    1    2    0    0  0.00000000000E+00  0.00000000000E+00  0.22699175194E+03  0.83754464477E+03  0.80619834813E+03 0.  0.
        4    1    3    3  502    0 -0.22468161309E+03  0.33048658311E+03  0.58679512513E+02  0.40391596523E+03  0.12699999809E+01 0. -1.
       -4    1    3    3    0  502  0.22468161309E+03 -0.33048658311E+03  0.16831223943E+03  0.43362867954E+03  0.12699999809E+01 0.  1.
</event>
<event>
 5   0  0.6551489E-03  0.7943768E+03  0.7818609E-02  0.9568192E-01
       -1   -1    0    0    0  501  0.00000000000E+00  0.00000000000E+00  0.24093844816E+03  0.24093844821E+03  0.50400001928E-02 0.  1.
        1   -1    0    0  501    0  0.00000000000E+00  0.00000000000E+00 -0.65476731897E+03  0.65476731899E+03  0.50400001928E-02 0. -1.
    10030    2    1    2    0    0  0.00000000000E+00  0.00000000000E+00 -0.41382887081E+03  0.89570576720E+03  0.79437679163E+03 0.  0.
        4    1    3    3  502    0 -0.39134235512E+03  0.36051615623E+02 -0.27177058694E+03  0.47781735289E+03  0.12699999809E+01 0.  1.
       -4    1    3    3    0  502  0.39134235512E+03 -0.36051615623E+02 -0.14205828387E+03  0.41788841431E+03  0.12699999809E+01 0. -1.
</event>
<event>
 5   0  0.1119792E-02  0.8035008E+03  0.7818609E-02  0.9554964E-01
        2   -1    0    0  501    0  0.00000000000E+00  0.00000000000E+00  0.11821715157E+04  0.11821715157E+04  0.25500000920E-02 0.  1.
       -2   -1    0    0    0  501  0.00000000000E+00  0.00000000000E+00 -0.13653126328E+03  0.13653126330E+03  0.25500000920E-02 0. -1.
    10030    2    1    2    0    0  0.00000000000E+00  0.00000000000E+00  0.10456402524E+04  0.13187027790E+04  0.80350076656E+03 0.  0.
        4    1    3    3  502    0  0.37303568616E+03 -0.89531538359E+02  0.71859939794E+03  0.81459083418E+03  0.12699999809E+01 0.  1.
       -4    1    3    3    0  502 -0.37303568616E+03  0.89531538359E+02  0.32704085449E+03  0.50411194483E+03  0.12699999809E+01 0. -1.
</event>
<event>
 5   0  0.6596225E-03  0.7962278E+03  0.7818609E-02  0.9565493E-01
        1   -1    0    0  501    0  0.00000000000E+00  0.00000000000E+00  0.50560270103E+03  0.50560270106E+03  0.50400001928E-02 0. -1.
       -1   -1    0    0    0  501  0.00000000000E+00  0.00000000000E+00 -0.31347668597E+03  0.31347668601E+03  0.50400001928E-02 0.  1.
    10030    2    1    2    0    0  0.00000000000E+00  0.00000000000E+00  0.19212601507E+03  0.81907938707E+03  0.79622775426E+03 0.  0.
        5    1    3    3  502    0 -0.17828533818E+03 -0.26622561557E+03 -0.14696029673E+03  0.35253533015E+03  0.46999998093E+01 0.  1.
       -5    1    3    3    0  502  0.17828533818E+03  0.26622561557E+03  0.33908631180E+03  0.46654405691E+03  0.46999998093E+01 0. -1.
</event>
<event>
 5   0  0.6600401E-03  0.8223366E+03  0.7818609E-02  0.9528237E-01
       -1   -1    0    0    0  501  0.00000000000E+00  0.00000000000E+00  0.29701489935E+03  0.29701489939E+03  0.50400001928E-02 0.  1.
        1   -1    0    0  501    0  0.00000000000E+00  0.00000000000E+00 -0.56919497163E+03  0.56919497166E+03  0.50400001928E-02 0. -1.
    10030    2    1    2    0    0  0.00000000000E+00  0.00000000000E+00 -0.27218007228E+03  0.86620987105E+03  0.82233663968E+03 0.  0.
        2    1    3    3  502    0 -0.24683764417E+03  0.32723592995E+03 -0.10200289768E+03  0.42239409036E+03  0.25500000920E-02 0. -1.
       -2    1    3    3    0  502  0.24683764417E+03 -0.32723592995E+03 -0.17017717460E+03  0.44381578069E+03  0.25500000920E-02 0.  1.
</event>
<event>
 5   0  0.6551489E-03  0.8012758E+03  0.7818609E-02  0.9558172E-01
        1   -1    0    0  501    0  0.00000000000E+00  0.00000000000E+00  0.43962314485E+03  0.43962314488E+03  0.50400001928E-02 0. -1.
       -1   -1    0    0    0  501  0.00000000000E+00  0.00000000000E+00 -0.36510980247E+03  0.36510980251E+03  0.50400001928E-02 0.  1.
    10030    2    1    2    0    0  0.00000000000E+00  0.00000000000E+00  0.74513342380E+02  0.80473294739E+03  0.80127578175E+03 0.  0.
        4    1    3    3  502    0  0.31750664872E+03 -0.57298870034E+02  0.27580088549E+03  0.42445420699E+03  0.12699999809E+01 0. -1.
       -4    1    3    3    0  502 -0.31750664872E+03  0.57298870034E+02 -0.20128754311E+03  0.38027874040E+03  0.12699999809E+01 0.  1.
</event>
<event>
 5   0  0.6551489E-03  0.7768779E+03  0.7818609E-02  0.9594102E-01
       -1   -1    0    0    0  501  0.00000000000E+00  0.00000000000E+00  0.53187872230E+03  0.53187872233E+03  0.50400001928E-02 0. -1.
        1   -1    0    0  501    0  0.00000000000E+00  0.00000000000E+00 -0.28368272804E+03  0.28368272809E+03  0.50400001928E-02 0.  1.
    10030    2    1    2    0    0  0.00000000000E+00  0.00000000000E+00  0.24819599426E+03  0.81556145041E+03  0.77687787189E+03 0.  0.
        4    1    3    3  502    0 -0.23945286450E+03  0.25969069174E+03 -0.45521708008E+02  0.35616115523E+03  0.12699999809E+01 0. -1.
       -4    1    3    3    0  502  0.23945286450E+03 -0.25969069174E+03  0.29371770227E+03  0.45940029519E+03  0.12699999809E+01 0.  1.
</event>
<event>
 5   0  0.1092868E-02  0.7975113E+03  0.7818609E-02  0.9563626E-01
       -2   -1    0    0    0  501  0.00000000000E+00  0.00000000000E+00  0.97507581348E+02  0.97507581381E+02  0.25500000920E-02 0.  1.
        2   -1    0    0  501    0  0.00000000000E+00  0.00000000000E+00 -0.16307047481E+04  0.16307047481E+04  0.25500000920E-02 0. -1.
    10030    2    1    2    0    0  0.00000000000E+00  0.00000000000E+00 -0.15331971668E+04  0.17282123295E+04  0.79751131883E+03 0.  0.
        3    1    3    3  502    0  0.24476856389E+03 -0.18867921359E+01 -0.84453060096E+02  0.25893539622E+03  0.10100000352E+00 0.  1.
       -3    1    3    3    0  502 -0.24476856389E+03  0.18867921359E+01 -0.14487441067E+04  0.14692769333E+04  0.10100000352E+00 0. -1.
</event>
<event>
 5   0  0.6600401E-03  0.8362737E+03  0.7818609E-02  0.9508947E-01
        1   -1    0    0  501    0  0.00000000000E+00  0.00000000000E+00  0.17960361167E+04  0.17960361167E+04  0.50400001928E-02 0.  1.
       -1   -1    0    0    0  501  0.00000000000E+00  0.00000000000E+00 -0.97346823302E+02  0.97346823432E+02  0.50400001928E-02 0. -1.
    10030    2    1    2    0    0  0.00000000000E+00  0.00000000000E+00  0.16986892934E+04  0.18933829401E+04  0.83627366484E+03 0.  0.
        2    1    3    3  502    0 -0.39365896382E+02 -0.21550337744E+03  0.16557069052E+04  0.16701367415E+04  0.25500000920E-02 0.  1.
       -2    1    3    3    0  502  0.39365896382E+02  0.21550337744E+03  0.42982388184E+02  0.22324619859E+03  0.25500000920E-02 0. -1.
</event>
<event>
 5   0  0.1092868E-02  0.8001847E+03  0.7818609E-02  0.9559750E-01
        2   -1    0    0  501    0  0.00000000000E+00  0.00000000000E+00  0.28922324222E+03  0.28922324223E+03  0.25500000920E-02 0. -1.
       -2   -1    0    0    0  501  0.00000000000E+00  0.00000000000E+00 -0.55346138959E+03  0.55346138959E+03  0.25500000920E-02 0.  1.
    10030    2    1    2    0    0  0.00000000000E+00  0.00000000000E+00 -0.26423814737E+03  0.84268463182E+03  0.80018472254E+03 0.  0.
        3    1    3    3  502    0 -0.39485567608E+01  0.30351983704E+03 -0.40660395410E+03  0.50741173446E+03  0.10100000352E+00 0.  1.
       -3    1    3    3    0  502  0.39485567608E+01 -0.30351983704E+03  0.14236580673E+03  0.33527289736E+03  0.10100000352E+00 0. -1.
</event>
<event>
 5   0  0.6596225E-03  0.8012541E+03  0.7818609E-02  0.9558204E-01
       -1   -1    0    0    0  501  0.00000000000E+00  0.00000000000E+00  0.47286439085E+03  0.47286439087E+03  0.50400001928E-02 0.  1.
        1   -1    0    0  501    0  0.00000000000E+00  0.00000000000E+00 -0.33942510468E+03  0.33942510472E+03  0.50400001928E-02 0. -1.
    10030    2    1    2    0    0  0.00000000000E+00  0.00000000000E+00  0.13343928616E+03  0.81228949559E+03  0.80125413045E+03 0.  0.
        5    1    3    3  502    0  0.34754423079E+03  0.27403005145E+02 -0.13333558057E+03  0.37328057021E+03  0.46999998093E+01 0. -1.
       -5    1    3    3    0  502 -0.34754423079E+03 -0.27403005145E+02  0.26677486674E+03  0.43900892539E+03  0.46999998093E+01 0.  1.
</event>
<event>
 5   0  0.1092868E-02  0.8063203E+03  0.7818609E-02  0.9550913E-01
       -2   -1    0    0    0  501  0.00000000000E+00  0.00000000000E+00  0.10854717912E+03  0.10854717915E+03  0.25500000920E-02 0. -1.
        2   -1    0    0  501    0  0.00000000000E+00  0.00000000000E+00 -0.14973960472E+04  0.14973960472E+04  0.25500000920E-02 0.  1.
    10030    2    1    2    0    0  0.00000000000E+00  0.00000000000E+00 -0.13888488681E+04  0.16059432263E+04  0.80632032586E+03 0.  0.
        3    1    3    3  502    0  0.47622946299E+02 -0.15941156730E+03  0.36985948676E+02  0.17043463088E+03  0.10100000352E+00 0. -1.
       -3    1    3    3    0  502 -0.47622946299E+02  0.15941156730E+03 -0.14258348167E+04  0.14355085955E+04  0.10100000352E+00 0.  1.
</event>
<event>
 5   0  0.6557679E-03  0.7973794E+03  0.7818609E-02  0.9563818E-01
        1   -1    0    0  501    0  0.00000000000E+00  0.00000000000E+00  0.19303942716E+04  0.19303942716E+04  0.50400001928E-02 0. -1.
       -1   -1    0    0    0  501  0.00000000000E+00  0.00000000000E+00 -0.82342497172E+02  0.82342497327E+02  0.50400001928E-02 0.  1.
    10030    2    1    2    0    0  0.00000000000E+00  0.00000000000E+00  0.18480517744E+04  0.20127367689E+04  0.79737942039E+03 0.  0.
        1    1    3    3  502    0 -0.28577832911E+03 -0.27516583197E+03  0.10239785813E+04  0.10981428065E+04  0.50400001928E-02 0. -1.
       -1    1    3    3    0  502  0.28577832911E+03  0.27516583197E+03  0.82407319310E+03  0.91459396241E+03  0.50400001928E-02 0.  1.
</event>
<event>
 5   0  0.6596225E-03  0.8105820E+03  0.7818609E-02  0.9544825E-01
        1   -1    0    0  501    0  0.00000000000E+00  0.00000000000E+00  0.74281710463E+03  0.74281710465E+03  0.50400001928E-02 0.  1.
       -1   -1    0    0    0  501  0.00000000000E+00  0.00000000000E+00 -0.22113219416E+03  0.22113219422E+03  0.50400001928E-02 0. -1.
    10030    2    1    2    0    0  0.00000000000E+00  0.00000000000E+00  0.52168491047E+03  0.96394929886E+03  0.81058195450E+03 0.  0.
        5    1    3    3  502    0  0.18555829615E+03 -0.12758296810E+03  0.66153514130E+03  0.69882768133E+03  0.46999998093E+01 0.  1.
       -5    1    3    3    0  502 -0.18555829615E+03  0.12758296810E+03 -0.13985023083E+03  0.26512161753E+03  0.46999998093E+01 0. -1.
</event>
<event>
 5   0  0.1154714E-02  0.7976986E+03  0.7818609E-02  0.9563354E-01
        2   -1    0    0  501    0  0.00000000000E+00  0.00000000000E+00  0.38316887856E+03  0.38316887857E+03  0.25500000920E-02 0.  1.
       -2   -1    0    0    0  501  0.00000000000E+00  0.00000000000E+00 -0.41517137450E+03  0.41517137451E+03  0.25500000920E-02 0. -1.
    10030    2    1    2    0    0  0.00000000000E+00  0.00000000000E+00 -0.32002495945E+02  0.79834025308E+03  0.79769856458E+03 0.  0.
        5    1    3    3  502    0  0.25534742169E+03  0.25386671312E+03 -0.18762694052E+03  0.40604996318E+03  0.46999998093E+01 0.  1.
       -5    1    3    3    0  502 -0.25534742169E+03 -0.25386671312E+03  0.15562444458E+03  0.39229028989E+03  0.46999998093E+01 0. -1.
</event>
<event>
 5   0  0.6557679E-03  0.8069934E+03  0.7818609E-02  0.9549949E-01
        1   -1    0    0  501    0  0.00000000000E+00  0.00000000000E+00  0.60201914349E+03  0.60201914351E+03  0.50400001928E-02 0. -1.
       -1   -1    0    0    0  501  0.00000000000E+00  0.00000000000E+00 -0.27043922162E+03  0.27043922166E+03  0.50400001928E-02 0.  1.
    10030    2    1    2    0    0  0.00000000000E+00  0.00000000000E+00  0.33157992188E+03  0.87245836518E+03  0.80699340417E+03 0.  0.
        1    1    3    3  502    0  0.12694069451E+03 -0.54992513401E+02  0.57557867823E+03  0.59197038044E+03  0.50400001928E-02 0. -1.
       -1    1    3    3    0  502 -0.12694069451E+03  0.54992513401E+02 -0.24399875636E+03  0.28048798474E+03  0.50400001928E-02 0.  1.
</event>
<event>
 5   0  0.6600401E-03  0.8038245E+03  0.7818609E-02  0.9554498E-01
        1   -1    0    0  501    0  0.00000000000E+00  0.00000000000E+00  0.88772388322E+03  0.88772388323E+03  0.50400001928E-02 0.  1.
       -1   -1    0    0    0  501  0.00000000000E+00  0.00000000000E+00 -0.18196361531E+03  0.18196361538E+03  0.50400001928E-02 0. -1.
    10030    2    1    2    0    0  0.00000000000E+00  0.00000000000E+00  0.70576026791E+03  0.10696874986E+04  0.80382447644E+03 0.  0.
        2    1    3    3  502    0 -0.39562482189E+03  0.46105127608E+02  0.42440413179E+03  0.58203397630E+03  0.25500000920E-02 0. -1.
       -2    1    3    3    0  502  0.39562482189E+03 -0.46105127608E+02  0.28135613612E+03  0.48765352231E+03  0.25500000920E-02 0.  1.
</event>
<event>
 5   0  0.1121480E-02  0.7997613E+03  0.7818609E-02  0.9560363E-01
        2   -1    0    0  501    0  0.00000000000E+00  0.00000000000E+00  0.14899810582E+03  0.14899810585E+03  0.25500000920E-02 0. -1.
       -2   -1    0    0    0  501  0.00000000000E+00  0.00000000000E+00 -0.10731983569E+04  0.10731983569E+04  0.25500000920E-02 0.  1.
    10030    2    1    2    0    0  0.00000000000E+00  0.00000000000E+00 -0.92420025107E+03  0.12221964627E+04  0.79976127029E+03 0.  0.
        2    1    3    3  502    0  0.35247920247E+03  0.15111785086E+03 -0.63517413191E+03  0.74197329526E+03  0.25500000920E-02 0.  1.
       -2    1    3    3    0  502 -0.35247920247E+03 -0.15111785086E+03 -0.28902611916E+03  0.48022316748E+03  0.25500000920E-02 0. -1.
</event>
<event>
 5   0  0.1121480E-02  0.8038901E+03  0.7818609E-02  0.9554403E-01
        2   -1    0    0  501    0  0.00000000000E+00  0.00000000000E+00  0.61373216921E+03  0.61373216921E+03  0.25500000920E-02 0.  1.
       -2   -1    0    0    0  501  0.00000000000E+00  0.00000000000E+00 -0.26324155224E+03  0.26324155225E+03  0.25500000920E-02 0. -1.
    10030    2    1    2    0    0  0.00000000000E+00  0.00000000000E+00  0.35049061697E+03  0.87697372147E+03  0.80389006435E+03 0.  0.
        2    1    3    3  502    0  0.88332627114E+02  0.21102441364E+03 -0.18529401610E+03  0.29439400228E+03  0.25500000920E-02 0. -1.
       -2    1    3    3    0  502 -0.88332627114E+02 -0.21102441364E+03  0.53578463307E+03  0.58257971919E+03  0.25500000920E-02 0.  1.
</event>
<event>
 5   0  0.1119792E-02  0.8165780E+03  0.7818609E-02  0.9536326E-01
        2   -1    0    0  501    0  0.00000000000E+00  0.00000000000E+00  0.58499238652E+03  0.58499238652E+03  0.25500000920E-02 0. -1.
       -2   -1    0    0    0  501  0.00000000000E+00  0.00000000000E+00 -0.28496081508E+03  0.28496081509E+03  0.25500000920E-02 0.  1.
    10030    2    1    2    0    0  0.00000000000E+00  0.00000000000E+00  0.30003157144E+03  0.86995320161E+03  0.81657799942E+03 0.  0.
        4    1    3    3  502    0  0.12008407828E+02 -0.37902679728E+03 -0.11177696842E+02  0.37938380134E+03  0.12699999809E+01 0.  1.
       -4    1    3    3    0  502 -0.12008407828E+02  0.37902679728E+03  0.31120926828E+03  0.49056940027E+03  0.12699999809E+01 0. -1.
</event>
<event>
 5   0  0.1106332E-02  0.8047437E+03  0.7818609E-02  0.9553176E-01
       -2   -1    0    0    0  501  0.00000000000E+00  0.00000000000E+00  0.38699265282E+03  0.38699265283E+03  0.25500000920E-02 0.  1.
        2   -1    0    0  501    0  0.00000000000E+00  0.00000000000E+00 -0.41836221595E+03  0.41836221595E+03  0.25500000920E-02 0. -1.
    10030    2    1    2    0    0  0.00000000000E+00  0.00000000000E+00 -0.31369563126E+02  0.80535486878E+03  0.80474369533E+03 0.  0.
        1    1    3    3  502    0 -0.62527305333E+02 -0.17436999492E+03 -0.37315144575E+03  0.41660120082E+03  0.50400001928E-02 0. -1.
       -1    1    3    3    0  502  0.62527305333E+02  0.17436999492E+03  0.34178188262E+03  0.38875366796E+03  0.50400001928E-02 0.  1.
</event>
<event>
 5   0  0.4385875E-03  0.7933182E+03  0.7818609E-02  0.9569739E-01
       -4   -1    0    0    0  501  0.00000000000E+00  0.00000000000E+00  0.67553999325E+03  0.67554118703E+03  0.12699999809E+01 0. -1.
        4   -1    0    0  501    0  0.00000000000E+00  0.00000000000E+00 -0.23290453663E+03  0.23290799918E+03  0.12699999809E+01 0.  1.
    10030    2    1    2    0    0  0.00000000000E+00  0.00000000000E+00  0.44263545662E+03  0.90844918621E+03  0.79331820632E+03 0.  0.
        4    1    3    3  502    0  0.12400678227E+03  0.22155817081E+03  0.57029213276E+03  0.62425990956E+03  0.12699999809E+01 0. -1.
       -4    1    3    3    0  502 -0.12400678227E+03 -0.22155817081E+03 -0.12765667614E+03  0.28418927665E+03  0.12699999809E+01 0.  1.
</event>
<event>
 5   0  0.1119792E-02  0.7631289E+03  0.7818609E-02  0.9614975E-01
       -2   -1    0    0    0  501  0.00000000000E+00  0.00000000000E+00  0.12009281982E+03  0.12009281985E+03  0.25500000920E-02 0.  1.
        2   -1    0    0  501    0  0.00000000000E+00  0.00000000000E+00 -0.12123242544E+04  0.12123242544E+04  0.25500000920E-02 0. -1.
    10030    2    1    2    0    0  0.00000000000E+00  0.00000000000E+00 -0.10922314346E+04  0.13324170742E+04  0.76312892298E+03 0.  0.
        4    1    3    3  502    0  0.24518943304E+03 -0.11685510535E+03 -0.78213119231E+02  0.28265151449E+03  0.12699999809E+01 0.  1.
       -4    1    3    3    0  502 -0.24518943304E+03  0.11685510535E+03 -0.10140183153E+04  0.10497655598E+04  0.12699999809E+01 0. -1.
</event>
<event>
 5   0  0.1092868E-02  0.7943762E+03  0.7818609E-02  0.9568193E-01
        2   -1    0    0  501    0  0.00000000000E+00  0.00000000000E+00  0.92271139014E+03  0.92271139014E+03  0.25500000920E-02 0. -1.
       -2   -1    0    0    0  501  0.00000000000E+00  0.00000000000E+00 -0.17097262551E+03  0.17097262553E+03  0.25500000920E-02 0.  1.
    10030    2    1    2    0    0  0.00000000000E+00  0.00000000000E+00  0.75173876462E+03  0.10936840157E+04  0.79437620553E+03 0.  0.
        3    1    3    3  502    0 -0.99114411644E+02  0.15620381162E+03  0.85977514142E+03  0.87945244407E+03  0.10100000352E+00 0. -1.
       -3    1    3    3    0  502  0.99114411644E+02 -0.15620381162E+03 -0.10803637680E+03  0.21423157161E+03  0.10100000352E+00 0.  1.
</event>
<event>
 5   0  0.6596225E-03  0.7973292E+03  0.7818609E-02  0.9563891E-01
        1   -1    0    0  501    0  0.00000000000E+00  0.00000000000E+00  0.26503913800E+03  0.26503913805E+03  0.50400001928E-02 0. -1.
       -1   -1    0    0    0  501  0.00000000000E+00  0.00000000000E+00 -0.59966032561E+03  0.59966032563E+03  0.50400001928E-02 0.  1.
    10030    2    1    2    0    0  0.00000000000E+00  0.00000000000E+00 -0.33462118761E+03  0.86469946367E+03  0.79732918126E+03 0.  0.
        5    1    3    3  502    0  0.10568697383E+03  0.29557483104E+03 -0.43379010939E+03  0.53547190980E+03  0.46999998093E+01 0.  1.
       -5    1    3    3    0  502 -0.10568697383E+03 -0.29557483104E+03  0.99168921779E+02  0.32922755388E+03  0.46999998093E+01 0. -1.
</event>
<event>
 5   0  0.6596225E-03  0.8017610E+03  0.7818609E-02  0.9557472E-01
        1   -1    0    0  501    0  0.00000000000E+00  0.00000000000E+00  0.70707408274E+03  0.70707408276E+03  0.50400001928E-02 0. -1.
       -1   -1    0    0    0  501  0.00000000000E+00  0.00000000000E+00 -0.22728193979E+03  0.22728193984E+03  0.50400001928E-02 0.  1.
    10030    2    1    2    0    0  0.00000000000E+00  0.00000000000E+00  0.47979214295E+03  0.93435602260E+03  0.80176098467E+03 0.  0.
        5    1    3    3  502    0 -0.39871939629E+03  0.14925326028E+02  0.28477691435E+03  0.49022433975E+03  0.46999998093E+01 0.  1.
       -5    1    3    3    0  502  0.39871939629E+03 -0.14925326028E+02  0.19501522860E+03  0.44413168285E+03  0.46999998093E+01 0. -1.
</event>
<event>
 5   0  0.6517392E-03  0.7944522E+03  0.7818609E-02  0.9568082E-01
        1   -1    0    0  501    0  0.00000000000E+00  0.00000000000E+00  0.82479265091E+03  0.82479265093E+03  0.50400001928E-02 0. -1.
       -1   -1    0    0    0  501  0.00000000000E+00  0.00000000000E+00 -0.19130695685E+03  0.19130695691E+03  0.50400001928E-02 0.  1.
    10030    2    1    2    0    0  0.00000000000E+00  0.00000000000E+00  0.63348569406E+03  0.10160996078E+04  0.79445219395E+03 0.  0.
        3    1    3    3  502    0  0.30977748469E+03 -0.14564142309E+03  0.58984938462E+02  0.34735104334E+03  0.10100000352E+00 0.  1.
       -3    1    3    3    0  502 -0.30977748469E+03  0.14564142309E+03  0.57450075560E+03  0.66874856451E+03  0.10100000352E+00 0. -1.
</event>
<event>
 5   0  0.1154714E-02  0.8010422E+03  0.7818609E-02  0.9558510E-01
       -2   -1    0    0    0  501  0.00000000000E+00  0.00000000000E+00  0.19682062617E+03  0.19682062619E+03  0.25500000920E-02 0.  1.
        2   -1    0    0  501    0  0.00000000000E+00  0.00000000000E+00 -0.81504232204E+03  0.81504232204E+03  0.25500000920E-02 0. -1.
    10030    2    1    2    0    0  0.00000000000E+00  0.00000000000E+00 -0.61822169587E+03  0.10118629482E+04  0.80104217165E+03 0.  0.
        5    1    3    3  502    0  0.27795697689E+03 -0.38653274913E+02  0.51816830096E+02  0.28541413865E+03  0.46999998093E+01 0.  1.
       -5    1    3    3    0  502 -0.27795697689E+03  0.38653274913E+02 -0.67003852597E+03  0.72644880958E+03  0.46999998093E+01 0. -1.
</event>
<event>
 5   0  0.6551489E-03  0.8065200E+03  0.7818609E-02  0.9550627E-01
       -1   -1    0    0    0  501  0.00000000000E+00  0.00000000000E+00  0.24747555517E+03  0.24747555522E+03  0.50400001928E-02 0. -1.
        1   -1    0    0  501    0  0.00000000000E+00  0.00000000000E+00 -0.65710980593E+03  0.65710980595E+03  0.50400001928E-02 0.  1.
    10030    2    1    2    0    0  0.00000000000E+00  0.00000000000E+00 -0.40963425075E+03  0.90458536117E+03  0.80651996643E+03 0.  0.
        4    1    3    3  502    0 -0.30518049764E+03  0.79543685867E+02  0.77045282011E+02  0.32465354223E+03  0.12699999809E+01 0. -1.
       -4    1    3    3    0  502  0.30518049764E+03 -0.79543685867E+02 -0.48667953276E+03  0.57993181894E+03  0.12699999809E+01 0.  1.
</event>
<event>
 5   0  0.1106332E-02  0.7974578E+03  0.7818609E-02  0.9563704E-01
        2   -1    0    0  501    0  0.00000000000E+00  0.00000000000E+00  0.26917504249E+03  0.26917504250E+03  0.25500000920E-02 0. -1.
       -2   -1    0    0    0  501  0.00000000000E+00  0.00000000000E+00 -0.59063705309E+03  0.59063705309E+03  0.25500000920E-02 0.  1.
    10030    2    1    2    0    0  0.00000000000E+00  0.00000000000E+00 -0.32146201060E+03  0.85981209560E+03  0.79745784558E+03 0.  0.
        1    1    3    3  502    0 -0.69374148837E+02  0.18283867890E+03 -0.53538036595E+03  0.56997797440E+03  0.50400001928E-02 0.  1.
       -1    1    3    3    0  502  0.69374148837E+02 -0.18283867890E+03  0.21391835535E+03  0.28983412120E+03  0.50400001928E-02 0. -1.
</event>
<event>
 5   0  0.4385875E-03  0.8017283E+03  0.7818609E-02  0.9557519E-01
       -3   -1    0    0    0  501  0.00000000000E+00  0.00000000000E+00  0.58401807392E+03  0.58401808265E+03  0.10100000352E+00 0. -1.
        3   -1    0    0  501    0  0.00000000000E+00  0.00000000000E+00 -0.27514908703E+03  0.27514910557E+03  0.10100000352E+00 0.  1.
    10030    2    1    2    0    0  0.00000000000E+00  0.00000000000E+00  0.30886898689E+03  0.85916718822E+03  0.80172826210E+03 0.  0.
        4    1    3    3  502    0 -0.17325250404E+03 -0.18314229960E+03 -0.17955567426E+03  0.30951475751E+03  0.12699999809E+01 0.  1.
       -4    1    3    3    0  502  0.17325250404E+03  0.18314229960E+03  0.48842466115E+03  0.54965243071E+03  0.12699999809E+01 0. -1.
</event>
<event>
 5   0  0.1121480E-02  0.8008212E+03  0.7818609E-02  0.9558829E-01
       -2   -1    0    0    0  501  0.00000000000E+00  0.00000000000E+00  0.65256379324E+03  0.65256379325E+03  0.25500000920E-02 0. -1.
        2   -1    0    0  501    0  0.00000000000E+00  0.00000000000E+00 -0.24569040613E+03  0.24569040615E+03  0.25500000920E-02 0.  1.
    10030    2    1    2    0    0  0.00000000000E+00  0.00000000000E+00  0.40687338711E+03  0.89825419939E+03  0.80082123697E+03 0.  0.
        2    1    3    3  502    0  0.39035687095E+03 -0.44254167473E+01  0.30332542290E+03  0.49437271689E+03  0.25500000920E-02 0. -1.
       -2    1    3    3    0  502 -0.39035687095E+03  0.44254167473E+01  0.10354796421E+03  0.40388148251E+03  0.25500000920E-02 0.  1.
</event>
<event>
 5   0  0.6596225E-03  0.7981973E+03  0.7818609E-02  0.9562630E-01
       -1   -1    0    0    0  501  0.00000000000E+00  0.00000000000E+00  0.37203477546E+03  0.37203477549E+03  0.50400001928E-02 0.  1.
        1   -1    0    0  501    0  0.00000000000E+00  0.00000000000E+00 -0.42813125381E+03  0.42813125384E+03  0.50400001928E-02 0. -1.
    10030    2    1    2    0    0  0.00000000000E+00  0.00000000000E+00 -0.56096478348E+02  0.80016602933E+03  0.79819725608E+03 0.  0.
        5    1    3    3  502    0  0.22834985941E+03  0.28826793749E+03 -0.18340002992E+03  0.41097411482E+03  0.46999998093E+01 0. -1.
       -5    1    3    3    0  502 -0.22834985941E+03 -0.28826793749E+03  0.12730355158E+03  0.38919191451E+03  0.46999998093E+01 0.  1.
</event>
<event>
 5   0  0.1119792E-02  0.7961941E+03  0.7818609E-02  0.9565542E-01
       -2   -1    0    0    0  501  0.00000000000E+00  0.00000000000E+00  0.61984576383E+03  0.61984576384E+03  0.25500000920E-02 0.  1.
        2   -1    0    0  501    0  0.00000000000E+00  0.00000000000E+00 -0.25567854562E+03  0.25567854563E+03  0.25500000920E-02 0. -1.
    10030    2    1    2    0    0  0.00000000000E+00  0.00000000000E+00  0.36416721821E+03  0.87552430947E+03  0.79619410551E+03 0.  0.
        4    1    3    3  502    0  0.32023459509E+03  0.12171995187E+03 -0.40884409328E+02  0.34502042027E+03  0.12699999809E+01 0. -1.
       -4    1    3    3    0  502 -0.32023459509E+03 -0.12171995187E+03  0.40505162754E+03  0.53050388920E+03  0.12699999809E+01 0.  1.
</event>
<event>
 5   0  0.1154714E-02  0.7972965E+03  0.7818609E-02  0.9563939E-01
       -2   -1    0    0    0  501  0.00000000000E+00  0.00000000000E+00  0.17837170493E+03  0.17837170495E+03  0.25500000920E-02 0.  1.
        2   -1    0    0  501    0  0.00000000000E+00  0.00000000000E+00 -0.89095084396E+03  0.89095084396E+03  0.25500000920E-02 0. -1.
    10030    2    1    2    0    0  0.00000000000E+00  0.00000000000E+00 -0.71257913902E+03  0.10693225489E+04  0.79729648453E+03 0.  0.
        5    1    3    3  502    0 -0.27146124102E+03  0.23576009277E+03 -0.12544856466E+03  0.38083258670E+03  0.46999998093E+01 0. -1.
       -5    1    3    3    0  502  0.27146124102E+03 -0.23576009277E+03 -0.58713057436E+03  0.68848996221E+03  0.46999998093E+01 0.  1.
</event>
<event>
 5   0  0.6551489E-03  0.7767389E+03  0.7818609E-02  0.9594311E-01
       -1   -1    0    0    0  501  0.00000000000E+00  0.00000000000E+00  0.10247370590E+04  0.10247370590E+04  0.50400001928E-02 0. -1.
        1   -1    0    0  501    0  0.00000000000E+00  0.00000000000E+00 -0.14718979498E+03  0.14718979507E+03  0.50400001928E-02 0.  1.
    10030    2    1    2    0    0  0.00000000000E+00  0.00000000000E+00  0.87754726405E+03  0.11719268541E+04  0.77673892059E+03 0.  0.
        4    1    3    3  502    0 -0.22143080939E+03  0.25770591265E+03  0.72258957112E+03  0.79848684520E+03  0.12699999809E+01 0.  1.
       -4    1    3    3    0  502  0.22143080939E+03 -0.25770591265E+03  0.15495769293E+03  0.37344000892E+03  0.12699999809E+01 0. -1.
</event>
<event>
 5   0  0.1092868E-02  0.8011924E+03  0.7818609E-02  0.9558293E-01
        2   -1    0    0  501    0  0.00000000000E+00  0.00000000000E+00  0.64345244520E+03  0.64345244520E+03  0.25500000920E-02 0. -1.
       -2   -1    0    0    0  501  0.00000000000E+00  0.00000000000E+00 -0.24940042237E+03  0.24940042239E+03  0.25500000920E-02 0.  1.
    10030    2    1    2    0    0  0.00000000000E+00  0.00000000000E+00  0.39405202282E+03  0.89285286759E+03  0.80119239042E+03 0.  0.
        3    1    3    3  502    0 -0.16206065718E+03 -0.28197449146E+03 -0.63620998228E+02  0.33139238382E+03  0.10100000352E+00 0.  1.
       -3    1    3    3    0  502  0.16206065718E+03  0.28197449146E+03  0.45767302105E+03  0.56146048377E+03  0.10100000352E+00 0. -1.
</event>
<event>
 5   0  0.6596225E-03  0.8100724E+03  0.7818609E-02  0.9545551E-01
        1   -1    0    0  501    0  0.00000000000E+00  0.00000000000E+00  0.11454532239E+04  0.11454532239E+04  0.50400001928E-02 0. -1.
       -1   -1    0    0    0  501  0.00000000000E+00  0.00000000000E+00 -0.14322218476E+03  0.14322218485E+03  0.50400001928E-02 0.  1.
    10030    2    1    2    0    0  0.00000000000E+00  0.00000000000E+00  0.10022310391E+04  0.12886754088E+04  0.81007237537E+03 0.  0.
        5    1    3    3  502    0 -0.88937909196E+02 -0.65821025222E+02  0.11209005821E+04  0.11263580976E+04  0.46999998093E+01 0. -1.
       -5    1    3    3    0  502  0.88937909196E+02  0.65821025222E+02 -0.11866954301E+03  0.16231731112E+03  0.46999998093E+01 0.  1.
</event>
<event>
 5   0  0.6557679E-03  0.8018914E+03  0.7818609E-02  0.9557283E-01
        1   -1    0    0  501    0  0.00000000000E+00  0.00000000000E+00  0.29079670024E+03  0.29079670029E+03  0.50400001928E-02 0.  1.
       -1   -1    0    0    0  501  0.00000000000E+00  0.00000000000E+00 -0.55281738760E+03  0.55281738762E+03  0.50400001928E-02 0. -1.
    10030    2    1    2    0    0  0.00000000000E+00  0.00000000000E+00 -0.26202068736E+03  0.84361408791E+03  0.80189144447E+03 0.  0.
        1    1    3    3  502    0 -0.79939188802E+02 -0.37434957098E+03 -0.55158868184E+01  0.38282933564E+03  0.50400001928E-02 0.  1.
       -1    1    3    3    0  502  0.79939188802E+02  0.37434957098E+03 -0.25650480054E+03  0.46078475227E+03  0.50400001928E-02 0. -1.
</event>
<event>
 5   0  0.6517392E-03  0.7975530E+03  0.7818609E-02  0.9563566E-01
        1   -1    0    0  501    0  0.00000000000E+00  0.00000000000E+00  0.21144042124E+03  0.21144042130E+03  0.50400001928E-02 0.  1.
       -1   -1    0    0    0  501  0.00000000000E+00  0.00000000000E+00 -0.75209219756E+03  0.75209219757E+03  0.50400001928E-02 0. -1.
    10030    2    1    2    0    0  0.00000000000E+00  0.00000000000E+00 -0.54065177632E+03  0.96353261887E+03  0.79755298532E+03 0.  0.
        3    1    3    3  502    0 -0.31322367190E+03  0.16890232334E+03 -0.52914160461E+02  0.35977351493E+03  0.10100000352E+00 0. -1.
       -3    1    3    3    0  502  0.31322367190E+03 -0.16890232334E+03 -0.48773761586E+03  0.60375910394E+03  0.10100000352E+00 0.  1.
</event>
<event>
 5   0  0.6551489E-03  0.8020122E+03  0.7818609E-02  0.9557109E-01
        1   -1    0    0  501    0  0.00000000000E+00  0.00000000000E+00  0.61312043926E+03  0.61312043928E+03  0.50400001928E-02 0. -1.
       -1   -1    0    0    0  501  0.00000000000E+00  0.00000000000E+00 -0.26227455412E+03  0.26227455417E+03  0.50400001928E-02 0.  1.
    10030    2    1    2    0    0  0.00000000000E+00  0.00000000000E+00  0.35084588514E+03  0.87539499345E+03  0.80201219407E+03 0.  0.
        4    1    3    3  502    0  0.29802680979E+03 -0.25230267156E+03  0.75817156452E+02  0.39777691178E+03  0.12699999809E+01 0.  1.
       -4    1    3    3    0  502 -0.29802680979E+03  0.25230267156E+03  0.27502872868E+03  0.47761808167E+03  0.12699999809E+01 0. -1.
</event>
<event>
 5   0  0.1092868E-02  0.8015113E+03  0.7818609E-02  0.9557832E-01
        2   -1    0    0  501    0  0.00000000000E+00  0.00000000000E+00  0.35795088876E+03  0.35795088877E+03  0.25500000920E-02 0.  1.
       -2   -1    0    0    0  501  0.00000000000E+00  0.00000000000E+00 -0.44867917099E+03  0.44867917100E+03  0.25500000920E-02 0. -1.
    10030    2    1    2    0    0  0.00000000000E+00  0.00000000000E+00 -0.90728282224E+02  0.80663005977E+03  0.80151134248E+03 0.  0.
        3    1    3    3  502    0  0.36140520794E+03  0.20130078451E+02 -0.21846889005E+03  0.42278553724E+03  0.10100000352E+00 0. -1.
       -3    1    3    3    0  502 -0.36140520794E+03 -0.20130078451E+02  0.12774060782E+03  0.38384452252E+03  0.10100000352E+00 0.  1.
</event>
<event>
 5   0  0.6596225E-03  0.8003113E+03  0.7818609E-02  0.9559567E-01
        1   -1    0    0  501    0  0.00000000000E+00  0.00000000000E+00  0.81701909580E+03  0.81701909581E+03  0.50400001928E-02 0.  1.
       -1   -1    0    0    0  501  0.00000000000E+00  0.00000000000E+00 -0.19598628410E+03  0.19598628416E+03  0.50400001928E-02 0. -1.
    10030    2    1    2    0    0  0.00000000000E+00  0.00000000000E+00  0.62103281170E+03  0.10130053800E+04  0.80031128110E+03 0.  0.
        5    1    3    3  502    0  0.16887244129E+03 -0.34367867853E+03  0.16361406020E+03  0.41644277662E+03  0.46999998093E+01 0.  1.
       -5    1    3    3    0  502 -0.16887244129E+03  0.34367867853E+03  0.45741875150E+03  0.59656260336E+03  0.46999998093E+01 0. -1.
</event>
<event>
 5   0  0.1092868E-02  0.8030153E+03  0.7818609E-02  0.9555663E-01
        2   -1    0    0  501    0  0.00000000000E+00  0.00000000000E+00  0.67125003721E+03  0.67125003722E+03  0.25500000920E-02 0.  1.
       -2   -1    0    0    0  501  0.00000000000E+00  0.00000000000E+00 -0.24016144223E+03  0.24016144225E+03  0.25500000920E-02 0. -1.
    10030    2    1    2    0    0  0.00000000000E+00  0.00000000000E+00  0.43108859498E+03  0.91141147947E+03  0.80301526024E+03 0.  0.
        3    1    3    3  502    0  0.37149342773E+03  0.14251928936E+03  0.27655182422E+03  0.48456169511E+03  0.10100000352E+00 0. -1.
       -3    1    3    3    0  502 -0.37149342773E+03 -0.14251928936E+03  0.15453677076E+03  0.42684978435E+03  0.10100000352E+00 0.  1.
</event>
<event>
 5   0  0.1154714E-02  0.8080443E+03  0.7818609E-02  0.9548446E-01
        2   -1    0    0  501    0  0.00000000000E+00  0.00000000000E+00  0.11413786129E+04  0.11413786129E+04  0.25500000920E-02 0.  1.
       -2   -1    0    0    0  501  0.00000000000E+00  0.00000000000E+00 -0.14301468620E+03  0.14301468622E+03  0.25500000920E-02 0. -1.
    10030    2    1    2    0    0  0.00000000000E+00  0.00000000000E+00  0.99836392670E+03  0.12843932991E+04  0.80804431605E+03 0.  0.
        5    1    3    3  502    0 -0.28186726348E+03  0.20347325864E+03  0.17203156373E+03  0.38790136648E+03  0.46999998093E+01 0. -1.
       -5    1    3    3    0  502  0.28186726348E+03 -0.20347325864E+03  0.82633236297E+03  0.89649193264E+03  0.46999998093E+01 0.  1.
</event>
<event>
 5   0  0.6600401E-03  0.8254880E+03  0.7818609E-02  0.9523840E-01
       -1   -1    0    0    0  501  0.00000000000E+00  0.00000000000E+00  0.32373803626E+03  0.32373803630E+03  0.50400001928E-02 0.  1.
        1   -1    0    0  501    0  0.00000000000E+00  0.00000000000E+00 -0.52622053514E+03  0.52622053517E+03  0.50400001928E-02 0. -1.
    10030    2    1    2    0    0  0.00000000000E+00  0.00000000000E+00 -0.20248249889E+03  0.84995857146E+03  0.82548798347E+03 0.  0.
        2    1    3    3  502    0  0.59525203675E+02 -0.43053252244E+02 -0.51943480909E+03  0.52460399665E+03  0.25500000920E-02 0. -1.
       -2    1    3    3    0  502 -0.59525203675E+02  0.43053252244E+02  0.31695231020E+03  0.32535457481E+03  0.25500000920E-02 0.  1.
</event>
<event>
 5   0  0.6551489E-03  0.7952886E+03  0.7818609E-02  0.9566862E-01
       -1   -1    0    0    0  501  0.00000000000E+00  0.00000000000E+00  0.33273783445E+03  0.33273783449E+03  0.50400001928E-02 0. -1.
        1   -1    0    0  501    0  0.00000000000E+00  0.00000000000E+00 -0.47521194504E+03  0.47521194507E+03  0.50400001928E-02 0.  1.
    10030    2    1    2    0    0  0.00000000000E+00  0.00000000000E+00 -0.14247411059E+03  0.80794977955E+03  0.79528861056E+03 0.  0.
        4    1    3    3  502    0  0.16509052108E+03 -0.17513101735E+03  0.25033600120E+03  0.34726859890E+03  0.12699999809E+01 0. -1.
       -4    1    3    3    0  502 -0.16509052108E+03  0.17513101735E+03 -0.39281011179E+03  0.46068118065E+03  0.12699999809E+01 0.  1.
</event>
<event>
 5   0  0.1121480E-02  0.8009603E+03  0.7818609E-02  0.9558628E-01
       -2   -1    0    0    0  501  0.00000000000E+00  0.00000000000E+00  0.13248037343E+03  0.13248037345E+03  0.25500000920E-02 0. -1.
        2   -1    0    0  501    0  0.00000000000E+00  0.00000000000E+00 -0.12106273892E+04  0.12106273892E+04  0.25500000920E-02 0.  1.
    10030    2    1    2    0    0  0.00000000000E+00  0.00000000000E+00 -0.10781470158E+04  0.13431077627E+04  0.80096034516E+03 0.  0.
        2    1    3    3  502    0  0.19058060156E+03 -0.19750547239E+03 -0.50027468169E+02  0.27898409434E+03  0.25500000920E-02 0. -1.
       -2    1    3    3    0  502 -0.19058060156E+03  0.19750547239E+03 -0.10281195476E+04  0.10641236684E+04  0.25500000920E-02 0.  1.
</event>
<event>
 5   0  0.1092868E-02  0.8060262E+03  0.7818609E-02  0.9551335E-01
       -2   -1    0    0    0  501  0.00000000000E+00  0.00000000000E+00  0.16702802416E+03  0.16702802418E+03  0.25500000920E-02 0.  1.
        2   -1    0    0  501    0  0.00000000000E+00  0.00000000000E+00 -0.97240902705E+03  0.97240902705E+03  0.25500000920E-02 0. -1.
    10030    2    1    2    0    0  0.00000000000E+00  0.00000000000E+00 -0.80538100288E+03  0.11394370512E+04  0.80602619928E+03 0.  0.
        3    1    3    3  502    0 -0.91557107455E+02  0.31312805367E+03 -0.68197248646E+02  0.33329079922E+03  0.10100000352E+00 0.  1.
       -3    1    3    3    0  502  0.91557107455E+02 -0.31312805367E+03 -0.73718375423E+03  0.80614625201E+03  0.10100000352E+00 0. -1.
</event>
<event>
 5   0  0.6557679E-03  0.8168452E+03  0.7818609E-02  0.9535949E-01
        1   -1    0    0  501    0  0.00000000000E+00  0.00000000000E+00  0.89088018983E+03  0.89088018985E+03  0.50400001928E-02 0.  1.
       -1   -1    0    0    0  501  0.00000000000E+00  0.00000000000E+00 -0.18724067784E+03  0.18724067790E+03  0.50400001928E-02 0. -1.
    10030    2    1    2    0    0  0.00000000000E+00  0.00000000000E+00  0.70363951200E+03  0.10781208677E+04  0.81684517666E+03 0.  0.
        1    1    3    3  502    0  0.17479633237E+02  0.19799061456E+03  0.82273998418E+03  0.84640823639E+03  0.50400001928E-02 0.  1.
       -1    1    3    3    0  502 -0.17479633237E+02 -0.19799061456E+03 -0.11910047219E+03  0.23171263136E+03  0.50400001928E-02 0. -1.
</event>
<event>
 5   0  0.1154714E-02  0.8014021E+03  0.7818609E-02  0.9557990E-01
       -2   -1    0    0    0  501  0.00000000000E+00  0.00000000000E+00  0.10068674721E+04  0.10068674721E+04  0.25500000920E-02 0. -1.
        2   -1    0    0  501    0  0.00000000000E+00  0.00000000000E+00 -0.15946621138E+03  0.15946621140E+03  0.25500000920E-02 0.  1.
    10030    2    1    2    0    0  0.00000000000E+00  0.00000000000E+00  0.84740126068E+03  0.11663336835E+04  0.80140212415E+03 0.  0.
        5    1    3    3  502    0 -0.17910919629E+03 -0.10248728259E+02 -0.97706804611E+02  0.20433758903E+03  0.46999998093E+01 0.  1.
       -5    1    3    3    0  502  0.17910919629E+03  0.10248728259E+02  0.94510806529E+03  0.96199609443E+03  0.46999998093E+01 0. -1.
</event>
<event>
 5   0  0.6551489E-03  0.8029566E+03  0.7818609E-02  0.9555747E-01
        1   -1    0    0  501    0  0.00000000000E+00  0.00000000000E+00  0.73709786576E+03  0.73709786578E+03  0.50400001928E-02 0.  1.
       -1   -1    0    0    0  501  0.00000000000E+00  0.00000000000E+00 -0.21867494811E+03  0.21867494816E+03  0.50400001928E-02 0. -1.
    10030    2    1    2    0    0  0.00000000000E+00  0.00000000000E+00  0.51842291765E+03  0.95577281394E+03  0.80295663041E+03 0.  0.
        4    1    3    3  502    0  0.33610352311E+03 -0.21075061959E+03  0.33260511428E+03  0.51769602746E+03  0.12699999809E+01 0.  1.
       -4    1    3    3    0  502 -0.33610352311E+03  0.21075061959E+03  0.18581780338E+03  0.43807678648E+03  0.12699999809E+01 0. -1.
</event>
<event>
 5   0  0.6596225E-03  0.7834047E+03  0.7818609E-02  0.9584354E-01
        1   -1    0    0  501    0  0.00000000000E+00  0.00000000000E+00  0.17248866172E+04  0.17248866172E+04  0.50400001928E-02 0.  1.
       -1   -1    0    0    0  501  0.00000000000E+00  0.00000000000E+00 -0.88951196298E+02  0.88951196441E+02  0.50400001928E-02 0. -1.
    10030    2    1    2    0    0  0.00000000000E+00  0.00000000000E+00  0.16359354209E+04  0.18138378136E+04  0.78340469290E+03 0.  0.
        5    1    3    3  502    0  0.68068931876E+02 -0.15017861277E+03  0.16405497015E+04  0.16488215211E+04  0.46999998093E+01 0.  1.
       -5    1    3    3    0  502 -0.68068931876E+02  0.15017861277E+03 -0.46142806430E+01  0.16501629254E+03  0.46999998093E+01 0. -1.
</event>
<event>
 5   0  0.1121480E-02  0.8184409E+03  0.7818609E-02  0.9533702E-01
        2   -1    0    0  501    0  0.00000000000E+00  0.00000000000E+00  0.11595777471E+04  0.11595777471E+04  0.25500000920E-02 0. -1.
       -2   -1    0    0    0  501  0.00000000000E+00  0.00000000000E+00 -0.14441582600E+03  0.14441582602E+03  0.25500000920E-02 0.  1.
    10030    2    1    2    0    0  0.00000000000E+00  0.00000000000E+00  0.10151619211E+04  0.13039935731E+04  0.81844090359E+03 0.  0.
        2    1    3    3  502    0 -0.29513738550E+03 -0.24939287099E+03  0.72227900214E+03  0.81913969343E+03  0.25500000920E-02 0. -1.
       -2    1    3    3    0  502  0.29513738550E+03  0.24939287099E+03  0.29288291895E+03  0.48485387967E+03  0.25500000920E-02 0.  1.
</event>
<event>
 5   0  0.6557679E-03  0.7955790E+03  0.7818609E-02  0.9566439E-01
        1   -1    0    0  501    0  0.00000000000E+00  0.00000000000E+00  0.50224687856E+03  0.50224687858E+03  0.50400001928E-02 0. -1.
       -1   -1    0    0    0  501  0.00000000000E+00  0.00000000000E+00 -0.31505715109E+03  0.31505715113E+03  0.50400001928E-02 0.  1.
    10030    2    1    2    0    0  0.00000000000E+00  0.00000000000E+00  0.18718972747E+03  0.81730402971E+03  0.79557896083E+03 0.  0.
        1    1    3    3  502    0 -0.38199792733E+03  0.94431866722E+02  0.15346737311E+03  0.42236480509E+03  0.50400001928E-02 0. -1.
       -1    1    3    3    0  502  0.38199792733E+03 -0.94431866722E+02  0.33722354357E+02  0.39493922463E+03  0.50400001928E-02 0.  1.
</event>
<event>
 5   0  0.6600401E-03  0.7967905E+03  0.7818609E-02  0.9564674E-01
        1   -1    0    0  501    0  0.00000000000E+00  0.00000000000E+00  0.83831680585E+03  0.83831680586E+03  0.50400001928E-02 0. -1.
       -1   -1    0    0    0  501  0.00000000000E+00  0.00000000000E+00 -0.18933030373E+03  0.18933030380E+03  0.50400001928E-02 0.  1.
    10030    2    1    2    0    0  0.00000000000E+00  0.00000000000E+00  0.64898650211E+03  0.10276471097E+04  0.79679050074E+03 0.  0.
        2    1    3    3  502    0 -0.37759448711E+03 -0.16960953505E+02  0.48688445532E+03  0.61637792261E+03  0.25500000920E-02 0. -1.
       -2    1    3    3    0  502  0.37759448711E+03  0.16960953505E+02  0.16210204680E+03  0.41126918706E+03  0.25500000920E-02 0.  1.
</event>
<event>
 5   0  0.1154714E-02  0.7965009E+03  0.7818609E-02  0.9565096E-01
        2   -1    0    0  501    0  0.00000000000E+00  0.00000000000E+00  0.11459685325E+04  0.11459685325E+04  0.25500000920E-02 0.  1.
       -2   -1    0    0    0  501  0.00000000000E+00  0.00000000000E+00 -0.13840119228E+03  0.13840119230E+03  0.25500000920E-02 0. -1.
    10030    2    1    2    0    0  0.00000000000E+00  0.00000000000E+00  0.10075673402E+04  0.12843697248E+04  0.79650087564E+03 0.  0.
        5    1    3    3  502    0  0.39380055738E+03 -0.33570588195E+02  0.42519182849E+03  0.58053082984E+03  0.46999998093E+01 0.  1.
       -5    1    3    3    0  502 -0.39380055738E+03  0.33570588195E+02  0.58237551169E+03  0.70383889492E+03  0.46999998093E+01 0. -1.
</event>
<event>
 5   0  0.1119792E-02  0.8027089E+03  0.7818609E-02  0.9556104E-01
        2   -1    0    0  501    0  0.00000000000E+00  0.00000000000E+00  0.22008718906E+04  0.22008718906E+04  0.25500000920E-02 0. -1.
       -2   -1    0    0    0  501  0.00000000000E+00  0.00000000000E+00 -0.73191625163E+02  0.73191625207E+02  0.25500000920E-02 0.  1.
    10030    2    1    2    0    0  0.00000000000E+00  0.00000000000E+00  0.21276802655E+04  0.22740635158E+04  0.80270888995E+03 0.  0.
        4    1    3    3  502    0  0.18975216292E+03  0.33366536048E+03  0.13959807350E+04  0.14477922093E+04  0.12699999809E+01 0. -1.
       -4    1    3    3    0  502 -0.18975216292E+03 -0.33366536048E+03  0.73169953051E+03  0.82627130651E+03  0.12699999809E+01 0.  1.
</event>
<event>
 5   0  0.6600401E-03  0.8004927E+03  0.7818609E-02  0.9559304E-01
       -1   -1    0    0    0  501  0.00000000000E+00  0.00000000000E+00  0.20805487972E+03  0.20805487978E+03  0.50400001928E-02 0. -1.
        1   -1    0    0  501    0  0.00000000000E+00  0.00000000000E+00 -0.76997548135E+03  0.76997548137E+03  0.50400001928E-02 0.  1.
    10030    2    1    2    0    0  0.00000000000E+00  0.00000000000E+00 -0.56192060163E+03  0.97803036115E+03  0.80049273875E+03 0.  0.
        2    1    3    3  502    0  0.22994696539E+03  0.32196518861E+03 -0.20704514401E+03  0.44654773679E+03  0.25500000920E-02 0. -1.
       -2    1    3    3    0  502 -0.22994696539E+03 -0.32196518861E+03 -0.35487545762E+03  0.53148262436E+03  0.25500000920E-02 0.  1.
</event>
<event>
 5   0  0.6517392E-03  0.7983468E+03  0.7818609E-02  0.9562413E-01
        1   -1    0    0  501    0  0.00000000000E+00  0.00000000000E+00  0.26853016073E+03  0.26853016078E+03  0.50400001928E-02 0.  1.
       -1   -1    0    0    0  501  0.00000000000E+00  0.00000000000E+00 -0.59337623770E+03  0.59337623772E+03  0.50400001928E-02 0. -1.
    10030    2    1    2    0    0  0.00000000000E+00  0.00000000000E+00 -0.32484607697E+03  0.86190639849E+03  0.79834683318E+03 0.  0.
        3    1    3    3  502    0  0.36918403816E+02 -0.39334165907E+03 -0.22405355673E+03  0.45418128075E+03  0.10100000352E+00 0.  1.
       -3    1    3    3    0  502 -0.36918403816E+02  0.39334165907E+03 -0.10079252024E+03  0.40772511774E+03  0.10100000352E+00 0. -1.
</event>
<event>
 5   0  0.6600401E-03  0.7989677E+03  0.7818609E-02  0.9561513E-01
       -1   -1    0    0    0  501  0.00000000000E+00  0.00000000000E+00  0.11728500525E+03  0.11728500536E+03  0.50400001928E-02 0.  1.
        1   -1    0    0  501    0  0.00000000000E+00  0.00000000000E+00 -0.13606797760E+04  0.13606797760E+04  0.50400001928E-02 0. -1.
    10030    2    1    2    0    0  0.00000000000E+00  0.00000000000E+00 -0.12433947707E+04  0.14779647813E+04  0.79896767082E+03 0.  0.
        2    1    3    3  502    0  0.67795935707E+02  0.39310233465E+03 -0.66144105272E+03  0.77241828088E+03  0.25500000920E-02 0.  1.
       -2    1    3    3    0  502 -0.67795935707E+02 -0.39310233465E+03 -0.58195371800E+03  0.70554650046E+03  0.25500000920E-02 0. -1.
</event>
<event>
 5   0  0.1092868E-02  0.7960666E+03  0.7818609E-02  0.9565728E-01
        2   -1    0    0  501    0  0.00000000000E+00  0.00000000000E+00  0.16547660199E+03  0.16547660201E+03  0.25500000920E-02 0. -1.
       -2   -1    0    0    0  501  0.00000000000E+00  0.00000000000E+00 -0.95741950822E+03  0.95741950823E+03  0.25500000920E-02 0.  1.
    10030    2    1    2    0    0  0.00000000000E+00  0.00000000000E+00 -0.79194290623E+03  0.11228961102E+04  0.79606664775E+03 0.  0.
        3    1    3    3  502    0 -0.21527267176E+02 -0.26551416745E+03  0.21203306626E+02  0.26722796778E+03  0.10100000352E+00 0. -1.
       -3    1    3    3    0  502  0.21527267176E+02  0.26551416745E+03 -0.81314621285E+03  0.85566814246E+03  0.10100000352E+00 0.  1.
</event>
<event>
 5   0  0.6596225E-03  0.8073515E+03  0.7818609E-02  0.9549437E-01
        1   -1    0    0  501    0  0.00000000000E+00  0.00000000000E+00  0.11239132552E+04  0.11239132552E+04  0.50400001928E-02 0.  1.
       -1   -1    0    0    0  501  0.00000000000E+00  0.00000000000E+00 -0.14498816467E+03  0.14498816476E+03  0.50400001928E-02 0. -1.
    10030    2    1    2    0    0  0.00000000000E+00  0.00000000000E+00  0.97892509054E+03  0.12689014200E+04  0.80735152241E+03 0.  0.
        5    1    3    3  502    0 -0.25442162002E+01 -0.79911223923E+02  0.11113009457E+04  0.11141831800E+04  0.46999998093E+01 0.  1.
       -5    1    3    3    0  502  0.25442162002E+01  0.79911223923E+02 -0.13237585516E+03  0.15471823995E+03  0.46999998093E+01 0. -1.
</event>
<event>
 5   0  0.6551489E-03  0.8102662E+03  0.7818609E-02  0.9545275E-01
       -1   -1    0    0    0  501  0.00000000000E+00  0.00000000000E+00  0.66305895465E+03  0.66305895467E+03  0.50400001928E-02 0.  1.
        1   -1    0    0  501    0  0.00000000000E+00  0.00000000000E+00 -0.24753880078E+03  0.24753880083E+03  0.50400001928E-02 0. -1.
    10030    2    1    2    0    0  0.00000000000E+00  0.00000000000E+00  0.41552015388E+03  0.91059775550E+03  0.81026617481E+03 0.  0.
        4    1    3    3  502    0  0.30916869973E+03  0.11413163131E+03 -0.57043087287E+02  0.33446500694E+03  0.12699999809E+01 0. -1.
       -4    1    3    3    0  502 -0.30916869973E+03 -0.11413163131E+03  0.47256324117E+03  0.57613274856E+03  0.12699999809E+01 0.  1.
</event>
<event>
 5   0  0.6557679E-03  0.7986741E+03  0.7818609E-02  0.9561938E-01
        1   -1    0    0  501    0  0.00000000000E+00  0.00000000000E+00  0.48447550502E+03  0.48447550505E+03  0.50400001928E-02 0.  1.
       -1   -1    0    0    0  501  0.00000000000E+00  0.00000000000E+00 -0.32916025405E+03  0.32916025409E+03  0.50400001928E-02 0. -1.
    10030    2    1    2    0    0  0.00000000000E+00  0.00000000000E+00  0.15531525097E+03  0.81363575913E+03  0.79867410209E+03 0.  0.
        1    1    3    3  502    0 -0.15629013502E+03 -0.39390367848E+02  0.44986745542E+03  0.47786916081E+03  0.50400001928E-02 0.  1.
       -1    1    3    3    0  502  0.15629013502E+03  0.39390367848E+02 -0.29455220445E+03  0.33576659833E+03  0.50400001928E-02 0. -1.
</event>
<event>
 5   0  0.1106332E-02  0.8045122E+03  0.7818609E-02  0.9553509E-01
        2   -1    0    0  501    0  0.00000000000E+00  0.00000000000E+00  0.72234072337E+03  0.72234072338E+03  0.25500000920E-02 0. -1.
       -2   -1    0    0    0  501  0.00000000000E+00  0.00000000000E+00 -0.22400781743E+03  0.22400781745E+03  0.25500000920E-02 0.  1.
    10030    2    1    2    0    0  0.00000000000E+00  0.00000000000E+00  0.49833290594E+03  0.94634854083E+03  0.80451219729E+03 0.  0.
        1    1    3    3  502    0 -0.22978938452E+02  0.38105356706E+02  0.71943672269E+03  0.72081152030E+03  0.50400001928E-02 0. -1.
       -1    1    3    3    0  502  0.22978938452E+02 -0.38105356706E+02 -0.22110381675E+03  0.22553702053E+03  0.50400001928E-02 0.  1.
</event>
<event>
 5   0  0.6557679E-03  0.7987707E+03  0.7818609E-02  0.9561798E-01
        1   -1    0    0  501    0  0.00000000000E+00  0.00000000000E+00  0.31331690227E+03  0.31331690231E+03  0.50400001928E-02 0. -1.
       -1   -1    0    0    0  501  0.00000000000E+00  0.00000000000E+00 -0.50909686625E+03  0.50909686628E+03  0.50400001928E-02 0.  1.
    10030    2    1    2    0    0  0.00000000000E+00  0.00000000000E+00 -0.19577996398E+03  0.82241376859E+03  0.79877068829E+03 0.  0.
        1    1    3    3  502    0  0.30446504542E+03 -0.24793217103E+03 -0.22656433869E+02  0.39329713873E+03  0.50400001928E-02 0. -1.
       -1    1    3    3    0  502 -0.30446504542E+03  0.24793217103E+03 -0.17312353011E+03  0.42911662986E+03  0.50400001928E-02 0.  1.
</event>
<event>
 5   0  0.1092868E-02  0.8009436E+03  0.7818609E-02  0.9558652E-01
       -2   -1    0    0    0  501  0.00000000000E+00  0.00000000000E+00  0.26894392463E+03  0.26894392465E+03  0.25500000920E-02 0. -1.
        2   -1    0    0  501    0  0.00000000000E+00  0.00000000000E+00 -0.59632379017E+03  0.59632379018E+03  0.25500000920E-02 0.  1.
    10030    2    1    2    0    0  0.00000000000E+00  0.00000000000E+00 -0.32737986554E+03  0.86526771483E+03  0.80094359474E+03 0.  0.
        3    1    3    3  502    0  0.36555473022E+03  0.15979420256E+02 -0.33952533953E+03  0.49916236742E+03  0.10100000352E+00 0.  1.
       -3    1    3    3    0  502 -0.36555473022E+03 -0.15979420256E+02  0.12145473993E+02  0.36610534741E+03  0.10100000352E+00 0. -1.
</event>
<event>
 5   0  0.1092868E-02  0.8009833E+03  0.7818609E-02  0.9558595E-01
        2   -1    0    0  501    0  0.00000000000E+00  0.00000000000E+00  0.18615218897E+04  0.18615218897E+04  0.25500000920E-02 0. -1.
       -2   -1    0    0    0  501  0.00000000000E+00  0.00000000000E+00 -0.86162595038E+02  0.86162595076E+02  0.25500000920E-02 0.  1.
    10030    2    1    2    0    0  0.00000000000E+00  0.00000000000E+00  0.17753592947E+04  0.19476844848E+04  0.80098328766E+03 0.  0.
        3    1    3    3  502    0 -0.80224664898E+02 -0.10560049867E+03  0.18065801851E+04  0.18114412597E+04  0.10100000352E+00 0. -1.
       -3    1    3    3    0  502  0.80224664898E+02  0.10560049867E+03 -0.31220890393E+02  0.13624322506E+03  0.10100000352E+00 0.  1.
</event>
<event>
 5   0  0.1119792E-02  0.8044899E+03  0.7818609E-02  0.9553541E-01
        2   -1    0    0  501    0  0.00000000000E+00  0.00000000000E+00  0.18054234177E+04  0.18054234177E+04  0.25500000920E-02 0. -1.
       -2   -1    0    0    0  501  0.00000000000E+00  0.00000000000E+00 -0.89619416966E+02  0.89619417002E+02  0.25500000920E-02 0.  1.
    10030    2    1    2    0    0  0.00000000000E+00  0.00000000000E+00  0.17158040007E+04  0.18950428347E+04  0.80448988584E+03 0.  0.
        4    1    3    3  502    0 -0.19908472338E+03  0.23874060975E+03  0.14592338737E+04  0.14919775188E+04  0.12699999809E+01 0. -1.
       -4    1    3    3    0  502  0.19908472338E+03 -0.23874060975E+03  0.25657012705E+03  0.40306531582E+03  0.12699999809E+01 0.  1.
</event>
<event>
 5   0  0.6517392E-03  0.7991732E+03  0.7818609E-02  0.9561215E-01
       -1   -1    0    0    0  501  0.00000000000E+00  0.00000000000E+00  0.77543146724E+03  0.77543146725E+03  0.50400001928E-02 0.  1.
        1   -1    0    0  501    0  0.00000000000E+00  0.00000000000E+00 -0.20591047831E+03  0.20591047837E+03  0.50400001928E-02 0. -1.
    10030    2    1    2    0    0  0.00000000000E+00  0.00000000000E+00  0.56952098893E+03  0.98134194562E+03  0.79917323366E+03 0.  0.
        3    1    3    3  502    0 -0.30052913833E+03  0.24404346501E+03  0.16323424696E+03  0.42014331528E+03  0.10100000352E+00 0.  1.
       -3    1    3    3    0  502  0.30052913833E+03 -0.24404346501E+03  0.40628674197E+03  0.56119863034E+03  0.10100000352E+00 0. -1.
</event>
<event>
 5   0  0.1119792E-02  0.7985569E+03  0.7818609E-02  0.9562108E-01
       -2   -1    0    0    0  501  0.00000000000E+00  0.00000000000E+00  0.17181014248E+03  0.17181014250E+03  0.25500000920E-02 0.  1.
        2   -1    0    0  501    0  0.00000000000E+00  0.00000000000E+00 -0.92790367965E+03  0.92790367966E+03  0.25500000920E-02 0. -1.
    10030    2    1    2    0    0  0.00000000000E+00  0.00000000000E+00 -0.75609353717E+03  0.10997138222E+04  0.79855685689E+03 0.  0.
        4    1    3    3  502    0 -0.61445421660E+02 -0.29485297272E+02  0.16373784997E+03  0.17736013930E+03  0.12699999809E+01 0.  1.
       -4    1    3    3    0  502  0.61445421660E+02  0.29485297272E+02 -0.91983138715E+03  0.92235368286E+03  0.12699999809E+01 0. -1.
</event>
<event>
 5   0  0.6596225E-03  0.8061567E+03  0.7818609E-02  0.9551148E-01
        1   -1    0    0  501    0  0.00000000000E+00  0.00000000000E+00  0.21653600649E+04  0.21653600649E+04  0.50400001928E-02 0. -1.
       -1   -1    0    0    0  501  0.00000000000E+00  0.00000000000E+00 -0.75032403746E+02  0.75032403915E+02  0.50400001928E-02 0.  1.
    10030    2    1    2    0    0  0.00000000000E+00  0.00000000000E+00  0.20903276612E+04  0.22403924688E+04  0.80615673623E+03 0.  0.
        5    1    3    3  502    0  0.10890175757E+03 -0.38554372799E+03  0.11677761923E+04  0.12345958385E+04  0.46999998093E+01 0.  1.
       -5    1    3    3    0  502 -0.10890175757E+03  0.38554372799E+03  0.92255146883E+03  0.10057966304E+04  0.46999998093E+01 0. -1.
</event>
<event>
 5   0  0.1106332E-02  0.7976325E+03  0.7818609E-02  0.9563450E-01
       -2   -1    0    0    0  501  0.00000000000E+00  0.00000000000E+00  0.40601621827E+03  0.40601621827E+03  0.25500000920E-02 0.  1.
        2   -1    0    0  501    0  0.00000000000E+00  0.00000000000E+00 -0.39174394757E+03  0.39174394758E+03  0.25500000920E-02 0. -1.
    10030    2    1    2    0    0  0.00000000000E+00  0.00000000000E+00  0.14272270698E+02  0.79776016585E+03  0.79763248712E+03 0.  0.
        1    1    3    3  502    0 -0.17311058670E+03 -0.29622580436E+03 -0.19621240458E+03  0.39524209054E+03  0.50400001928E-02 0. -1.
       -1    1    3    3    0  502  0.17311058670E+03  0.29622580436E+03  0.21048467528E+03  0.40251807531E+03  0.50400001928E-02 0.  1.
</event>
<event>
 5   0  0.6600401E-03  0.8040808E+03  0.7818609E-02  0.9554129E-01
       -1   -1    0    0    0  501  0.00000000000E+00  0.00000000000E+00  0.33888067095E+03  0.33888067098E+03  0.50400001928E-02 0.  1.
        1   -1    0    0  501    0  0.00000000000E+00  0.00000000000E+00 -0.47697169734E+03  0.47697169736E+03  0.50400001928E-02 0. -1.
    10030    2    1    2    0    0  0.00000000000E+00  0.00000000000E+00 -0.13809102639E+03  0.81585236835E+03  0.80408081395E+03 0.  0.
        2    1    3    3  502    0 -0.24100567160E+03  0.21815367210E+03  0.17098002193E+03  0.36729950490E+03  0.25500000920E-02 0.  1.
       -2    1    3    3    0  502  0.24100567160E+03 -0.21815367210E+03 -0.30907104832E+03  0.44855286345E+03  0.25500000920E-02 0. -1.
</event>
<event>
 5   0  0.1154714E-02  0.7982257E+03  0.7818609E-02  0.9562589E-01
       -2   -1    0    0    0  501  0.00000000000E+00  0.00000000000E+00  0.28650284714E+03  0.28650284716E+03  0.25500000920E-02 0.  1.
        2   -1    0    0  501    0  0.00000000000E+00  0.00000000000E+00 -0.55598429386E+03  0.55598429387E+03  0.25500000920E-02 0. -1.
    10030    2    1    2    0    0  0.00000000000E+00  0.00000000000E+00 -0.26948144672E+03  0.84248714103E+03  0.79822574042E+03 0.  0.
        5    1    3    3  502    0  0.10029036632E+03 -0.31701626327E+01  0.27294275106E+03  0.29084023598E+03  0.46999998093E+01 0.  1.
       -5    1    3    3    0  502 -0.10029036632E+03  0.31701626327E+01 -0.54242419778E+03  0.55164690505E+03  0.46999998093E+01 0. -1.
</event>
<event>
 5   0  0.6517392E-03  0.7766684E+03  0.7818609E-02  0.9594416E-01
        1   -1    0    0  501    0  0.00000000000E+00  0.00000000000E+00  0.83226773845E+03  0.83226773847E+03  0.50400001928E-02 0. -1.
       -1   -1    0    0    0  501  0.00000000000E+00  0.00000000000E+00 -0.18119583868E+03  0.18119583875E+03  0.50400001928E-02 0.  1.
    10030    2    1    2    0    0  0.00000000000E+00  0.00000000000E+00  0.65107189978E+03  0.10134635772E+04  0.77666840007E+03 0.  0.
        3    1    3    3  502    0 -0.33897127135E+03  0.13644486554E+03  0.15398084684E+03  0.39652091437E+03  0.10100000352E+00 0.  1.
       -3    1    3    3    0  502  0.33897127135E+03 -0.13644486554E+03  0.49709105293E+03  0.61694266285E+03  0.10100000352E+00 0. -1.
</event>
<event>
 5   0  0.6557679E-03  0.7954180E+03  0.7818609E-02  0.9566673E-01
       -1   -1    0    0    0  501  0.00000000000E+00  0.00000000000E+00  0.60015711465E+03  0.60015711467E+03  0.50400001928E-02 0.  1.
        1   -1    0    0  501    0  0.00000000000E+00  0.00000000000E+00 -0.26355174835E+03  0.26355174840E+03  0.50400001928E-02 0. -1.
    10030    2    1    2    0    0  0.00000000000E+00  0.00000000000E+00  0.33660536630E+03  0.86370886307E+03  0.79541802062E+03 0.  0.
        1    1    3    3  502    0 -0.56103541333E+02  0.49171022607E+02  0.59249154727E+03  0.59716968311E+03  0.50400001928E-02 0.  1.
       -1    1    3    3    0  502  0.56103541333E+02 -0.49171022607E+02 -0.25588618097E+03  0.26653917996E+03  0.50400001928E-02 0. -1.
</event>
<event>
 5   0  0.6596225E-03  0.8499870E+03  0.7818609E-02  0.9490354E-01
        1   -1    0    0  501    0  0.00000000000E+00  0.00000000000E+00  0.54493305021E+03  0.54493305024E+03  0.50400001928E-02 0. -1.
       -1   -1    0    0    0  501  0.00000000000E+00  0.00000000000E+00 -0.33145261511E+03  0.33145261515E+03  0.50400001928E-02 0.  1.
    10030    2    1    2    0    0  0.00000000000E+00  0.00000000000E+00  0.21348043510E+03  0.87638566539E+03  0.84998702244E+03 0.  0.
        5    1    3    3  502    0  0.27794067713E+03  0.26867809102E+03  0.28874003345E+03  0.48252651068E+03  0.46999998093E+01 0. -1.
       -5    1    3    3    0  502 -0.27794067713E+03 -0.26867809102E+03 -0.75259598345E+02  0.39385915470E+03  0.46999998093E+01 0.  1.
</event>
<event>
 5   0  0.6557679E-03  0.7976390E+03  0.7818609E-02  0.9563441E-01
        1   -1    0    0  501    0  0.00000000000E+00  0.00000000000E+00  0.74191142518E+03  0.74191142520E+03  0.50400001928E-02 0. -1.
       -1   -1    0    0    0  501  0.00000000000E+00  0.00000000000E+00 -0.21438809195E+03  0.21438809201E+03  0.50400001928E-02 0.  1.
    10030    2    1    2    0    0  0.00000000000E+00  0.00000000000E+00  0.52752333323E+03  0.95629951721E+03  0.79763895310E+03 0.  0.
        1    1    3    3  502    0  0.23872947701E+03  0.30129967454E+03  0.39111598899E+03  0.54840220089E+03  0.50400001928E-02 0. -1.
       -1    1    3    3    0  502 -0.23872947701E+03 -0.30129967454E+03  0.13640734424E+03  0.40789731632E+03  0.50400001928E-02 0.  1.
</event>
<event>
 5   0  0.6600401E-03  0.7948456E+03  0.7818609E-02  0.9567508E-01
       -1   -1    0    0    0  501  0.00000000000E+00  0.00000000000E+00  0.15796023949E+03  0.15796023957E+03  0.50400001928E-02 0.  1.
        1   -1    0    0  501    0  0.00000000000E+00  0.00000000000E+00 -0.99990269093E+03  0.99990269094E+03  0.50400001928E-02 0. -1.
    10030    2    1    2    0    0  0.00000000000E+00  0.00000000000E+00 -0.84194245144E+03  0.11578629305E+04  0.79484556633E+03 0.  0.
        2    1    3    3  502    0 -0.15796639583E+03 -0.73440841571E+00 -0.95220470011E+03  0.96521899716E+03  0.25500000920E-02 0. -1.
       -2    1    3    3    0  502  0.15796639583E+03  0.73440841571E+00  0.11026224867E+03  0.19264393335E+03  0.25500000920E-02 0.  1.
</event>
<event>
 5   0  0.6517392E-03  0.8000254E+03  0.7818609E-02  0.9559980E-01
       -1   -1    0    0    0  501  0.00000000000E+00  0.00000000000E+00  0.22297717385E+03  0.22297717390E+03  0.50400001928E-02 0. -1.
        1   -1    0    0  501    0  0.00000000000E+00  0.00000000000E+00 -0.71760788873E+03  0.71760788874E+03  0.50400001928E-02 0.  1.
    10030    2    1    2    0    0  0.00000000000E+00  0.00000000000E+00 -0.49463071488E+03  0.94058506265E+03  0.80002544708E+03 0.  0.
        3    1    3    3  502    0  0.44938082382E+02  0.25476361113E+03 -0.60602001887E+03  0.65892655302E+03  0.10100000352E+00 0.  1.
       -3    1    3    3    0  502 -0.44938082382E+02 -0.25476361113E+03  0.11138930399E+03  0.28165850963E+03  0.10100000352E+00 0. -1.
</event>
<event>
 5   0  0.1154714E-02  0.7978596E+03  0.7818609E-02  0.9563120E-01
        2   -1    0    0  501    0  0.00000000000E+00  0.00000000000E+00  0.21408629459E+04  0.21408629459E+04  0.25500000920E-02 0. -1.
       -2   -1    0    0    0  501  0.00000000000E+00  0.00000000000E+00 -0.74336831138E+02  0.74336831182E+02  0.25500000920E-02 0.  1.
    10030    2    1    2    0    0  0.00000000000E+00  0.00000000000E+00  0.20665261147E+04  0.22151997771E+04  0.79785955493E+03 0.  0.
        5    1    3    3  502    0 -0.24815024893E+03  0.26074106172E+03  0.55592382506E+03  0.66229739285E+03  0.46999998093E+01 0.  1.
       -5    1    3    3    0  502  0.24815024893E+03 -0.26074106172E+03  0.15106022897E+04  0.15529023842E+04  0.46999998093E+01 0. -1.
</event>
<event>
 5   0  0.6596225E-03  0.8014576E+03  0.7818609E-02  0.9557910E-01
        1   -1    0    0  501    0  0.00000000000E+00  0.00000000000E+00  0.26584647517E+03  0.26584647521E+03  0.50400001928E-02 0. -1.
       -1   -1    0    0    0  501  0.00000000000E+00  0.00000000000E+00 -0.60404622512E+03  0.60404622514E+03  0.50400001928E-02 0.  1.
    10030    2    1    2    0    0  0.00000000000E+00  0.00000000000E+00 -0.33819974996E+03  0.86989270036E+03  0.80145757172E+03 0.  0.
        5    1    3    3  502    0 -0.84261255777E+02 -0.17997195299E+03  0.20856474646E+03  0.28811665442E+03  0.46999998093E+01 0. -1.
       -5    1    3    3    0  502  0.84261255777E+02  0.17997195299E+03 -0.54676449642E+03  0.58177604594E+03  0.46999998093E+01 0.  1.
</event>
<event>
 5   0  0.1106332E-02  0.7951672E+03  0.7818609E-02  0.9567039E-01
        2   -1    0    0  501    0  0.00000000000E+00  0.00000000000E+00  0.96760548210E+03  0.96760548210E+03  0.25500000920E-02 0.  1.
       -2   -1    0    0    0  501  0.00000000000E+00  0.00000000000E+00 -0.16336486019E+03  0.16336486021E+03  0.25500000920E-02 0. -1.
    10030    2    1    2    0    0  0.00000000000E+00  0.00000000000E+00  0.80424062191E+03  0.11309703423E+04  0.79516723855E+03 0.  0.
        1    1    3    3  502    0  0.11324305962E+03  0.36379845484E+03  0.24058109738E+03  0.45061354921E+03  0.50400001928E-02 0. -1.
       -1    1    3    3    0  502 -0.11324305962E+03 -0.36379845484E+03  0.56365952453E+03  0.68035679310E+03  0.50400001928E-02 0.  1.
</event>
<event>
 5   0  0.6557679E-03  0.7979903E+03  0.7818609E-02  0.9562931E-01
       -1   -1    0    0    0  501  0.00000000000E+00  0.00000000000E+00  0.12290125898E+03  0.12290125909E+03  0.50400001928E-02 0.  1.
        1   -1    0    0  501    0  0.00000000000E+00  0.00000000000E+00 -0.12953254740E+04  0.12953254740E+04  0.50400001928E-02 0. -1.
    10030    2    1    2    0    0  0.00000000000E+00  0.00000000000E+00 -0.11724242150E+04  0.14182267331E+04  0.79799030477E+03 0.  0.
        1    1    3    3  502    0  0.18472559110E+03  0.23964023504E+03 -0.10484542950E+04  0.10912412176E+04  0.50400001928E-02 0. -1.
       -1    1    3    3    0  502 -0.18472559110E+03 -0.23964023504E+03 -0.12396992005E+03  0.32698551552E+03  0.50400001928E-02 0.  1.
</event>
<event>
 5   0  0.1119792E-02  0.8081702E+03  0.7818609E-02  0.9548266E-01
       -2   -1    0    0    0  501  0.00000000000E+00  0.00000000000E+00  0.21450106947E+03  0.21450106949E+03  0.25500000920E-02 0.  1.
        2   -1    0    0  501    0  0.00000000000E+00  0.00000000000E+00 -0.76123059169E+03  0.76123059169E+03  0.25500000920E-02 0. -1.
    10030    2    1    2    0    0  0.00000000000E+00  0.00000000000E+00 -0.54672952222E+03  0.97573166118E+03  0.80817021980E+03 0.  0.
        4    1    3    3  502    0  0.29647966097E+02  0.42870143363E+02 -0.75715240330E+03  0.75894546958E+03  0.12699999809E+01 0. -1.
       -4    1    3    3    0  502 -0.29647966097E+02 -0.42870143363E+02  0.21042288108E+03  0.21678619160E+03  0.12699999809E+01 0.  1.
</event>
<event>
 5   0  0.1092868E-02  0.7952748E+03  0.7818609E-02  0.9566882E-01
       -2   -1    0    0    0  501  0.00000000000E+00  0.00000000000E+00  0.22708612499E+03  0.22708612500E+03  0.25500000920E-02 0.  1.
        2   -1    0    0  501    0  0.00000000000E+00  0.00000000000E+00 -0.69627991623E+03  0.69627991623E+03  0.25500000920E-02 0. -1.
    10030    2    1    2    0    0  0.00000000000E+00  0.00000000000E+00 -0.46919379124E+03  0.92336604123E+03  0.79527481563E+03 0.  0.
        3    1    3    3  502    0  0.38210513906E+03  0.93625391834E+02 -0.30175272541E+03  0.49580718912E+03  0.10100000352E+00 0. -1.
       -3    1    3    3    0  502 -0.38210513906E+03 -0.93625391834E+02 -0.16744106582E+03  0.42755885211E+03  0.10100000352E+00 0.  1.
</event>
<event>
 5   0  0.6517392E-03  0.8001380E+03  0.7818609E-02  0.9559817E-01
        1   -1    0    0  501    0  0.00000000000E+00  0.00000000000E+00  0.34756672032E+03  0.34756672035E+03  0.50400001928E-02 0.  1.
       -1   -1    0    0    0  501  0.00000000000E+00  0.00000000000E+00 -0.46050211702E+03  0.46050211705E+03  0.50400001928E-02 0. -1.
    10030    2    1    2    0    0  0.00000000000E+00  0.00000000000E+00 -0.11293539671E+03  0.80806883740E+03  0.80013801444E+03 0.  0.
        3    1    3    3  502    0 -0.22770685850E+03 -0.17457693954E+03 -0.33802792411E+03  0.44338516992E+03  0.10100000352E+00 0. -1.
       -3    1    3    3    0  502  0.22770685850E+03  0.17457693954E+03  0.22509252741E+03  0.36468366748E+03  0.10100000352E+00 0.  1.
</event>
<event>
 5   0  0.6596225E-03  0.8065549E+03  0.7818609E-02  0.9550577E-01
        1   -1    0    0  501    0  0.00000000000E+00  0.00000000000E+00  0.30379886314E+03  0.30379886318E+03  0.50400001928E-02 0.  1.
       -1   -1    0    0    0  501  0.00000000000E+00  0.00000000000E+00 -0.53533013576E+03  0.53533013579E+03  0.50400001928E-02 0. -1.
    10030    2    1    2    0    0  0.00000000000E+00  0.00000000000E+00 -0.23153127262E+03  0.83912899897E+03  0.80655486280E+03 0.  0.
        5    1    3    3  502    0 -0.18583042455E+02  0.18919769413E+03 -0.48575370248E+03  0.52165107726E+03  0.46999998093E+01 0. -1.
       -5    1    3    3    0  502  0.18583042455E+02 -0.18919769413E+03  0.25422242986E+03  0.31747792171E+03  0.46999998093E+01 0.  1.
</event>
<event>
 5   0  0.4385875E-03  0.8040293E+03  0.7818609E-02  0.9554203E-01
       -3   -1    0    0    0  501  0.00000000000E+00  0.00000000000E+00  0.10724221133E+04  0.10724221180E+04  0.10100000352E+00 0. -1.
        3   -1    0    0  501    0  0.00000000000E+00  0.00000000000E+00 -0.15070163426E+03  0.15070166811E+03  0.10100000352E+00 0.  1.
    10030    2    1    2    0    0  0.00000000000E+00  0.00000000000E+00  0.92172047899E+03  0.12231237861E+04  0.80402932457E+03 0.  0.
        2    1    3    3  502    0 -0.69399456710E+02 -0.33718929321E+03  0.77668901128E+03  0.84956384356E+03  0.25500000920E-02 0. -1.
       -2    1    3    3    0  502  0.69399456710E+02  0.33718929321E+03  0.14503146771E+03  0.37355994255E+03  0.25500000920E-02 0.  1.
</event>
<event>
 5   0  0.6600401E-03  0.8002720E+03  0.7818609E-02  0.9559623E-01
       -1   -1    0    0    0  501  0.00000000000E+00  0.00000000000E+00  0.78631870211E+03  0.78631870212E+03  0.50400001928E-02 0.  1.
        1   -1    0    0  501    0  0.00000000000E+00  0.00000000000E+00 -0.20361823395E+03  0.20361823402E+03  0.50400001928E-02 0. -1.
    10030    2    1    2    0    0  0.00000000000E+00  0.00000000000E+00  0.58270046815E+03  0.98993693614E+03  0.80027201747E+03 0.  0.
        2    1    3    3  502    0 -0.23514868873E+03 -0.26670658041E+02  0.69046764750E+03  0.72989848751E+03  0.25500000920E-02 0.  1.
       -2    1    3    3    0  502  0.23514868873E+03  0.26670658041E+02 -0.10776717935E+03  0.26003844863E+03  0.25500000920E-02 0. -1.
</event>
<event>
 5   0  0.1154714E-02  0.7974922E+03  0.7818609E-02  0.9563654E-01
        2   -1    0    0  501    0  0.00000000000E+00  0.00000000000E+00  0.12831398514E+04  0.12831398514E+04  0.25500000920E-02 0. -1.
       -2   -1    0    0    0  501  0.00000000000E+00  0.00000000000E+00 -0.12391358362E+03  0.12391358364E+03  0.25500000920E-02 0.  1.
    10030    2    1    2    0    0  0.00000000000E+00  0.00000000000E+00  0.11592262678E+04  0.14070534351E+04  0.79749221260E+03 0.  0.
        5    1    3    3  502    0 -0.20709899173E+03 -0.37731443160E+02  0.11770544413E+04  0.11957394792E+04  0.46999998093E+01 0. -1.
       -5    1    3    3    0  502  0.20709899173E+03  0.37731443160E+02 -0.17828173549E+02  0.21131395588E+03  0.46999998093E+01 0.  1.
</event>
<event>
 5   0  0.1121480E-02  0.7996138E+03  0.7818609E-02  0.9560576E-01
       -2   -1    0    0    0  501  0.00000000000E+00  0.00000000000E+00  0.19163740090E+03  0.19163740092E+03  0.25500000920E-02 0. -1.
        2   -1    0    0  501    0  0.00000000000E+00  0.00000000000E+00 -0.83410415407E+03  0.83410415407E+03  0.25500000920E-02 0.  1.
    10030    2    1    2    0    0  0.00000000000E+00  0.00000000000E+00 -0.64246675316E+03  0.10257415550E+04  0.79961378722E+03 0.  0.
        2    1    3    3  502    0 -0.45775696863E+02 -0.11339970755E+03 -0.80952339638E+03  0.81870815154E+03  0.25500000920E-02 0.  1.
       -2    1    3    3    0  502  0.45775696863E+02  0.11339970755E+03  0.16705664322E+03  0.20703340345E+03  0.25500000920E-02 0. -1.
</event>
<event>
 5   0  0.1092868E-02  0.7816179E+03  0.7818609E-02  0.9587012E-01
       -2   -1    0    0    0  501  0.00000000000E+00  0.00000000000E+00  0.96819279247E+02  0.96819279281E+02  0.25500000920E-02 0. -1.
        2   -1    0    0  501    0  0.00000000000E+00  0.00000000000E+00 -0.15774920904E+04  0.15774920904E+04  0.25500000920E-02 0.  1.
    10030    2    1    2    0    0  0.00000000000E+00  0.00000000000E+00 -0.14806728111E+04  0.16743113696E+04  0.78161793029E+03 0.  0.
        3    1    3    3  502    0 -0.25006037400E+03  0.28753152866E+03 -0.55448981982E+03  0.67280275052E+03  0.10100000352E+00 0.  1.
       -3    1    3    3    0  502  0.25006037400E+03 -0.28753152866E+03 -0.92618299129E+03  0.10015086191E+04  0.10100000352E+00 0. -1.
</event>
<event>
 5   0  0.1121480E-02  0.8039070E+03  0.7818609E-02  0.9554379E-01
        2   -1    0    0  501    0  0.00000000000E+00  0.00000000000E+00  0.89692454965E+03  0.89692454966E+03  0.25500000920E-02 0. -1.
       -2   -1    0    0    0  501  0.00000000000E+00  0.00000000000E+00 -0.18013402095E+03  0.18013402097E+03  0.25500000920E-02 0.  1.
    10030    2    1    2    0    0  0.00000000000E+00  0.00000000000E+00  0.71679052870E+03  0.10770585706E+04  0.80390702355E+03 0.  0.
        2    1    3    3  502    0 -0.21728633951E+03 -0.30565525101E+02  0.80960290469E+03  0.83881134229E+03  0.25500000920E-02 0. -1.
       -2    1    3    3    0  502  0.21728633951E+03  0.30565525101E+02 -0.92812375992E+02  0.23824722833E+03  0.25500000920E-02 0.  1.
</event>
<event>
 5   0  0.1092868E-02  0.7985390E+03  0.7818609E-02  0.9562134E-01
        2   -1    0    0  501    0  0.00000000000E+00  0.00000000000E+00  0.66608226601E+03  0.66608226602E+03  0.25500000920E-02 0.  1.
       -2   -1    0    0    0  501  0.00000000000E+00  0.00000000000E+00 -0.23933399389E+03  0.23933399390E+03  0.25500000920E-02 0. -1.
    10030    2    1    2    0    0  0.00000000000E+00  0.00000000000E+00  0.42674827213E+03  0.90541625992E+03  0.79853898838E+03 0.  0.
        3    1    3    3  502    0  0.32114734852E+03  0.13250148323E+03  0.43649565818E+03  0.55787160918E+03  0.10100000352E+00 0.  1.
       -3    1    3    3    0  502 -0.32114734852E+03 -0.13250148323E+03 -0.97473860545E+01  0.34754465074E+03  0.10100000352E+00 0. -1.
</event>
<event>
 5   0  0.1154714E-02  0.8001184E+03  0.7818609E-02  0.9559846E-01
        2   -1    0    0  501    0  0.00000000000E+00  0.00000000000E+00  0.33548846316E+03  0.33548846317E+03  0.25500000920E-02 0.  1.
       -2   -1    0    0    0  501  0.00000000000E+00  0.00000000000E+00 -0.47705768868E+03  0.47705768868E+03  0.25500000920E-02 0. -1.
    10030    2    1    2    0    0  0.00000000000E+00  0.00000000000E+00 -0.14156922552E+03  0.81254615185E+03  0.80011836829E+03 0.  0.
        5    1    3    3  502    0  0.37305177531E+03 -0.11298219479E+03  0.20571870957E+02  0.39035611340E+03  0.46999998093E+01 0.  1.
       -5    1    3    3    0  502 -0.37305177531E+03  0.11298219479E+03 -0.16214109647E+03  0.42219003845E+03  0.46999998093E+01 0. -1.
</event>
<event>
 5   0  0.1119792E-02  0.8017134E+03  0.7818609E-02  0.9557540E-01
        2   -1    0    0  501    0  0.00000000000E+00  0.00000000000E+00  0.11508144639E+04  0.11508144639E+04  0.25500000920E-02 0. -1.
       -2   -1    0    0    0  501  0.00000000000E+00  0.00000000000E+00 -0.13962814610E+03  0.13962814613E+03  0.25500000920E-02 0.  1.
    10030    2    1    2    0    0  0.00000000000E+00  0.00000000000E+00  0.10111863178E+04  0.12904426101E+04  0.80171339049E+03 0.  0.
        4    1    3    3  502    0  0.27952368099E+03  0.58538037314E+02  0.52826474728E+02  0.29043491418E+03  0.12699999809E+01 0.  1.
       -4    1    3    3    0  502 -0.27952368099E+03 -0.58538037314E+02  0.95835984309E+03  0.10000076959E+04  0.12699999809E+01 0. -1.
</event>
<event>
 5   0  0.1119792E-02  0.8010616E+03  0.7818609E-02  0.9558482E-01
        2   -1    0    0  501    0  0.00000000000E+00  0.00000000000E+00  0.16275776489E+04  0.16275776489E+04  0.25500000920E-02 0.  1.
       -2   -1    0    0    0  501  0.00000000000E+00  0.00000000000E+00 -0.98566670938E+02  0.98566670971E+02  0.25500000920E-02 0. -1.
    10030    2    1    2    0    0  0.00000000000E+00  0.00000000000E+00  0.15290109779E+04  0.17261443198E+04  0.80106157210E+03 0.  0.
        4    1    3    3  502    0  0.15925807395E+03  0.84525892049E+02  0.15351832984E+04  0.15457351433E+04  0.12699999809E+01 0.  1.
       -4    1    3    3    0  502 -0.15925807395E+03 -0.84525892049E+02 -0.61723204906E+01  0.18040917655E+03  0.12699999809E+01 0. -1.
</event>
<event>
 5   0  0.6557679E-03  0.8054124E+03  0.7818609E-02  0.9552216E-01
       -1   -1    0    0    0  501  0.00000000000E+00  0.00000000000E+00  0.46858413331E+02  0.46858413602E+02  0.50400001928E-02 0.  1.
        1   -1    0    0  501    0  0.00000000000E+00  0.00000000000E+00 -0.34609000316E+04  0.34609000316E+04  0.50400001928E-02 0. -1.
    10030    2    1    2    0    0  0.00000000000E+00  0.00000000000E+00 -0.34140416183E+04  0.35077584452E+04  0.80541240283E+03 0.  0.
        1    1    3    3  502    0 -0.10262344586E+03  0.38692220896E+03 -0.15155927390E+04  0.15675655386E+04  0.50400001928E-02 0. -1.
       -1    1    3    3    0  502  0.10262344586E+03 -0.38692220896E+03 -0.18984488793E+04  0.19401929066E+04  0.50400001928E-02 0.  1.
</event>
<event>
 5   0  0.1121480E-02  0.8070685E+03  0.7818609E-02  0.9549842E-01
        2   -1    0    0  501    0  0.00000000000E+00  0.00000000000E+00  0.23304782731E+04  0.23304782731E+04  0.25500000920E-02 0.  1.
       -2   -1    0    0    0  501  0.00000000000E+00  0.00000000000E+00 -0.69874023798E+02  0.69874023844E+02  0.25500000920E-02 0. -1.
    10030    2    1    2    0    0  0.00000000000E+00  0.00000000000E+00  0.22606042493E+04  0.24003522970E+04  0.80706850855E+03 0.  0.
        2    1    3    3  502    0 -0.32595108436E+03  0.11750448148E+03  0.51508555428E+03  0.62077736814E+03  0.25500000920E-02 0. -1.
       -2    1    3    3    0  502  0.32595108436E+03 -0.11750448148E+03  0.17455186950E+04  0.17795749288E+04  0.25500000920E-02 0.  1.
</event>
<event>
 5   0  0.6596225E-03  0.7966759E+03  0.7818609E-02  0.9564841E-01
        1   -1    0    0  501    0  0.00000000000E+00  0.00000000000E+00  0.11463139707E+04  0.11463139707E+04  0.50400001928E-02 0. -1.
       -1   -1    0    0    0  501  0.00000000000E+00  0.00000000000E+00 -0.13842030957E+03  0.13842030966E+03  0.50400001928E-02 0.  1.
    10030    2    1    2    0    0  0.00000000000E+00  0.00000000000E+00  0.10078936612E+04  0.12847342804E+04  0.79667593100E+03 0.  0.
        5    1    3    3  502    0 -0.90441869252E+02 -0.29544439860E+03  0.98592422173E+02  0.32436041695E+03  0.46999998093E+01 0.  1.
       -5    1    3    3    0  502  0.90441869252E+02  0.29544439860E+03  0.90930123898E+03  0.96037386345E+03  0.46999998093E+01 0. -1.
</event>
<event>
 5   0  0.6551489E-03  0.7489056E+03  0.7818609E-02  0.9637069E-01
       -1   -1    0    0    0  501  0.00000000000E+00  0.00000000000E+00  0.14147691056E+03  0.14147691065E+03  0.50400001928E-02 0.  1.
        1   -1    0    0  501    0  0.00000000000E+00  0.00000000000E+00 -0.99107981560E+03  0.99107981561E+03  0.50400001928E-02 0. -1.
    10030    2    1    2    0    0  0.00000000000E+00  0.00000000000E+00 -0.84960290503E+03  0.11325567263E+04  0.74890562955E+03 0.  0.
        4    1    3    3  502    0 -0.27529533438E+03  0.99434897066E+02 -0.71630989854E+02  0.30134271435E+03  0.12699999809E+01 0.  1.
       -4    1    3    3    0  502  0.27529533438E+03 -0.99434897066E+02 -0.77797191518E+03  0.83121401191E+03  0.12699999809E+01 0. -1.
</event>
<event>
 5   0  0.6596225E-03  0.7976798E+03  0.7818609E-02  0.9563382E-01
        1   -1    0    0  501    0  0.00000000000E+00  0.00000000000E+00  0.25492064938E+04  0.25492064938E+04  0.50400001928E-02 0.  1.
       -1   -1    0    0    0  501  0.00000000000E+00  0.00000000000E+00 -0.62401097420E+02  0.62401097624E+02  0.50400001928E-02 0. -1.
    10030    2    1    2    0    0  0.00000000000E+00  0.00000000000E+00  0.24868053964E+04  0.26116075915E+04  0.79767984314E+03 0.  0.
        5    1    3    3  502    0  0.91314000913E+01 -0.27465861615E+03  0.21896436254E+04  0.22068262356E+04  0.46999998093E+01 0.  1.
       -5    1    3    3    0  502 -0.91314000913E+01  0.27465861615E+03  0.29716177098E+03  0.40478135583E+03  0.46999998093E+01 0. -1.
</event>
<event>
 5   0  0.1106332E-02  0.8006549E+03  0.7818609E-02  0.9559070E-01
        2   -1    0    0  501    0  0.00000000000E+00  0.00000000000E+00  0.11154206114E+04  0.11154206114E+04  0.25500000920E-02 0.  1.
       -2   -1    0    0    0  501  0.00000000000E+00  0.00000000000E+00 -0.14367860873E+03  0.14367860876E+03  0.25500000920E-02 0. -1.
    10030    2    1    2    0    0  0.00000000000E+00  0.00000000000E+00  0.97174200270E+03  0.12590992202E+04  0.80065493596E+03 0.  0.
        1    1    3    3  502    0 -0.34477060515E+03 -0.17509087880E+03  0.32290902204E+03  0.50377953765E+03  0.50400001928E-02 0.  1.
       -1    1    3    3    0  502  0.34477060515E+03  0.17509087880E+03  0.64883298066E+03  0.75531968254E+03  0.50400001928E-02 0. -1.
</event>
<event>
 5   0  0.1092868E-02  0.7990479E+03  0.7818609E-02  0.9561396E-01
       -2   -1    0    0    0  501  0.00000000000E+00  0.00000000000E+00  0.60096462796E+03  0.60096462796E+03  0.25500000920E-02 0. -1.
        2   -1    0    0  501    0  0.00000000000E+00  0.00000000000E+00 -0.26560528411E+03  0.26560528412E+03  0.25500000920E-02 0.  1.
    10030    2    1    2    0    0  0.00000000000E+00  0.00000000000E+00  0.33535934385E+03  0.86656991209E+03  0.79904788531E+03 0.  0.
        3    1    3    3  502    0 -0.35689485738E+03 -0.54658961656E+02  0.35318306164E+03  0.50507408025E+03  0.10100000352E+00 0. -1.
       -3    1    3    3    0  502  0.35689485738E+03  0.54658961656E+02 -0.17823717789E+02  0.36149583183E+03  0.10100000352E+00 0.  1.
</event>
<event>
 5   0  0.1154714E-02  0.7983360E+03  0.7818609E-02  0.9562429E-01
        2   -1    0    0  501    0  0.00000000000E+00  0.00000000000E+00  0.13607432747E+04  0.13607432747E+04  0.25500000920E-02 0. -1.
       -2   -1    0    0    0  501  0.00000000000E+00  0.00000000000E+00 -0.11709417531E+03  0.11709417534E+03  0.25500000920E-02 0.  1.
    10030    2    1    2    0    0  0.00000000000E+00  0.00000000000E+00  0.12436490994E+04  0.14778374500E+04  0.79833604850E+03 0.  0.
        5    1    3    3  502    0  0.35146327275E+02  0.24865675862E+03  0.11961205912E+04  0.12222078410E+04  0.46999998093E+01 0. -1.
       -5    1    3    3    0  502 -0.35146327275E+02 -0.24865675862E+03  0.47528508183E+02  0.25562960904E+03  0.46999998093E+01 0.  1.
</event>
<event>
 5   0  0.6596225E-03  0.8001204E+03  0.7818609E-02  0.9559843E-01
        1   -1    0    0  501    0  0.00000000000E+00  0.00000000000E+00  0.13672687172E+04  0.13672687172E+04  0.50400001928E-02 0.  1.
       -1   -1    0    0    0  501  0.00000000000E+00  0.00000000000E+00 -0.11705685268E+03  0.11705685279E+03  0.50400001928E-02 0. -1.
    10030    2    1    2    0    0  0.00000000000E+00  0.00000000000E+00  0.12502118645E+04  0.14843255700E+04  0.80012042314E+03 0.  0.
        5    1    3    3  502    0 -0.11918802382E+03 -0.26760954289E+03  0.11975664530E+03  0.31651918830E+03  0.46999998093E+01 0. -1.
       -5    1    3    3    0  502  0.11918802382E+03  0.26760954289E+03  0.11304552192E+04  0.11678063817E+04  0.46999998093E+01 0.  1.
</event>
<event>
 5   0  0.1092868E-02  0.8014461E+03  0.7818609E-02  0.9557926E-01
        2   -1    0    0  501    0  0.00000000000E+00  0.00000000000E+00  0.58680714116E+03  0.58680714116E+03  0.25500000920E-02 0. -1.
       -2   -1    0    0    0  501  0.00000000000E+00  0.00000000000E+00 -0.27364860582E+03  0.27364860583E+03  0.25500000920E-02 0.  1.
    10030    2    1    2    0    0  0.00000000000E+00  0.00000000000E+00  0.31315853534E+03  0.86045574700E+03  0.80144608320E+03 0.  0.
        3    1    3    3  502    0 -0.37738815793E+03  0.99643904161E+02  0.59190900686E+02  0.39478386784E+03  0.10100000352E+00 0.  1.
       -3    1    3    3    0  502  0.37738815793E+03 -0.99643904161E+02  0.25396763465E+03  0.46567187915E+03  0.10100000352E+00 0. -1.
</event>
<event>
 5   0  0.1119792E-02  0.8105862E+03  0.7818609E-02  0.9544819E-01
       -2   -1    0    0    0  501  0.00000000000E+00  0.00000000000E+00  0.15939641792E+03  0.15939641794E+03  0.25500000920E-02 0. -1.
        2   -1    0    0  501    0  0.00000000000E+00  0.00000000000E+00 -0.10305282009E+04  0.10305282009E+04  0.25500000920E-02 0.  1.
    10030    2    1    2    0    0  0.00000000000E+00  0.00000000000E+00 -0.87113178300E+03  0.11899246189E+04  0.81058621701E+03 0.  0.
        4    1    3    3  502    0 -0.37102545928E+03 -0.15747813917E+03 -0.49787530427E+03  0.64057840055E+03  0.12699999809E+01 0.  1.
       -4    1    3    3    0  502  0.37102545928E+03  0.15747813917E+03 -0.37325647873E+03  0.54934621831E+03  0.12699999809E+01 0. -1.
</event>
<event>
 5   0  0.1154714E-02  0.8006501E+03  0.7818609E-02  0.9559077E-01
        2   -1    0    0  501    0  0.00000000000E+00  0.00000000000E+00  0.11920410478E+04  0.11920410478E+04  0.25500000920E-02 0. -1.
       -2   -1    0    0    0  501  0.00000000000E+00  0.00000000000E+00 -0.13444180074E+03  0.13444180077E+03  0.25500000920E-02 0.  1.
    10030    2    1    2    0    0  0.00000000000E+00  0.00000000000E+00  0.10575992471E+04  0.13264828486E+04  0.80065009847E+03 0.  0.
        5    1    3    3  502    0 -0.26802036665E+03 -0.22500654819E+03  0.20679492097E+03  0.40650841689E+03  0.46999998093E+01 0.  1.
       -5    1    3    3    0  502  0.26802036665E+03  0.22500654819E+03  0.85080432612E+03  0.91997443171E+03  0.46999998093E+01 0. -1.
</event>
<event>
 5   0  0.6596225E-03  0.8026446E+03  0.7818609E-02  0.9556197E-01
       -1   -1    0    0    0  501  0.00000000000E+00  0.00000000000E+00  0.38886310007E+03  0.38886310010E+03  0.50400001928E-02 0.  1.
        1   -1    0    0  501    0  0.00000000000E+00  0.00000000000E+00 -0.41418067536E+03  0.41418067539E+03  0.50400001928E-02 0. -1.
    10030    2    1    2    0    0  0.00000000000E+00  0.00000000000E+00 -0.25317575291E+02  0.80304377549E+03  0.80264458245E+03 0.  0.
        5    1    3    3  502    0 -0.26673686468E+02 -0.76505667831E+01  0.38787452123E+03  0.38889426704E+03  0.46999998093E+01 0.  1.
       -5    1    3    3    0  502  0.26673686468E+02  0.76505667831E+01 -0.41319209652E+03  0.41414950845E+03  0.46999998093E+01 0. -1.
</event>
<event>
 5   0  0.1092868E-02  0.7993424E+03  0.7818609E-02  0.9560969E-01
        2   -1    0    0  501    0  0.00000000000E+00  0.00000000000E+00  0.10571787798E+03  0.10571787801E+03  0.25500000920E-02 0. -1.
       -2   -1    0    0    0  501  0.00000000000E+00  0.00000000000E+00 -0.15109749831E+04  0.15109749831E+04  0.25500000920E-02 0.  1.
    10030    2    1    2    0    0  0.00000000000E+00  0.00000000000E+00 -0.14052571051E+04  0.16166928611E+04  0.79934240203E+03 0.  0.
        3    1    3    3  502    0 -0.34690016306E+03 -0.19157670362E+03 -0.80763854503E+03  0.89962291329E+03  0.10100000352E+00 0.  1.
       -3    1    3    3    0  502  0.34690016306E+03  0.19157670362E+03 -0.59761856010E+03  0.71706994782E+03  0.10100000352E+00 0. -1.
</event>
<event>
 5   0  0.1106332E-02  0.7815051E+03  0.7818609E-02  0.9587180E-01
        2   -1    0    0  501    0  0.00000000000E+00  0.00000000000E+00  0.67046282683E+03  0.67046282684E+03  0.25500000920E-02 0.  1.
       -2   -1    0    0    0  501  0.00000000000E+00  0.00000000000E+00 -0.22773457831E+03  0.22773457832E+03  0.25500000920E-02 0. -1.
    10030    2    1    2    0    0  0.00000000000E+00  0.00000000000E+00  0.44272824852E+03  0.89819740516E+03  0.78150513536E+03 0.  0.
        1    1    3    3  502    0 -0.24850600074E+03 -0.27848337560E+03  0.88423594142E+02  0.38357131660E+03  0.50400001928E-02 0. -1.
       -1    1    3    3    0  502  0.24850600074E+03  0.27848337560E+03  0.35430465438E+03  0.51462608856E+03  0.50400001928E-02 0.  1.
</event>
<event>
 5   0  0.1119792E-02  0.8048439E+03  0.7818609E-02  0.9553032E-01
        2   -1    0    0  501    0  0.00000000000E+00  0.00000000000E+00  0.24758843653E+03  0.24758843654E+03  0.25500000920E-02 0. -1.
       -2   -1    0    0    0  501  0.00000000000E+00  0.00000000000E+00 -0.65408320951E+03  0.65408320952E+03  0.25500000920E-02 0.  1.
    10030    2    1    2    0    0  0.00000000000E+00  0.00000000000E+00 -0.40649477298E+03  0.90167164606E+03  0.80484393322E+03 0.  0.
        4    1    3    3  502    0  0.13960254910E+03 -0.65584567580E+02  0.21315645543E+03  0.26311118299E+03  0.12699999809E+01 0. -1.
       -4    1    3    3    0  502 -0.13960254910E+03  0.65584567580E+02 -0.61965122842E+03  0.63856046307E+03  0.12699999809E+01 0.  1.
</event>
<event>
 5   0  0.1106332E-02  0.7998089E+03  0.7818609E-02  0.9560294E-01
       -2   -1    0    0    0  501  0.00000000000E+00  0.00000000000E+00  0.22122705284E+03  0.22122705285E+03  0.25500000920E-02 0. -1.
        2   -1    0    0  501    0  0.00000000000E+00  0.00000000000E+00 -0.72289335672E+03  0.72289335673E+03  0.25500000920E-02 0.  1.
    10030    2    1    2    0    0  0.00000000000E+00  0.00000000000E+00 -0.50166630388E+03  0.94412040958E+03  0.79980889426E+03 0.  0.
        1    1    3    3  502    0 -0.34200491301E+03  0.77705411133E+02 -0.24023943588E+02  0.35154322826E+03  0.50400001928E-02 0. -1.
       -1    1    3    3    0  502  0.34200491301E+03 -0.77705411133E+02 -0.47764236030E+03  0.59257718132E+03  0.50400001928E-02 0.  1.
</event>
<event>
 5   0  0.1092868E-02  0.7989154E+03  0.7818609E-02  0.9561588E-01
        2   -1    0    0  501    0  0.00000000000E+00  0.00000000000E+00  0.16185808144E+04  0.16185808144E+04  0.25500000920E-02 0.  1.
       -2   -1    0    0    0  501  0.00000000000E+00  0.00000000000E+00 -0.98584168553E+02  0.98584168586E+02  0.25500000920E-02 0. -1.
    10030    2    1    2    0    0  0.00000000000E+00  0.00000000000E+00  0.15199966459E+04  0.17171649830E+04  0.79891537438E+03 0.  0.
        3    1    3    3  502    0  0.18122145208E+03 -0.30034409017E+03  0.34925682656E+03  0.49500315988E+03  0.10100000352E+00 0. -1.
       -3    1    3    3    0  502 -0.18122145208E+03  0.30034409017E+03  0.11707398193E+04  0.12221618231E+04  0.10100000352E+00 0.  1.
</event>
<event>
 5   0  0.1121480E-02  0.8058633E+03  0.7818609E-02  0.9551569E-01
       -2   -1    0    0    0  501  0.00000000000E+00  0.00000000000E+00  0.57961604443E+03  0.57961604443E+03  0.25500000920E-02 0. -1.
        2   -1    0    0  501    0  0.00000000000E+00  0.00000000000E+00 -0.28010599021E+03  0.28010599022E+03  0.25500000920E-02 0.  1.
    10030    2    1    2    0    0  0.00000000000E+00  0.00000000000E+00  0.29951005422E+03  0.85972203465E+03  0.80586332854E+03 0.  0.
        2    1    3    3  502    0 -0.20319899877E+03 -0.22406578527E+03  0.43373845678E+03  0.52879519487E+03  0.25500000920E-02 0. -1.
       -2    1    3    3    0  502  0.20319899877E+03  0.22406578527E+03 -0.13422840256E+03  0.33092683978E+03  0.25500000920E-02 0.  1.
</event>
<event>
 5   0  0.1106332E-02  0.8003358E+03  0.7818609E-02  0.9559531E-01
       -2   -1    0    0    0  501  0.00000000000E+00  0.00000000000E+00  0.53780620894E+03  0.53780620895E+03  0.25500000920E-02 0.  1.
        2   -1    0    0  501    0  0.00000000000E+00  0.00000000000E+00 -0.29775475550E+03  0.29775475551E+03  0.25500000920E-02 0. -1.
    10030    2    1    2    0    0  0.00000000000E+00  0.00000000000E+00  0.24005145344E+03  0.83556096446E+03  0.80033582016E+03 0.  0.
        1    1    3    3  502    0  0.11708326574E+03 -0.23492587471E+03  0.43537242513E+03  0.50837762177E+03  0.50400001928E-02 0.  1.
       -1    1    3    3    0  502 -0.11708326574E+03  0.23492587471E+03 -0.19532097170E+03  0.32718334269E+03  0.50400001928E-02 0. -1.
</event>
<event>
 5   0  0.1121480E-02  0.8053882E+03  0.7818609E-02  0.9552250E-01
        2   -1    0    0  501    0  0.00000000000E+00  0.00000000000E+00  0.24919468988E+03  0.24919468989E+03  0.25500000920E-02 0.  1.
       -2   -1    0    0    0  501  0.00000000000E+00  0.00000000000E+00 -0.65074636165E+03  0.65074636165E+03  0.25500000920E-02 0. -1.
    10030    2    1    2    0    0  0.00000000000E+00  0.00000000000E+00 -0.40155167177E+03  0.89994105155E+03  0.80538819904E+03 0.  0.
        2    1    3    3  502    0 -0.21740156051E+03  0.32082848543E+03 -0.32301852566E+03  0.50451493883E+03  0.25500000920E-02 0. -1.
       -2    1    3    3    0  502  0.21740156051E+03 -0.32082848543E+03 -0.78533146110E+02  0.39542611272E+03  0.25500000920E-02 0.  1.
</event>
<event>
 5   0  0.6557679E-03  0.7703044E+03  0.7818609E-02  0.9604024E-01
        1   -1    0    0  501    0  0.00000000000E+00  0.00000000000E+00  0.81515781839E+03  0.81515781841E+03  0.50400001928E-02 0. -1.
       -1   -1    0    0    0  501  0.00000000000E+00  0.00000000000E+00 -0.18197975358E+03  0.18197975365E+03  0.50400001928E-02 0.  1.
    10030    2    1    2    0    0  0.00000000000E+00  0.00000000000E+00  0.63317806481E+03  0.99713757206E+03  0.77030440466E+03 0.  0.
        1    1    3    3  502    0 -0.24152974708E+03  0.27243578525E+03  0.47922101492E+03  0.60183939467E+03  0.50400001928E-02 0. -1.
       -1    1    3    3    0  502  0.24152974708E+03 -0.27243578525E+03  0.15395704989E+03  0.39529817739E+03  0.50400001928E-02 0.  1.
</event>
<event>
 5   0  0.6600401E-03  0.8000716E+03  0.7818609E-02  0.9559914E-01
       -1   -1    0    0    0  501  0.00000000000E+00  0.00000000000E+00  0.24911821351E+03  0.24911821356E+03  0.50400001928E-02 0. -1.
        1   -1    0    0  501    0  0.00000000000E+00  0.00000000000E+00 -0.64238029789E+03  0.64238029791E+03  0.50400001928E-02 0.  1.
    10030    2    1    2    0    0  0.00000000000E+00  0.00000000000E+00 -0.39326208438E+03  0.89149851147E+03  0.80007157738E+03 0.  0.
        2    1    3    3  502    0  0.10693403503E+03 -0.11251415574E+03  0.21419344536E+03  0.26452439421E+03  0.25500000920E-02 0. -1.
       -2    1    3    3    0  502 -0.10693403503E+03  0.11251415574E+03 -0.60745552974E+03  0.62697411726E+03  0.25500000920E-02 0.  1.
</event>
<event>
 5   0  0.6551489E-03  0.7996782E+03  0.7818609E-02  0.9560483E-01
        1   -1    0    0  501    0  0.00000000000E+00  0.00000000000E+00  0.12964240050E+04  0.12964240050E+04  0.50400001928E-02 0.  1.
       -1   -1    0    0    0  501  0.00000000000E+00  0.00000000000E+00 -0.12331714492E+03  0.12331714502E+03  0.50400001928E-02 0. -1.
    10030    2    1    2    0    0  0.00000000000E+00  0.00000000000E+00  0.11731068601E+04  0.14197411501E+04  0.79967820274E+03 0.  0.
        4    1    3    3  502    0  0.10010034105E+03  0.13104687885E+03 -0.60128370653E+02  0.17552890529E+03  0.12699999809E+01 0. -1.
       -4    1    3    3    0  502 -0.10010034105E+03 -0.13104687885E+03  0.12332352308E+04  0.12442122448E+04  0.12699999809E+01 0.  1.
</event>
<event>
 5   0  0.6596225E-03  0.8012403E+03  0.7818609E-02  0.9558224E-01
        1   -1    0    0  501    0  0.00000000000E+00  0.00000000000E+00  0.12048623510E+03  0.12048623520E+03  0.50400001928E-02 0. -1.
       -1   -1    0    0    0  501  0.00000000000E+00  0.00000000000E+00 -0.13320734322E+04  0.13320734322E+04  0.50400001928E-02 0.  1.
    10030    2    1    2    0    0  0.00000000000E+00  0.00000000000E+00 -0.12115871971E+04  0.14525596674E+04  0.80124032051E+03 0.  0.
        5    1    3    3  502    0 -0.40187944087E+02  0.24400712000E+03 -0.34460647347E+02  0.24972819560E+03  0.46999998093E+01 0. -1.
       -5    1    3    3    0  502  0.40187944087E+02 -0.24400712000E+03 -0.11771265497E+04  0.12028314718E+04  0.46999998093E+01 0.  1.
</event>
<event>
 5   0  0.1092868E-02  0.7667018E+03  0.7818609E-02  0.9609506E-01
        2   -1    0    0  501    0  0.00000000000E+00  0.00000000000E+00  0.12194658449E+03  0.12194658452E+03  0.25500000920E-02 0. -1.
       -2   -1    0    0    0  501  0.00000000000E+00  0.00000000000E+00 -0.12051006051E+04  0.12051006051E+04  0.25500000920E-02 0.  1.
    10030    2    1    2    0    0  0.00000000000E+00  0.00000000000E+00 -0.10831540206E+04  0.13270471896E+04  0.76670177456E+03 0.  0.
        3    1    3    3  502    0  0.34907176252E+03 -0.15751608693E+03 -0.57132952036E+03  0.68780799942E+03  0.10100000352E+00 0. -1.
       -3    1    3    3    0  502 -0.34907176252E+03  0.15751608693E+03 -0.51182450023E+03  0.63923919018E+03  0.10100000352E+00 0.  1.
</event>
<event>
 5   0  0.4385875E-03  0.7993520E+03  0.7818609E-02  0.9560956E-01
        3   -1    0    0  501    0  0.00000000000E+00  0.00000000000E+00  0.59965712739E+03  0.59965713590E+03  0.10100000352E+00 0. -1.
       -3   -1    0    0    0  501  0.00000000000E+00  0.00000000000E+00 -0.26638705197E+03  0.26638707112E+03  0.10100000352E+00 0.  1.
    10030    2    1    2    0    0  0.00000000000E+00  0.00000000000E+00  0.33327007542E+03  0.86604420701E+03  0.79935200339E+03 0.  0.
        2    1    3    3  502    0  0.81140071015E+02 -0.22977087343E+03 -0.17659699891E+03  0.30093996982E+03  0.25500000920E-02 0.  1.
       -2    1    3    3    0  502 -0.81140071015E+02  0.22977087343E+03  0.50986707433E+03  0.56510423720E+03  0.25500000920E-02 0. -1.
</event>
<event>
 5   0  0.1092868E-02  0.7990432E+03  0.7818609E-02  0.9561403E-01
       -2   -1    0    0    0  501  0.00000000000E+00  0.00000000000E+00  0.99479973145E+03  0.99479973146E+03  0.25500000920E-02 0.  1.
        2   -1    0    0  501    0  0.00000000000E+00  0.00000000000E+00 -0.16045191546E+03  0.16045191548E+03  0.25500000920E-02 0. -1.
    10030    2    1    2    0    0  0.00000000000E+00  0.00000000000E+00  0.83434781599E+03  0.11552516469E+04  0.79904323394E+03 0.  0.
        3    1    3    3  502    0  0.22999241535E+03 -0.19524036605E+03  0.38491315750E+02  0.30413303544E+03  0.10100000352E+00 0. -1.
       -3    1    3    3    0  502 -0.22999241535E+03  0.19524036605E+03  0.79585650024E+03  0.85111861150E+03  0.10100000352E+00 0.  1.
</event>
<event>
 5   0  0.6517392E-03  0.8052976E+03  0.7818609E-02  0.9552381E-01
        1   -1    0    0  501    0  0.00000000000E+00  0.00000000000E+00  0.38249778727E+03  0.38249778730E+03  0.50400001928E-02 0.  1.
       -1   -1    0    0    0  501  0.00000000000E+00  0.00000000000E+00 -0.42386140386E+03  0.42386140389E+03  0.50400001928E-02 0. -1.
    10030    2    1    2    0    0  0.00000000000E+00  0.00000000000E+00 -0.41363616595E+02  0.80635919120E+03  0.80529758254E+03 0.  0.
        3    1    3    3  502    0 -0.15094544738E+03 -0.33621381904E+03  0.14171021953E+03  0.39484941018E+03  0.10100000352E+00 0.  1.
       -3    1    3    3    0  502  0.15094544738E+03  0.33621381904E+03 -0.18307383612E+03  0.41150978102E+03  0.10100000352E+00 0. -1.
</event>
<event>
 5   0  0.6551489E-03  0.7911214E+03  0.7818609E-02  0.9572958E-01
        1   -1    0    0  501    0  0.00000000000E+00  0.00000000000E+00  0.10860690872E+04  0.10860690872E+04  0.50400001928E-02 0.  1.
       -1   -1    0    0    0  501  0.00000000000E+00  0.00000000000E+00 -0.14406841990E+03  0.14406841999E+03  0.50400001928E-02 0. -1.
    10030    2    1    2    0    0  0.00000000000E+00  0.00000000000E+00  0.94200066725E+03  0.12301375072E+04  0.79112137464E+03 0.  0.
        4    1    3    3  502    0 -0.12827793825E+03  0.23742310685E+03  0.21301331093E+02  0.27070338143E+03  0.12699999809E+01 0. -1.
       -4    1    3    3    0  502  0.12827793825E+03 -0.23742310685E+03  0.92069933616E+03  0.95943412573E+03  0.12699999809E+01 0.  1.
</event>
<event>
 5   0  0.6596225E-03  0.7984479E+03  0.7818609E-02  0.9562266E-01
       -1   -1    0    0    0  501  0.00000000000E+00  0.00000000000E+00  0.21890510352E+03  0.21890510358E+03  0.50400001928E-02 0. -1.
        1   -1    0    0  501    0  0.00000000000E+00  0.00000000000E+00 -0.72807688022E+03  0.72807688024E+03  0.50400001928E-02 0.  1.
    10030    2    1    2    0    0  0.00000000000E+00  0.00000000000E+00 -0.50917177670E+03  0.94698198381E+03  0.79844785646E+03 0.  0.
        5    1    3    3  502    0 -0.21194232555E+03 -0.25494163161E+03  0.91364958941E+01  0.33169315706E+03  0.46999998093E+01 0. -1.
       -5    1    3    3    0  502  0.21194232555E+03  0.25494163161E+03 -0.51830827260E+03  0.61528882675E+03  0.46999998093E+01 0.  1.
</event>
<event>
 5   0  0.1119792E-02  0.7993044E+03  0.7818609E-02  0.9561024E-01
       -2   -1    0    0    0  501  0.00000000000E+00  0.00000000000E+00  0.11295088369E+03  0.11295088372E+03  0.25500000920E-02 0.  1.
        2   -1    0    0  501    0  0.00000000000E+00  0.00000000000E+00 -0.14140827562E+04  0.14140827562E+04  0.25500000920E-02 0. -1.
    10030    2    1    2    0    0  0.00000000000E+00  0.00000000000E+00 -0.13011318725E+04  0.15270336399E+04  0.79930444000E+03 0.  0.
        4    1    3    3  502    0 -0.29070091168E+02 -0.39803496444E+03 -0.61033826543E+03  0.72924023083E+03  0.12699999809E+01 0.  1.
       -4    1    3    3    0  502  0.29070091168E+02  0.39803496444E+03 -0.69079360705E+03  0.79779340907E+03  0.12699999809E+01 0. -1.
</event>
<event>
 5   0  0.1119792E-02  0.7977364E+03  0.7818609E-02  0.9563299E-01
       -2   -1    0    0    0  501  0.00000000000E+00  0.00000000000E+00  0.13984986609E+03  0.13984986612E+03  0.25500000920E-02 0.  1.
        2   -1    0    0  501    0  0.00000000000E+00  0.00000000000E+00 -0.11376187180E+04  0.11376187180E+04  0.25500000920E-02 0. -1.
    10030    2    1    2    0    0  0.00000000000E+00  0.00000000000E+00 -0.99776885188E+03  0.12774685841E+04  0.79773636093E+03 0.  0.
        4    1    3    3  502    0 -0.34036615993E+03 -0.63270521710E+01 -0.16602708646E+03  0.37875554221E+03  0.12699999809E+01 0.  1.
       -4    1    3    3    0  502  0.34036615993E+03  0.63270521710E+01 -0.83174176541E+03  0.89871304188E+03  0.12699999809E+01 0. -1.
</event>
<event>
 5   0  0.1092868E-02  0.7999307E+03  0.7818609E-02  0.9560117E-01
        2   -1    0    0  501    0  0.00000000000E+00  0.00000000000E+00  0.16789691225E+04  0.16789691225E+04  0.25500000920E-02 0. -1.
       -2   -1    0    0    0  501  0.00000000000E+00  0.00000000000E+00 -0.95280053752E+02  0.95280053787E+02  0.25500000920E-02 0.  1.
    10030    2    1    2    0    0  0.00000000000E+00  0.00000000000E+00  0.15836890688E+04  0.17742491763E+04  0.79993066768E+03 0.  0.
        3    1    3    3  502    0 -0.34446847581E+02  0.45367527770E+02 -0.86236937051E+02  0.10335191047E+03  0.10100000352E+00 0.  1.
       -3    1    3    3    0  502  0.34446847581E+02 -0.45367527770E+02  0.16699260058E+04  0.16708972658E+04  0.10100000352E+00 0. -1.
</event>
<event>
 5   0  0.6557679E-03  0.7968603E+03  0.7818609E-02  0.9564573E-01
        1   -1    0    0  501    0  0.00000000000E+00  0.00000000000E+00  0.68925572065E+03  0.68925572067E+03  0.50400001928E-02 0. -1.
       -1   -1    0    0    0  501  0.00000000000E+00  0.00000000000E+00 -0.23031594712E+03  0.23031594718E+03  0.50400001928E-02 0.  1.
    10030    2    1    2    0    0  0.00000000000E+00  0.00000000000E+00  0.45893977353E+03  0.91957166785E+03  0.79686029929E+03 0.  0.
        1    1    3    3  502    0  0.25777373620E+01 -0.39489899870E+03  0.16846388541E+03  0.42933896238E+03  0.50400001928E-02 0.  1.
       -1    1    3    3    0  502 -0.25777373620E+01  0.39489899870E+03  0.29047588811E+03  0.49023270547E+03  0.50400001928E-02 0. -1.
</event>
<event>
 5   0  0.1119792E-02  0.8003571E+03  0.7818609E-02  0.9559500E-01
       -2   -1    0    0    0  501  0.00000000000E+00  0.00000000000E+00  0.34637217819E+03  0.34637217820E+03  0.25500000920E-02 0. -1.
        2   -1    0    0  501    0  0.00000000000E+00  0.00000000000E+00 -0.46234338444E+03  0.46234338444E+03  0.25500000920E-02 0.  1.
    10030    2    1    2    0    0  0.00000000000E+00  0.00000000000E+00 -0.11597120625E+03  0.80871556264E+03  0.80035713314E+03 0.  0.
        4    1    3    3  502    0  0.16152360685E+03 -0.33359390793E+03 -0.21044708181E+03  0.42622102027E+03  0.12699999809E+01 0. -1.
       -4    1    3    3    0  502 -0.16152360685E+03  0.33359390793E+03  0.94475875562E+02  0.38249454237E+03  0.12699999809E+01 0.  1.
</event>
<event>
 5   0  0.6551489E-03  0.8065271E+03  0.7818609E-02  0.9550617E-01
       -1   -1    0    0    0  501  0.00000000000E+00  0.00000000000E+00  0.30321581625E+03  0.30321581629E+03  0.50400001928E-02 0.  1.
        1   -1    0    0  501    0  0.00000000000E+00  0.00000000000E+00 -0.53632262657E+03  0.53632262659E+03  0.50400001928E-02 0. -1.
    10030    2    1    2    0    0  0.00000000000E+00  0.00000000000E+00 -0.23310681032E+03  0.83953844289E+03  0.80652713040E+03 0.  0.
        4    1    3    3  502    0 -0.44930404948E+02 -0.34262946243E+03 -0.33292220883E+03  0.47984632941E+03  0.12699999809E+01 0. -1.
       -4    1    3    3    0  502  0.44930404948E+02  0.34262946243E+03  0.99815398514E+02  0.35969211348E+03  0.12699999809E+01 0.  1.
</event>
<event>
 5   0  0.1106332E-02  0.7980573E+03  0.7818609E-02  0.9562833E-01
       -2   -1    0    0    0  501  0.00000000000E+00  0.00000000000E+00  0.26992798485E+03  0.26992798486E+03  0.25500000920E-02 0.  1.
        2   -1    0    0  501    0  0.00000000000E+00  0.00000000000E+00 -0.58987539151E+03  0.58987539152E+03  0.25500000920E-02 0. -1.
    10030    2    1    2    0    0  0.00000000000E+00  0.00000000000E+00 -0.31994740666E+03  0.85980337638E+03  0.79805733065E+03 0.  0.
        1    1    3    3  502    0 -0.13866984289E+02 -0.39805941975E+03 -0.18592649995E+03  0.43955916361E+03  0.50400001928E-02 0.  1.
       -1    1    3    3    0  502  0.13866984289E+02  0.39805941975E+03 -0.13402090671E+03  0.42024421277E+03  0.50400001928E-02 0. -1.
</event>
<event>
 5   0  0.1154714E-02  0.8001852E+03  0.7818609E-02  0.9559749E-01
       -2   -1    0    0    0  501  0.00000000000E+00  0.00000000000E+00  0.11305429876E+03  0.11305429879E+03  0.25500000920E-02 0.  1.
        2   -1    0    0  501    0  0.00000000000E+00  0.00000000000E+00 -0.14159044712E+04  0.14159044712E+04  0.25500000920E-02 0. -1.
    10030    2    1    2    0    0  0.00000000000E+00  0.00000000000E+00 -0.13028501725E+04  0.15289587700E+04  0.80018519638E+03 0.  0.
        5    1    3    3  502    0 -0.30348421942E+03 -0.25765223017E+03 -0.57584377612E+03  0.70007534427E+03  0.46999998093E+01 0.  1.
       -5    1    3    3    0  502  0.30348421942E+03  0.25765223017E+03 -0.72700639635E+03  0.82888342575E+03  0.46999998093E+01 0. -1.
</event>
<event>
 5   0  0.6551489E-03  0.8024614E+03  0.7818609E-02  0.9556461E-01
        1   -1    0    0  501    0  0.00000000000E+00  0.00000000000E+00  0.11324718492E+04  0.11324718492E+04  0.50400001928E-02 0.  1.
       -1   -1    0    0    0  501  0.00000000000E+00  0.00000000000E+00 -0.14215460768E+03  0.14215460777E+03  0.50400001928E-02 0. -1.
    10030    2    1    2    0    0  0.00000000000E+00  0.00000000000E+00  0.99031724153E+03  0.12746264570E+04  0.80246144205E+03 0.  0.
        4    1    3    3  502    0  0.29309481191E+03 -0.81100312439E+02  0.79427593612E+02  0.31431224121E+03  0.12699999809E+01 0. -1.
       -4    1    3    3    0  502 -0.29309481191E+03  0.81100312439E+02  0.91088964792E+03  0.96031421578E+03  0.12699999809E+01 0.  1.
</event>
<event>
 5   0  0.6557679E-03  0.8021927E+03  0.7818609E-02  0.9556849E-01
       -1   -1    0    0    0  501  0.00000000000E+00  0.00000000000E+00  0.14552504361E+03  0.14552504370E+03  0.50400001928E-02 0. -1.
        1   -1    0    0  501    0  0.00000000000E+00  0.00000000000E+00 -0.11055023666E+04  0.11055023666E+04  0.50400001928E-02 0.  1.
    10030    2    1    2    0    0  0.00000000000E+00  0.00000000000E+00 -0.95997732295E+03  0.12510274103E+04  0.80219269547E+03 0.  0.
        1    1    3    3  502    0 -0.16521653612E+03  0.12332698466E+03  0.56564846972E+02  0.21378875296E+03  0.50400001928E-02 0. -1.
       -1    1    3    3    0  502  0.16521653612E+03 -0.12332698466E+03 -0.10165421699E+04  0.10372386573E+04  0.50400001928E-02 0.  1.
</event>
<event>
 5   0  0.6551489E-03  0.7988611E+03  0.7818609E-02  0.9561667E-01
        1   -1    0    0  501    0  0.00000000000E+00  0.00000000000E+00  0.33403646358E+03  0.33403646361E+03  0.50400001928E-02 0.  1.
       -1   -1    0    0    0  501  0.00000000000E+00  0.00000000000E+00 -0.47762680878E+03  0.47762680880E+03  0.50400001928E-02 0. -1.
    10030    2    1    2    0    0  0.00000000000E+00  0.00000000000E+00 -0.14359034520E+03  0.81166327242E+03  0.79886111469E+03 0.  0.
        4    1    3    3  502    0 -0.14441863142E+03 -0.24499155186E+03 -0.35676371436E+03  0.45624506832E+03  0.12699999809E+01 0. -1.
       -4    1    3    3    0  502  0.14441863142E+03  0.24499155186E+03  0.21317336916E+03  0.35541820410E+03  0.12699999809E+01 0.  1.
</event>
<event>
 5   0  0.1119792E-02  0.8039166E+03  0.7818609E-02  0.9554365E-01
        2   -1    0    0  501    0  0.00000000000E+00  0.00000000000E+00  0.86680165290E+03  0.86680165291E+03  0.25500000920E-02 0.  1.
       -2   -1    0    0    0  501  0.00000000000E+00  0.00000000000E+00 -0.18639844320E+03  0.18639844322E+03  0.25500000920E-02 0. -1.
    10030    2    1    2    0    0  0.00000000000E+00  0.00000000000E+00  0.68040320970E+03  0.10532000961E+04  0.80391660929E+03 0.  0.
        4    1    3    3  502    0  0.36060873483E+03 -0.17270831777E+03  0.39425029418E+03  0.56151734615E+03  0.12699999809E+01 0. -1.
       -4    1    3    3    0  502 -0.36060873483E+03  0.17270831777E+03  0.28615291553E+03  0.49168274998E+03  0.12699999809E+01 0.  1.
</event>
<event>
 5   0  0.6557679E-03  0.7975504E+03  0.7818609E-02  0.9563570E-01
       -1   -1    0    0    0  501  0.00000000000E+00  0.00000000000E+00  0.50156875741E+03  0.50156875743E+03  0.50400001928E-02 0.  1.
        1   -1    0    0  501    0  0.00000000000E+00  0.00000000000E+00 -0.31704855817E+03  0.31704855821E+03  0.50400001928E-02 0. -1.
    10030    2    1    2    0    0  0.00000000000E+00  0.00000000000E+00  0.18452019923E+03  0.81861731565E+03  0.79755037806E+03 0.  0.
        1    1    3    3  502    0  0.20323591683E+02  0.39705439422E+03  0.12400288885E+03  0.41646363205E+03  0.50400001928E-02 0.  1.
       -1    1    3    3    0  502 -0.20323591683E+02 -0.39705439422E+03  0.60517310384E+02  0.40215368360E+03  0.50400001928E-02 0. -1.
</event>
<event>
 5   0  0.1106332E-02  0.8018008E+03  0.7818609E-02  0.9557414E-01
       -2   -1    0    0    0  501  0.00000000000E+00  0.00000000000E+00  0.44229962303E+03  0.44229962304E+03  0.25500000920E-02 0. -1.
        2   -1    0    0  501    0  0.00000000000E+00  0.00000000000E+00 -0.36337615421E+03  0.36337615422E+03  0.25500000920E-02 0.  1.
    10030    2    1    2    0    0  0.00000000000E+00  0.00000000000E+00  0.78923468822E+02  0.80567577725E+03  0.80180081324E+03 0.  0.
        1    1    3    3  502    0  0.23620191024E+03 -0.38758706817E+02 -0.28369405889E+03  0.37118175982E+03  0.50400001928E-02 0.  1.
       -1    1    3    3    0  502 -0.23620191024E+03  0.38758706817E+02  0.36261752771E+03  0.43449401743E+03  0.50400001928E-02 0. -1.
</event>
<event>
 5   0  0.6596225E-03  0.8242554E+03  0.7818609E-02  0.9525557E-01
        1   -1    0    0  501    0  0.00000000000E+00  0.00000000000E+00  0.66991128310E+03  0.66991128312E+03  0.50400001928E-02 0. -1.
       -1   -1    0    0    0  501  0.00000000000E+00  0.00000000000E+00 -0.25353988589E+03  0.25353988594E+03  0.50400001928E-02 0.  1.
    10030    2    1    2    0    0  0.00000000000E+00  0.00000000000E+00  0.41637139721E+03  0.92345116906E+03  0.82425537378E+03 0.  0.
        5    1    3    3  502    0 -0.99112127078E+02  0.31551550523E+02 -0.23856189082E+03  0.26029325736E+03  0.46999998093E+01 0.  1.
       -5    1    3    3    0  502  0.99112127078E+02 -0.31551550523E+02  0.65493328803E+03  0.66315791170E+03  0.46999998093E+01 0. -1.
</event>
<event>
 5   0  0.6596225E-03  0.7940252E+03  0.7818609E-02  0.9568706E-01
        1   -1    0    0  501    0  0.00000000000E+00  0.00000000000E+00  0.10030376121E+03  0.10030376134E+03  0.50400001928E-02 0. -1.
       -1   -1    0    0    0  501  0.00000000000E+00  0.00000000000E+00 -0.15714168049E+04  0.15714168049E+04  0.50400001928E-02 0.  1.
    10030    2    1    2    0    0  0.00000000000E+00  0.00000000000E+00 -0.14711130436E+04  0.16717205662E+04  0.79402522899E+03 0.  0.
        5    1    3    3  502    0 -0.61243837730E+02  0.32448154710E+03 -0.27161944536E+03  0.42759594849E+03  0.46999998093E+01 0. -1.
       -5    1    3    3    0  502  0.61243837730E+02 -0.32448154710E+03 -0.11994935983E+04  0.12441246177E+04  0.46999998093E+01 0.  1.
</event>
<event>
 5   0  0.1092868E-02  0.8082681E+03  0.7818609E-02  0.9548126E-01
        2   -1    0    0  501    0  0.00000000000E+00  0.00000000000E+00  0.11807813933E+04  0.11807813934E+04  0.25500000920E-02 0. -1.
       -2   -1    0    0    0  501  0.00000000000E+00  0.00000000000E+00 -0.13831885815E+03  0.13831885817E+03  0.25500000920E-02 0.  1.
    10030    2    1    2    0    0  0.00000000000E+00  0.00000000000E+00  0.10424625352E+04  0.13191002515E+04  0.80826810914E+03 0.  0.
        3    1    3    3  502    0  0.23447755236E+03 -0.32914884908E+03  0.52510585284E+03  0.66261214470E+03  0.10100000352E+00 0. -1.
       -3    1    3    3    0  502 -0.23447755236E+03  0.32914884908E+03  0.51735668236E+03  0.65648810682E+03  0.10100000352E+00 0.  1.
</event>
<event>
 5   0  0.6557679E-03  0.7967246E+03  0.7818609E-02  0.9564770E-01
       -1   -1    0    0    0  501  0.00000000000E+00  0.00000000000E+00  0.20999838640E+03  0.20999838646E+03  0.50400001928E-02 0.  1.
        1   -1    0    0  501    0  0.00000000000E+00  0.00000000000E+00 -0.75568439053E+03  0.75568439055E+03  0.50400001928E-02 0. -1.
    10030    2    1    2    0    0  0.00000000000E+00  0.00000000000E+00 -0.54568600413E+03  0.96568277701E+03  0.79672455135E+03 0.  0.
        1    1    3    3  502    0  0.32826594214E+03  0.10414377556E+03 -0.30163139769E+02  0.34570835943E+03  0.50400001928E-02 0.  1.
       -1    1    3    3    0  502 -0.32826594214E+03 -0.10414377556E+03 -0.51552286436E+03  0.61997441758E+03  0.50400001928E-02 0. -1.
</event>
<event>
 5   0  0.6596225E-03  0.7647219E+03  0.7818609E-02  0.9612533E-01
       -1   -1    0    0    0  501  0.00000000000E+00  0.00000000000E+00  0.58626397749E+03  0.58626397751E+03  0.50400001928E-02 0.  1.
        1   -1    0    0  501    0  0.00000000000E+00  0.00000000000E+00 -0.24937556298E+03  0.24937556303E+03  0.50400001928E-02 0. -1.
    10030    2    1    2    0    0  0.00000000000E+00  0.00000000000E+00  0.33688841451E+03  0.83563954054E+03  0.76472193501E+03 0.  0.
        5    1    3    3  502    0 -0.19369068264E+03  0.20974599438E+03 -0.10943838842E+03  0.30579129084E+03  0.46999998093E+01 0. -1.
       -5    1    3    3    0  502  0.19369068264E+03 -0.20974599438E+03  0.44632680293E+03  0.52984824970E+03  0.46999998093E+01 0.  1.
</event>
<event>
 5   0  0.4385875E-03  0.8001309E+03  0.7818609E-02  0.9559828E-01
        3   -1    0    0  501    0  0.00000000000E+00  0.00000000000E+00  0.54863695339E+03  0.54863696269E+03  0.10100000352E+00 0. -1.
       -3   -1    0    0    0  501  0.00000000000E+00  0.00000000000E+00 -0.29172729008E+03  0.29172730757E+03  0.10100000352E+00 0.  1.
    10030    2    1    2    0    0  0.00000000000E+00  0.00000000000E+00  0.25690966331E+03  0.84036427026E+03  0.80013094655E+03 0.  0.
        4    1    3    3  502    0 -0.65387965716E+01 -0.36054989272E+02 -0.28995896054E+03  0.29226790759E+03  0.12699999809E+01 0.  1.
       -4    1    3    3    0  502  0.65387965716E+01  0.36054989272E+02  0.54686862385E+03  0.54809636266E+03  0.12699999809E+01 0. -1.
</event>
<event>
 5   0  0.1154714E-02  0.8022040E+03  0.7818609E-02  0.9556832E-01
       -2   -1    0    0    0  501  0.00000000000E+00  0.00000000000E+00  0.11487760019E+03  0.11487760022E+03  0.25500000920E-02 0. -1.
        2   -1    0    0  501    0  0.00000000000E+00  0.00000000000E+00 -0.14004716547E+04  0.14004716547E+04  0.25500000920E-02 0.  1.
    10030    2    1    2    0    0  0.00000000000E+00  0.00000000000E+00 -0.12855940545E+04  0.15153492549E+04  0.80220402106E+03 0.  0.
        5    1    3    3  502    0 -0.19143116844E+03  0.10850580418E+03 -0.12762157471E+04  0.12950552594E+04  0.46999998093E+01 0.  1.
       -5    1    3    3    0  502  0.19143116844E+03 -0.10850580418E+03 -0.93783073651E+01  0.22029399547E+03  0.46999998093E+01 0. -1.
</event>
<event>
 5   0  0.6557679E-03  0.7984422E+03  0.7818609E-02  0.9562275E-01
       -1   -1    0    0    0  501  0.00000000000E+00  0.00000000000E+00  0.91102303737E+03  0.91102303739E+03  0.50400001928E-02 0. -1.
        1   -1    0    0  501    0  0.00000000000E+00  0.00000000000E+00 -0.17494343893E+03  0.17494343900E+03  0.50400001928E-02 0.  1.
    10030    2    1    2    0    0  0.00000000000E+00  0.00000000000E+00  0.73607959844E+03  0.10859664764E+04  0.79844224124E+03 0.  0.
        1    1    3    3  502    0  0.12132032963E+02  0.25889144341E+03  0.78104109626E+03  0.82291989876E+03  0.50400001928E-02 0. -1.
       -1    1    3    3    0  502 -0.12132032963E+02 -0.25889144341E+03 -0.44961497820E+02  0.26304657763E+03  0.50400001928E-02 0.  1.
</event>
<event>
 5   0  0.6596225E-03  0.8097326E+03  0.7818609E-02  0.9546035E-01
       -1   -1    0    0    0  501  0.00000000000E+00  0.00000000000E+00  0.10702770502E+03  0.10702770514E+03  0.50400001928E-02 0.  1.
        1   -1    0    0  501    0  0.00000000000E+00  0.00000000000E+00 -0.15315355116E+04  0.15315355116E+04  0.50400001928E-02 0. -1.
    10030    2    1    2    0    0  0.00000000000E+00  0.00000000000E+00 -0.14245078066E+04  0.16385632167E+04  0.80973262517E+03 0.  0.
        5    1    3    3  502    0  0.37820461311E+03  0.12181379457E+03 -0.86922612233E+03  0.95574759831E+03  0.46999998093E+01 0.  1.
       -5    1    3    3    0  502 -0.37820461311E+03 -0.12181379457E+03 -0.55528168423E+03  0.68281561843E+03  0.46999998093E+01 0. -1.
</event>
<event>
 5   0  0.6517392E-03  0.7989622E+03  0.7818609E-02  0.9561520E-01
       -1   -1    0    0    0  501  0.00000000000E+00  0.00000000000E+00  0.41471303485E+03  0.41471303488E+03  0.50400001928E-02 0. -1.
        1   -1    0    0  501    0  0.00000000000E+00  0.00000000000E+00 -0.38480865801E+03  0.38480865805E+03  0.50400001928E-02 0.  1.
    10030    2    1    2    0    0  0.00000000000E+00  0.00000000000E+00  0.29904376833E+02  0.79952169292E+03  0.79896224298E+03 0.  0.
        3    1    3    3  502    0  0.67894926299E+02  0.22947886235E+02  0.40822715839E+03  0.41447044472E+03  0.10100000352E+00 0. -1.
       -3    1    3    3    0  502 -0.67894926299E+02 -0.22947886235E+02 -0.37832278155E+03  0.38505124820E+03  0.10100000352E+00 0.  1.
</event>
<event>
 5   0  0.1119792E-02  0.8006765E+03  0.7818609E-02  0.9559038E-01
       -2   -1    0    0    0  501  0.00000000000E+00  0.00000000000E+00  0.13099836892E+03  0.13099836895E+03  0.25500000920E-02 0.  1.
        2   -1    0    0  501    0  0.00000000000E+00  0.00000000000E+00 -0.12234557973E+04  0.12234557973E+04  0.25500000920E-02 0. -1.
    10030    2    1    2    0    0  0.00000000000E+00  0.00000000000E+00 -0.10924574283E+04  0.13544541662E+04  0.80067649874E+03 0.  0.
        4    1    3    3  502    0 -0.64182862041E+02 -0.37367853890E+03 -0.32884174174E+03  0.50189002204E+03  0.12699999809E+01 0.  1.
       -4    1    3    3    0  502  0.64182862041E+02  0.37367853890E+03 -0.76361568661E+03  0.85256414418E+03  0.12699999809E+01 0. -1.
</event>
<event>
 5   0  0.6600401E-03  0.7961568E+03  0.7818609E-02  0.9565597E-01
       -1   -1    0    0    0  501  0.00000000000E+00  0.00000000000E+00  0.10462728194E+04  0.10462728194E+04  0.50400001928E-02 0. -1.
        1   -1    0    0  501    0  0.00000000000E+00  0.00000000000E+00 -0.15145801999E+03  0.15145802008E+03  0.50400001928E-02 0.  1.
    10030    2    1    2    0    0  0.00000000000E+00  0.00000000000E+00  0.89481479940E+03  0.11977308395E+04  0.79615679274E+03 0.  0.
        2    1    3    3  502    0  0.14470734328E+03  0.34965914477E+03  0.26153948106E+03  0.46000503571E+03  0.25500000920E-02 0.  1.
       -2    1    3    3    0  502 -0.14470734328E+03 -0.34965914477E+03  0.63327531834E+03  0.73772580377E+03  0.25500000920E-02 0. -1.
</event>
<event>
 5   0  0.6596225E-03  0.8024177E+03  0.7818609E-02  0.9556524E-01
        1   -1    0    0  501    0  0.00000000000E+00  0.00000000000E+00  0.47398290696E+03  0.47398290698E+03  0.50400001928E-02 0. -1.
       -1   -1    0    0    0  501  0.00000000000E+00  0.00000000000E+00 -0.33960831808E+03  0.33960831812E+03  0.50400001928E-02 0.  1.
    10030    2    1    2    0    0  0.00000000000E+00  0.00000000000E+00  0.13437458888E+03  0.81359122510E+03  0.80241769137E+03 0.  0.
        5    1    3    3  502    0 -0.13931489226E+03 -0.50411330394E+02  0.44520113644E+03  0.46922924389E+03  0.46999998093E+01 0. -1.
       -5    1    3    3    0  502  0.13931489226E+03  0.50411330394E+02 -0.31082654756E+03  0.34436198121E+03  0.46999998093E+01 0.  1.
</event>
<event>
 5   0  0.1106332E-02  0.7820980E+03  0.7818609E-02  0.9586297E-01
        2   -1    0    0  501    0  0.00000000000E+00  0.00000000000E+00  0.70354232962E+03  0.70354232962E+03  0.25500000920E-02 0.  1.
       -2   -1    0    0    0  501  0.00000000000E+00  0.00000000000E+00 -0.21735627343E+03  0.21735627345E+03  0.25500000920E-02 0. -1.
    10030    2    1    2    0    0  0.00000000000E+00  0.00000000000E+00  0.48618605619E+03  0.92089860307E+03  0.78209804750E+03 0.  0.
        1    1    3    3  502    0  0.35879423221E+03 -0.10172377817E+03  0.38160654406E+03  0.53357715713E+03  0.50400001928E-02 0.  1.
       -1    1    3    3    0  502 -0.35879423221E+03  0.10172377817E+03  0.10457951212E+03  0.38732144595E+03  0.50400001928E-02 0. -1.
</event>
<event>
 5   0  0.1119792E-02  0.7943286E+03  0.7818609E-02  0.9568263E-01
        2   -1    0    0  501    0  0.00000000000E+00  0.00000000000E+00  0.26251032343E+03  0.26251032344E+03  0.25500000920E-02 0. -1.
       -2   -1    0    0    0  501  0.00000000000E+00  0.00000000000E+00 -0.60088867821E+03  0.60088867821E+03  0.25500000920E-02 0.  1.
    10030    2    1    2    0    0  0.00000000000E+00  0.00000000000E+00 -0.33837835478E+03  0.86339900165E+03  0.79432860019E+03 0.  0.
        4    1    3    3  502    0 -0.29998363809E+03  0.86978600413E+02  0.97463607515E+02  0.32719448000E+03  0.12699999809E+01 0. -1.
       -4    1    3    3    0  502  0.29998363809E+03 -0.86978600413E+02 -0.43584196229E+03  0.53620452166E+03  0.12699999809E+01 0.  1.
</event>
<event>
 5   0  0.1119792E-02  0.8019970E+03  0.7818609E-02  0.9557131E-01
        2   -1    0    0  501    0  0.00000000000E+00  0.00000000000E+00  0.66335575901E+03  0.66335575901E+03  0.25500000920E-02 0.  1.
       -2   -1    0    0    0  501  0.00000000000E+00  0.00000000000E+00 -0.24240355102E+03  0.24240355103E+03  0.25500000920E-02 0. -1.
    10030    2    1    2    0    0  0.00000000000E+00  0.00000000000E+00  0.42095220799E+03  0.90575931004E+03  0.80199698648E+03 0.  0.
        4    1    3    3  502    0  0.89601578371E+02 -0.36920318951E+03  0.65586117578E+02  0.38554194287E+03  0.12699999809E+01 0. -1.
       -4    1    3    3    0  502 -0.89601578371E+02  0.36920318951E+03  0.35536609041E+03  0.52021736717E+03  0.12699999809E+01 0.  1.
</event>
<event>
 5   0  0.1121480E-02  0.8041807E+03  0.7818609E-02  0.9553985E-01
        2   -1    0    0  501    0  0.00000000000E+00  0.00000000000E+00  0.13539977759E+04  0.13539977759E+04  0.25500000920E-02 0.  1.
       -2   -1    0    0    0  501  0.00000000000E+00  0.00000000000E+00 -0.11940686731E+03  0.11940686734E+03  0.25500000920E-02 0. -1.
    10030    2    1    2    0    0  0.00000000000E+00  0.00000000000E+00  0.12345909086E+04  0.14734046433E+04  0.80418065829E+03 0.  0.
        2    1    3    3  502    0  0.60439872479E+02 -0.14326686866E+03  0.12966821066E+04  0.13059719980E+04  0.25500000920E-02 0.  1.
       -2    1    3    3    0  502 -0.60439872479E+02  0.14326686866E+03 -0.62091197995E+02  0.16743264531E+03  0.25500000920E-02 0. -1.
</event>
<event>
 5   0  0.1092868E-02  0.7958441E+03  0.7818609E-02  0.9566052E-01
        2   -1    0    0  501    0  0.00000000000E+00  0.00000000000E+00  0.11913485564E+03  0.11913485567E+03  0.25500000920E-02 0. -1.
       -2   -1    0    0    0  501  0.00000000000E+00  0.00000000000E+00 -0.13290984548E+04  0.13290984548E+04  0.25500000920E-02 0.  1.
    10030    2    1    2    0    0  0.00000000000E+00  0.00000000000E+00 -0.12099635992E+04  0.14482333105E+04  0.79584408667E+03 0.  0.
        3    1    3    3  502    0 -0.10166269000E+02  0.34385299300E+03 -0.96894767401E+03  0.10282012639E+04  0.10100000352E+00 0.  1.
       -3    1    3    3    0  502  0.10166269000E+02 -0.34385299300E+03 -0.24101592519E+03  0.42003204666E+03  0.10100000352E+00 0. -1.
</event>
<event>
 5   0  0.6517392E-03  0.8024946E+03  0.7818609E-02  0.9556413E-01
        1   -1    0    0  501    0  0.00000000000E+00  0.00000000000E+00  0.35895672044E+03  0.35895672048E+03  0.50400001928E-02 0.  1.
       -1   -1    0    0    0  501  0.00000000000E+00  0.00000000000E+00 -0.44852032992E+03  0.44852032995E+03  0.50400001928E-02 0. -1.
    10030    2    1    2    0    0  0.00000000000E+00  0.00000000000E+00 -0.89563609477E+02  0.80747705042E+03  0.80249457744E+03 0.  0.
        3    1    3    3  502    0  0.15952421839E+03  0.67197061152E+02 -0.40901818464E+03  0.44413883736E+03  0.10100000352E+00 0. -1.
       -3    1    3    3    0  502 -0.15952421839E+03 -0.67197061152E+02  0.31945457516E+03  0.36333821307E+03  0.10100000352E+00 0.  1.
</event>
<event>
 5   0  0.6551489E-03  0.7813223E+03  0.7818609E-02  0.9587453E-01
        1   -1    0    0  501    0  0.00000000000E+00  0.00000000000E+00  0.87835603982E+03  0.87835603984E+03  0.50400001928E-02 0. -1.
       -1   -1    0    0    0  501  0.00000000000E+00  0.00000000000E+00 -0.17375203978E+03  0.17375203985E+03  0.50400001928E-02 0.  1.
    10030    2    1    2    0    0  0.00000000000E+00  0.00000000000E+00  0.70460400004E+03  0.10521080797E+04  0.78132234992E+03 0.  0.
        4    1    3    3  502    0 -0.14038663894E+03 -0.77932189361E+02  0.83186507658E+03  0.84722072276E+03  0.12699999809E+01 0. -1.
       -4    1    3    3    0  502  0.14038663894E+03  0.77932189361E+02 -0.12726107654E+03  0.20488735694E+03  0.12699999809E+01 0.  1.
</event>
<event>
 5   0  0.1092868E-02  0.8085110E+03  0.7818609E-02  0.9547779E-01
       -2   -1    0    0    0  501  0.00000000000E+00  0.00000000000E+00  0.15781703981E+03  0.15781703984E+03  0.25500000920E-02 0. -1.
        2   -1    0    0  501    0  0.00000000000E+00  0.00000000000E+00 -0.10355187676E+04  0.10355187676E+04  0.25500000920E-02 0.  1.
    10030    2    1    2    0    0  0.00000000000E+00  0.00000000000E+00 -0.87770172781E+03  0.11933358075E+04  0.80851099336E+03 0.  0.
        3    1    3    3  502    0  0.12480351757E+03 -0.16287972273E+03  0.75236785213E+02  0.21855504141E+03  0.10100000352E+00 0. -1.
       -3    1    3    3    0  502 -0.12480351757E+03  0.16287972273E+03 -0.95293851303E+03  0.97478076606E+03  0.10100000352E+00 0.  1.
</event>
<event>
 5   0  0.1121480E-02  0.8099553E+03  0.7818609E-02  0.9545718E-01
       -2   -1    0    0    0  501  0.00000000000E+00  0.00000000000E+00  0.18220917657E+03  0.18220917659E+03  0.25500000920E-02 0. -1.
        2   -1    0    0  501    0  0.00000000000E+00  0.00000000000E+00 -0.90010228117E+03  0.90010228117E+03  0.25500000920E-02 0.  1.
    10030    2    1    2    0    0  0.00000000000E+00  0.00000000000E+00 -0.71789310460E+03  0.10823114578E+04  0.80995529628E+03 0.  0.
        2    1    3    3  502    0 -0.23462901787E+03 -0.27215930455E+03 -0.60852855296E+03  0.70670252784E+03  0.25500000920E-02 0.  1.
       -2    1    3    3    0  502  0.23462901787E+03  0.27215930455E+03 -0.10936455163E+03  0.37560892992E+03  0.25500000920E-02 0. -1.
</event>
<event>
 5   0  0.6557679E-03  0.8012300E+03  0.7818609E-02  0.9558238E-01
        1   -1    0    0  501    0  0.00000000000E+00  0.00000000000E+00  0.17704582197E+04  0.17704582197E+04  0.50400001928E-02 0.  1.
       -1   -1    0    0    0  501  0.00000000000E+00  0.00000000000E+00 -0.90650197227E+02  0.90650197367E+02  0.50400001928E-02 0. -1.
    10030    2    1    2    0    0  0.00000000000E+00  0.00000000000E+00  0.16798080225E+04  0.18611084171E+04  0.80123002174E+03 0.  0.
        1    1    3    3  502    0  0.33537313699E+03 -0.19681598991E+03  0.10636756836E+04  0.11325271012E+04  0.50400001928E-02 0. -1.
       -1    1    3    3    0  502 -0.33537313699E+03  0.19681598991E+03  0.61613233886E+03  0.72858131593E+03  0.50400001928E-02 0.  1.
</event>
<event>
 5   0  0.1106332E-02  0.7996267E+03  0.7818609E-02  0.9560558E-01
        2   -1    0    0  501    0  0.00000000000E+00  0.00000000000E+00  0.26011316169E+03  0.26011316170E+03  0.25500000920E-02 0.  1.
       -2   -1    0    0    0  501  0.00000000000E+00  0.00000000000E+00 -0.61454296368E+03  0.61454296369E+03  0.25500000920E-02 0. -1.
    10030    2    1    2    0    0  0.00000000000E+00  0.00000000000E+00 -0.35442980200E+03  0.87465612538E+03  0.79962669611E+03 0.  0.
        1    1    3    3  502    0  0.38750595935E+03 -0.56363310646E+02 -0.26549063298E+03  0.47309932102E+03  0.50400001928E-02 0. -1.
       -1    1    3    3    0  502 -0.38750595935E+03  0.56363310646E+02 -0.88939169012E+02  0.40155680437E+03  0.50400001928E-02 0.  1.
</event>
<event>
 5   0  0.6600401E-03  0.7996658E+03  0.7818609E-02  0.9560501E-01
        1   -1    0    0  501    0  0.00000000000E+00  0.00000000000E+00  0.12546551922E+04  0.12546551923E+04  0.50400001928E-02 0. -1.
       -1   -1    0    0    0  501  0.00000000000E+00  0.00000000000E+00 -0.12741854330E+03  0.12741854340E+03  0.50400001928E-02 0.  1.
    10030    2    1    2    0    0  0.00000000000E+00  0.00000000000E+00  0.11272366489E+04  0.13820737357E+04  0.79966577273E+03 0.  0.
        2    1    3    3  502    0 -0.82248760077E+02 -0.36055168666E+03  0.30091479024E+03  0.47677257501E+03  0.25500000920E-02 0.  1.
       -2    1    3    3    0  502  0.82248760077E+02  0.36055168666E+03  0.82632185871E+03  0.90530116065E+03  0.25500000920E-02 0. -1.
</event>
<event>
 5   0  0.1154714E-02  0.7955247E+03  0.7818609E-02  0.9566518E-01
        2   -1    0    0  501    0  0.00000000000E+00  0.00000000000E+00  0.13744578765E+04  0.13744578766E+04  0.25500000920E-02 0.  1.
       -2   -1    0    0    0  501  0.00000000000E+00  0.00000000000E+00 -0.11511075363E+03  0.11511075365E+03  0.25500000920E-02 0. -1.
    10030    2    1    2    0    0  0.00000000000E+00  0.00000000000E+00  0.12593471229E+04  0.14895686302E+04  0.79552468729E+03 0.  0.
        5    1    3    3  502    0 -0.28676961974E+03 -0.19320362815E+03  0.99768375832E+03  0.10559163927E+04  0.46999998093E+01 0.  1.
       -5    1    3    3    0  502  0.28676961974E+03  0.19320362815E+03  0.26166336461E+03  0.43365223752E+03  0.46999998093E+01 0. -1.
</event>
<event>
 5   0  0.6600401E-03  0.8000824E+03  0.7818609E-02  0.9559898E-01
        1   -1    0    0  501    0  0.00000000000E+00  0.00000000000E+00  0.13578050168E+03  0.13578050177E+03  0.50400001928E-02 0. -1.
       -1   -1    0    0    0  501  0.00000000000E+00  0.00000000000E+00 -0.11786151217E+04  0.11786151217E+04  0.50400001928E-02 0.  1.
    10030    2    1    2    0    0  0.00000000000E+00  0.00000000000E+00 -0.10428346200E+04  0.13143956235E+04  0.80008237721E+03 0.  0.
        2    1    3    3  502    0  0.37155523677E+02  0.39828639615E+03 -0.51400340085E+03  0.65131565495E+03  0.25500000920E-02 0.  1.
       -2    1    3    3    0  502 -0.37155523677E+02 -0.39828639615E+03 -0.52883121919E+03  0.66307996855E+03  0.25500000920E-02 0. -1.
</event>
<event>
 5   0  0.6557679E-03  0.8034429E+03  0.7818609E-02  0.9555047E-01
       -1   -1    0    0    0  501  0.00000000000E+00  0.00000000000E+00  0.23661009970E+03  0.23661009975E+03  0.50400001928E-02 0.  1.
        1   -1    0    0  501    0  0.00000000000E+00  0.00000000000E+00 -0.68205078695E+03  0.68205078697E+03  0.50400001928E-02 0. -1.
    10030    2    1    2    0    0  0.00000000000E+00  0.00000000000E+00 -0.44544068725E+03  0.91866088672E+03  0.80344285355E+03 0.  0.
        1    1    3    3  502    0  0.30581862052E+03 -0.11087879666E+03 -0.49223670677E+03  0.59001365385E+03  0.50400001928E-02 0. -1.
       -1    1    3    3    0  502 -0.30581862052E+03  0.11087879666E+03  0.46796019521E+02  0.32864723287E+03  0.50400001928E-02 0.  1.
</event>
<event>
 5   0  0.6596225E-03  0.8057217E+03  0.7818609E-02  0.9551772E-01
       -1   -1    0    0    0  501  0.00000000000E+00  0.00000000000E+00  0.16703788332E+03  0.16703788339E+03  0.50400001928E-02 0. -1.
        1   -1    0    0  501    0  0.00000000000E+00  0.00000000000E+00 -0.97161707645E+03  0.97161707646E+03  0.50400001928E-02 0.  1.
    10030    2    1    2    0    0  0.00000000000E+00  0.00000000000E+00 -0.80457919313E+03  0.11386549599E+04  0.80572168866E+03 0.  0.
        5    1    3    3  502    0  0.52926027192E+02 -0.30437892407E+03 -0.36961294924E+02  0.31118470575E+03  0.46999998093E+01 0. -1.
       -5    1    3    3    0  502 -0.52926027192E+02  0.30437892407E+03 -0.76761789821E+03  0.82747025410E+03  0.46999998093E+01 0.  1.
</event>
<event>
 5   0  0.1106332E-02  0.7731878E+03  0.7818609E-02  0.9599659E-01
        2   -1    0    0  501    0  0.00000000000E+00  0.00000000000E+00  0.35099832730E+03  0.35099832731E+03  0.25500000920E-02 0.  1.
       -2   -1    0    0    0  501  0.00000000000E+00  0.00000000000E+00 -0.42579927793E+03  0.42579927794E+03  0.25500000920E-02 0. -1.
    10030    2    1    2    0    0  0.00000000000E+00  0.00000000000E+00 -0.74800950632E+02  0.77679760525E+03  0.77318777622E+03 0.  0.
        1    1    3    3  502    0 -0.36789968638E+03 -0.98546987640E+02  0.29189787848E+02  0.38198655965E+03  0.50400001928E-02 0.  1.
       -1    1    3    3    0  502  0.36789968638E+03  0.98546987640E+02 -0.10399073848E+03  0.39481104560E+03  0.50400001928E-02 0. -1.
</event>
<event>
 5   0  0.6517392E-03  0.7862525E+03  0.7818609E-02  0.9580132E-01
        1   -1    0    0  501    0  0.00000000000E+00  0.00000000000E+00  0.38101150364E+03  0.38101150367E+03  0.50400001928E-02 0.  1.
       -1   -1    0    0    0  501  0.00000000000E+00  0.00000000000E+00 -0.40562621537E+03  0.40562621540E+03  0.50400001928E-02 0. -1.
    10030    2    1    2    0    0  0.00000000000E+00  0.00000000000E+00 -0.24614711727E+02  0.78663771907E+03  0.78625251480E+03 0.  0.
        3    1    3    3  502    0 -0.16091106896E+03  0.29350797844E+03 -0.21858532626E+03  0.39977351160E+03  0.10100000352E+00 0.  1.
       -3    1    3    3    0  502  0.16091106896E+03 -0.29350797844E+03  0.19397061453E+03  0.38686420747E+03  0.10100000352E+00 0. -1.
</event>
<event>
 5   0  0.1121480E-02  0.7937113E+03  0.7818609E-02  0.9569165E-01
       -2   -1    0    0    0  501  0.00000000000E+00  0.00000000000E+00  0.31070009212E+03  0.31070009213E+03  0.25500000920E-02 0. -1.
        2   -1    0    0  501    0  0.00000000000E+00  0.00000000000E+00 -0.50690169473E+03  0.50690169474E+03  0.25500000920E-02 0.  1.
    10030    2    1    2    0    0  0.00000000000E+00  0.00000000000E+00 -0.19620160261E+03  0.81760178687E+03  0.79371129073E+03 0.  0.
        2    1    3    3  502    0  0.10966958574E+03  0.16817950573E+03 -0.45072402456E+03  0.49342062230E+03  0.25500000920E-02 0.  1.
       -2    1    3    3    0  502 -0.10966958574E+03 -0.16817950573E+03  0.25452242195E+03  0.32418116458E+03  0.25500000920E-02 0. -1.
</event>
<event>
 5   0  0.6551489E-03  0.8026450E+03  0.7818609E-02  0.9556196E-01
        1   -1    0    0  501    0  0.00000000000E+00  0.00000000000E+00  0.40722010324E+03  0.40722010327E+03  0.50400001928E-02 0.  1.
       -1   -1    0    0    0  501  0.00000000000E+00  0.00000000000E+00 -0.39551029646E+03  0.39551029650E+03  0.50400001928E-02 0. -1.
    10030    2    1    2    0    0  0.00000000000E+00  0.00000000000E+00  0.11709806779E+02  0.80273039977E+03  0.80264498699E+03 0.  0.
        4    1    3    3  502    0  0.32559871004E+03  0.24056513469E+02 -0.22754708321E+03  0.39796045507E+03  0.12699999809E+01 0. -1.
       -4    1    3    3    0  502 -0.32559871004E+03 -0.24056513469E+02  0.23925688999E+03  0.40476994470E+03  0.12699999809E+01 0.  1.
</event>
<event>
 5   0  0.6596225E-03  0.8045013E+03  0.7818609E-02  0.9553524E-01
        1   -1    0    0  501    0  0.00000000000E+00  0.00000000000E+00  0.80639365486E+03  0.80639365488E+03  0.50400001928E-02 0.  1.
       -1   -1    0    0    0  501  0.00000000000E+00  0.00000000000E+00 -0.20065332906E+03  0.20065332913E+03  0.50400001928E-02 0. -1.
    10030    2    1    2    0    0  0.00000000000E+00  0.00000000000E+00  0.60574032580E+03  0.10070469840E+04  0.80450126519E+03 0.  0.
        5    1    3    3  502    0  0.61467803896E+02 -0.35391175378E+03  0.52940743526E+03  0.63978601336E+03  0.46999998093E+01 0.  1.
       -5    1    3    3    0  502 -0.61467803896E+02  0.35391175378E+03  0.76332890533E+02  0.36726097064E+03  0.46999998093E+01 0. -1.
</event>
<event>
 5   0  0.1154714E-02  0.7970427E+03  0.7818609E-02  0.9564308E-01
       -2   -1    0    0    0  501  0.00000000000E+00  0.00000000000E+00  0.23791722726E+03  0.23791722728E+03  0.25500000920E-02 0.  1.
        2   -1    0    0  501    0  0.00000000000E+00  0.00000000000E+00 -0.66754002182E+03  0.66754002182E+03  0.25500000920E-02 0. -1.
    10030    2    1    2    0    0  0.00000000000E+00  0.00000000000E+00 -0.42962279455E+03  0.90545724910E+03  0.79704271175E+03 0.  0.
        5    1    3    3  502    0 -0.83931272388E+02  0.26385439440E+03  0.11076036833E+03  0.29825081579E+03  0.46999998093E+01 0.  1.
       -5    1    3    3    0  502  0.83931272388E+02 -0.26385439440E+03 -0.54038316288E+03  0.60720643331E+03  0.46999998093E+01 0. -1.
</event>
<event>
 5   0  0.6596225E-03  0.8366635E+03  0.7818609E-02  0.9508414E-01
        1   -1    0    0  501    0  0.00000000000E+00  0.00000000000E+00  0.20346568837E+04  0.20346568837E+04  0.50400001928E-02 0. -1.
       -1   -1    0    0    0  501  0.00000000000E+00  0.00000000000E+00 -0.86010301301E+02  0.86010301449E+02  0.50400001928E-02 0.  1.
    10030    2    1    2    0    0  0.00000000000E+00  0.00000000000E+00  0.19486465824E+04  0.21206671851E+04  0.83666349692E+03 0.  0.
        5    1    3    3  502    0  0.36236116442E+02 -0.41276565435E+03  0.11197264273E+04  0.11939421693E+04  0.46999998093E+01 0.  1.
       -5    1    3    3    0  502 -0.36236116442E+02  0.41276565435E+03  0.82892015502E+03  0.92672501582E+03  0.46999998093E+01 0. -1.
</event>
<event>
 5   0  0.6600401E-03  0.7885058E+03  0.7818609E-02  0.9576805E-01
        1   -1    0    0  501    0  0.00000000000E+00  0.00000000000E+00  0.28402902739E+03  0.28402902744E+03  0.50400001928E-02 0. -1.
       -1   -1    0    0    0  501  0.00000000000E+00  0.00000000000E+00 -0.54725165344E+03  0.54725165346E+03  0.50400001928E-02 0.  1.
    10030    2    1    2    0    0  0.00000000000E+00  0.00000000000E+00 -0.26322262604E+03  0.83128068090E+03  0.78850581454E+03 0.  0.
        2    1    3    3  502    0 -0.19388946101E+02  0.29513264861E+03  0.14321426452E+03  0.32861761529E+03  0.25500000920E-02 0. -1.
       -2    1    3    3    0  502  0.19388946101E+02 -0.29513264861E+03 -0.40643689057E+03  0.50266306561E+03  0.25500000920E-02 0.  1.
</event>
<event>
 5   0  0.1106332E-02  0.8009917E+03  0.7818609E-02  0.9558583E-01
       -2   -1    0    0    0  501  0.00000000000E+00  0.00000000000E+00  0.10292595500E+03  0.10292595503E+03  0.25500000920E-02 0.  1.
        2   -1    0    0  501    0  0.00000000000E+00  0.00000000000E+00 -0.15583720775E+04  0.15583720775E+04  0.25500000920E-02 0. -1.
    10030    2    1    2    0    0  0.00000000000E+00  0.00000000000E+00 -0.14554461225E+04  0.16612980326E+04  0.80099172117E+03 0.  0.
        1    1    3    3  502    0 -0.48115088346E+02  0.18051293076E+03  0.70210543450E+01  0.18694725226E+03  0.50400001928E-02 0.  1.
       -1    1    3    3    0  502  0.48115088346E+02 -0.18051293076E+03 -0.14624671769E+04  0.14743507803E+04  0.50400001928E-02 0. -1.
</event>
<event>
 5   0  0.6551489E-03  0.7983693E+03  0.7818609E-02  0.9562381E-01
        1   -1    0    0  501    0  0.00000000000E+00  0.00000000000E+00  0.18481045322E+03  0.18481045329E+03  0.50400001928E-02 0.  1.
       -1   -1    0    0    0  501  0.00000000000E+00  0.00000000000E+00 -0.86222597874E+03  0.86222597875E+03  0.50400001928E-02 0. -1.
    10030    2    1    2    0    0  0.00000000000E+00  0.00000000000E+00 -0.67741552551E+03  0.10470364320E+04  0.79836927284E+03 0.  0.
        4    1    3    3  502    0  0.80421244767E+02  0.33572483778E+03 -0.60155183055E+03  0.69357404872E+03  0.12699999809E+01 0. -1.
       -4    1    3    3    0  502 -0.80421244767E+02 -0.33572483778E+03 -0.75863694963E+02  0.35346238333E+03  0.12699999809E+01 0.  1.
</event>
<event>
 5   0  0.1106332E-02  0.8037476E+03  0.7818609E-02  0.9554608E-01
       -2   -1    0    0    0  501  0.00000000000E+00  0.00000000000E+00  0.21248357715E+03  0.21248357716E+03  0.25500000920E-02 0.  1.
        2   -1    0    0  501    0  0.00000000000E+00  0.00000000000E+00 -0.76007078346E+03  0.76007078347E+03  0.25500000920E-02 0. -1.
    10030    2    1    2    0    0  0.00000000000E+00  0.00000000000E+00 -0.54758720631E+03  0.97255436063E+03  0.80374761951E+03 0.  0.
        1    1    3    3  502    0 -0.30597369246E+02 -0.69513514948E+02  0.20372052702E+03  0.21741752671E+03  0.50400001928E-02 0.  1.
       -1    1    3    3    0  502  0.30597369246E+02  0.69513514948E+02 -0.75130773333E+03  0.75513683393E+03  0.50400001928E-02 0. -1.
</event>
<event>
 5   0  0.1106332E-02  0.8133674E+03  0.7818609E-02  0.9540867E-01
        2   -1    0    0  501    0  0.00000000000E+00  0.00000000000E+00  0.16750235467E+04  0.16750235467E+04  0.25500000920E-02 0.  1.
       -2   -1    0    0    0  501  0.00000000000E+00  0.00000000000E+00 -0.98739877518E+02  0.98739877551E+02  0.25500000920E-02 0. -1.
    10030    2    1    2    0    0  0.00000000000E+00  0.00000000000E+00  0.15762836692E+04  0.17737634243E+04  0.81336737056E+03 0.  0.
        1    1    3    3  502    0  0.17632738581E+03 -0.66302219571E+02  0.21451871491E+01  0.18839302843E+03  0.50400001928E-02 0. -1.
       -1    1    3    3    0  502 -0.17632738581E+03  0.66302219571E+02  0.15741384820E+04  0.15853703958E+04  0.50400001928E-02 0.  1.
</event>
<event>
 5   0  0.6551489E-03  0.7921892E+03  0.7818609E-02  0.9571392E-01
       -1   -1    0    0    0  501  0.00000000000E+00  0.00000000000E+00  0.21522110819E+03  0.21522110825E+03  0.50400001928E-02 0.  1.
        1   -1    0    0  501    0  0.00000000000E+00  0.00000000000E+00 -0.72897563644E+03  0.72897563645E+03  0.50400001928E-02 0. -1.
    10030    2    1    2    0    0  0.00000000000E+00  0.00000000000E+00 -0.51375452824E+03  0.94419674470E+03  0.79218923081E+03 0.  0.
        4    1    3    3  502    0 -0.76884413057E+01 -0.38671411330E+03 -0.15516548665E+03  0.41675515437E+03  0.12699999809E+01 0.  1.
       -4    1    3    3    0  502  0.76884413057E+01  0.38671411330E+03 -0.35858904160E+03  0.52744159033E+03  0.12699999809E+01 0. -1.
</event>
<event>
 5   0  0.6517392E-03  0.7998071E+03  0.7818609E-02  0.9560296E-01
        1   -1    0    0  501    0  0.00000000000E+00  0.00000000000E+00  0.19577132640E+04  0.19577132640E+04  0.50400001928E-02 0. -1.
       -1   -1    0    0    0  501  0.00000000000E+00  0.00000000000E+00 -0.81688604872E+02  0.81688605028E+02  0.50400001928E-02 0.  1.
    10030    2    1    2    0    0  0.00000000000E+00  0.00000000000E+00  0.18760246591E+04  0.20394018690E+04  0.79980714036E+03 0.  0.
        3    1    3    3  502    0  0.14504938790E+03  0.18068879868E+03  0.17691089717E+04  0.17842181287E+04  0.10100000352E+00 0. -1.
       -3    1    3    3    0  502 -0.14504938790E+03 -0.18068879868E+03  0.10691568742E+03  0.25518374031E+03  0.10100000352E+00 0.  1.
</event>
<event>
 5   0  0.4385875E-03  0.8024561E+03  0.7818609E-02  0.9556469E-01
       -3   -1    0    0    0  501  0.00000000000E+00  0.00000000000E+00  0.59336423267E+03  0.59336424127E+03  0.10100000352E+00 0.  1.
        3   -1    0    0  501    0  0.00000000000E+00  0.00000000000E+00 -0.27130709401E+03  0.27130711281E+03  0.10100000352E+00 0. -1.
    10030    2    1    2    0    0  0.00000000000E+00  0.00000000000E+00  0.32205713866E+03  0.86467135408E+03  0.80245607356E+03 0.  0.
        3    1    3    3  502    0 -0.31883235078E+03  0.82350064286E+02  0.40803556132E+03  0.52433637152E+03  0.10100000352E+00 0. -1.
       -3    1    3    3    0  502  0.31883235078E+03 -0.82350064286E+02 -0.85978422658E+02  0.34033498256E+03  0.10100000352E+00 0.  1.
</event>
<event>
 5   0  0.1119792E-02  0.7989122E+03  0.7818609E-02  0.9561593E-01
       -2   -1    0    0    0  501  0.00000000000E+00  0.00000000000E+00  0.14881963709E+03  0.14881963711E+03  0.25500000920E-02 0.  1.
        2   -1    0    0  501    0  0.00000000000E+00  0.00000000000E+00 -0.10722050862E+04  0.10722050862E+04  0.25500000920E-02 0. -1.
    10030    2    1    2    0    0  0.00000000000E+00  0.00000000000E+00 -0.92338544907E+03  0.12210247233E+04  0.79891218996E+03 0.  0.
        4    1    3    3  502    0 -0.83041573902E+02  0.19207449995E+03 -0.98172809595E+03  0.10037829366E+04  0.12699999809E+01 0. -1.
       -4    1    3    3    0  502  0.83041573902E+02 -0.19207449995E+03  0.58342646888E+02  0.21724178666E+03  0.12699999809E+01 0.  1.
</event>
<event>
 5   0  0.6551489E-03  0.7986053E+03  0.7818609E-02  0.9562038E-01
       -1   -1    0    0    0  501  0.00000000000E+00  0.00000000000E+00  0.10837222600E+03  0.10837222612E+03  0.50400001928E-02 0. -1.
        1   -1    0    0  501    0  0.00000000000E+00  0.00000000000E+00 -0.14712496078E+04  0.14712496078E+04  0.50400001928E-02 0.  1.
    10030    2    1    2    0    0  0.00000000000E+00  0.00000000000E+00 -0.13628773818E+04  0.15796218340E+04  0.79860527196E+03 0.  0.
        4    1    3    3  502    0  0.37117715887E+03 -0.10431484127E+03 -0.88687137462E+03  0.96705559168E+03  0.12699999809E+01 0.  1.
       -4    1    3    3    0  502 -0.37117715887E+03  0.10431484127E+03 -0.47600600721E+03  0.61256624228E+03  0.12699999809E+01 0. -1.
</event>
<event>
 5   0  0.6557679E-03  0.7963082E+03  0.7818609E-02  0.9565376E-01
       -1   -1    0    0    0  501  0.00000000000E+00  0.00000000000E+00  0.45456442415E+03  0.45456442418E+03  0.50400001928E-02 0. -1.
        1   -1    0    0  501    0  0.00000000000E+00  0.00000000000E+00 -0.34874419616E+03  0.34874419620E+03  0.50400001928E-02 0.  1.
    10030    2    1    2    0    0  0.00000000000E+00  0.00000000000E+00  0.10582022799E+03  0.80330862037E+03  0.79630824366E+03 0.  0.
        1    1    3    3  502    0  0.32864961392E+03 -0.47791692870E+01  0.27959265590E+03  0.43151530963E+03  0.50400001928E-02 0. -1.
       -1    1    3    3    0  502 -0.32864961392E+03  0.47791692870E+01 -0.17377242791E+03  0.37179331074E+03  0.50400001928E-02 0.  1.
</event>
<event>
 5   0  0.6596225E-03  0.7985813E+03  0.7818609E-02  0.9562073E-01
        1   -1    0    0  501    0  0.00000000000E+00  0.00000000000E+00  0.81273807738E+03  0.81273807740E+03  0.50400001928E-02 0. -1.
       -1   -1    0    0    0  501  0.00000000000E+00  0.00000000000E+00 -0.19616775527E+03  0.19616775533E+03  0.50400001928E-02 0.  1.
    10030    2    1    2    0    0  0.00000000000E+00  0.00000000000E+00  0.61657032212E+03  0.10089058327E+04  0.79858125273E+03 0.  0.
        5    1    3    3  502    0 -0.35812345381E+03 -0.64320454441E+02  0.51596069086E+03  0.63136918957E+03  0.46999998093E+01 0. -1.
       -5    1    3    3    0  502  0.35812345381E+03  0.64320454441E+02  0.10060963126E+03  0.37753664316E+03  0.46999998093E+01 0.  1.
</event>
<event>
 5   0  0.1119792E-02  0.7984108E+03  0.7818609E-02  0.9562320E-01
       -2   -1    0    0    0  501  0.00000000000E+00  0.00000000000E+00  0.33193641718E+03  0.33193641719E+03  0.25500000920E-02 0.  1.
        2   -1    0    0  501    0  0.00000000000E+00  0.00000000000E+00 -0.48010690373E+03  0.48010690373E+03  0.25500000920E-02 0. -1.
    10030    2    1    2    0    0  0.00000000000E+00  0.00000000000E+00 -0.14817048654E+03  0.81204332092E+03  0.79841083533E+03 0.  0.
        4    1    3    3  502    0  0.31967770555E+03 -0.67262220371E+02  0.15927809230E+03  0.36344073149E+03  0.12699999809E+01 0. -1.
       -4    1    3    3    0  502 -0.31967770555E+03  0.67262220371E+02 -0.30744857884E+03  0.44860258944E+03  0.12699999809E+01 0.  1.
</event>
<event>
 5   0  0.1121480E-02  0.7981677E+03  0.7818609E-02  0.9562673E-01
       -2   -1    0    0    0  501  0.00000000000E+00  0.00000000000E+00  0.91556844936E+02  0.91556844971E+02  0.25500000920E-02 0.  1.
        2   -1    0    0  501    0  0.00000000000E+00  0.00000000000E+00 -0.17395522296E+04  0.17395522296E+04  0.25500000920E-02 0. -1.
    10030    2    1    2    0    0  0.00000000000E+00  0.00000000000E+00 -0.16479953847E+04  0.18311090746E+04  0.79816768609E+03 0.  0.
        2    1    3    3  502    0  0.26313334574E+03 -0.23430369264E+03 -0.39400362856E+03  0.52856053329E+03  0.25500000920E-02 0.  1.
       -2    1    3    3    0  502 -0.26313334574E+03  0.23430369264E+03 -0.12539917561E+04  0.13025485413E+04  0.25500000920E-02 0. -1.
</event>
<event>
 5   0  0.6596225E-03  0.7978620E+03  0.7818609E-02  0.9563117E-01
        1   -1    0    0  501    0  0.00000000000E+00  0.00000000000E+00  0.13032507988E+04  0.13032507988E+04  0.50400001928E-02 0.  1.
       -1   -1    0    0    0  501  0.00000000000E+00  0.00000000000E+00 -0.12211458614E+03  0.12211458625E+03  0.50400001928E-02 0. -1.
    10030    2    1    2    0    0  0.00000000000E+00  0.00000000000E+00  0.11811362127E+04  0.14253653851E+04  0.79786197309E+03 0.  0.
        5    1    3    3  502    0  0.20244328258E+03  0.98822425663E+02  0.24529519641E+01  0.22533810474E+03  0.46999998093E+01 0. -1.
       -5    1    3    3    0  502 -0.20244328258E+03 -0.98822425663E+02  0.11786832607E+04  0.12000272804E+04  0.46999998093E+01 0.  1.
</event>
<event>
 5   0  0.6557679E-03  0.7989316E+03  0.7818609E-02  0.9561565E-01
        1   -1    0    0  501    0  0.00000000000E+00  0.00000000000E+00  0.84779058860E+03  0.84779058862E+03  0.50400001928E-02 0. -1.
       -1   -1    0    0    0  501  0.00000000000E+00  0.00000000000E+00 -0.18822208990E+03  0.18822208997E+03  0.50400001928E-02 0.  1.
    10030    2    1    2    0    0  0.00000000000E+00  0.00000000000E+00  0.65956849870E+03  0.10360126786E+04  0.79893157762E+03 0.  0.
        1    1    3    3  502    0 -0.30982821320E+03 -0.24557515709E+03  0.40396271638E+03  0.56523141786E+03  0.50400001928E-02 0.  1.
       -1    1    3    3    0  502  0.30982821320E+03  0.24557515709E+03  0.25560578232E+03  0.47078126073E+03  0.50400001928E-02 0. -1.
</event>
<event>
 5   0  0.1092868E-02  0.7936292E+03  0.7818609E-02  0.9569285E-01
       -2   -1    0    0    0  501  0.00000000000E+00  0.00000000000E+00  0.16634333343E+03  0.16634333345E+03  0.25500000920E-02 0. -1.
        2   -1    0    0  501    0  0.00000000000E+00  0.00000000000E+00 -0.94660739517E+03  0.94660739518E+03  0.25500000920E-02 0.  1.
    10030    2    1    2    0    0  0.00000000000E+00  0.00000000000E+00 -0.78026406174E+03  0.11129507286E+04  0.79362920706E+03 0.  0.
        3    1    3    3  502    0  0.42425450804E+02  0.43679090413E+02  0.15975257335E+03  0.17096396319E+03  0.10100000352E+00 0. -1.
       -3    1    3    3    0  502 -0.42425450804E+02 -0.43679090413E+02 -0.94001663509E+03  0.94198676544E+03  0.10100000352E+00 0.  1.
</event>
<event>
 5   0  0.1119792E-02  0.7972811E+03  0.7818609E-02  0.9563961E-01
       -2   -1    0    0    0  501  0.00000000000E+00  0.00000000000E+00  0.32730626242E+03  0.32730626243E+03  0.25500000920E-02 0.  1.
        2   -1    0    0  501    0  0.00000000000E+00  0.00000000000E+00 -0.48552167335E+03  0.48552167336E+03  0.25500000920E-02 0. -1.
    10030    2    1    2    0    0  0.00000000000E+00  0.00000000000E+00 -0.15821541094E+03  0.81282793579E+03  0.79728109029E+03 0.  0.
        4    1    3    3  502    0  0.97364844945E+02  0.32472013321E+03  0.13471909198E+03  0.36479298867E+03  0.12699999809E+01 0.  1.
       -4    1    3    3    0  502 -0.97364844945E+02 -0.32472013321E+03 -0.29293450291E+03  0.44803494712E+03  0.12699999809E+01 0. -1.
</event>
<event>
 5   0  0.1119792E-02  0.8166272E+03  0.7818609E-02  0.9536257E-01
        2   -1    0    0  501    0  0.00000000000E+00  0.00000000000E+00  0.23213525072E+04  0.23213525072E+04  0.25500000920E-02 0. -1.
       -2   -1    0    0    0  501  0.00000000000E+00  0.00000000000E+00 -0.71820201027E+02  0.71820201072E+02  0.25500000920E-02 0.  1.
    10030    2    1    2    0    0  0.00000000000E+00  0.00000000000E+00  0.22495323062E+04  0.23931727083E+04  0.81662721918E+03 0.  0.
        4    1    3    3  502    0 -0.69793512309E+02 -0.30979962758E+02  0.23002355846E+04  0.23015030415E+04  0.12699999809E+01 0. -1.
       -4    1    3    3    0  502  0.69793512309E+02  0.30979962758E+02 -0.50703278466E+02  0.91669666739E+02  0.12699999809E+01 0.  1.
</event>
<event>
 5   0  0.6517392E-03  0.8037705E+03  0.7818609E-02  0.9554575E-01
        1   -1    0    0  501    0  0.00000000000E+00  0.00000000000E+00  0.50708545364E+03  0.50708545366E+03  0.50400001928E-02 0. -1.
       -1   -1    0    0    0  501  0.00000000000E+00  0.00000000000E+00 -0.31850995923E+03  0.31850995927E+03  0.50400001928E-02 0.  1.
    10030    2    1    2    0    0  0.00000000000E+00  0.00000000000E+00  0.18857549441E+03  0.82559541294E+03  0.80377053241E+03 0.  0.
        3    1    3    3  502    0  0.24919146056E+03  0.23909371765E+03  0.30541598515E+03  0.46102182597E+03  0.10100000352E+00 0. -1.
       -3    1    3    3    0  502 -0.24919146056E+03 -0.23909371765E+03 -0.11684049074E+03  0.36457358696E+03  0.10100000352E+00 0.  1.
</event>
<event>
 5   0  0.6517392E-03  0.7915644E+03  0.7818609E-02  0.9572308E-01
        1   -1    0    0  501    0  0.00000000000E+00  0.00000000000E+00  0.62229008787E+03  0.62229008789E+03  0.50400001928E-02 0.  1.
       -1   -1    0    0    0  501  0.00000000000E+00  0.00000000000E+00 -0.25172111411E+03  0.25172111417E+03  0.50400001928E-02 0. -1.
    10030    2    1    2    0    0  0.00000000000E+00  0.00000000000E+00  0.37056897376E+03  0.87401120206E+03  0.79156441116E+03 0.  0.
        3    1    3    3  502    0 -0.40923529915E+02 -0.23211272376E+02  0.61919146920E+03  0.62097631532E+03  0.10100000352E+00 0.  1.
       -3    1    3    3    0  502  0.40923529915E+02  0.23211272376E+02 -0.24862249544E+03  0.25303488674E+03  0.10100000352E+00 0. -1.
</event>
<event>
 5   0  0.6557679E-03  0.8002353E+03  0.7818609E-02  0.9559677E-01
       -1   -1    0    0    0  501  0.00000000000E+00  0.00000000000E+00  0.41783905550E+03  0.41783905553E+03  0.50400001928E-02 0.  1.
        1   -1    0    0  501    0  0.00000000000E+00  0.00000000000E+00 -0.38314781356E+03  0.38314781359E+03  0.50400001928E-02 0. -1.
    10030    2    1    2    0    0  0.00000000000E+00  0.00000000000E+00  0.34691241941E+02  0.80098686912E+03  0.80023526681E+03 0.  0.
        1    1    3    3  502    0  0.94394912137E+02  0.38761733857E+03  0.47976977050E+02  0.40182009774E+03  0.50400001928E-02 0. -1.
       -1    1    3    3    0  502 -0.94394912137E+02 -0.38761733857E+03 -0.13285735109E+02  0.39916677138E+03  0.50400001928E-02 0.  1.
</event>
<event>
 5   0  0.4385875E-03  0.8021429E+03  0.7818609E-02  0.9556920E-01
       -4   -1    0    0    0  501  0.00000000000E+00  0.00000000000E+00  0.76128736874E+03  0.76128842806E+03  0.12699999809E+01 0. -1.
        4   -1    0    0  501    0  0.00000000000E+00  0.00000000000E+00 -0.21129465720E+03  0.21129847387E+03  0.12699999809E+01 0.  1.
    10030    2    1    2    0    0  0.00000000000E+00  0.00000000000E+00  0.54999271154E+03  0.97258690194E+03  0.80214294179E+03 0.  0.
        5    1    3    3  502    0  0.14913337164E+03 -0.36302261264E+03  0.37505438810E+03  0.54287573518E+03  0.46999998093E+01 0. -1.
       -5    1    3    3    0  502 -0.14913337164E+03  0.36302261264E+03  0.17493832345E+03  0.42971116675E+03  0.46999998093E+01 0.  1.
</event>
<event>
 5   0  0.1092868E-02  0.8028030E+03  0.7818609E-02  0.9555969E-01
       -2   -1    0    0    0  501  0.00000000000E+00  0.00000000000E+00  0.28905951987E+03  0.28905951988E+03  0.25500000920E-02 0. -1.
        2   -1    0    0  501    0  0.00000000000E+00  0.00000000000E+00 -0.55740475924E+03  0.55740475925E+03  0.25500000920E-02 0.  1.
    10030    2    1    2    0    0  0.00000000000E+00  0.00000000000E+00 -0.26834523937E+03  0.84646427913E+03  0.80280296981E+03 0.  0.
        3    1    3    3  502    0 -0.16670526589E+03  0.36512930090E+03 -0.13035786440E+03  0.42202278975E+03  0.10100000352E+00 0. -1.
       -3    1    3    3    0  502  0.16670526589E+03 -0.36512930090E+03 -0.13798737497E+03  0.42444148938E+03  0.10100000352E+00 0.  1.
</event>
<event>
 5   0  0.1092868E-02  0.7855249E+03  0.7818609E-02  0.9581209E-01
       -2   -1    0    0    0  501  0.00000000000E+00  0.00000000000E+00  0.21855999814E+03  0.21855999816E+03  0.25500000920E-02 0.  1.
        2   -1    0    0  501    0  0.00000000000E+00  0.00000000000E+00 -0.70581240316E+03  0.70581240317E+03  0.25500000920E-02 0. -1.
    10030    2    1    2    0    0  0.00000000000E+00  0.00000000000E+00 -0.48725240502E+03  0.92437240132E+03  0.78552493922E+03 0.  0.
        3    1    3    3  502    0 -0.19619320795E+02  0.38839638248E+03 -0.17889726691E+03  0.42806647846E+03  0.10100000352E+00 0.  1.
       -3    1    3    3    0  502  0.19619320795E+02 -0.38839638248E+03 -0.30835513811E+03  0.49630592287E+03  0.10100000352E+00 0. -1.
</event>
<event>
 5   0  0.4385875E-03  0.7994130E+03  0.7818609E-02  0.9560867E-01
       -3   -1    0    0    0  501  0.00000000000E+00  0.00000000000E+00  0.14023836738E+04  0.14023836774E+04  0.10100000352E+00 0.  1.
        3   -1    0    0  501    0  0.00000000000E+00  0.00000000000E+00 -0.11392405190E+03  0.11392409667E+03  0.10100000352E+00 0. -1.
    10030    2    1    2    0    0  0.00000000000E+00  0.00000000000E+00  0.12884596219E+04  0.15163077741E+04  0.79941295247E+03 0.  0.
        3    1    3    3  502    0  0.43634155488E+02  0.88592296973E+02  0.13788793783E+04  0.13824112575E+04  0.10100000352E+00 0.  1.
       -3    1    3    3    0  502 -0.43634155488E+02 -0.88592296973E+02 -0.90419756445E+02  0.13389651663E+03  0.10100000352E+00 0. -1.
</event>
<event>
 5   0  0.6517392E-03  0.7845480E+03  0.7818609E-02  0.9582656E-01
        1   -1    0    0  501    0  0.00000000000E+00  0.00000000000E+00  0.13207250406E+04  0.13207250406E+04  0.50400001928E-02 0. -1.
       -1   -1    0    0    0  501  0.00000000000E+00  0.00000000000E+00 -0.11651092923E+03  0.11651092934E+03  0.50400001928E-02 0.  1.
    10030    2    1    2    0    0  0.00000000000E+00  0.00000000000E+00  0.12042141113E+04  0.14372359699E+04  0.78454802738E+03 0.  0.
        3    1    3    3  502    0  0.20456043423E+03  0.11966297410E+03  0.11747560192E+04  0.11984222600E+04  0.10100000352E+00 0. -1.
       -3    1    3    3    0  502 -0.20456043423E+03 -0.11966297410E+03  0.29458092171E+02  0.23881370986E+03  0.10100000352E+00 0.  1.
</event>
<event>
 5   0  0.1121480E-02  0.7924950E+03  0.7818609E-02  0.9570944E-01
       -2   -1    0    0    0  501  0.00000000000E+00  0.00000000000E+00  0.11777985452E+03  0.11777985455E+03  0.25500000920E-02 0.  1.
        2   -1    0    0  501    0  0.00000000000E+00  0.00000000000E+00 -0.13330979993E+04  0.13330979993E+04  0.25500000920E-02 0. -1.
    10030    2    1    2    0    0  0.00000000000E+00  0.00000000000E+00 -0.12153181448E+04  0.14508778538E+04  0.79249501813E+03 0.  0.
        2    1    3    3  502    0 -0.12652219151E+03 -0.11860146951E+03  0.44614812599E+02  0.17906606329E+03  0.25500000920E-02 0.  1.
       -2    1    3    3    0  502  0.12652219151E+03  0.11860146951E+03 -0.12599329574E+04  0.12718117906E+04  0.25500000920E-02 0. -1.
</event>
<event>
 5   0  0.1106332E-02  0.7969696E+03  0.7818609E-02  0.9564414E-01
        2   -1    0    0  501    0  0.00000000000E+00  0.00000000000E+00  0.29894801924E+03  0.29894801925E+03  0.25500000920E-02 0.  1.
       -2   -1    0    0    0  501  0.00000000000E+00  0.00000000000E+00 -0.53116306507E+03  0.53116306507E+03  0.25500000920E-02 0. -1.
    10030    2    1    2    0    0  0.00000000000E+00  0.00000000000E+00 -0.23221504582E+03  0.83011108433E+03  0.79696962603E+03 0.  0.
        1    1    3    3  502    0 -0.38385162396E+02  0.37386773869E+03 -0.25405214503E+03  0.45364413272E+03  0.50400001928E-02 0. -1.
       -1    1    3    3    0  502  0.38385162396E+02 -0.37386773869E+03  0.21837099210E+02  0.37646695161E+03  0.50400001928E-02 0.  1.
</event>
<event>
 5   0  0.1119792E-02  0.7950810E+03  0.7818609E-02  0.9567165E-01
        2   -1    0    0  501    0  0.00000000000E+00  0.00000000000E+00  0.12842502706E+04  0.12842502706E+04  0.25500000920E-02 0. -1.
       -2   -1    0    0    0  501  0.00000000000E+00  0.00000000000E+00 -0.12305891801E+03  0.12305891804E+03  0.25500000920E-02 0.  1.
    10030    2    1    2    0    0  0.00000000000E+00  0.00000000000E+00  0.11611913525E+04  0.14073091886E+04  0.79508099906E+03 0.  0.
        4    1    3    3  502    0  0.15707444307E+02  0.23445820762E+03  0.11481609426E+04  0.11719609797E+04  0.12699999809E+01 0.  1.
       -4    1    3    3    0  502 -0.15707444307E+02 -0.23445820762E+03  0.13030409906E+02  0.23534820885E+03  0.12699999809E+01 0. -1.
</event>
<event>
 5   0  0.4385875E-03  0.8003108E+03  0.7818609E-02  0.9559567E-01
        3   -1    0    0  501    0  0.00000000000E+00  0.00000000000E+00  0.22042701807E+03  0.22042704121E+03  0.10100000352E+00 0.  1.
       -3   -1    0    0    0  501  0.00000000000E+00  0.00000000000E+00 -0.72642792276E+03  0.72642792979E+03  0.10100000352E+00 0. -1.
    10030    2    1    2    0    0  0.00000000000E+00  0.00000000000E+00 -0.50600090470E+03  0.94685497099E+03  0.80031082745E+03 0.  0.
        5    1    3    3  502    0 -0.17094989561E+03 -0.19247953090E+03 -0.61540671599E+03  0.66709800832E+03  0.46999998093E+01 0. -1.
       -5    1    3    3    0  502  0.17094989561E+03  0.19247953090E+03  0.10940581129E+03  0.27975696267E+03  0.46999998093E+01 0.  1.
</event>
<event>
 5   0  0.6596225E-03  0.7993249E+03  0.7818609E-02  0.9560995E-01
       -1   -1    0    0    0  501  0.00000000000E+00  0.00000000000E+00  0.33590845997E+03  0.33590846000E+03  0.50400001928E-02 0. -1.
        1   -1    0    0  501    0  0.00000000000E+00  0.00000000000E+00 -0.47551668552E+03  0.47551668554E+03  0.50400001928E-02 0.  1.
    10030    2    1    2    0    0  0.00000000000E+00  0.00000000000E+00 -0.13960822555E+03  0.81142514555E+03  0.79932490902E+03 0.  0.
        5    1    3    3  502    0  0.17508493288E+03  0.19606448179E+03  0.23577094895E+03  0.35313743091E+03  0.46999998093E+01 0. -1.
       -5    1    3    3    0  502 -0.17508493288E+03 -0.19606448179E+03 -0.37537917450E+03  0.45828771464E+03  0.46999998093E+01 0.  1.
</event>
<event>
 5   0  0.1106332E-02  0.8024469E+03  0.7818609E-02  0.9556482E-01
        2   -1    0    0  501    0  0.00000000000E+00  0.00000000000E+00  0.16529421423E+03  0.16529421425E+03  0.25500000920E-02 0. -1.
       -2   -1    0    0    0  501  0.00000000000E+00  0.00000000000E+00 -0.97390132455E+03  0.97390132455E+03  0.25500000920E-02 0.  1.
    10030    2    1    2    0    0  0.00000000000E+00  0.00000000000E+00 -0.80860711031E+03  0.11391955388E+04  0.80244689343E+03 0.  0.
        1    1    3    3  502    0  0.16963108083E+03 -0.93675500977E+02  0.94458187395E+02  0.21557400645E+03  0.50400001928E-02 0. -1.
       -1    1    3    3    0  502 -0.16963108083E+03  0.93675500977E+02 -0.90306529771E+03  0.92362153235E+03  0.50400001928E-02 0.  1.
</event>
<event>
 5   0  0.1092868E-02  0.7985846E+03  0.7818609E-02  0.9562068E-01
       -2   -1    0    0    0  501  0.00000000000E+00  0.00000000000E+00  0.33324807137E+03  0.33324807138E+03  0.25500000920E-02 0.  1.
        2   -1    0    0  501    0  0.00000000000E+00  0.00000000000E+00 -0.47842536662E+03  0.47842536662E+03  0.25500000920E-02 0. -1.
    10030    2    1    2    0    0  0.00000000000E+00  0.00000000000E+00 -0.14517729524E+03  0.81167343801E+03  0.79858457468E+03 0.  0.
        3    1    3    3  502    0  0.36904925669E+03  0.66887972957E+02  0.66634407440E+02  0.38093504596E+03  0.10100000352E+00 0. -1.
       -3    1    3    3    0  502 -0.36904925669E+03 -0.66887972957E+02 -0.21181170268E+03  0.43073839204E+03  0.10100000352E+00 0.  1.
</event>
<event>
 5   0  0.6551489E-03  0.7993124E+03  0.7818609E-02  0.9561013E-01
       -1   -1    0    0    0  501  0.00000000000E+00  0.00000000000E+00  0.83716015489E+03  0.83716015490E+03  0.50400001928E-02 0.  1.
        1   -1    0    0  501    0  0.00000000000E+00  0.00000000000E+00 -0.19079394450E+03  0.19079394457E+03  0.50400001928E-02 0. -1.
    10030    2    1    2    0    0  0.00000000000E+00  0.00000000000E+00  0.64636621038E+03  0.10279540995E+04  0.79931242496E+03 0.  0.
        4    1    3    3  502    0  0.49638050797E+02 -0.18819787286E+03 -0.12572150360E+03  0.23171077835E+03  0.12699999809E+01 0. -1.
       -4    1    3    3    0  502 -0.49638050797E+02  0.18819787286E+03  0.77208771399E+03  0.79624332112E+03  0.12699999809E+01 0.  1.
</event>
<event>
 5   0  0.1154714E-02  0.7856196E+03  0.7818609E-02  0.9581069E-01
        2   -1    0    0  501    0  0.00000000000E+00  0.00000000000E+00  0.49358190369E+03  0.49358190370E+03  0.25500000920E-02 0.  1.
       -2   -1    0    0    0  501  0.00000000000E+00  0.00000000000E+00 -0.31261182363E+03  0.31261182364E+03  0.25500000920E-02 0. -1.
    10030    2    1    2    0    0  0.00000000000E+00  0.00000000000E+00  0.18097008007E+03  0.80619372733E+03  0.78561960013E+03 0.  0.
        5    1    3    3  502    0 -0.73575306399E+02  0.35004181680E+03 -0.76044977477E+02  0.36571509105E+03  0.46999998093E+01 0. -1.
       -5    1    3    3    0  502  0.73575306399E+02 -0.35004181680E+03  0.25701505754E+03  0.44047863629E+03  0.46999998093E+01 0.  1.
</event>
<event>
 5   0  0.1121480E-02  0.8041067E+03  0.7818609E-02  0.9554092E-01
        2   -1    0    0  501    0  0.00000000000E+00  0.00000000000E+00  0.23613237245E+03  0.23613237246E+03  0.25500000920E-02 0. -1.
       -2   -1    0    0    0  501  0.00000000000E+00  0.00000000000E+00 -0.68456042486E+03  0.68456042487E+03  0.25500000920E-02 0.  1.
    10030    2    1    2    0    0  0.00000000000E+00  0.00000000000E+00 -0.44842805242E+03  0.92069279733E+03  0.80410665266E+03 0.  0.
        2    1    3    3  502    0  0.31706084253E+03  0.11924669307E+03  0.23748079071E+02  0.33957520955E+03  0.25500000920E-02 0. -1.
       -2    1    3    3    0  502 -0.31706084253E+03 -0.11924669307E+03 -0.47217613149E+03  0.58111758778E+03  0.25500000920E-02 0.  1.
</event>
<event>
 5   0  0.1121480E-02  0.7863240E+03  0.7818609E-02  0.9580026E-01
       -2   -1    0    0    0  501  0.00000000000E+00  0.00000000000E+00  0.16329567339E+03  0.16329567341E+03  0.25500000920E-02 0. -1.
        2   -1    0    0  501    0  0.00000000000E+00  0.00000000000E+00 -0.94660401395E+03  0.94660401395E+03  0.25500000920E-02 0.  1.
    10030    2    1    2    0    0  0.00000000000E+00  0.00000000000E+00 -0.78330834056E+03  0.11098996874E+04  0.78632395336E+03 0.  0.
        2    1    3    3  502    0  0.80450553043E+02  0.35487314703E+03 -0.60181715828E+03  0.70327173552E+03  0.25500000920E-02 0. -1.
       -2    1    3    3    0  502 -0.80450553043E+02 -0.35487314703E+03 -0.18149118227E+03  0.40662795184E+03  0.25500000920E-02 0.  1.
</event>
<event>
 5   0  0.6517392E-03  0.7984222E+03  0.7818609E-02  0.9562304E-01
        1   -1    0    0  501    0  0.00000000000E+00  0.00000000000E+00  0.58849214663E+03  0.58849214665E+03  0.50400001928E-02 0.  1.
       -1   -1    0    0    0  501  0.00000000000E+00  0.00000000000E+00 -0.27080991787E+03  0.27080991792E+03  0.50400001928E-02 0. -1.
    10030    2    1    2    0    0  0.00000000000E+00  0.00000000000E+00  0.31768222876E+03  0.85930206457E+03  0.79842221895E+03 0.  0.
        3    1    3    3  502    0 -0.16137885589E+02  0.18633719432E+03  0.53841964714E+03  0.56998044524E+03  0.10100000352E+00 0.  1.
       -3    1    3    3    0  502  0.16137885589E+02 -0.18633719432E+03 -0.22073741838E+03  0.28932161933E+03  0.10100000352E+00 0. -1.
</event>
<event>
 5   0  0.6600401E-03  0.7952519E+03  0.7818609E-02  0.9566915E-01
        1   -1    0    0  501    0  0.00000000000E+00  0.00000000000E+00  0.14567845595E+04  0.14567845595E+04  0.50400001928E-02 0.  1.
       -1   -1    0    0    0  501  0.00000000000E+00  0.00000000000E+00 -0.10853108188E+03  0.10853108200E+03  0.50400001928E-02 0. -1.
    10030    2    1    2    0    0  0.00000000000E+00  0.00000000000E+00  0.13482534776E+04  0.15653156415E+04  0.79525192086E+03 0.  0.
        2    1    3    3  502    0  0.21089333393E+03 -0.19155235648E+03  0.12200956695E+04  0.12529172942E+04  0.25500000920E-02 0.  1.
       -2    1    3    3    0  502 -0.21089333393E+03  0.19155235648E+03  0.12815780813E+03  0.31239834724E+03  0.25500000920E-02 0. -1.
</event>
<event>
 5   0  0.1106332E-02  0.8447848E+03  0.7818609E-02  0.9497363E-01
       -2   -1    0    0    0  501  0.00000000000E+00  0.00000000000E+00  0.16390363559E+03  0.16390363560E+03  0.25500000920E-02 0.  1.
        2   -1    0    0  501    0  0.00000000000E+00  0.00000000000E+00 -0.10885381457E+04  0.10885381457E+04  0.25500000920E-02 0. -1.
    10030    2    1    2    0    0  0.00000000000E+00  0.00000000000E+00 -0.92463451015E+03  0.12524417813E+04  0.84478484734E+03 0.  0.
        1    1    3    3  502    0 -0.40234325873E+01  0.12907657731E+03  0.13391849793E+03  0.18604062710E+03  0.50400001928E-02 0.  1.
       -1    1    3    3    0  502  0.40234325873E+01 -0.12907657731E+03 -0.10585530081E+04  0.10664011542E+04  0.50400001928E-02 0. -1.
</event>
<event>
 5   0  0.4385875E-03  0.7999538E+03  0.7818609E-02  0.9560084E-01
        4   -1    0    0  501    0  0.00000000000E+00  0.00000000000E+00  0.12697150190E+03  0.12697785316E+03  0.12699999809E+01 0.  1.
       -4   -1    0    0    0  501  0.00000000000E+00  0.00000000000E+00 -0.12599416753E+04  0.12599423154E+04  0.12699999809E+01 0. -1.
    10030    2    1    2    0    0  0.00000000000E+00  0.00000000000E+00 -0.11329701734E+04  0.13869201685E+04  0.79995383621E+03 0.  0.
        3    1    3    3  502    0 -0.26803146704E+03 -0.29684623271E+03 -0.55817544506E+03  0.68667196744E+03  0.10100000352E+00 0.  1.
       -3    1    3    3    0  502  0.26803146704E+03  0.29684623271E+03 -0.57479472833E+03  0.70024820108E+03  0.10100000352E+00 0. -1.
</event>
<event>
 5   0  0.6596225E-03  0.8005021E+03  0.7818609E-02  0.9559291E-01
       -1   -1    0    0    0  501  0.00000000000E+00  0.00000000000E+00  0.26992125601E+03  0.26992125605E+03  0.50400001928E-02 0.  1.
        1   -1    0    0  501    0  0.00000000000E+00  0.00000000000E+00 -0.59350981565E+03  0.59350981567E+03  0.50400001928E-02 0. -1.
    10030    2    1    2    0    0  0.00000000000E+00  0.00000000000E+00 -0.32358855964E+03  0.86343107172E+03  0.80050212972E+03 0.  0.
        5    1    3    3  502    0  0.80879935303E+02  0.25623286362E+02  0.26008045297E+03  0.27360929947E+03  0.46999998093E+01 0.  1.
       -5    1    3    3    0  502 -0.80879935303E+02 -0.25623286362E+02 -0.58366901262E+03  0.58982177226E+03  0.46999998093E+01 0. -1.
</event>
<event>
 5   0  0.1154714E-02  0.8196555E+03  0.7818609E-02  0.9531994E-01
       -2   -1    0    0    0  501  0.00000000000E+00  0.00000000000E+00  0.11041911630E+03  0.11041911633E+03  0.25500000920E-02 0. -1.
        2   -1    0    0  501    0  0.00000000000E+00  0.00000000000E+00 -0.15211022649E+04  0.15211022649E+04  0.25500000920E-02 0.  1.
    10030    2    1    2    0    0  0.00000000000E+00  0.00000000000E+00 -0.14106831486E+04  0.16315213812E+04  0.81965545913E+03 0.  0.
        5    1    3    3  502    0 -0.26174898469E+03 -0.31413200117E+03 -0.65100310420E+03  0.76877732591E+03  0.46999998093E+01 0. -1.
       -5    1    3    3    0  502  0.26174898469E+03  0.31413200117E+03 -0.75968004439E+03  0.86274405532E+03  0.46999998093E+01 0.  1.
</event>
<event>
 5   0  0.4385875E-03  0.7959275E+03  0.7818609E-02  0.9565931E-01
        4   -1    0    0  501    0  0.00000000000E+00  0.00000000000E+00  0.11473619209E+04  0.11473626238E+04  0.12699999809E+01 0.  1.
       -4   -1    0    0    0  501  0.00000000000E+00  0.00000000000E+00 -0.13803049032E+03  0.13803633275E+03  0.12699999809E+01 0. -1.
    10030    2    1    2    0    0  0.00000000000E+00  0.00000000000E+00  0.10093314306E+04  0.12853989565E+04  0.79592747199E+03 0.  0.
        5    1    3    3  502    0 -0.31909959693E+03  0.84189836972E+02  0.86375806699E+03  0.92466889734E+03  0.46999998093E+01 0.  1.
       -5    1    3    3    0  502  0.31909959693E+03 -0.84189836972E+02  0.14557336358E+03  0.36073005918E+03  0.46999998093E+01 0. -1.
</event>
<event>
 5   0  0.6517392E-03  0.7391924E+03  0.7818609E-02  0.9652460E-01
        1   -1    0    0  501    0  0.00000000000E+00  0.00000000000E+00  0.22060078096E+04  0.22060078096E+04  0.50400001928E-02 0.  1.
       -1   -1    0    0    0  501  0.00000000000E+00  0.00000000000E+00 -0.61922430234E+02  0.61922430439E+02  0.50400001928E-02 0. -1.
    10030    2    1    2    0    0  0.00000000000E+00  0.00000000000E+00  0.21440853793E+04  0.22679302400E+04  0.73919243752E+03 0.  0.
        3    1    3    3  502    0  0.15616529715E+03 -0.28300137351E+03  0.16219466302E+04  0.16538404575E+04  0.10100000352E+00 0.  1.
       -3    1    3    3    0  502 -0.15616529715E+03  0.28300137351E+03  0.52213874916E+03  0.61408978254E+03  0.10100000352E+00 0. -1.
</event>
<event>
 5   0  0.6517392E-03  0.7965165E+03  0.7818609E-02  0.9565073E-01
        1   -1    0    0  501    0  0.00000000000E+00  0.00000000000E+00  0.86845392672E+03  0.86845392673E+03  0.50400001928E-02 0. -1.
       -1   -1    0    0    0  501  0.00000000000E+00  0.00000000000E+00 -0.18263450300E+03  0.18263450307E+03  0.50400001928E-02 0.  1.
    10030    2    1    2    0    0  0.00000000000E+00  0.00000000000E+00  0.68581942372E+03  0.10510884298E+04  0.79651654429E+03 0.  0.
        3    1    3    3  502    0 -0.22682420543E+03 -0.20372284696E+03  0.47776367520E+01  0.30491811122E+03  0.10100000352E+00 0.  1.
       -3    1    3    3    0  502  0.22682420543E+03  0.20372284696E+03  0.68104178696E+03  0.74617031858E+03  0.10100000352E+00 0. -1.
</event>
<event>
 5   0  0.1121480E-02  0.7922108E+03  0.7818609E-02  0.9571361E-01
        2   -1    0    0  501    0  0.00000000000E+00  0.00000000000E+00  0.39210349833E+03  0.39210349834E+03  0.25500000920E-02 0. -1.
       -2   -1    0    0    0  501  0.00000000000E+00  0.00000000000E+00 -0.40014811014E+03  0.40014811014E+03  0.25500000920E-02 0.  1.
    10030    2    1    2    0    0  0.00000000000E+00  0.00000000000E+00 -0.80446118091E+01  0.79225160848E+03  0.79221076448E+03 0.  0.
        2    1    3    3  502    0 -0.73161326776E+01  0.19126711649E+02 -0.39961837848E+03  0.40014273119E+03  0.25500000920E-02 0.  1.
       -2    1    3    3    0  502  0.73161326776E+01 -0.19126711649E+02  0.39157376667E+03  0.39210887729E+03  0.25500000920E-02 0. -1.
</event>
<event>
 5   0  0.1106332E-02  0.7985219E+03  0.7818609E-02  0.9562159E-01
        2   -1    0    0  501    0  0.00000000000E+00  0.00000000000E+00  0.40053628259E+03  0.40053628259E+03  0.25500000920E-02 0.  1.
       -2   -1    0    0    0  501  0.00000000000E+00  0.00000000000E+00 -0.39798971283E+03  0.39798971284E+03  0.25500000920E-02 0. -1.
    10030    2    1    2    0    0  0.00000000000E+00  0.00000000000E+00  0.25465697535E+01  0.79852599543E+03  0.79852193481E+03 0.  0.
        1    1    3    3  502    0  0.70699449121E+02  0.33092159679E+03  0.21317482193E+03  0.39993877039E+03  0.50400001928E-02 0.  1.
       -1    1    3    3    0  502 -0.70699449121E+02 -0.33092159679E+03 -0.21062825218E+03  0.39858722505E+03  0.50400001928E-02 0. -1.
</event>
<event>
 5   0  0.6557679E-03  0.8024662E+03  0.7818609E-02  0.9556454E-01
       -1   -1    0    0    0  501  0.00000000000E+00  0.00000000000E+00  0.33010491455E+03  0.33010491459E+03  0.50400001928E-02 0.  1.
        1   -1    0    0  501    0  0.00000000000E+00  0.00000000000E+00 -0.48768735238E+03  0.48768735241E+03  0.50400001928E-02 0. -1.
    10030    2    1    2    0    0  0.00000000000E+00  0.00000000000E+00 -0.15758243783E+03  0.81779226700E+03  0.80246617826E+03 0.  0.
        1    1    3    3  502    0 -0.88583074203E+02  0.37300809512E+03  0.41815970016E+02  0.38565603254E+03  0.50400001928E-02 0. -1.
       -1    1    3    3    0  502  0.88583074203E+02 -0.37300809512E+03 -0.19939840785E+03  0.43213623446E+03  0.50400001928E-02 0.  1.
</event>
<event>
 5   0  0.1106332E-02  0.7984917E+03  0.7818609E-02  0.9562203E-01
       -2   -1    0    0    0  501  0.00000000000E+00  0.00000000000E+00  0.12999840818E+03  0.12999840821E+03  0.25500000920E-02 0. -1.
        2   -1    0    0  501    0  0.00000000000E+00  0.00000000000E+00 -0.12261475796E+04  0.12261475796E+04  0.25500000920E-02 0.  1.
    10030    2    1    2    0    0  0.00000000000E+00  0.00000000000E+00 -0.10961491714E+04  0.13561459878E+04  0.79849166198E+03 0.  0.
        1    1    3    3  502    0 -0.14226844604E+03 -0.62222280551E+02 -0.11727600197E+04  0.11829953452E+04  0.50400001928E-02 0.  1.
       -1    1    3    3    0  502  0.14226844604E+03  0.62222280551E+02  0.76610848285E+02  0.17315064261E+03  0.50400001928E-02 0. -1.
</event>
<event>
 5   0  0.1106332E-02  0.8073209E+03  0.7818609E-02  0.9549480E-01
       -2   -1    0    0    0  501  0.00000000000E+00  0.00000000000E+00  0.18044140747E+03  0.18044140749E+03  0.25500000920E-02 0. -1.
        2   -1    0    0  501    0  0.00000000000E+00  0.00000000000E+00 -0.90301751265E+03  0.90301751265E+03  0.25500000920E-02 0.  1.
    10030    2    1    2    0    0  0.00000000000E+00  0.00000000000E+00 -0.72257610518E+03  0.10834589201E+04  0.80732088036E+03 0.  0.
        1    1    3    3  502    0 -0.23391674617E+03  0.24939808894E+03 -0.64920324277E+03  0.73374471130E+03  0.50400001928E-02 0.  1.
       -1    1    3    3    0  502  0.23391674617E+03 -0.24939808894E+03 -0.73372862408E+02  0.34971420885E+03  0.50400001928E-02 0. -1.
</event>
<event>
 5   0  0.1154714E-02  0.8016193E+03  0.7818609E-02  0.9557676E-01
        2   -1    0    0  501    0  0.00000000000E+00  0.00000000000E+00  0.11358567934E+04  0.11358567934E+04  0.25500000920E-02 0. -1.
       -2   -1    0    0    0  501  0.00000000000E+00  0.00000000000E+00 -0.14143367031E+03  0.14143367033E+03  0.25500000920E-02 0.  1.
    10030    2    1    2    0    0  0.00000000000E+00  0.00000000000E+00  0.99442312309E+03  0.12772904637E+04  0.80161934920E+03 0.  0.
        5    1    3    3  502    0  0.14819979752E+03 -0.29133924508E+03  0.86674209319E+03  0.92633993858E+03  0.46999998093E+01 0. -1.
       -5    1    3    3    0  502 -0.14819979752E+03  0.29133924508E+03  0.12768102990E+03  0.35095052515E+03  0.46999998093E+01 0.  1.
</event>
<event>
 5   0  0.1092868E-02  0.7835110E+03  0.7818609E-02  0.9584196E-01
       -2   -1    0    0    0  501  0.00000000000E+00  0.00000000000E+00  0.34667536663E+03  0.34667536664E+03  0.25500000920E-02 0. -1.
        2   -1    0    0  501    0  0.00000000000E+00  0.00000000000E+00 -0.44269770020E+03  0.44269770021E+03  0.25500000920E-02 0.  1.
    10030    2    1    2    0    0  0.00000000000E+00  0.00000000000E+00 -0.96022333577E+02  0.78937306685E+03  0.78351104020E+03 0.  0.
        3    1    3    3  502    0  0.18038510386E+03  0.24946324960E+03 -0.29210816831E+03  0.42437941844E+03  0.10100000352E+00 0. -1.
       -3    1    3    3    0  502 -0.18038510386E+03 -0.24946324960E+03  0.19608583474E+03  0.36499364841E+03  0.10100000352E+00 0.  1.
</event>
<event>
 5   0  0.6551489E-03  0.8322582E+03  0.7818609E-02  0.9514464E-01
        1   -1    0    0  501    0  0.00000000000E+00  0.00000000000E+00  0.21803572599E+03  0.21803572605E+03  0.50400001928E-02 0.  1.
       -1   -1    0    0    0  501  0.00000000000E+00  0.00000000000E+00 -0.79419747738E+03  0.79419747740E+03  0.50400001928E-02 0. -1.
    10030    2    1    2    0    0  0.00000000000E+00  0.00000000000E+00 -0.57616175139E+03  0.10122332035E+04  0.83225818975E+03 0.  0.
        4    1    3    3  502    0 -0.13126819512E+03  0.30353695444E+03  0.19117211954E+02  0.33125987148E+03  0.12699999809E+01 0.  1.
       -4    1    3    3    0  502  0.13126819512E+03 -0.30353695444E+03 -0.59527896334E+03  0.68097333197E+03  0.12699999809E+01 0. -1.
</event>
<event>
 5   0  0.6557679E-03  0.8569640E+03  0.7818609E-02  0.9481037E-01
       -1   -1    0    0    0  501  0.00000000000E+00  0.00000000000E+00  0.10418770867E+03  0.10418770879E+03  0.50400001928E-02 0. -1.
        1   -1    0    0  501    0  0.00000000000E+00  0.00000000000E+00 -0.17621735878E+04  0.17621735878E+04  0.50400001928E-02 0.  1.
    10030    2    1    2    0    0  0.00000000000E+00  0.00000000000E+00 -0.16579858791E+04  0.18663612966E+04  0.85696400979E+03 0.  0.
        1    1    3    3  502    0 -0.76362549276E+02  0.26506825840E+03 -0.11491392108E+03  0.29882709018E+03  0.50400001928E-02 0. -1.
       -1    1    3    3    0  502  0.76362549276E+02 -0.26506825840E+03 -0.15430719581E+04  0.15675342064E+04  0.50400001928E-02 0.  1.
</event>
<event>
 5   0  0.6557679E-03  0.8006579E+03  0.7818609E-02  0.9559065E-01
       -1   -1    0    0    0  501  0.00000000000E+00  0.00000000000E+00  0.42219712558E+03  0.42219712561E+03  0.50400001928E-02 0.  1.
        1   -1    0    0  501    0  0.00000000000E+00  0.00000000000E+00 -0.37959344013E+03  0.37959344016E+03  0.50400001928E-02 0. -1.
    10030    2    1    2    0    0  0.00000000000E+00  0.00000000000E+00  0.42603685452E+02  0.80179056577E+03  0.80065787784E+03 0.  0.
        1    1    3    3  502    0  0.18520245026E+03  0.35184097249E+03 -0.25360663128E+02  0.39841583899E+03  0.50400001928E-02 0.  1.
       -1    1    3    3    0  502 -0.18520245026E+03 -0.35184097249E+03  0.67964348580E+02  0.40337472678E+03  0.50400001928E-02 0. -1.
</event>
<event>
 5   0  0.1154714E-02  0.7991165E+03  0.7818609E-02  0.9561297E-01
        2   -1    0    0  501    0  0.00000000000E+00  0.00000000000E+00  0.13590910845E+04  0.13590910845E+04  0.25500000920E-02 0.  1.
       -2   -1    0    0    0  501  0.00000000000E+00  0.00000000000E+00 -0.11746584877E+03  0.11746584879E+03  0.25500000920E-02 0. -1.
    10030    2    1    2    0    0  0.00000000000E+00  0.00000000000E+00  0.12416252357E+04  0.14765569333E+04  0.79911648166E+03 0.  0.
        5    1    3    3  502    0 -0.39163951188E+02 -0.24825672720E+03  0.11946813570E+04  0.12208402240E+04  0.46999998093E+01 0.  1.
       -5    1    3    3    0  502  0.39163951188E+02  0.24825672720E+03  0.46943878704E+02  0.25571670931E+03  0.46999998093E+01 0. -1.
</event>
<event>
 5   0  0.1106332E-02  0.8018547E+03  0.7818609E-02  0.9557336E-01
        2   -1    0    0  501    0  0.00000000000E+00  0.00000000000E+00  0.16669493237E+03  0.16669493239E+03  0.25500000920E-02 0. -1.
       -2   -1    0    0    0  501  0.00000000000E+00  0.00000000000E+00 -0.96429300877E+03  0.96429300877E+03  0.25500000920E-02 0.  1.
    10030    2    1    2    0    0  0.00000000000E+00  0.00000000000E+00 -0.79759807640E+03  0.11309879412E+04  0.80185474469E+03 0.  0.
        1    1    3    3  502    0 -0.43198228250E+02  0.30562205930E+03 -0.37896859477E+02  0.31097765521E+03  0.50400001928E-02 0. -1.
       -1    1    3    3    0  502  0.43198228250E+02 -0.30562205930E+03 -0.75970121692E+03  0.82001028595E+03  0.50400001928E-02 0.  1.
</event>
<event>
 5   0  0.6517392E-03  0.7924130E+03  0.7818609E-02  0.9571064E-01
       -1   -1    0    0    0  501  0.00000000000E+00  0.00000000000E+00  0.20268899899E+03  0.20268899905E+03  0.50400001928E-02 0.  1.
        1   -1    0    0  501    0  0.00000000000E+00  0.00000000000E+00 -0.77448509326E+03  0.77448509327E+03  0.50400001928E-02 0. -1.
    10030    2    1    2    0    0  0.00000000000E+00  0.00000000000E+00 -0.57179609427E+03  0.97717409232E+03  0.79241304462E+03 0.  0.
        3    1    3    3  502    0  0.26415106173E+03 -0.10740088946E+03  0.53319987693E+02  0.29009268478E+03  0.10100000352E+00 0.  1.
       -3    1    3    3    0  502 -0.26415106173E+03  0.10740088946E+03 -0.62511608196E+03  0.68708140755E+03  0.10100000352E+00 0. -1.
</event>
<event>
 5   0  0.6517392E-03  0.7978610E+03  0.7818609E-02  0.9563118E-01
       -1   -1    0    0    0  501  0.00000000000E+00  0.00000000000E+00  0.20659512892E+03  0.20659512898E+03  0.50400001928E-02 0. -1.
        1   -1    0    0  501    0  0.00000000000E+00  0.00000000000E+00 -0.77032581603E+03  0.77032581605E+03  0.50400001928E-02 0.  1.
    10030    2    1    2    0    0  0.00000000000E+00  0.00000000000E+00 -0.56373068711E+03  0.97692094503E+03  0.79786104382E+03 0.  0.
        3    1    3    3  502    0 -0.14603277022E+03 -0.84688661119E+02  0.16070593907E+03  0.23307541345E+03  0.10100000352E+00 0. -1.
       -3    1    3    3    0  502  0.14603277022E+03  0.84688661119E+02 -0.72443662618E+03  0.74384553158E+03  0.10100000352E+00 0.  1.
</event>
<event>
 5   0  0.1106332E-02  0.7997470E+03  0.7818609E-02  0.9560383E-01
        2   -1    0    0  501    0  0.00000000000E+00  0.00000000000E+00  0.76231453877E+03  0.76231453877E+03  0.25500000920E-02 0. -1.
       -2   -1    0    0    0  501  0.00000000000E+00  0.00000000000E+00 -0.20975437241E+03  0.20975437242E+03  0.25500000920E-02 0.  1.
    10030    2    1    2    0    0  0.00000000000E+00  0.00000000000E+00  0.55256016636E+03  0.97206891119E+03  0.79974697915E+03 0.  0.
        1    1    3    3  502    0  0.33610897300E+03  0.21662483511E+03  0.27408996880E+03  0.48478951303E+03  0.50400001928E-02 0.  1.
       -1    1    3    3    0  502 -0.33610897300E+03 -0.21662483511E+03  0.27847019756E+03  0.48727939816E+03  0.50400001928E-02 0. -1.
</event>
<event>
 5   0  0.6557679E-03  0.8052463E+03  0.7818609E-02  0.9552454E-01
        1   -1    0    0  501    0  0.00000000000E+00  0.00000000000E+00  0.78869236683E+03  0.78869236685E+03  0.50400001928E-02 0.  1.
       -1   -1    0    0    0  501  0.00000000000E+00  0.00000000000E+00 -0.20553693182E+03  0.20553693189E+03  0.50400001928E-02 0. -1.
    10030    2    1    2    0    0  0.00000000000E+00  0.00000000000E+00  0.58315543501E+03  0.99422929874E+03  0.80524632075E+03 0.  0.
        1    1    3    3  502    0 -0.30776561101E+03 -0.18206916642E+02  0.61129856097E+03  0.68464377146E+03  0.50400001928E-02 0.  1.
       -1    1    3    3    0  502  0.30776561101E+03  0.18206916642E+02 -0.28143125956E+02  0.30958552728E+03  0.50400001928E-02 0. -1.
</event>
<event>
 5   0  0.6600401E-03  0.8010620E+03  0.7818609E-02  0.9558481E-01
        1   -1    0    0  501    0  0.00000000000E+00  0.00000000000E+00  0.14810245962E+04  0.14810245962E+04  0.50400001928E-02 0.  1.
       -1   -1    0    0    0  501  0.00000000000E+00  0.00000000000E+00 -0.10832034490E+03  0.10832034502E+03  0.50400001928E-02 0. -1.
    10030    2    1    2    0    0  0.00000000000E+00  0.00000000000E+00  0.13727042513E+04  0.15893449412E+04  0.80106203295E+03 0.  0.
        2    1    3    3  502    0  0.13604135532E+03  0.37290610734E+03  0.79243614626E+03  0.88629637320E+03  0.25500000920E-02 0. -1.
       -2    1    3    3    0  502 -0.13604135532E+03 -0.37290610734E+03  0.58026810500E+03  0.70304856798E+03  0.25500000920E-02 0.  1.
</event>
<event>
 5   0  0.6551489E-03  0.7997291E+03  0.7818609E-02  0.9560409E-01
        1   -1    0    0  501    0  0.00000000000E+00  0.00000000000E+00  0.10461069934E+04  0.10461069934E+04  0.50400001928E-02 0. -1.
       -1   -1    0    0    0  501  0.00000000000E+00  0.00000000000E+00 -0.15284444188E+03  0.15284444196E+03  0.50400001928E-02 0.  1.
    10030    2    1    2    0    0  0.00000000000E+00  0.00000000000E+00  0.89326255148E+03  0.11989514353E+04  0.79972905312E+03 0.  0.
        4    1    3    3  502    0 -0.12571845691E+03 -0.73117239607E+02 -0.11178443868E+03  0.18343564203E+03  0.12699999809E+01 0.  1.
       -4    1    3    3    0  502  0.12571845691E+03  0.73117239607E+02  0.10050469902E+04  0.10155157933E+04  0.12699999809E+01 0. -1.
</event>
<event>
 5   0  0.6600401E-03  0.7987665E+03  0.7818609E-02  0.9561804E-01
       -1   -1    0    0    0  501  0.00000000000E+00  0.00000000000E+00  0.10701749313E+03  0.10701749325E+03  0.50400001928E-02 0.  1.
        1   -1    0    0  501    0  0.00000000000E+00  0.00000000000E+00 -0.14904757806E+04  0.14904757807E+04  0.50400001928E-02 0. -1.
    10030    2    1    2    0    0  0.00000000000E+00  0.00000000000E+00 -0.13834582875E+04  0.15974932739E+04  0.79876650335E+03 0.  0.
        2    1    3    3  502    0  0.22326586383E+03 -0.33111371850E+03 -0.68212913591E+03  0.79043285521E+03  0.25500000920E-02 0. -1.
       -2    1    3    3    0  502 -0.22326586383E+03  0.33111371850E+03 -0.70132915160E+03  0.80706041869E+03  0.25500000920E-02 0.  1.
</event>
<event>
 5   0  0.6557679E-03  0.7973782E+03  0.7818609E-02  0.9563820E-01
       -1   -1    0    0    0  501  0.00000000000E+00  0.00000000000E+00  0.53758602795E+03  0.53758602797E+03  0.50400001928E-02 0. -1.
        1   -1    0    0  501    0  0.00000000000E+00  0.00000000000E+00 -0.29567920610E+03  0.29567920615E+03  0.50400001928E-02 0.  1.
    10030    2    1    2    0    0  0.00000000000E+00  0.00000000000E+00  0.24190682185E+03  0.83326523412E+03  0.79737822891E+03 0.  0.
        1    1    3    3  502    0  0.31221983512E+02 -0.23005337219E+03 -0.21775380457E+03  0.31830187832E+03  0.50400001928E-02 0.  1.
       -1    1    3    3    0  502 -0.31221983512E+02  0.23005337219E+03  0.45966062642E+03  0.51496335580E+03  0.50400001928E-02 0. -1.
</event>
<event>
 5   0  0.6517392E-03  0.8017032E+03  0.7818609E-02  0.9557555E-01
        1   -1    0    0  501    0  0.00000000000E+00  0.00000000000E+00  0.57392895030E+03  0.57392895032E+03  0.50400001928E-02 0.  1.
       -1   -1    0    0    0  501  0.00000000000E+00  0.00000000000E+00 -0.27996848467E+03  0.27996848472E+03  0.50400001928E-02 0. -1.
    10030    2    1    2    0    0  0.00000000000E+00  0.00000000000E+00  0.29396046563E+03  0.85389743504E+03  0.80170323325E+03 0.  0.
        3    1    3    3  502    0  0.20980484983E+03  0.25712204318E+03  0.38645626495E+03  0.50939010102E+03  0.10100000352E+00 0.  1.
       -3    1    3    3    0  502 -0.20980484983E+03 -0.25712204318E+03 -0.92495799322E+02  0.34450733402E+03  0.10100000352E+00 0. -1.
</event>
<event>
 5   0  0.6551489E-03  0.8002965E+03  0.7818609E-02  0.9559588E-01
       -1   -1    0    0    0  501  0.00000000000E+00  0.00000000000E+00  0.25783056797E+03  0.25783056802E+03  0.50400001928E-02 0.  1.
        1   -1    0    0  501    0  0.00000000000E+00  0.00000000000E+00 -0.62102264327E+03  0.62102264329E+03  0.50400001928E-02 0. -1.
    10030    2    1    2    0    0  0.00000000000E+00  0.00000000000E+00 -0.36319207530E+03  0.87885321131E+03  0.80029649722E+03 0.  0.
        4    1    3    3  502    0  0.32818918351E+03  0.26641932345E+02 -0.43128929519E+03  0.54261404495E+03  0.12699999809E+01 0. -1.
       -4    1    3    3    0  502 -0.32818918351E+03 -0.26641932345E+02  0.68097219892E+02  0.33623916635E+03  0.12699999809E+01 0.  1.
</event>
<event>
 5   0  0.1092868E-02  0.8001699E+03  0.7818609E-02  0.9559771E-01
       -2   -1    0    0    0  501  0.00000000000E+00  0.00000000000E+00  0.11762224092E+03  0.11762224094E+03  0.25500000920E-02 0. -1.
        2   -1    0    0  501    0  0.00000000000E+00  0.00000000000E+00 -0.13608649225E+04  0.13608649225E+04  0.25500000920E-02 0.  1.
    10030    2    1    2    0    0  0.00000000000E+00  0.00000000000E+00 -0.12432426816E+04  0.14784871635E+04  0.80016993644E+03 0.  0.
        3    1    3    3  502    0 -0.13085391446E+03  0.34873554618E+03 -0.35177411124E+03  0.51233218095E+03  0.10100000352E+00 0.  1.
       -3    1    3    3    0  502  0.13085391446E+03 -0.34873554618E+03 -0.89146857040E+03  0.96615498255E+03  0.10100000352E+00 0. -1.
</event>
<event>
 5   0  0.6600401E-03  0.7958579E+03  0.7818609E-02  0.9566032E-01
       -1   -1    0    0    0  501  0.00000000000E+00  0.00000000000E+00  0.66893217491E+03  0.66893217493E+03  0.50400001928E-02 0.  1.
        1   -1    0    0  501    0  0.00000000000E+00  0.00000000000E+00 -0.23671677074E+03  0.23671677079E+03  0.50400001928E-02 0. -1.
    10030    2    1    2    0    0  0.00000000000E+00  0.00000000000E+00  0.43221540418E+03  0.90564894572E+03  0.79585793788E+03 0.  0.
        2    1    3    3  502    0 -0.20087433968E+03 -0.71961969093E+02 -0.16611315036E+03  0.27041191554E+03  0.25500000920E-02 0. -1.
       -2    1    3    3    0  502  0.20087433968E+03  0.71961969093E+02  0.59832855454E+03  0.63523703018E+03  0.25500000920E-02 0.  1.
</event>
<event>
 5   0  0.6517392E-03  0.7800518E+03  0.7818609E-02  0.9589349E-01
       -1   -1    0    0    0  501  0.00000000000E+00  0.00000000000E+00  0.27767116775E+03  0.27767116780E+03  0.50400001928E-02 0. -1.
        1   -1    0    0  501    0  0.00000000000E+00  0.00000000000E+00 -0.54784304774E+03  0.54784304776E+03  0.50400001928E-02 0.  1.
    10030    2    1    2    0    0  0.00000000000E+00  0.00000000000E+00 -0.27017187999E+03  0.82551421556E+03  0.78005184146E+03 0.  0.
        3    1    3    3  502    0  0.52143421759E+02  0.32789306181E+03  0.81506281297E+02  0.34187143857E+03  0.10100000352E+00 0. -1.
       -3    1    3    3    0  502 -0.52143421759E+02 -0.32789306181E+03 -0.35167816128E+03  0.48364277700E+03  0.10100000352E+00 0.  1.
</event>
<event>
 5   0  0.4385875E-03  0.7955410E+03  0.7818609E-02  0.9566494E-01
       -4   -1    0    0    0  501  0.00000000000E+00  0.00000000000E+00  0.22906751668E+03  0.22907103723E+03  0.12699999809E+01 0. -1.
        4   -1    0    0  501    0  0.00000000000E+00  0.00000000000E+00 -0.69070997598E+03  0.69071114355E+03  0.12699999809E+01 0.  1.
    10030    2    1    2    0    0  0.00000000000E+00  0.00000000000E+00 -0.46164245930E+03  0.91978218078E+03  0.79554101079E+03 0.  0.
        5    1    3    3  502    0 -0.30191662109E+03  0.25749636923E+03 -0.26229924352E+03  0.47569003501E+03  0.46999998093E+01 0. -1.
       -5    1    3    3    0  502  0.30191662109E+03 -0.25749636923E+03 -0.19934321579E+03  0.44409214577E+03  0.46999998093E+01 0.  1.
</event>
<event>
 5   0  0.1106332E-02  0.8051630E+03  0.7818609E-02  0.9552574E-01
       -2   -1    0    0    0  501  0.00000000000E+00  0.00000000000E+00  0.27536962392E+03  0.27536962394E+03  0.25500000920E-02 0.  1.
        2   -1    0    0  501    0  0.00000000000E+00  0.00000000000E+00 -0.58856109674E+03  0.58856109675E+03  0.25500000920E-02 0. -1.
    10030    2    1    2    0    0  0.00000000000E+00  0.00000000000E+00 -0.31319147282E+03  0.86393072068E+03  0.80516295959E+03 0.  0.
        1    1    3    3  502    0  0.22279239210E+03 -0.33452984747E+03 -0.18118518650E+03  0.44087950809E+03  0.50400001928E-02 0.  1.
       -1    1    3    3    0  502 -0.22279239210E+03  0.33452984747E+03 -0.13200628632E+03  0.42305121259E+03  0.50400001928E-02 0. -1.
</event>
<event>
 5   0  0.4385875E-03  0.8019659E+03  0.7818609E-02  0.9557176E-01
       -3   -1    0    0    0  501  0.00000000000E+00  0.00000000000E+00  0.70194346757E+03  0.70194347483E+03  0.10100000352E+00 0. -1.
        3   -1    0    0  501    0  0.00000000000E+00  0.00000000000E+00 -0.22906022347E+03  0.22906024573E+03  0.10100000352E+00 0.  1.
    10030    2    1    2    0    0  0.00000000000E+00  0.00000000000E+00  0.47288324410E+03  0.93100372057E+03  0.80196593765E+03 0.  0.
        3    1    3    3  502    0  0.37297345324E+03  0.13882014735E+03  0.17948520693E+03  0.43657207863E+03  0.10100000352E+00 0.  1.
       -3    1    3    3    0  502 -0.37297345324E+03 -0.13882014735E+03  0.29339803717E+03  0.49443164194E+03  0.10100000352E+00 0. -1.
</event>
<event>
 5   0  0.6557679E-03  0.7973501E+03  0.7818609E-02  0.9563861E-01
        1   -1    0    0  501    0  0.00000000000E+00  0.00000000000E+00  0.29424837498E+03  0.29424837502E+03  0.50400001928E-02 0.  1.
       -1   -1    0    0    0  501  0.00000000000E+00  0.00000000000E+00 -0.54016200449E+03  0.54016200451E+03  0.50400001928E-02 0. -1.
    10030    2    1    2    0    0  0.00000000000E+00  0.00000000000E+00 -0.24591362951E+03  0.83441037953E+03  0.79735009142E+03 0.  0.
        1    1    3    3  502    0 -0.38588744608E+03 -0.99739184756E+02 -0.13259158966E+03  0.42004470678E+03  0.50400001928E-02 0.  1.
       -1    1    3    3    0  502  0.38588744608E+03  0.99739184756E+02 -0.11332203985E+03  0.41436567276E+03  0.50400001928E-02 0. -1.
</event>
<event>
 5   0  0.1121480E-02  0.8036613E+03  0.7818609E-02  0.9554733E-01
       -2   -1    0    0    0  501  0.00000000000E+00  0.00000000000E+00  0.29079729602E+03  0.29079729603E+03  0.25500000920E-02 0.  1.
        2   -1    0    0  501    0  0.00000000000E+00  0.00000000000E+00 -0.55525921338E+03  0.55525921338E+03  0.25500000920E-02 0. -1.
    10030    2    1    2    0    0  0.00000000000E+00  0.00000000000E+00 -0.26446191736E+03  0.84605650941E+03  0.80366131635E+03 0.  0.
        2    1    3    3  502    0  0.58340278892E+02 -0.20753634167E+03  0.22476387153E+03  0.31143814668E+03  0.25500000920E-02 0.  1.
       -2    1    3    3    0  502 -0.58340278892E+02  0.20753634167E+03 -0.48922578889E+03  0.53461836274E+03  0.25500000920E-02 0. -1.
</event>
<event>
 5   0  0.6596225E-03  0.8386673E+03  0.7818609E-02  0.9505675E-01
       -1   -1    0    0    0  501  0.00000000000E+00  0.00000000000E+00  0.11950919425E+03  0.11950919436E+03  0.50400001928E-02 0.  1.
        1   -1    0    0  501    0  0.00000000000E+00  0.00000000000E+00 -0.14713572326E+04  0.14713572326E+04  0.50400001928E-02 0. -1.
    10030    2    1    2    0    0  0.00000000000E+00  0.00000000000E+00 -0.13518480384E+04  0.15908664270E+04  0.83866731764E+03 0.  0.
        5    1    3    3  502    0  0.36161786776E+03  0.21092560722E+03 -0.72087423459E+03  0.83362992158E+03  0.46999998093E+01 0.  1.
       -5    1    3    3    0  502 -0.36161786776E+03 -0.21092560722E+03 -0.63097380379E+03  0.75723650542E+03  0.46999998093E+01 0. -1.
</event>
<event>
 5   0  0.6551489E-03  0.8000987E+03  0.7818609E-02  0.9559874E-01
       -1   -1    0    0    0  501  0.00000000000E+00  0.00000000000E+00  0.10223326872E+03  0.10223326884E+03  0.50400001928E-02 0.  1.
        1   -1    0    0  501    0  0.00000000000E+00  0.00000000000E+00 -0.15654343170E+04  0.15654343170E+04  0.50400001928E-02 0. -1.
    10030    2    1    2    0    0  0.00000000000E+00  0.00000000000E+00 -0.14632010483E+04  0.16676675859E+04  0.80009866217E+03 0.  0.
        4    1    3    3  502    0  0.16035828064E+03  0.35646330161E+03 -0.55404089441E+03  0.67804409086E+03  0.12699999809E+01 0. -1.
       -4    1    3    3    0  502 -0.16035828064E+03 -0.35646330161E+03 -0.90916015391E+03  0.98962349503E+03  0.12699999809E+01 0.  1.
</event>
<event>
 5   0  0.6517392E-03  0.7995517E+03  0.7818609E-02  0.9560666E-01
       -1   -1    0    0    0  501  0.00000000000E+00  0.00000000000E+00  0.58430691413E+03  0.58430691415E+03  0.50400001928E-02 0.  1.
        1   -1    0    0  501    0  0.00000000000E+00  0.00000000000E+00 -0.27352191113E+03  0.27352191118E+03  0.50400001928E-02 0. -1.
    10030    2    1    2    0    0  0.00000000000E+00  0.00000000000E+00  0.31078500300E+03  0.85782882533E+03  0.79955173408E+03 0.  0.
        3    1    3    3  502    0 -0.31599629914E+03 -0.16110594562E+03  0.35325788090E+03  0.50059956792E+03  0.10100000352E+00 0.  1.
       -3    1    3    3    0  502  0.31599629914E+03  0.16110594562E+03 -0.42472877898E+02  0.35722925740E+03  0.10100000352E+00 0. -1.
</event>
<event>
 5   0  0.4385875E-03  0.8029336E+03  0.7818609E-02  0.9555781E-01
       -3   -1    0    0    0  501  0.00000000000E+00  0.00000000000E+00  0.37250777288E+03  0.37250778657E+03  0.10100000352E+00 0. -1.
        3   -1    0    0  501    0  0.00000000000E+00  0.00000000000E+00 -0.43267708050E+03  0.43267709229E+03  0.10100000352E+00 0.  1.
    10030    2    1    2    0    0  0.00000000000E+00  0.00000000000E+00 -0.60169307626E+02  0.80518487886E+03  0.80293358603E+03 0.  0.
        4    1    3    3  502    0 -0.20326967060E+03 -0.11082284142E+03 -0.35898858397E+03  0.42717054848E+03  0.12699999809E+01 0.  1.
       -4    1    3    3    0  502  0.20326967060E+03  0.11082284142E+03  0.29881927634E+03  0.37801433039E+03  0.12699999809E+01 0. -1.
</event>
<event>
 5   0  0.1092868E-02  0.8114132E+03  0.7818609E-02  0.9543642E-01
        2   -1    0    0  501    0  0.00000000000E+00  0.00000000000E+00  0.67411992186E+03  0.67411992187E+03  0.25500000920E-02 0.  1.
       -2   -1    0    0    0  501  0.00000000000E+00  0.00000000000E+00 -0.24416701097E+03  0.24416701098E+03  0.25500000920E-02 0. -1.
    10030    2    1    2    0    0  0.00000000000E+00  0.00000000000E+00  0.42995291090E+03  0.91828693285E+03  0.81141320266E+03 0.  0.
        3    1    3    3  502    0  0.22211392316E+03 -0.32782518544E+03  0.31488748750E+03  0.50592300507E+03  0.10100000352E+00 0. -1.
       -3    1    3    3    0  502 -0.22211392316E+03  0.32782518544E+03  0.11506542340E+03  0.41236392778E+03  0.10100000352E+00 0.  1.
</event>
<event>
 5   0  0.1119792E-02  0.7769595E+03  0.7818609E-02  0.9593979E-01
       -2   -1    0    0    0  501  0.00000000000E+00  0.00000000000E+00  0.33271258109E+03  0.33271258110E+03  0.25500000920E-02 0. -1.
        2   -1    0    0  501    0  0.00000000000E+00  0.00000000000E+00 -0.45359425682E+03  0.45359425682E+03  0.25500000920E-02 0.  1.
    10030    2    1    2    0    0  0.00000000000E+00  0.00000000000E+00 -0.12088167573E+03  0.78630683792E+03  0.77695949948E+03 0.  0.
        4    1    3    3  502    0  0.34966583047E+02 -0.31553039483E+03  0.16615644613E+03  0.35831783305E+03  0.12699999809E+01 0.  1.
       -4    1    3    3    0  502 -0.34966583047E+02  0.31553039483E+03 -0.28703812186E+03  0.42798900487E+03  0.12699999809E+01 0. -1.
</event>
<event>
 5   0  0.6551489E-03  0.8024078E+03  0.7818609E-02  0.9556539E-01
        1   -1    0    0  501    0  0.00000000000E+00  0.00000000000E+00  0.30922577608E+03  0.30922577612E+03  0.50400001928E-02 0. -1.
       -1   -1    0    0    0  501  0.00000000000E+00  0.00000000000E+00 -0.52054053966E+03  0.52054053968E+03  0.50400001928E-02 0.  1.
    10030    2    1    2    0    0  0.00000000000E+00  0.00000000000E+00 -0.21131476358E+03  0.82976631580E+03  0.80240775764E+03 0.  0.
        4    1    3    3  502    0  0.30809633746E+03  0.24553465424E+03 -0.27227385088E+02  0.39490956305E+03  0.12699999809E+01 0. -1.
       -4    1    3    3    0  502 -0.30809633746E+03 -0.24553465424E+03 -0.18408737849E+03  0.43485675275E+03  0.12699999809E+01 0.  1.
</event>
<event>
 5   0  0.6596225E-03  0.8048233E+03  0.7818609E-02  0.9553062E-01
       -1   -1    0    0    0  501  0.00000000000E+00  0.00000000000E+00  0.31440977291E+03  0.31440977295E+03  0.50400001928E-02 0. -1.
        1   -1    0    0  501    0  0.00000000000E+00  0.00000000000E+00 -0.51504486930E+03  0.51504486933E+03  0.50400001928E-02 0.  1.
    10030    2    1    2    0    0  0.00000000000E+00  0.00000000000E+00 -0.20063509639E+03  0.82945464228E+03  0.80482331085E+03 0.  0.
        5    1    3    3  502    0  0.73365292476E+02  0.11356218125E+03 -0.49090748364E+03  0.50920632620E+03  0.46999998093E+01 0.  1.
       -5    1    3    3    0  502 -0.73365292476E+02 -0.11356218125E+03  0.29027238725E+03  0.32024831608E+03  0.46999998093E+01 0. -1.
</event>
<event>
 5   0  0.1092868E-02  0.7761873E+03  0.7818609E-02  0.9595139E-01
       -2   -1    0    0    0  501  0.00000000000E+00  0.00000000000E+00  0.20513107381E+03  0.20513107382E+03  0.25500000920E-02 0.  1.
        2   -1    0    0  501    0  0.00000000000E+00  0.00000000000E+00 -0.73424613615E+03  0.73424613616E+03  0.25500000920E-02 0. -1.
    10030    2    1    2    0    0  0.00000000000E+00  0.00000000000E+00 -0.52911506235E+03  0.93937720998E+03  0.77618734429E+03 0.  0.
        3    1    3    3  502    0 -0.26539768326E+03 -0.27415256598E+03 -0.35031542924E+03  0.51799273149E+03  0.10100000352E+00 0. -1.
       -3    1    3    3    0  502  0.26539768326E+03  0.27415256598E+03 -0.17879963310E+03  0.42138447849E+03  0.10100000352E+00 0.  1.
</event>
<event>
 5   0  0.6551489E-03  0.8028658E+03  0.7818609E-02  0.9555878E-01
       -1   -1    0    0    0  501  0.00000000000E+00  0.00000000000E+00  0.28727945846E+03  0.28727945851E+03  0.50400001928E-02 0.  1.
        1   -1    0    0  501    0  0.00000000000E+00  0.00000000000E+00 -0.56094639356E+03  0.56094639358E+03  0.50400001928E-02 0. -1.
    10030    2    1    2    0    0  0.00000000000E+00  0.00000000000E+00 -0.27366693509E+03  0.84822585208E+03  0.80286580746E+03 0.  0.
        4    1    3    3  502    0  0.11678041470E+03  0.20087637045E+03  0.20901065521E+03  0.31253167576E+03  0.12699999809E+01 0.  1.
       -4    1    3    3    0  502 -0.11678041470E+03 -0.20087637045E+03 -0.48267759030E+03  0.53569417632E+03  0.12699999809E+01 0. -1.
</event>
<event>
 5   0  0.1092868E-02  0.7952468E+03  0.7818609E-02  0.9566923E-01
        2   -1    0    0  501    0  0.00000000000E+00  0.00000000000E+00  0.66224417142E+03  0.66224417142E+03  0.25500000920E-02 0. -1.
       -2   -1    0    0    0  501  0.00000000000E+00  0.00000000000E+00 -0.23874028829E+03  0.23874028830E+03  0.25500000920E-02 0.  1.
    10030    2    1    2    0    0  0.00000000000E+00  0.00000000000E+00  0.42350388313E+03  0.90098445973E+03  0.79524679040E+03 0.  0.
        3    1    3    3  502    0 -0.39035160868E+03 -0.49962436991E+02  0.27617885121E+03  0.48077582257E+03  0.10100000352E+00 0. -1.
       -3    1    3    3    0  502  0.39035160868E+03  0.49962436991E+02  0.14732503192E+03  0.42020863716E+03  0.10100000352E+00 0.  1.
</event>
<event>
 5   0  0.6596225E-03  0.7964675E+03  0.7818609E-02  0.9565144E-01
       -1   -1    0    0    0  501  0.00000000000E+00  0.00000000000E+00  0.52091968814E+03  0.52091968816E+03  0.50400001928E-02 0.  1.
        1   -1    0    0  501    0  0.00000000000E+00  0.00000000000E+00 -0.30444253281E+03  0.30444253285E+03  0.50400001928E-02 0. -1.
    10030    2    1    2    0    0  0.00000000000E+00  0.00000000000E+00  0.21647715532E+03  0.82536222101E+03  0.79646747398E+03 0.  0.
        5    1    3    3  502    0 -0.14136643288E+02  0.30521256090E+03 -0.15639514553E+03  0.34327260823E+03  0.46999998093E+01 0. -1.
       -5    1    3    3    0  502  0.14136643288E+02 -0.30521256090E+03  0.37287230086E+03  0.48208961279E+03  0.46999998093E+01 0.  1.
</event>
<event>
 5   0  0.6600401E-03  0.7930049E+03  0.7818609E-02  0.9570198E-01
       -1   -1    0    0    0  501  0.00000000000E+00  0.00000000000E+00  0.39127735162E+03  0.39127735165E+03  0.50400001928E-02 0.  1.
        1   -1    0    0  501    0  0.00000000000E+00  0.00000000000E+00 -0.40179735120E+03  0.40179735123E+03  0.50400001928E-02 0. -1.
    10030    2    1    2    0    0  0.00000000000E+00  0.00000000000E+00 -0.10519999584E+02  0.79307470289E+03  0.79300492682E+03 0.  0.
        2    1    3    3  502    0 -0.26976332591E+03  0.12804657837E+03 -0.26613928306E+03  0.39999787028E+03  0.25500000920E-02 0. -1.
       -2    1    3    3    0  502  0.26976332591E+03 -0.12804657837E+03  0.25561928347E+03  0.39307683260E+03  0.25500000920E-02 0.  1.
</event>
<event>
 5   0  0.1154714E-02  0.8037008E+03  0.7818609E-02  0.9554676E-01
        2   -1    0    0  501    0  0.00000000000E+00  0.00000000000E+00  0.51246013913E+03  0.51246013914E+03  0.25500000920E-02 0. -1.
       -2   -1    0    0    0  501  0.00000000000E+00  0.00000000000E+00 -0.31511475388E+03  0.31511475389E+03  0.25500000920E-02 0.  1.
    10030    2    1    2    0    0  0.00000000000E+00  0.00000000000E+00  0.19734538526E+03  0.82757489302E+03  0.80370081652E+03 0.  0.
        5    1    3    3  502    0  0.12716973793E+02  0.40133985921E+03  0.83184043777E+02  0.41009398819E+03  0.46999998093E+01 0. -1.
       -5    1    3    3    0  502 -0.12716973793E+02 -0.40133985921E+03  0.11416134148E+03  0.41748090483E+03  0.46999998093E+01 0.  1.
</event>
<event>
 5   0  0.6557679E-03  0.8002278E+03  0.7818609E-02  0.9559688E-01
        1   -1    0    0  501    0  0.00000000000E+00  0.00000000000E+00  0.10393462194E+04  0.10393462194E+04  0.50400001928E-02 0. -1.
       -1   -1    0    0    0  501  0.00000000000E+00  0.00000000000E+00 -0.15403059285E+03  0.15403059294E+03  0.50400001928E-02 0.  1.
    10030    2    1    2    0    0  0.00000000000E+00  0.00000000000E+00  0.88531562655E+03  0.11933768124E+04  0.80022775361E+03 0.  0.
        1    1    3    3  502    0 -0.12331586928E+03 -0.17662334787E+03  0.94548906391E+03  0.96971757776E+03  0.50400001928E-02 0. -1.
       -1    1    3    3    0  502  0.12331586928E+03  0.17662334787E+03 -0.60173437357E+02  0.22365923459E+03  0.50400001928E-02 0.  1.
</event>
<event>
 5   0  0.6557679E-03  0.7752607E+03  0.7818609E-02  0.9596533E-01
        1   -1    0    0  501    0  0.00000000000E+00  0.00000000000E+00  0.84249492877E+03  0.84249492879E+03  0.50400001928E-02 0.  1.
       -1   -1    0    0    0  501  0.00000000000E+00  0.00000000000E+00 -0.17834799097E+03  0.17834799104E+03  0.50400001928E-02 0. -1.
    10030    2    1    2    0    0  0.00000000000E+00  0.00000000000E+00  0.66414693780E+03  0.10208429198E+04  0.77526067356E+03 0.  0.
        1    1    3    3  502    0  0.11254961907E+03  0.27622553110E+03  0.65806292873E+03  0.72250590238E+03  0.50400001928E-02 0.  1.
       -1    1    3    3    0  502 -0.11254961907E+03 -0.27622553110E+03  0.60840090769E+01  0.29833701744E+03  0.50400001928E-02 0. -1.
</event>
<event>
 5   0  0.1092868E-02  0.8156666E+03  0.7818609E-02  0.9537613E-01
        2   -1    0    0  501    0  0.00000000000E+00  0.00000000000E+00  0.12440154140E+04  0.12440154140E+04  0.25500000920E-02 0. -1.
       -2   -1    0    0    0  501  0.00000000000E+00  0.00000000000E+00 -0.13370251328E+03  0.13370251331E+03  0.25500000920E-02 0.  1.
    10030    2    1    2    0    0  0.00000000000E+00  0.00000000000E+00  0.11103129007E+04  0.13777179273E+04  0.81566656773E+03 0.  0.
        3    1    3    3  502    0 -0.79974960494E+02  0.24056924316E+03  0.15556286876E+02  0.25399126623E+03  0.10100000352E+00 0.  1.
       -3    1    3    3    0  502  0.79974960494E+02 -0.24056924316E+03  0.10947566138E+04  0.11237266611E+04  0.10100000352E+00 0. -1.
</event>
<event>
 5   0  0.6551489E-03  0.7893454E+03  0.7818609E-02  0.9575568E-01
       -1   -1    0    0    0  501  0.00000000000E+00  0.00000000000E+00  0.33997100234E+03  0.33997100238E+03  0.50400001928E-02 0.  1.
        1   -1    0    0  501    0  0.00000000000E+00  0.00000000000E+00 -0.45817600312E+03  0.45817600314E+03  0.50400001928E-02 0. -1.
    10030    2    1    2    0    0  0.00000000000E+00  0.00000000000E+00 -0.11820500078E+03  0.79814700552E+03  0.78934543782E+03 0.  0.
        4    1    3    3  502    0 -0.96522048927E+02  0.28917884286E+03 -0.31254456155E+03  0.43660809079E+03  0.12699999809E+01 0. -1.
       -4    1    3    3    0  502  0.96522048927E+02 -0.28917884286E+03  0.19433956077E+03  0.36153891473E+03  0.12699999809E+01 0.  1.
</event>
<event>
 5   0  0.6557679E-03  0.8065441E+03  0.7818609E-02  0.9550593E-01
       -1   -1    0    0    0  501  0.00000000000E+00  0.00000000000E+00  0.40581121702E+03  0.40581121706E+03  0.50400001928E-02 0.  1.
        1   -1    0    0  501    0  0.00000000000E+00  0.00000000000E+00 -0.40074873855E+03  0.40074873858E+03  0.50400001928E-02 0. -1.
    10030    2    1    2    0    0  0.00000000000E+00  0.00000000000E+00  0.50624784724E+01  0.80655995564E+03  0.80654406783E+03 0.  0.
        1    1    3    3  502    0 -0.34950695542E+02 -0.39358029585E+02 -0.39729875678E+03  0.40077039284E+03  0.50400001928E-02 0. -1.
       -1    1    3    3    0  502  0.34950695542E+02  0.39358029585E+02  0.40236123526E+03  0.40578956280E+03  0.50400001928E-02 0.  1.
</event>
<event>
 5   0  0.1154714E-02  0.7920732E+03  0.7818609E-02  0.9571562E-01
        2   -1    0    0  501    0  0.00000000000E+00  0.00000000000E+00  0.52836619237E+03  0.52836619237E+03  0.25500000920E-02 0. -1.
       -2   -1    0    0    0  501  0.00000000000E+00  0.00000000000E+00 -0.29684899430E+03  0.29684899431E+03  0.25500000920E-02 0.  1.
    10030    2    1    2    0    0  0.00000000000E+00  0.00000000000E+00  0.23151719806E+03  0.82521518669E+03  0.79207316034E+03 0.  0.
        5    1    3    3  502    0  0.24884224034E+03  0.30646681445E+03  0.83168519916E+02  0.40346432511E+03  0.46999998093E+01 0. -1.
       -5    1    3    3    0  502 -0.24884224034E+03 -0.30646681445E+03  0.14834867815E+03  0.42175086158E+03  0.46999998093E+01 0.  1.
</event>
<event>
 5   0  0.6596225E-03  0.8012148E+03  0.7818609E-02  0.9558260E-01
        1   -1    0    0  501    0  0.00000000000E+00  0.00000000000E+00  0.10251117040E+04  0.10251117040E+04  0.50400001928E-02 0. -1.
       -1   -1    0    0    0  501  0.00000000000E+00  0.00000000000E+00 -0.15655491581E+03  0.15655491589E+03  0.50400001928E-02 0.  1.
    10030    2    1    2    0    0  0.00000000000E+00  0.00000000000E+00  0.86855678818E+03  0.11816666199E+04  0.80121476913E+03 0.  0.
        5    1    3    3  502    0 -0.36307423426E+03 -0.17712587356E+02  0.18605052548E+03  0.40837914168E+03  0.46999998093E+01 0.  1.
       -5    1    3    3    0  502  0.36307423426E+03  0.17712587356E+02  0.68250626270E+03  0.77328747821E+03  0.46999998093E+01 0. -1.
</event>
<event>
 5   0  0.1092868E-02  0.8010226E+03  0.7818609E-02  0.9558538E-01
       -2   -1    0    0    0  501  0.00000000000E+00  0.00000000000E+00  0.96256470540E+02  0.96256470574E+02  0.25500000920E-02 0.  1.
        2   -1    0    0  501    0  0.00000000000E+00  0.00000000000E+00 -0.16664781024E+04  0.16664781024E+04  0.25500000920E-02 0. -1.
    10030    2    1    2    0    0  0.00000000000E+00  0.00000000000E+00 -0.15702216318E+04  0.17627345730E+04  0.80102259743E+03 0.  0.
        3    1    3    3  502    0 -0.22239163840E+02 -0.24472292469E+03 -0.89129945709E+02  0.26139634217E+03  0.10100000352E+00 0.  1.
       -3    1    3    3    0  502  0.22239163840E+02  0.24472292469E+03 -0.14810916861E+04  0.15013382308E+04  0.10100000352E+00 0. -1.
</event>
<event>
 5   0  0.6600401E-03  0.7997430E+03  0.7818609E-02  0.9560389E-01
       -1   -1    0    0    0  501  0.00000000000E+00  0.00000000000E+00  0.31965895310E+03  0.31965895314E+03  0.50400001928E-02 0. -1.
        1   -1    0    0  501    0  0.00000000000E+00  0.00000000000E+00 -0.50021187781E+03  0.50021187783E+03  0.50400001928E-02 0.  1.
    10030    2    1    2    0    0  0.00000000000E+00  0.00000000000E+00 -0.18055292471E+03  0.81987083097E+03  0.79974297174E+03 0.  0.
        2    1    3    3  502    0  0.12720409330E+03 -0.33744720482E+03  0.86830626651E+02  0.37093268274E+03  0.25500000920E-02 0. -1.
       -2    1    3    3    0  502 -0.12720409330E+03  0.33744720482E+03 -0.26738355136E+03  0.44893814823E+03  0.25500000920E-02 0.  1.
</event>
<event>
 5   0  0.6551489E-03  0.8033235E+03  0.7818609E-02  0.9555219E-01
       -1   -1    0    0    0  501  0.00000000000E+00  0.00000000000E+00  0.55248807321E+03  0.55248807323E+03  0.50400001928E-02 0. -1.
        1   -1    0    0  501    0  0.00000000000E+00  0.00000000000E+00 -0.29201021482E+03  0.29201021486E+03  0.50400001928E-02 0.  1.
    10030    2    1    2    0    0  0.00000000000E+00  0.00000000000E+00  0.26047785838E+03  0.84449828809E+03  0.80332349890E+03 0.  0.
        4    1    3    3  502    0  0.12398194872E+03 -0.25686867546E+02  0.53095792267E+03  0.54584729304E+03  0.12699999809E+01 0. -1.
       -4    1    3    3    0  502 -0.12398194872E+03  0.25686867546E+02 -0.27048006428E+03  0.29865099506E+03  0.12699999809E+01 0.  1.
</event>
<event>
 5   0  0.6557679E-03  0.7935251E+03  0.7818609E-02  0.9569437E-01
        1   -1    0    0  501    0  0.00000000000E+00  0.00000000000E+00  0.28900810377E+03  0.28900810381E+03  0.50400001928E-02 0.  1.
       -1   -1    0    0    0  501  0.00000000000E+00  0.00000000000E+00 -0.54469246425E+03  0.54469246427E+03  0.50400001928E-02 0. -1.
    10030    2    1    2    0    0  0.00000000000E+00  0.00000000000E+00 -0.25568436048E+03  0.83370056808E+03  0.79352513824E+03 0.  0.
        1    1    3    3  502    0  0.13199173149E+03 -0.16800637670E+03  0.22340839078E+03  0.30912662274E+03  0.50400001928E-02 0.  1.
       -1    1    3    3    0  502 -0.13199173149E+03  0.16800637670E+03 -0.47909275126E+03  0.52457394534E+03  0.50400001928E-02 0. -1.
</event>
<event>
 5   0  0.6551489E-03  0.8018109E+03  0.7818609E-02  0.9557400E-01
        1   -1    0    0  501    0  0.00000000000E+00  0.00000000000E+00  0.27218623462E+03  0.27218623466E+03  0.50400001928E-02 0. -1.
       -1   -1    0    0    0  501  0.00000000000E+00  0.00000000000E+00 -0.59049713795E+03  0.59049713797E+03  0.50400001928E-02 0.  1.
    10030    2    1    2    0    0  0.00000000000E+00  0.00000000000E+00 -0.31831090333E+03  0.86268337263E+03  0.80181093172E+03 0.  0.
        4    1    3    3  502    0  0.35070381837E+02  0.23436311367E+03  0.18876341575E+03  0.30296739224E+03  0.12699999809E+01 0. -1.
       -4    1    3    3    0  502 -0.35070381837E+02 -0.23436311367E+03 -0.50707431908E+03  0.55971598039E+03  0.12699999809E+01 0.  1.
</event>
<event>
 5   0  0.1121480E-02  0.8011942E+03  0.7818609E-02  0.9558290E-01
       -2   -1    0    0    0  501  0.00000000000E+00  0.00000000000E+00  0.11504700951E+03  0.11504700953E+03  0.25500000920E-02 0.  1.
        2   -1    0    0  501    0  0.00000000000E+00  0.00000000000E+00 -0.13948910191E+04  0.13948910191E+04  0.25500000920E-02 0. -1.
    10030    2    1    2    0    0  0.00000000000E+00  0.00000000000E+00 -0.12798440096E+04  0.15099380287E+04  0.80119420957E+03 0.  0.
        2    1    3    3  502    0 -0.25165498136E+03  0.71660579820E+02 -0.12115913528E+04  0.12395237289E+04  0.25500000920E-02 0. -1.
       -2    1    3    3    0  502  0.25165498136E+03 -0.71660579820E+02 -0.68252656831E+02  0.27041429976E+03  0.25500000920E-02 0.  1.
</event>
<event>
 5   0  0.1106332E-02  0.7991613E+03  0.7818609E-02  0.9561232E-01
        2   -1    0    0  501    0  0.00000000000E+00  0.00000000000E+00  0.13780850664E+04  0.13780850664E+04  0.25500000920E-02 0. -1.
       -2   -1    0    0    0  501  0.00000000000E+00  0.00000000000E+00 -0.11585982821E+03  0.11585982823E+03  0.25500000920E-02 0.  1.
    10030    2    1    2    0    0  0.00000000000E+00  0.00000000000E+00  0.12622252382E+04  0.14939448946E+04  0.79916130804E+03 0.  0.
        1    1    3    3  502    0  0.28369482790E+03 -0.24723984068E+03  0.37992876623E+03  0.53474869016E+03  0.50400001928E-02 0. -1.
       -1    1    3    3    0  502 -0.28369482790E+03  0.24723984068E+03  0.88229647194E+03  0.95919620445E+03  0.50400001928E-02 0.  1.
</event>
<event>
 5   0  0.1092868E-02  0.7991037E+03  0.7818609E-02  0.9561315E-01
        2   -1    0    0  501    0  0.00000000000E+00  0.00000000000E+00  0.57941779517E+03  0.57941779518E+03  0.25500000920E-02 0. -1.
       -2   -1    0    0    0  501  0.00000000000E+00  0.00000000000E+00 -0.27552084539E+03  0.27552084540E+03  0.25500000920E-02 0.  1.
    10030    2    1    2    0    0  0.00000000000E+00  0.00000000000E+00  0.30389694979E+03  0.85493864058E+03  0.79910369982E+03 0.  0.
        3    1    3    3  502    0 -0.33764084388E+03  0.16768054339E+02  0.37980649693E+03  0.50846385556E+03  0.10100000352E+00 0. -1.
       -3    1    3    3    0  502  0.33764084388E+03 -0.16768054339E+02 -0.75909547141E+02  0.34647478501E+03  0.10100000352E+00 0.  1.
</event>
<event>
 5   0  0.1106332E-02  0.7956347E+03  0.7818609E-02  0.9566357E-01
       -2   -1    0    0    0  501  0.00000000000E+00  0.00000000000E+00  0.40362104386E+03  0.40362104387E+03  0.25500000920E-02 0. -1.
        2   -1    0    0  501    0  0.00000000000E+00  0.00000000000E+00 -0.39209709260E+03  0.39209709261E+03  0.25500000920E-02 0.  1.
    10030    2    1    2    0    0  0.00000000000E+00  0.00000000000E+00  0.11523951261E+02  0.79571813648E+03  0.79563468456E+03 0.  0.
        1    1    3    3  502    0  0.97732196073E+02 -0.56506739859E+02  0.38726501720E+03  0.40338416847E+03  0.50400001928E-02 0. -1.
       -1    1    3    3    0  502 -0.97732196073E+02  0.56506739859E+02 -0.37574106594E+03  0.39233396801E+03  0.50400001928E-02 0.  1.
</event>
<event>
 5   0  0.1119792E-02  0.8039119E+03  0.7818609E-02  0.9554372E-01
        2   -1    0    0  501    0  0.00000000000E+00  0.00000000000E+00  0.70095499404E+03  0.70095499404E+03  0.25500000920E-02 0.  1.
       -2   -1    0    0    0  501  0.00000000000E+00  0.00000000000E+00 -0.23049781410E+03  0.23049781411E+03  0.25500000920E-02 0. -1.
    10030    2    1    2    0    0  0.00000000000E+00  0.00000000000E+00  0.47045717994E+03  0.93145280815E+03  0.80391192034E+03 0.  0.
        4    1    3    3  502    0 -0.10894271491E+03  0.38687122826E+03  0.24148086126E+03  0.46888429452E+03  0.12699999809E+01 0. -1.
       -4    1    3    3    0  502  0.10894271491E+03 -0.38687122826E+03  0.22897631868E+03  0.46256851364E+03  0.12699999809E+01 0.  1.
</event>
<event>
 5   0  0.6517392E-03  0.8044782E+03  0.7818609E-02  0.9553558E-01
       -1   -1    0    0    0  501  0.00000000000E+00  0.00000000000E+00  0.17350242657E+03  0.17350242665E+03  0.50400001928E-02 0. -1.
        1   -1    0    0  501    0  0.00000000000E+00  0.00000000000E+00 -0.93253043230E+03  0.93253043232E+03  0.50400001928E-02 0.  1.
    10030    2    1    2    0    0  0.00000000000E+00  0.00000000000E+00 -0.75902800573E+03  0.11060328590E+04  0.80447819835E+03 0.  0.
        3    1    3    3  502    0 -0.20088511300E+03  0.34760115616E+03 -0.41360601043E+03  0.57641246903E+03  0.10100000352E+00 0. -1.
       -3    1    3    3    0  502  0.20088511300E+03 -0.34760115616E+03 -0.34542199530E+03  0.52962038993E+03  0.10100000352E+00 0.  1.
</event>
<event>
 5   0  0.6557679E-03  0.8019520E+03  0.7818609E-02  0.9557196E-01
        1   -1    0    0  501    0  0.00000000000E+00  0.00000000000E+00  0.24371650579E+04  0.24371650579E+04  0.50400001928E-02 0. -1.
       -1   -1    0    0    0  501  0.00000000000E+00  0.00000000000E+00 -0.65970802422E+02  0.65970802615E+02  0.50400001928E-02 0.  1.
    10030    2    1    2    0    0  0.00000000000E+00  0.00000000000E+00  0.23711942555E+04  0.25031358606E+04  0.80195195556E+03 0.  0.
        1    1    3    3  502    0  0.95677169205E+02 -0.27610871215E+03  0.32856415373E+03  0.43970961414E+03  0.50400001928E-02 0.  1.
       -1    1    3    3    0  502 -0.95677169205E+02  0.27610871215E+03  0.20426301018E+04  0.20634262464E+04  0.50400001928E-02 0. -1.
</event>
<event>
 5   0  0.6596225E-03  0.8023971E+03  0.7818609E-02  0.9556554E-01
        1   -1    0    0  501    0  0.00000000000E+00  0.00000000000E+00  0.50869785251E+03  0.50869785253E+03  0.50400001928E-02 0.  1.
       -1   -1    0    0    0  501  0.00000000000E+00  0.00000000000E+00 -0.31641629774E+03  0.31641629778E+03  0.50400001928E-02 0. -1.
    10030    2    1    2    0    0  0.00000000000E+00  0.00000000000E+00  0.19228155477E+03  0.82511415031E+03  0.80239713655E+03 0.  0.
        5    1    3    3  502    0  0.38210294585E+02  0.98314092484E+02 -0.30187355449E+03  0.31980528497E+03  0.46999998093E+01 0. -1.
       -5    1    3    3    0  502 -0.38210294585E+02 -0.98314092484E+02  0.49415510926E+03  0.50530886535E+03  0.46999998093E+01 0.  1.
</event>
<event>
 5   0  0.6557679E-03  0.8010961E+03  0.7818609E-02  0.9558432E-01
       -1   -1    0    0    0  501  0.00000000000E+00  0.00000000000E+00  0.17504754580E+03  0.17504754587E+03  0.50400001928E-02 0.  1.
        1   -1    0    0  501    0  0.00000000000E+00  0.00000000000E+00 -0.91654378442E+03  0.91654378443E+03  0.50400001928E-02 0. -1.
    10030    2    1    2    0    0  0.00000000000E+00  0.00000000000E+00 -0.74149623862E+03  0.10915913303E+04  0.80109609942E+03 0.  0.
        1    1    3    3  502    0 -0.10484930509E+03 -0.32490800103E+03 -0.85311602472E+02  0.35190432713E+03  0.50400001928E-02 0.  1.
       -1    1    3    3    0  502  0.10484930509E+03  0.32490800103E+03 -0.65618463615E+03  0.73968700317E+03  0.50400001928E-02 0. -1.
</event>
<event>
 5   0  0.6551489E-03  0.7955243E+03  0.7818609E-02  0.9566518E-01
        1   -1    0    0  501    0  0.00000000000E+00  0.00000000000E+00  0.88032044338E+03  0.88032044339E+03  0.50400001928E-02 0.  1.
       -1   -1    0    0    0  501  0.00000000000E+00  0.00000000000E+00 -0.17972400295E+03  0.17972400302E+03  0.50400001928E-02 0. -1.
    10030    2    1    2    0    0  0.00000000000E+00  0.00000000000E+00  0.70059644043E+03  0.10600444464E+04  0.79552426489E+03 0.  0.
        4    1    3    3  502    0 -0.21303413486E+03  0.10535552072E+03 -0.74707408018E+02  0.24913076501E+03  0.12699999809E+01 0. -1.
       -4    1    3    3    0  502  0.21303413486E+03 -0.10535552072E+03  0.77530384845E+03  0.81091368140E+03  0.12699999809E+01 0.  1.
</event>
<event>
 5   0  0.6517392E-03  0.7931683E+03  0.7818609E-02  0.9569959E-01
        1   -1    0    0  501    0  0.00000000000E+00  0.00000000000E+00  0.15230287977E+04  0.15230287977E+04  0.50400001928E-02 0. -1.
       -1   -1    0    0    0  501  0.00000000000E+00  0.00000000000E+00 -0.10326723582E+03  0.10326723595E+03  0.50400001928E-02 0.  1.
    10030    2    1    2    0    0  0.00000000000E+00  0.00000000000E+00  0.14197615619E+04  0.16262960337E+04  0.79316826493E+03 0.  0.
        3    1    3    3  502    0 -0.29417048534E+03  0.26198869602E+03  0.80394411319E+03  0.89526560228E+03  0.10100000352E+00 0.  1.
       -3    1    3    3    0  502  0.29417048534E+03 -0.26198869602E+03  0.61581744869E+03  0.73103043138E+03  0.10100000352E+00 0. -1.
</event>
<event>
 5   0  0.1119792E-02  0.7982793E+03  0.7818609E-02  0.9562511E-01
       -2   -1    0    0    0  501  0.00000000000E+00  0.00000000000E+00  0.47085037113E+03  0.47085037114E+03  0.25500000920E-02 0. -1.
        2   -1    0    0  501    0  0.00000000000E+00  0.00000000000E+00 -0.33835053615E+03  0.33835053616E+03  0.25500000920E-02 0.  1.
    10030    2    1    2    0    0  0.00000000000E+00  0.00000000000E+00  0.13249983498E+03  0.80920090730E+03  0.79827933839E+03 0.  0.
        4    1    3    3  502    0 -0.11377429453E+03 -0.14308725197E+03  0.42591731716E+03  0.46349296189E+03  0.12699999809E+01 0. -1.
       -4    1    3    3    0  502  0.11377429453E+03  0.14308725197E+03 -0.29341748218E+03  0.34570794541E+03  0.12699999809E+01 0.  1.
</event>
<event>
 5   0  0.6600401E-03  0.7967407E+03  0.7818609E-02  0.9564747E-01
        1   -1    0    0  501    0  0.00000000000E+00  0.00000000000E+00  0.14481444505E+04  0.14481444505E+04  0.50400001928E-02 0. -1.
       -1   -1    0    0    0  501  0.00000000000E+00  0.00000000000E+00 -0.10958777837E+03  0.10958777849E+03  0.50400001928E-02 0.  1.
    10030    2    1    2    0    0  0.00000000000E+00  0.00000000000E+00  0.13385566721E+04  0.15577322290E+04  0.79674069355E+03 0.  0.
        2    1    3    3  502    0  0.30380597364E+03  0.10292959150E+03  0.20741055801E+03  0.38198391328E+03  0.25500000920E-02 0.  1.
       -2    1    3    3    0  502 -0.30380597364E+03 -0.10292959150E+03  0.11311461141E+04  0.11757483157E+04  0.25500000920E-02 0. -1.
</event>
<event>
 5   0  0.6517392E-03  0.7970818E+03  0.7818609E-02  0.9564251E-01
       -1   -1    0    0    0  501  0.00000000000E+00  0.00000000000E+00  0.22427074272E+03  0.22427074278E+03  0.50400001928E-02 0.  1.
        1   -1    0    0  501    0  0.00000000000E+00  0.00000000000E+00 -0.70822805632E+03  0.70822805634E+03  0.50400001928E-02 0. -1.
    10030    2    1    2    0    0  0.00000000000E+00  0.00000000000E+00 -0.48395731360E+03  0.93249879911E+03  0.79708175801E+03 0.  0.
        3    1    3    3  502    0  0.11460549622E+03  0.13482978325E+03 -0.65974825370E+03  0.68306753596E+03  0.10100000352E+00 0. -1.
       -3    1    3    3    0  502 -0.11460549622E+03 -0.13482978325E+03  0.17579094010E+03  0.24943126315E+03  0.10100000352E+00 0.  1.
</event>
<event>
 5   0  0.1154714E-02  0.8652509E+03  0.7818609E-02  0.9470093E-01
       -2   -1    0    0    0  501  0.00000000000E+00  0.00000000000E+00  0.54007526000E+03  0.54007526000E+03  0.25500000920E-02 0.  1.
        2   -1    0    0  501    0  0.00000000000E+00  0.00000000000E+00 -0.34655315096E+03  0.34655315097E+03  0.25500000920E-02 0. -1.
    10030    2    1    2    0    0  0.00000000000E+00  0.00000000000E+00  0.19352210904E+03  0.88662841097E+03  0.86525090722E+03 0.  0.
        5    1    3    3  502    0 -0.18460050806E+03  0.13277935491E+03  0.47386842253E+03  0.52562446341E+03  0.46999998093E+01 0.  1.
       -5    1    3    3    0  502  0.18460050806E+03 -0.13277935491E+03 -0.28034631349E+03  0.36100394756E+03  0.46999998093E+01 0. -1.
</event>
<event>
 5   0  0.6600401E-03  0.8039092E+03  0.7818609E-02  0.9554376E-01
       -1   -1    0    0    0  501  0.00000000000E+00  0.00000000000E+00  0.34965083189E+03  0.34965083193E+03  0.50400001928E-02 0. -1.
        1   -1    0    0  501    0  0.00000000000E+00  0.00000000000E+00 -0.46208235964E+03  0.46208235967E+03  0.50400001928E-02 0.  1.
    10030    2    1    2    0    0  0.00000000000E+00  0.00000000000E+00 -0.11243152775E+03  0.81173319160E+03  0.80390915277E+03 0.  0.
        2    1    3    3  502    0  0.38864136303E+03 -0.11637089037E+02 -0.15913891447E+03  0.42012227388E+03  0.25500000920E-02 0.  1.
       -2    1    3    3    0  502 -0.38864136303E+03  0.11637089037E+02  0.46707386721E+02  0.39161091773E+03  0.25500000920E-02 0. -1.
</event>
<event>
 5   0  0.6517392E-03  0.8002593E+03  0.7818609E-02  0.9559642E-01
       -1   -1    0    0    0  501  0.00000000000E+00  0.00000000000E+00  0.10999466873E+04  0.10999466873E+04  0.50400001928E-02 0.  1.
        1   -1    0    0  501    0  0.00000000000E+00  0.00000000000E+00 -0.14555590705E+03  0.14555590714E+03  0.50400001928E-02 0. -1.
    10030    2    1    2    0    0  0.00000000000E+00  0.00000000000E+00  0.95439078020E+03  0.12455025944E+04  0.80025930257E+03 0.  0.
        3    1    3    3  502    0 -0.15300730694E+03  0.28948291526E+03  0.11925603798E+03  0.34847325148E+03  0.10100000352E+00 0. -1.
       -3    1    3    3    0  502  0.15300730694E+03 -0.28948291526E+03  0.83513474222E+03  0.89702934292E+03  0.10100000352E+00 0.  1.
</event>
<event>
 5   0  0.6596225E-03  0.8003045E+03  0.7818609E-02  0.9559576E-01
        1   -1    0    0  501    0  0.00000000000E+00  0.00000000000E+00  0.53553260555E+03  0.53553260558E+03  0.50400001928E-02 0. -1.
       -1   -1    0    0    0  501  0.00000000000E+00  0.00000000000E+00 -0.29899546335E+03  0.29899546339E+03  0.50400001928E-02 0.  1.
    10030    2    1    2    0    0  0.00000000000E+00  0.00000000000E+00  0.23653714220E+03  0.83452806897E+03  0.80030449096E+03 0.  0.
        5    1    3    3  502    0 -0.39364648631E+03  0.50264807117E+02  0.64938368877E+02  0.40214821742E+03  0.46999998093E+01 0.  1.
       -5    1    3    3    0  502  0.39364648631E+03 -0.50264807117E+02  0.17159877333E+03  0.43237985155E+03  0.46999998093E+01 0. -1.
</event>
<event>
 5   0  0.1121480E-02  0.8073857E+03  0.7818609E-02  0.9549388E-01
       -2   -1    0    0    0  501  0.00000000000E+00  0.00000000000E+00  0.34496618142E+03  0.34496618143E+03  0.25500000920E-02 0.  1.
        2   -1    0    0  501    0  0.00000000000E+00  0.00000000000E+00 -0.47241707619E+03  0.47241707619E+03  0.25500000920E-02 0. -1.
    10030    2    1    2    0    0  0.00000000000E+00  0.00000000000E+00 -0.12745089476E+03  0.81738325762E+03  0.80738569424E+03 0.  0.
        2    1    3    3  502    0 -0.11917415270E+03 -0.12005822887E+03 -0.43480402175E+03  0.46655224180E+03  0.25500000920E-02 0. -1.
       -2    1    3    3    0  502  0.11917415270E+03  0.12005822887E+03  0.30735312699E+03  0.35083101582E+03  0.25500000920E-02 0.  1.
</event>
<event>
 5   0  0.1121480E-02  0.7968374E+03  0.7818609E-02  0.9564606E-01
       -2   -1    0    0    0  501  0.00000000000E+00  0.00000000000E+00  0.19667085697E+03  0.19667085699E+03  0.25500000920E-02 0.  1.
        2   -1    0    0  501    0  0.00000000000E+00  0.00000000000E+00 -0.80712252432E+03  0.80712252433E+03  0.25500000920E-02 0. -1.
    10030    2    1    2    0    0  0.00000000000E+00  0.00000000000E+00 -0.61045166735E+03  0.10037933813E+04  0.79683744528E+03 0.  0.
        2    1    3    3  502    0 -0.20629405312E+03 -0.96341947479E+02 -0.71709600533E+03  0.75237337012E+03  0.25500000920E-02 0. -1.
       -2    1    3    3    0  502  0.20629405312E+03  0.96341947479E+02  0.10664433798E+03  0.25142001119E+03  0.25500000920E-02 0.  1.
</event>
<event>
 5   0  0.1154714E-02  0.7983440E+03  0.7818609E-02  0.9562417E-01
        2   -1    0    0  501    0  0.00000000000E+00  0.00000000000E+00  0.14554475908E+04  0.14554475908E+04  0.25500000920E-02 0. -1.
       -2   -1    0    0    0  501  0.00000000000E+00  0.00000000000E+00 -0.10947718500E+03  0.10947718503E+03  0.25500000920E-02 0.  1.
    10030    2    1    2    0    0  0.00000000000E+00  0.00000000000E+00  0.13459704059E+04  0.15649247759E+04  0.79834404909E+03 0.  0.
        5    1    3    3  502    0 -0.14398814262E+02 -0.23466787872E+03  0.40714167632E+02  0.23865471417E+03  0.46999998093E+01 0.  1.
       -5    1    3    3    0  502  0.14398814262E+02  0.23466787872E+03  0.13052562382E+04  0.13262700617E+04  0.46999998093E+01 0. -1.
</event>
<event>
 5   0  0.1119792E-02  0.8033620E+03  0.7818609E-02  0.9555163E-01
       -2   -1    0    0    0  501  0.00000000000E+00  0.00000000000E+00  0.15859381112E+03  0.15859381114E+03  0.25500000920E-02 0.  1.
        2   -1    0    0  501    0  0.00000000000E+00  0.00000000000E+00 -0.10173639144E+04  0.10173639144E+04  0.25500000920E-02 0. -1.
    10030    2    1    2    0    0  0.00000000000E+00  0.00000000000E+00 -0.85877010332E+03  0.11759577256E+04  0.80336198690E+03 0.  0.
        4    1    3    3  502    0  0.29474386216E+03 -0.13060280487E+03 -0.78638826974E+02  0.33183838677E+03  0.12699999809E+01 0.  1.
       -4    1    3    3    0  502 -0.29474386216E+03  0.13060280487E+03 -0.78013127634E+03  0.84411933881E+03  0.12699999809E+01 0. -1.
</event>
<event>
 5   0  0.6557679E-03  0.7994906E+03  0.7818609E-02  0.9560755E-01
       -1   -1    0    0    0  501  0.00000000000E+00  0.00000000000E+00  0.10321055778E+04  0.10321055778E+04  0.50400001928E-02 0.  1.
        1   -1    0    0  501    0  0.00000000000E+00  0.00000000000E+00 -0.15482554363E+03  0.15482554371E+03  0.50400001928E-02 0. -1.
    10030    2    1    2    0    0  0.00000000000E+00  0.00000000000E+00  0.87728003418E+03  0.11869311215E+04  0.79949060588E+03 0.  0.
        1    1    3    3  502    0  0.21857563214E+03  0.19341596290E+03  0.33118077560E+02  0.29373772103E+03  0.50400001928E-02 0. -1.
       -1    1    3    3    0  502 -0.21857563214E+03 -0.19341596290E+03  0.84416195662E+03  0.89319340051E+03  0.50400001928E-02 0.  1.
</event>
<event>
 5   0  0.1119792E-02  0.7959334E+03  0.7818609E-02  0.9565922E-01
        2   -1    0    0  501    0  0.00000000000E+00  0.00000000000E+00  0.80728273113E+03  0.80728273114E+03  0.25500000920E-02 0. -1.
       -2   -1    0    0    0  501  0.00000000000E+00  0.00000000000E+00 -0.19618588956E+03  0.19618588957E+03  0.25500000920E-02 0.  1.
    10030    2    1    2    0    0  0.00000000000E+00  0.00000000000E+00  0.61109684157E+03  0.10034686207E+04  0.79593336591E+03 0.  0.
        4    1    3    3  502    0 -0.11521033845E+01  0.52678939411E+02 -0.19176610197E+03  0.19887747173E+03  0.12699999809E+01 0.  1.
       -4    1    3    3    0  502  0.11521033845E+01 -0.52678939411E+02  0.80286294354E+03  0.80459114898E+03  0.12699999809E+01 0. -1.
</event>
<event>
 5   0  0.6551489E-03  0.7915340E+03  0.7818609E-02  0.9572353E-01
        1   -1    0    0  501    0  0.00000000000E+00  0.00000000000E+00  0.67473151273E+03  0.67473151275E+03  0.50400001928E-02 0. -1.
       -1   -1    0    0    0  501  0.00000000000E+00  0.00000000000E+00 -0.23213902918E+03  0.23213902923E+03  0.50400001928E-02 0.  1.
    10030    2    1    2    0    0  0.00000000000E+00  0.00000000000E+00  0.44259248356E+03  0.90687054198E+03  0.79153400016E+03 0.  0.
        4    1    3    3  502    0 -0.13407728591E+03  0.34534583463E+03  0.38083212043E+03  0.53129575656E+03  0.12699999809E+01 0.  1.
       -4    1    3    3    0  502  0.13407728591E+03 -0.34534583463E+03  0.61760363130E+02  0.37557478542E+03  0.12699999809E+01 0. -1.
</event>
<event>
 5   0  0.1106332E-02  0.7891037E+03  0.7818609E-02  0.9575924E-01
       -2   -1    0    0    0  501  0.00000000000E+00  0.00000000000E+00  0.85646001736E+02  0.85646001774E+02  0.25500000920E-02 0.  1.
        2   -1    0    0  501    0  0.00000000000E+00  0.00000000000E+00 -0.18176115097E+04  0.18176115097E+04  0.25500000920E-02 0. -1.
    10030    2    1    2    0    0  0.00000000000E+00  0.00000000000E+00 -0.17319655080E+04  0.19032575115E+04  0.78910369041E+03 0.  0.
        1    1    3    3  502    0  0.36406748668E+03 -0.20304418059E+02 -0.12294857039E+04  0.12824166641E+04  0.50400001928E-02 0.  1.
       -1    1    3    3    0  502 -0.36406748668E+03  0.20304418059E+02 -0.50247980405E+03  0.62084084736E+03  0.50400001928E-02 0. -1.
</event>
<event>
 5   0  0.6517392E-03  0.7620764E+03  0.7818609E-02  0.9616593E-01
        1   -1    0    0  501    0  0.00000000000E+00  0.00000000000E+00  0.40283060331E+03  0.40283060334E+03  0.50400001928E-02 0.  1.
       -1   -1    0    0    0  501  0.00000000000E+00  0.00000000000E+00 -0.36042474998E+03  0.36042475002E+03  0.50400001928E-02 0. -1.
    10030    2    1    2    0    0  0.00000000000E+00  0.00000000000E+00  0.42405853330E+02  0.76325535336E+03  0.76207642532E+03 0.  0.
        3    1    3    3  502    0  0.29226671892E+03 -0.19110812635E+03  0.17391161313E+03  0.39011204843E+03  0.10100000352E+00 0.  1.
       -3    1    3    3    0  502 -0.29226671892E+03  0.19110812635E+03 -0.13150575980E+03  0.37314330493E+03  0.10100000352E+00 0. -1.
</event>
<event>
 5   0  0.1092868E-02  0.7996269E+03  0.7818609E-02  0.9560557E-01
        2   -1    0    0  501    0  0.00000000000E+00  0.00000000000E+00  0.87981873454E+03  0.87981873455E+03  0.25500000920E-02 0.  1.
       -2   -1    0    0    0  501  0.00000000000E+00  0.00000000000E+00 -0.18168606583E+03  0.18168606584E+03  0.25500000920E-02 0. -1.
    10030    2    1    2    0    0  0.00000000000E+00  0.00000000000E+00  0.69813266872E+03  0.10615048004E+04  0.79962692433E+03 0.  0.
        3    1    3    3  502    0 -0.72991000359E+02  0.35192914211E+03  0.58154562417E+03  0.68364985950E+03  0.10100000352E+00 0. -1.
       -3    1    3    3    0  502  0.72991000359E+02 -0.35192914211E+03  0.11658704455E+03  0.37785494089E+03  0.10100000352E+00 0.  1.
</event>
<event>
 5   0  0.6596225E-03  0.8349118E+03  0.7818609E-02  0.9510815E-01
        1   -1    0    0  501    0  0.00000000000E+00  0.00000000000E+00  0.18009617705E+03  0.18009617712E+03  0.50400001928E-02 0. -1.
       -1   -1    0    0    0  501  0.00000000000E+00  0.00000000000E+00 -0.96764650655E+03  0.96764650656E+03  0.50400001928E-02 0.  1.
    10030    2    1    2    0    0  0.00000000000E+00  0.00000000000E+00 -0.78755032950E+03  0.11477426837E+04  0.83491181957E+03 0.  0.
        5    1    3    3  502    0 -0.13655349016E+03 -0.36410684494E+03 -0.60237777639E+03  0.71700887421E+03  0.46999998093E+01 0.  1.
       -5    1    3    3    0  502  0.13655349016E+03  0.36410684494E+03 -0.18517255311E+03  0.43073380948E+03  0.46999998093E+01 0. -1.
</event>
<event>
 5   0  0.1106332E-02  0.8002032E+03  0.7818609E-02  0.9559723E-01
       -2   -1    0    0    0  501  0.00000000000E+00  0.00000000000E+00  0.11930897688E+03  0.11930897691E+03  0.25500000920E-02 0.  1.
        2   -1    0    0  501    0  0.00000000000E+00  0.00000000000E+00 -0.13417372464E+04  0.13417372464E+04  0.25500000920E-02 0. -1.
    10030    2    1    2    0    0  0.00000000000E+00  0.00000000000E+00 -0.12224282695E+04  0.14610462233E+04  0.80020321954E+03 0.  0.
        1    1    3    3  502    0 -0.13817763226E+03  0.78748225747E+02 -0.12815424981E+04  0.12913734997E+04  0.50400001928E-02 0. -1.
       -1    1    3    3    0  502  0.13817763226E+03 -0.78748225747E+02  0.59114228578E+02  0.16967272368E+03  0.50400001928E-02 0.  1.
</event>
<event>
 5   0  0.1092868E-02  0.7719705E+03  0.7818609E-02  0.9601499E-01
        2   -1    0    0  501    0  0.00000000000E+00  0.00000000000E+00  0.78287014739E+03  0.78287014739E+03  0.25500000920E-02 0.  1.
       -2   -1    0    0    0  501  0.00000000000E+00  0.00000000000E+00 -0.19030564799E+03  0.19030564801E+03  0.25500000920E-02 0. -1.
    10030    2    1    2    0    0  0.00000000000E+00  0.00000000000E+00  0.59256449940E+03  0.97317579541E+03  0.77197049349E+03 0.  0.
        3    1    3    3  502    0  0.22011600052E+02 -0.15022478147E+03  0.74364486782E+03  0.75898596505E+03  0.10100000352E+00 0.  1.
       -3    1    3    3    0  502 -0.22011600052E+02  0.15022478147E+03 -0.15108036843E+03  0.21418983036E+03  0.10100000352E+00 0. -1.
</event>
<event>
 5   0  0.6596225E-03  0.7942173E+03  0.7818609E-02  0.9568425E-01
       -1   -1    0    0    0  501  0.00000000000E+00  0.00000000000E+00  0.30495507993E+03  0.30495507997E+03  0.50400001928E-02 0. -1.
        1   -1    0    0  501    0  0.00000000000E+00  0.00000000000E+00 -0.51710991125E+03  0.51710991128E+03  0.50400001928E-02 0.  1.
    10030    2    1    2    0    0  0.00000000000E+00  0.00000000000E+00 -0.21215483133E+03  0.82206499125E+03  0.79421733636E+03 0.  0.
        5    1    3    3  502    0  0.17998008194E+03 -0.19208451190E+03  0.20164094326E+03  0.33161792715E+03  0.46999998093E+01 0. -1.
       -5    1    3    3    0  502 -0.17998008194E+03  0.19208451190E+03 -0.41379577459E+03  0.49044706409E+03  0.46999998093E+01 0.  1.
</event>
<event>
 5   0  0.6551489E-03  0.7954612E+03  0.7818609E-02  0.9566610E-01
        1   -1    0    0  501    0  0.00000000000E+00  0.00000000000E+00  0.73156371757E+03  0.73156371758E+03  0.50400001928E-02 0. -1.
       -1   -1    0    0    0  501  0.00000000000E+00  0.00000000000E+00 -0.21623490725E+03  0.21623490730E+03  0.50400001928E-02 0.  1.
    10030    2    1    2    0    0  0.00000000000E+00  0.00000000000E+00  0.51532881032E+03  0.94779862489E+03  0.79546115593E+03 0.  0.
        4    1    3    3  502    0 -0.28672380594E+03  0.20594115069E+02  0.58517393004E+03  0.65196993778E+03  0.12699999809E+01 0. -1.
       -4    1    3    3    0  502  0.28672380594E+03 -0.20594115069E+02 -0.69845119722E+02  0.29582868711E+03  0.12699999809E+01 0.  1.
</event>
<event>
 5   0  0.6600401E-03  0.8063906E+03  0.7818609E-02  0.9550813E-01
        1   -1    0    0  501    0  0.00000000000E+00  0.00000000000E+00  0.47219816228E+03  0.47219816231E+03  0.50400001928E-02 0.  1.
       -1   -1    0    0    0  501  0.00000000000E+00  0.00000000000E+00 -0.34427590116E+03  0.34427590120E+03  0.50400001928E-02 0. -1.
    10030    2    1    2    0    0  0.00000000000E+00  0.00000000000E+00  0.12792226112E+03  0.81647406351E+03  0.80639059487E+03 0.  0.
        2    1    3    3  502    0 -0.15924761227E+03 -0.26296271915E+03  0.32810111691E+03  0.44962154820E+03  0.25500000920E-02 0.  1.
       -2    1    3    3    0  502  0.15924761227E+03  0.26296271915E+03 -0.20017885579E+03  0.36685251531E+03  0.25500000920E-02 0. -1.
</event>
<event>
 5   0  0.1119792E-02  0.7915850E+03  0.7818609E-02  0.9572278E-01
        2   -1    0    0  501    0  0.00000000000E+00  0.00000000000E+00  0.14997431503E+04  0.14997431503E+04  0.25500000920E-02 0. -1.
       -2   -1    0    0    0  501  0.00000000000E+00  0.00000000000E+00 -0.10445234826E+03  0.10445234830E+03  0.25500000920E-02 0.  1.
    10030    2    1    2    0    0  0.00000000000E+00  0.00000000000E+00  0.13952908021E+04  0.16041954986E+04  0.79158497679E+03 0.  0.
        4    1    3    3  502    0 -0.13711007172E+03  0.28683097000E+02  0.14478240671E+04  0.14545851759E+04  0.12699999809E+01 0. -1.
       -4    1    3    3    0  502  0.13711007172E+03 -0.28683097000E+02 -0.52533265048E+02  0.14961032270E+03  0.12699999809E+01 0.  1.
</event>
<event>
 5   0  0.1106332E-02  0.7974052E+03  0.7818609E-02  0.9563781E-01
        2   -1    0    0  501    0  0.00000000000E+00  0.00000000000E+00  0.55630795800E+03  0.55630795801E+03  0.25500000920E-02 0. -1.
       -2   -1    0    0    0  501  0.00000000000E+00  0.00000000000E+00 -0.28574776088E+03  0.28574776089E+03  0.25500000920E-02 0.  1.
    10030    2    1    2    0    0  0.00000000000E+00  0.00000000000E+00  0.27056019712E+03  0.84205571890E+03  0.79740517522E+03 0.  0.
        1    1    3    3  502    0  0.18650404072E+03  0.77935222205E+02 -0.22762906903E+03  0.30442182767E+03  0.50400001928E-02 0.  1.
       -1    1    3    3    0  502 -0.18650404072E+03 -0.77935222205E+02  0.49818926616E+03  0.53763389123E+03  0.50400001928E-02 0. -1.
</event>
<event>
 5   0  0.6557679E-03  0.7978469E+03  0.7818609E-02  0.9563139E-01
       -1   -1    0    0    0  501  0.00000000000E+00  0.00000000000E+00  0.34542405879E+03  0.34542405883E+03  0.50400001928E-02 0. -1.
        1   -1    0    0  501    0  0.00000000000E+00  0.00000000000E+00 -0.46070889271E+03  0.46070889274E+03  0.50400001928E-02 0.  1.
    10030    2    1    2    0    0  0.00000000000E+00  0.00000000000E+00 -0.11528483392E+03  0.80613295157E+03  0.79784694188E+03 0.  0.
        1    1    3    3  502    0 -0.31621483350E+03 -0.14382704507E+03 -0.25579622947E+03  0.43140439364E+03  0.50400001928E-02 0.  1.
       -1    1    3    3    0  502  0.31621483350E+03  0.14382704507E+03  0.14051139555E+03  0.37472855792E+03  0.50400001928E-02 0. -1.
</event>
<event>
 5   0  0.1154714E-02  0.7970896E+03  0.7818609E-02  0.9564239E-01
        2   -1    0    0  501    0  0.00000000000E+00  0.00000000000E+00  0.95140709643E+03  0.95140709644E+03  0.25500000920E-02 0.  1.
       -2   -1    0    0    0  501  0.00000000000E+00  0.00000000000E+00 -0.16695056852E+03  0.16695056854E+03  0.25500000920E-02 0. -1.
    10030    2    1    2    0    0  0.00000000000E+00  0.00000000000E+00  0.78445652791E+03  0.11183576650E+04  0.79708959511E+03 0.  0.
        5    1    3    3  502    0  0.37378163977E+03  0.53360741696E+02  0.21334178295E+03  0.43370138267E+03  0.46999998093E+01 0.  1.
       -5    1    3    3    0  502 -0.37378163977E+03 -0.53360741696E+02  0.57111474496E+03  0.68465628230E+03  0.46999998093E+01 0. -1.
</event>
<event>
 5   0  0.6551489E-03  0.8006348E+03  0.7818609E-02  0.9559099E-01
       -1   -1    0    0    0  501  0.00000000000E+00  0.00000000000E+00  0.18323608738E+04  0.18323608738E+04  0.50400001928E-02 0. -1.
        1   -1    0    0  501    0  0.00000000000E+00  0.00000000000E+00 -0.87457665531E+02  0.87457665677E+02  0.50400001928E-02 0.  1.
    10030    2    1    2    0    0  0.00000000000E+00  0.00000000000E+00  0.17449032082E+04  0.19198185395E+04  0.80063475962E+03 0.  0.
        4    1    3    3  502    0 -0.20474491479E+03 -0.24955824031E+03  0.30474544406E+03  0.44392701429E+03  0.12699999809E+01 0.  1.
       -4    1    3    3    0  502  0.20474491479E+03  0.24955824031E+03  0.14401577642E+04  0.14758915252E+04  0.12699999809E+01 0. -1.
</event>
<event>
 5   0  0.6517392E-03  0.7969813E+03  0.7818609E-02  0.9564397E-01
        1   -1    0    0  501    0  0.00000000000E+00  0.00000000000E+00  0.25194585626E+04  0.25194585626E+04  0.50400001928E-02 0.  1.
       -1   -1    0    0    0  501  0.00000000000E+00  0.00000000000E+00 -0.63027344578E+02  0.63027344780E+02  0.50400001928E-02 0. -1.
    10030    2    1    2    0    0  0.00000000000E+00  0.00000000000E+00  0.24564312181E+04  0.25824859074E+04  0.79698126263E+03 0.  0.
        3    1    3    3  502    0 -0.15232603175E+03 -0.24370458984E+03  0.33374460009E+03  0.44043230506E+03  0.10100000352E+00 0. -1.
       -3    1    3    3    0  502  0.15232603175E+03  0.24370458984E+03  0.21226866180E+04  0.21420536024E+04  0.10100000352E+00 0.  1.
</event>
<event>
 5   0  0.4385875E-03  0.8000566E+03  0.7818609E-02  0.9559935E-01
       -3   -1    0    0    0  501  0.00000000000E+00  0.00000000000E+00  0.16231021023E+03  0.16231024165E+03  0.10100000352E+00 0. -1.
        3   -1    0    0  501    0  0.00000000000E+00  0.00000000000E+00 -0.98590613055E+03  0.98590613572E+03  0.10100000352E+00 0.  1.
    10030    2    1    2    0    0  0.00000000000E+00  0.00000000000E+00 -0.82359592032E+03  0.11482163774E+04  0.80005662881E+03 0.  0.
        4    1    3    3  502    0 -0.38951691878E+03  0.78373730680E+02 -0.47842393074E+03  0.62189785503E+03  0.12699999809E+01 0.  1.
       -4    1    3    3    0  502  0.38951691878E+03 -0.78373730680E+02 -0.34517198958E+03  0.52631852235E+03  0.12699999809E+01 0. -1.
</event>
<event>
 5   0  0.6600401E-03  0.8234142E+03  0.7818609E-02  0.9526731E-01
        1   -1    0    0  501    0  0.00000000000E+00  0.00000000000E+00  0.54005589954E+03  0.54005589956E+03  0.50400001928E-02 0.  1.
       -1   -1    0    0    0  501  0.00000000000E+00  0.00000000000E+00 -0.31386142990E+03  0.31386142994E+03  0.50400001928E-02 0. -1.
    10030    2    1    2    0    0  0.00000000000E+00  0.00000000000E+00  0.22619446964E+03  0.85391732950E+03  0.82341415310E+03 0.  0.
        2    1    3    3  502    0 -0.32763960978E+03  0.78496613622E+02 -0.13229763092E+03  0.36195593019E+03  0.25500000920E-02 0. -1.
       -2    1    3    3    0  502  0.32763960978E+03 -0.78496613622E+02  0.35849210056E+03  0.49196139931E+03  0.25500000920E-02 0.  1.
</event>
<event>
 5   0  0.4385875E-03  0.7984076E+03  0.7818609E-02  0.9562325E-01
        3   -1    0    0  501    0  0.00000000000E+00  0.00000000000E+00  0.98844433469E+03  0.98844433985E+03  0.10100000352E+00 0. -1.
       -3   -1    0    0    0  501  0.00000000000E+00  0.00000000000E+00 -0.16122672773E+03  0.16122675937E+03  0.10100000352E+00 0.  1.
    10030    2    1    2    0    0  0.00000000000E+00  0.00000000000E+00  0.82721760696E+03  0.11496710992E+04  0.79840758208E+03 0.  0.
        1    1    3    3  502    0 -0.10669918934E+03  0.10697236414E+03  0.94568316364E+03  0.95767658931E+03  0.50400001928E-02 0. -1.
       -1    1    3    3    0  502  0.10669918934E+03 -0.10697236414E+03 -0.11846555668E+03  0.19199450992E+03  0.50400001928E-02 0.  1.
</event>
<event>
 5   0  0.1119792E-02  0.7929259E+03  0.7818609E-02  0.9570313E-01
        2   -1    0    0  501    0  0.00000000000E+00  0.00000000000E+00  0.67263461735E+03  0.67263461735E+03  0.25500000920E-02 0. -1.
       -2   -1    0    0    0  501  0.00000000000E+00  0.00000000000E+00 -0.23368239233E+03  0.23368239234E+03  0.25500000920E-02 0.  1.
    10030    2    1    2    0    0  0.00000000000E+00  0.00000000000E+00  0.43895222502E+03  0.90631700970E+03  0.79292588949E+03 0.  0.
        4    1    3    3  502    0 -0.21022358705E+03 -0.14708077569E+03  0.56494791539E+03  0.62047922699E+03  0.12699999809E+01 0. -1.
       -4    1    3    3    0  502  0.21022358705E+03  0.14708077569E+03 -0.12599569037E+03  0.28583778270E+03  0.12699999809E+01 0.  1.
</event>
<event>
 5   0  0.6557679E-03  0.7136977E+03  0.7818609E-02  0.9694090E-01
       -1   -1    0    0    0  501  0.00000000000E+00  0.00000000000E+00  0.98718827041E+02  0.98718827170E+02  0.50400001928E-02 0.  1.
        1   -1    0    0  501    0  0.00000000000E+00  0.00000000000E+00 -0.12899373236E+04  0.12899373236E+04  0.50400001928E-02 0. -1.
    10030    2    1    2    0    0  0.00000000000E+00  0.00000000000E+00 -0.11912184966E+04  0.13886561508E+04  0.71369769410E+03 0.  0.
        1    1    3    3  502    0 -0.35368809055E+02  0.15782694469E+03  0.23303585509E+02  0.16341160989E+03  0.50400001928E-02 0.  1.
       -1    1    3    3    0  502  0.35368809055E+02 -0.15782694469E+03 -0.12145220821E+04  0.12252445409E+04  0.50400001928E-02 0. -1.
</event>
<event>
 5   0  0.6517392E-03  0.7980741E+03  0.7818609E-02  0.9562809E-01
       -1   -1    0    0    0  501  0.00000000000E+00  0.00000000000E+00  0.14550319812E+04  0.14550319813E+04  0.50400001928E-02 0.  1.
        1   -1    0    0  501    0  0.00000000000E+00  0.00000000000E+00 -0.10943441770E+03  0.10943441782E+03  0.50400001928E-02 0. -1.
    10030    2    1    2    0    0  0.00000000000E+00  0.00000000000E+00  0.13455975635E+04  0.15644663991E+04  0.79807412614E+03 0.  0.
        3    1    3    3  502    0  0.22768346478E+03 -0.53001390527E+01  0.30481283375E+02  0.22977591354E+03  0.10100000352E+00 0. -1.
       -3    1    3    3    0  502 -0.22768346478E+03  0.53001390527E+01  0.13151162802E+04  0.13346904855E+04  0.10100000352E+00 0.  1.
</event>
<event>
 5   0  0.1121480E-02  0.7983082E+03  0.7818609E-02  0.9562469E-01
       -2   -1    0    0    0  501  0.00000000000E+00  0.00000000000E+00  0.68571141829E+03  0.68571141829E+03  0.25500000920E-02 0. -1.
        2   -1    0    0  501    0  0.00000000000E+00  0.00000000000E+00 -0.23234844142E+03  0.23234844144E+03  0.25500000920E-02 0.  1.
    10030    2    1    2    0    0  0.00000000000E+00  0.00000000000E+00  0.45336297686E+03  0.91805985973E+03  0.79830815933E+03 0.  0.
        2    1    3    3  502    0  0.28233528734E+03  0.12020357475E+03 -0.66878718682E+02  0.31406189976E+03  0.25500000920E-02 0.  1.
       -2    1    3    3    0  502 -0.28233528734E+03 -0.12020357475E+03  0.52024169555E+03  0.60399795997E+03  0.25500000920E-02 0. -1.
</event>
<event>
 5   0  0.1119792E-02  0.8090246E+03  0.7818609E-02  0.9547045E-01
       -2   -1    0    0    0  501  0.00000000000E+00  0.00000000000E+00  0.20741026532E+03  0.20741026533E+03  0.25500000920E-02 0. -1.
        2   -1    0    0  501    0  0.00000000000E+00  0.00000000000E+00 -0.78892042414E+03  0.78892042414E+03  0.25500000920E-02 0.  1.
    10030    2    1    2    0    0  0.00000000000E+00  0.00000000000E+00 -0.58151015882E+03  0.99633068948E+03  0.80902458429E+03 0.  0.
        4    1    3    3  502    0  0.57600203492E+02  0.39105494673E+03 -0.18490998202E+03  0.43638866753E+03  0.12699999809E+01 0. -1.
       -4    1    3    3    0  502 -0.57600203492E+02 -0.39105494673E+03 -0.39660017680E+03  0.55994202195E+03  0.12699999809E+01 0.  1.
</event>
<event>
 5   0  0.6596225E-03  0.8268672E+03  0.7818609E-02  0.9521922E-01
       -1   -1    0    0    0  501  0.00000000000E+00  0.00000000000E+00  0.67780651731E+03  0.67780651733E+03  0.50400001928E-02 0. -1.
        1   -1    0    0  501    0  0.00000000000E+00  0.00000000000E+00 -0.25217717229E+03  0.25217717234E+03  0.50400001928E-02 0.  1.
    10030    2    1    2    0    0  0.00000000000E+00  0.00000000000E+00  0.42562934502E+03  0.92998368967E+03  0.82686717417E+03 0.  0.
        5    1    3    3  502    0  0.23034513814E+03  0.25348904041E+03 -0.47548827077E+02  0.34583024337E+03  0.46999998093E+01 0.  1.
       -5    1    3    3    0  502 -0.23034513814E+03 -0.25348904041E+03  0.47317817210E+03  0.58415344630E+03  0.46999998093E+01 0. -1.
</event>
<event>
 5   0  0.1119792E-02  0.8001867E+03  0.7818609E-02  0.9559747E-01
       -2   -1    0    0    0  501  0.00000000000E+00  0.00000000000E+00  0.29038727415E+03  0.29038727416E+03  0.25500000920E-02 0. -1.
        2   -1    0    0  501    0  0.00000000000E+00  0.00000000000E+00 -0.55124553105E+03  0.55124553106E+03  0.25500000920E-02 0.  1.
    10030    2    1    2    0    0  0.00000000000E+00  0.00000000000E+00 -0.26085825691E+03  0.84163280522E+03  0.80018669610E+03 0.  0.
        4    1    3    3  502    0  0.96592849272E+02 -0.29157369824E+03  0.13922399865E+03  0.33723928410E+03  0.12699999809E+01 0. -1.
       -4    1    3    3    0  502 -0.96592849272E+02  0.29157369824E+03 -0.40008225556E+03  0.50439352112E+03  0.12699999809E+01 0.  1.
</event>
<event>
 5   0  0.6600401E-03  0.7997379E+03  0.7818609E-02  0.9560397E-01
       -1   -1    0    0    0  501  0.00000000000E+00  0.00000000000E+00  0.17100562822E+03  0.17100562829E+03  0.50400001928E-02 0. -1.
        1   -1    0    0  501    0  0.00000000000E+00  0.00000000000E+00 -0.93502880497E+03  0.93502880499E+03  0.50400001928E-02 0.  1.
    10030    2    1    2    0    0  0.00000000000E+00  0.00000000000E+00 -0.76402317676E+03  0.11060344333E+04  0.79973792769E+03 0.  0.
        2    1    3    3  502    0 -0.25279509212E+03  0.16652607077E+03 -0.74333873302E+03  0.80261370712E+03  0.25500000920E-02 0.  1.
       -2    1    3    3    0  502  0.25279509212E+03 -0.16652607077E+03 -0.20684443740E+02  0.30342072616E+03  0.25500000920E-02 0. -1.
</event>
<event>
 5   0  0.1154714E-02  0.8015222E+03  0.7818609E-02  0.9557816E-01
        2   -1    0    0  501    0  0.00000000000E+00  0.00000000000E+00  0.40002854916E+03  0.40002854917E+03  0.25500000920E-02 0.  1.
       -2   -1    0    0    0  501  0.00000000000E+00  0.00000000000E+00 -0.40149497406E+03  0.40149497407E+03  0.25500000920E-02 0. -1.
    10030    2    1    2    0    0  0.00000000000E+00  0.00000000000E+00 -0.14664249010E+01  0.80152352323E+03  0.80152218179E+03 0.  0.
        5    1    3    3  502    0  0.10268999593E+03  0.13116804452E+03 -0.36520202517E+03  0.40142857441E+03  0.46999998093E+01 0. -1.
       -5    1    3    3    0  502 -0.10268999593E+03 -0.13116804452E+03  0.36373560027E+03  0.40009494882E+03  0.46999998093E+01 0.  1.
</event>
<event>
 5   0  0.6600401E-03  0.8041123E+03  0.7818609E-02  0.9554084E-01
        1   -1    0    0  501    0  0.00000000000E+00  0.00000000000E+00  0.97185412901E+03  0.97185412903E+03  0.50400001928E-02 0. -1.
       -1   -1    0    0    0  501  0.00000000000E+00  0.00000000000E+00 -0.16633067362E+03  0.16633067369E+03  0.50400001928E-02 0.  1.
    10030    2    1    2    0    0  0.00000000000E+00  0.00000000000E+00  0.80552345540E+03  0.11381848027E+04  0.80411231053E+03 0.  0.
        2    1    3    3  502    0  0.26058199536E+03 -0.27326041062E+03  0.59825304626E+03  0.70744677233E+03  0.25500000920E-02 0. -1.
       -2    1    3    3    0  502 -0.26058199536E+03  0.27326041062E+03  0.20727040914E+03  0.43073803039E+03  0.25500000920E-02 0.  1.
</event>
<event>
 5   0  0.1092868E-02  0.7418289E+03  0.7818609E-02  0.9648257E-01
       -2   -1    0    0    0  501  0.00000000000E+00  0.00000000000E+00  0.58136251025E+03  0.58136251025E+03  0.25500000920E-02 0.  1.
        2   -1    0    0  501    0  0.00000000000E+00  0.00000000000E+00 -0.23664672136E+03  0.23664672138E+03  0.25500000920E-02 0. -1.
    10030    2    1    2    0    0  0.00000000000E+00  0.00000000000E+00  0.34471578888E+03  0.81800923163E+03  0.74182890745E+03 0.  0.
        3    1    3    3  502    0  0.10193878034E+03  0.17359117387E+03  0.51588178498E+03  0.55376839640E+03  0.10100000352E+00 0.  1.
       -3    1    3    3    0  502 -0.10193878034E+03 -0.17359117387E+03 -0.17116599609E+03  0.26424083523E+03  0.10100000352E+00 0. -1.
</event>
<event>
 5   0  0.4385875E-03  0.8003526E+03  0.7818609E-02  0.9559507E-01
        4   -1    0    0  501    0  0.00000000000E+00  0.00000000000E+00  0.70458149186E+03  0.70458263644E+03  0.12699999809E+01 0. -1.
       -4   -1    0    0    0  501  0.00000000000E+00  0.00000000000E+00 -0.22728227666E+03  0.22728582487E+03  0.12699999809E+01 0.  1.
    10030    2    1    2    0    0  0.00000000000E+00  0.00000000000E+00  0.47729921520E+03  0.93186846131E+03  0.80035260251E+03 0.  0.
        4    1    3    3  502    0 -0.24858563740E+03  0.31226200416E+03  0.27233618960E+03  0.48318836020E+03  0.12699999809E+01 0. -1.
       -4    1    3    3    0  502  0.24858563740E+03 -0.31226200416E+03  0.20496302560E+03  0.44868010111E+03  0.12699999809E+01 0.  1.
</event>
<event>
 5   0  0.1121480E-02  0.7969506E+03  0.7818609E-02  0.9564442E-01
        2   -1    0    0  501    0  0.00000000000E+00  0.00000000000E+00  0.55480174612E+03  0.55480174613E+03  0.25500000920E-02 0.  1.
       -2   -1    0    0    0  501  0.00000000000E+00  0.00000000000E+00 -0.28619691956E+03  0.28619691957E+03  0.25500000920E-02 0. -1.
    10030    2    1    2    0    0  0.00000000000E+00  0.00000000000E+00  0.26860482656E+03  0.84099866569E+03  0.79695056487E+03 0.  0.
        2    1    3    3  502    0  0.25497756291E+03  0.28013737921E+03  0.26479825214E+03  0.46217812925E+03  0.25500000920E-02 0.  1.
       -2    1    3    3    0  502 -0.25497756291E+03 -0.28013737921E+03  0.38065744252E+01  0.37882053644E+03  0.25500000920E-02 0. -1.
</event>
<event>
 5   0  0.6596225E-03  0.7987082E+03  0.7818609E-02  0.9561889E-01
       -1   -1    0    0    0  501  0.00000000000E+00  0.00000000000E+00  0.14413875169E+03  0.14413875178E+03  0.50400001928E-02 0. -1.
        1   -1    0    0  501    0  0.00000000000E+00  0.00000000000E+00 -0.11064595806E+04  0.11064595807E+04  0.50400001928E-02 0.  1.
    10030    2    1    2    0    0  0.00000000000E+00  0.00000000000E+00 -0.96232082895E+03  0.12505983324E+04  0.79870821409E+03 0.  0.
        5    1    3    3  502    0 -0.13617061259E+02  0.30578071715E+03 -0.88272735219E+03  0.93430024063E+03  0.46999998093E+01 0.  1.
       -5    1    3    3    0  502  0.13617061259E+02 -0.30578071715E+03 -0.79593476761E+02  0.31629809180E+03  0.46999998093E+01 0. -1.
</event>
<event>
 5   0  0.1119792E-02  0.7994310E+03  0.7818609E-02  0.9560841E-01
        2   -1    0    0  501    0  0.00000000000E+00  0.00000000000E+00  0.13657845863E+04  0.13657845863E+04  0.25500000920E-02 0. -1.
       -2   -1    0    0    0  501  0.00000000000E+00  0.00000000000E+00 -0.11698219485E+03  0.11698219488E+03  0.25500000920E-02 0.  1.
    10030    2    1    2    0    0  0.00000000000E+00  0.00000000000E+00  0.12488023914E+04  0.14827667811E+04  0.79943099418E+03 0.  0.
        4    1    3    3  502    0  0.23430373132E+03 -0.30785554860E+03  0.81078179238E+03  0.89835516644E+03  0.12699999809E+01 0. -1.
       -4    1    3    3    0  502 -0.23430373132E+03  0.30785554860E+03  0.43802059902E+03  0.58441161469E+03  0.12699999809E+01 0.  1.
</event>
<event>
 5   0  0.1154714E-02  0.7991494E+03  0.7818609E-02  0.9561249E-01
       -2   -1    0    0    0  501  0.00000000000E+00  0.00000000000E+00  0.60207704564E+03  0.60207704565E+03  0.25500000920E-02 0.  1.
        2   -1    0    0  501    0  0.00000000000E+00  0.00000000000E+00 -0.26518190504E+03  0.26518190506E+03  0.25500000920E-02 0. -1.
    10030    2    1    2    0    0  0.00000000000E+00  0.00000000000E+00  0.33689514060E+03  0.86725895070E+03  0.79914939268E+03 0.  0.
        5    1    3    3  502    0 -0.26244348331E+03 -0.21732572539E+03 -0.57974687594E+02  0.34567355590E+03  0.46999998093E+01 0. -1.
       -5    1    3    3    0  502  0.26244348331E+03  0.21732572539E+03  0.39486982820E+03  0.52158539480E+03  0.46999998093E+01 0.  1.
</event>
<event>
 5   0  0.6551489E-03  0.7774259E+03  0.7818609E-02  0.9593279E-01
       -1   -1    0    0    0  501  0.00000000000E+00  0.00000000000E+00  0.34360790742E+03  0.34360790746E+03  0.50400001928E-02 0. -1.
        1   -1    0    0  501    0  0.00000000000E+00  0.00000000000E+00 -0.43973892353E+03  0.43973892356E+03  0.50400001928E-02 0.  1.
    10030    2    1    2    0    0  0.00000000000E+00  0.00000000000E+00 -0.96131016111E+02  0.78334683101E+03  0.77742593564E+03 0.  0.
        4    1    3    3  502    0 -0.21057173442E+03  0.13751376041E+03  0.25057948825E+03  0.35502419984E+03  0.12699999809E+01 0. -1.
       -4    1    3    3    0  502  0.21057173442E+03 -0.13751376041E+03 -0.34671050436E+03  0.42832263117E+03  0.12699999809E+01 0.  1.
</event>
<event>
 5   0  0.4385875E-03  0.7892342E+03  0.7818609E-02  0.9575732E-01
        4   -1    0    0  501    0  0.00000000000E+00  0.00000000000E+00  0.49385670883E+03  0.49385834179E+03  0.12699999809E+01 0.  1.
       -4   -1    0    0    0  501  0.00000000000E+00  0.00000000000E+00 -0.31531607979E+03  0.31531863737E+03  0.12699999809E+01 0. -1.
    10030    2    1    2    0    0  0.00000000000E+00  0.00000000000E+00  0.17854062904E+03  0.80917697917E+03  0.78923420313E+03 0.  0.
        3    1    3    3  502    0  0.19696858922E+03  0.96408073145E+02  0.42563262505E+03  0.47880505784E+03  0.10100000352E+00 0.  1.
       -3    1    3    3    0  502 -0.19696858922E+03 -0.96408073145E+02 -0.24709199601E+03  0.33037192132E+03  0.10100000352E+00 0. -1.
</event>
<event>
 5   0  0.1154714E-02  0.7445892E+03  0.7818609E-02  0.9643878E-01
       -2   -1    0    0    0  501  0.00000000000E+00  0.00000000000E+00  0.15771895264E+03  0.15771895266E+03  0.25500000920E-02 0. -1.
        2   -1    0    0  501    0  0.00000000000E+00  0.00000000000E+00 -0.87879895589E+03  0.87879895589E+03  0.25500000920E-02 0.  1.
    10030    2    1    2    0    0  0.00000000000E+00  0.00000000000E+00 -0.72108000325E+03  0.10365179086E+04  0.74458915092E+03 0.  0.
        5    1    3    3  502    0  0.27383428163E+03 -0.20453772826E+03 -0.56588881352E+03  0.66111506967E+03  0.46999998093E+01 0. -1.
       -5    1    3    3    0  502 -0.27383428163E+03  0.20453772826E+03 -0.15519118973E+03  0.37540283889E+03  0.46999998093E+01 0.  1.
</event>
<event>
 5   0  0.6517392E-03  0.8022711E+03  0.7818609E-02  0.9556736E-01
       -1   -1    0    0    0  501  0.00000000000E+00  0.00000000000E+00  0.21351954401E+03  0.21351954407E+03  0.50400001928E-02 0. -1.
        1   -1    0    0  501    0  0.00000000000E+00  0.00000000000E+00 -0.75360646951E+03  0.75360646952E+03  0.50400001928E-02 0.  1.
    10030    2    1    2    0    0  0.00000000000E+00  0.00000000000E+00 -0.54008692550E+03  0.96712601359E+03  0.80227105087E+03 0.  0.
        3    1    3    3  502    0  0.13837830444E+03 -0.35086057150E+03 -0.43470589727E+03  0.57551796071E+03  0.10100000352E+00 0.  1.
       -3    1    3    3    0  502 -0.13837830444E+03  0.35086057150E+03 -0.10538102823E+03  0.39160805289E+03  0.10100000352E+00 0. -1.
</event>
<event>
 5   0  0.1106332E-02  0.8604703E+03  0.7818609E-02  0.9476391E-01
       -2   -1    0    0    0  501  0.00000000000E+00  0.00000000000E+00  0.66411871499E+03  0.66411871499E+03  0.25500000920E-02 0. -1.
        2   -1    0    0  501    0  0.00000000000E+00  0.00000000000E+00 -0.27871866299E+03  0.27871866300E+03  0.25500000920E-02 0.  1.
    10030    2    1    2    0    0  0.00000000000E+00  0.00000000000E+00  0.38540005200E+03  0.94283737800E+03  0.86047029075E+03 0.  0.
        1    1    3    3  502    0 -0.39447160782E+03  0.16144740403E+03  0.12853546799E+03  0.44519038646E+03  0.50400001928E-02 0.  1.
       -1    1    3    3    0  502  0.39447160782E+03 -0.16144740403E+03  0.25686458401E+03  0.49764699154E+03  0.50400001928E-02 0. -1.
</event>
<event>
 5   0  0.6557679E-03  0.8040708E+03  0.7818609E-02  0.9554143E-01
       -1   -1    0    0    0  501  0.00000000000E+00  0.00000000000E+00  0.34069302110E+03  0.34069302114E+03  0.50400001928E-02 0.  1.
        1   -1    0    0  501    0  0.00000000000E+00  0.00000000000E+00 -0.47442256822E+03  0.47442256825E+03  0.50400001928E-02 0. -1.
    10030    2    1    2    0    0  0.00000000000E+00  0.00000000000E+00 -0.13372954712E+03  0.81511558939E+03  0.80407078811E+03 0.  0.
        1    1    3    3  502    0 -0.20374190550E+03  0.34601132130E+03 -0.46644371157E+02  0.40424039372E+03  0.50400001928E-02 0.  1.
       -1    1    3    3    0  502  0.20374190550E+03 -0.34601132130E+03 -0.87085175962E+02  0.41087519568E+03  0.50400001928E-02 0. -1.
</event>
<event>
 5   0  0.1106332E-02  0.8018935E+03  0.7818609E-02  0.9557280E-01
        2   -1    0    0  501    0  0.00000000000E+00  0.00000000000E+00  0.77481311850E+03  0.77481311851E+03  0.25500000920E-02 0.  1.
       -2   -1    0    0    0  501  0.00000000000E+00  0.00000000000E+00 -0.20748007569E+03  0.20748007571E+03  0.25500000920E-02 0. -1.
    10030    2    1    2    0    0  0.00000000000E+00  0.00000000000E+00  0.56733304281E+03  0.98229319421E+03  0.80189347044E+03 0.  0.
        1    1    3    3  502    0 -0.18373398216E+02  0.24823231705E+03  0.66870669984E+03  0.71353031851E+03  0.50400001928E-02 0.  1.
       -1    1    3    3    0  502  0.18373398216E+02 -0.24823231705E+03 -0.10137365703E+03  0.26876287570E+03  0.50400001928E-02 0. -1.
</event>
<event>
 5   0  0.1106332E-02  0.7935210E+03  0.7818609E-02  0.9569443E-01
       -2   -1    0    0    0  501  0.00000000000E+00  0.00000000000E+00  0.23052930328E+03  0.23052930329E+03  0.25500000920E-02 0.  1.
        2   -1    0    0  501    0  0.00000000000E+00  0.00000000000E+00 -0.68285855623E+03  0.68285855623E+03  0.25500000920E-02 0. -1.
    10030    2    1    2    0    0  0.00000000000E+00  0.00000000000E+00 -0.45232925295E+03  0.91338785952E+03  0.79352103239E+03 0.  0.
        1    1    3    3  502    0 -0.38784718177E+03  0.90659431576E+01 -0.32185671195E+03  0.50408270232E+03  0.50400001928E-02 0. -1.
       -1    1    3    3    0  502  0.38784718177E+03 -0.90659431576E+01 -0.13047254100E+03  0.40930515720E+03  0.50400001928E-02 0.  1.
</event>
<event>
 5   0  0.1154714E-02  0.8050713E+03  0.7818609E-02  0.9552705E-01
       -2   -1    0    0    0  501  0.00000000000E+00  0.00000000000E+00  0.13659525846E+03  0.13659525848E+03  0.25500000920E-02 0.  1.
        2   -1    0    0  501    0  0.00000000000E+00  0.00000000000E+00 -0.11862415272E+04  0.11862415272E+04  0.25500000920E-02 0. -1.
    10030    2    1    2    0    0  0.00000000000E+00  0.00000000000E+00 -0.10496462687E+04  0.13228367856E+04  0.80507134593E+03 0.  0.
        5    1    3    3  502    0 -0.68074031291E+00 -0.23846872624E+03  0.79795131699E+01  0.23864944884E+03  0.46999998093E+01 0.  1.
       -5    1    3    3    0  502  0.68074031291E+00  0.23846872624E+03 -0.10576257819E+04  0.10841873368E+04  0.46999998093E+01 0. -1.
</event>
<event>
 5   0  0.1092868E-02  0.7909866E+03  0.7818609E-02  0.9573156E-01
        2   -1    0    0  501    0  0.00000000000E+00  0.00000000000E+00  0.16102787431E+04  0.16102787431E+04  0.25500000920E-02 0. -1.
       -2   -1    0    0    0  501  0.00000000000E+00  0.00000000000E+00 -0.97135326223E+02  0.97135326257E+02  0.25500000920E-02 0.  1.
    10030    2    1    2    0    0  0.00000000000E+00  0.00000000000E+00  0.15131434169E+04  0.17074140694E+04  0.79098660178E+03 0.  0.
        3    1    3    3  502    0 -0.12739134035E+03 -0.21601050776E+03  0.96432458524E+02  0.26867884605E+03  0.10100000352E+00 0.  1.
       -3    1    3    3    0  502  0.12739134035E+03  0.21601050776E+03  0.14167109583E+04  0.14387352233E+04  0.10100000352E+00 0. -1.
</event>
<event>
 5   0  0.6600401E-03  0.7990588E+03  0.7818609E-02  0.9561380E-01
       -1   -1    0    0    0  501  0.00000000000E+00  0.00000000000E+00  0.71492529386E+02  0.71492529564E+02  0.50400001928E-02 0.  1.
        1   -1    0    0  501    0  0.00000000000E+00  0.00000000000E+00 -0.22327330270E+04  0.22327330270E+04  0.50400001928E-02 0. -1.
    10030    2    1    2    0    0  0.00000000000E+00  0.00000000000E+00 -0.21612404977E+04  0.23042255566E+04  0.79905877571E+03 0.  0.
        2    1    3    3  502    0  0.12919147246E+03 -0.30860209486E+03 -0.45082911759E+03  0.56140233592E+03  0.25500000920E-02 0.  1.
       -2    1    3    3    0  502 -0.12919147246E+03  0.30860209486E+03 -0.17104113801E+04  0.17428232207E+04  0.25500000920E-02 0. -1.
</event>
<event>
 5   0  0.6517392E-03  0.7973376E+03  0.7818609E-02  0.9563879E-01
       -1   -1    0    0    0  501  0.00000000000E+00  0.00000000000E+00  0.11839691755E+03  0.11839691765E+03  0.50400001928E-02 0.  1.
        1   -1    0    0  501    0  0.00000000000E+00  0.00000000000E+00 -0.13424066035E+04  0.13424066035E+04  0.50400001928E-02 0. -1.
    10030    2    1    2    0    0  0.00000000000E+00  0.00000000000E+00 -0.12240096859E+04  0.14608035211E+04  0.79733757977E+03 0.  0.
        3    1    3    3  502    0 -0.33781366399E+03 -0.11782525379E+03 -0.28976356262E+03  0.46039525891E+03  0.10100000352E+00 0.  1.
       -3    1    3    3    0  502  0.33781366399E+03  0.11782525379E+03 -0.93424612330E+03  0.10004082622E+04  0.10100000352E+00 0. -1.
</event>
<event>
 5   0  0.4385875E-03  0.8007007E+03  0.7818609E-02  0.9559003E-01
        3   -1    0    0  501    0  0.00000000000E+00  0.00000000000E+00  0.35075766569E+03  0.35075768023E+03  0.10100000352E+00 0. -1.
       -3   -1    0    0    0  501  0.00000000000E+00  0.00000000000E+00 -0.45695478842E+03  0.45695479958E+03  0.10100000352E+00 0.  1.
    10030    2    1    2    0    0  0.00000000000E+00  0.00000000000E+00 -0.10619712273E+03  0.80771247981E+03  0.80070070636E+03 0.  0.
        2    1    3    3  502    0 -0.19127211774E+03  0.88517237790E+02 -0.39646156167E+03  0.44900121859E+03  0.25500000920E-02 0.  1.
       -2    1    3    3    0  502  0.19127211774E+03 -0.88517237790E+02  0.29026443894E+03  0.35871126122E+03  0.25500000920E-02 0. -1.
</event>
<event>
 5   0  0.4385875E-03  0.8096679E+03  0.7818609E-02  0.9546128E-01
        3   -1    0    0  501    0  0.00000000000E+00  0.00000000000E+00  0.82444175896E+03  0.82444176515E+03  0.10100000352E+00 0. -1.
       -3   -1    0    0    0  501  0.00000000000E+00  0.00000000000E+00 -0.19878966186E+03  0.19878968752E+03  0.10100000352E+00 0.  1.
    10030    2    1    2    0    0  0.00000000000E+00  0.00000000000E+00  0.62565209710E+03  0.10232314527E+04  0.80966786964E+03 0.  0.
        3    1    3    3  502    0 -0.11558206541E+03 -0.46072553098E+02  0.79967756324E+03  0.80929976483E+03  0.10100000352E+00 0. -1.
       -3    1    3    3    0  502  0.11558206541E+03  0.46072553098E+02 -0.17402546614E+03  0.21393168784E+03  0.10100000352E+00 0.  1.
</event>
<event>
 5   0  0.6600401E-03  0.8044018E+03  0.7818609E-02  0.9553667E-01
        1   -1    0    0  501    0  0.00000000000E+00  0.00000000000E+00  0.99821351349E+03  0.99821351350E+03  0.50400001928E-02 0.  1.
       -1   -1    0    0    0  501  0.00000000000E+00  0.00000000000E+00 -0.16205506627E+03  0.16205506634E+03  0.50400001928E-02 0. -1.
    10030    2    1    2    0    0  0.00000000000E+00  0.00000000000E+00  0.83615844722E+03  0.11602685798E+04  0.80440178302E+03 0.  0.
        2    1    3    3  502    0  0.21333861186E+03  0.30849513969E+03  0.20864332702E+03  0.42920234440E+03  0.25500000920E-02 0. -1.
       -2    1    3    3    0  502 -0.21333861186E+03 -0.30849513969E+03  0.62751512020E+03  0.73106623545E+03  0.25500000920E-02 0.  1.
</event>
<event>
 5   0  0.6557679E-03  0.7945293E+03  0.7818609E-02  0.9567970E-01
        1   -1    0    0  501    0  0.00000000000E+00  0.00000000000E+00  0.89420249903E+03  0.89420249904E+03  0.50400001928E-02 0. -1.
       -1   -1    0    0    0  501  0.00000000000E+00  0.00000000000E+00 -0.17649154785E+03  0.17649154792E+03  0.50400001928E-02 0.  1.
    10030    2    1    2    0    0  0.00000000000E+00  0.00000000000E+00  0.71771095118E+03  0.10706940470E+04  0.79452925230E+03 0.  0.
        1    1    3    3  502    0  0.23504767198E+03  0.71139840141E+02 -0.61950671324E+02  0.25327094318E+03  0.50400001928E-02 0.  1.
       -1    1    3    3    0  502 -0.23504767198E+03 -0.71139840141E+02  0.77966162250E+03  0.81742310378E+03  0.50400001928E-02 0. -1.
</event>
<event>
 5   0  0.1106332E-02  0.7880473E+03  0.7818609E-02  0.9577481E-01
       -2   -1    0    0    0  501  0.00000000000E+00  0.00000000000E+00  0.15540970617E+03  0.15540970619E+03  0.25500000920E-02 0.  1.
        2   -1    0    0  501    0  0.00000000000E+00  0.00000000000E+00 -0.99900215265E+03  0.99900215265E+03  0.25500000920E-02 0. -1.
    10030    2    1    2    0    0  0.00000000000E+00  0.00000000000E+00 -0.84359244647E+03  0.11544118588E+04  0.78804728544E+03 0.  0.
        1    1    3    3  502    0 -0.28087521258E+02  0.15493484815E+03  0.10731711801E+03  0.19055361414E+03  0.50400001928E-02 0.  1.
       -1    1    3    3    0  502  0.28087521258E+02 -0.15493484815E+03 -0.95090956448E+03  0.96385824470E+03  0.50400001928E-02 0. -1.
</event>
<event>
 5   0  0.6517392E-03  0.7975188E+03  0.7818609E-02  0.9563615E-01
        1   -1    0    0  501    0  0.00000000000E+00  0.00000000000E+00  0.18135453742E+04  0.18135453742E+04  0.50400001928E-02 0.  1.
       -1   -1    0    0    0  501  0.00000000000E+00  0.00000000000E+00 -0.87678568873E+02  0.87678569018E+02  0.50400001928E-02 0. -1.
    10030    2    1    2    0    0  0.00000000000E+00  0.00000000000E+00  0.17258668053E+04  0.19012239432E+04  0.79751881016E+03 0.  0.
        3    1    3    3  502    0  0.92429556107E+02 -0.58034184363E+02 -0.51380918828E+02  0.12062834832E+03  0.10100000352E+00 0. -1.
       -3    1    3    3    0  502 -0.92429556107E+02  0.58034184363E+02  0.17772477241E+04  0.17805955949E+04  0.10100000352E+00 0.  1.
</event>
<event>
 5   0  0.1121480E-02  0.8013512E+03  0.7818609E-02  0.9558063E-01
        2   -1    0    0  501    0  0.00000000000E+00  0.00000000000E+00  0.15514707443E+04  0.15514707443E+04  0.25500000920E-02 0.  1.
       -2   -1    0    0    0  501  0.00000000000E+00  0.00000000000E+00 -0.10347661333E+03  0.10347661336E+03  0.25500000920E-02 0. -1.
    10030    2    1    2    0    0  0.00000000000E+00  0.00000000000E+00  0.14479941309E+04  0.16549473576E+04  0.80135120471E+03 0.  0.
        2    1    3    3  502    0 -0.11209907437E+03  0.38440916128E+03  0.75351799913E+03  0.85330298298E+03  0.25500000920E-02 0.  1.
       -2    1    3    3    0  502  0.11209907437E+03 -0.38440916128E+03  0.69447613181E+03  0.80164437465E+03  0.25500000920E-02 0. -1.
</event>
<event>
 5   0  0.6596225E-03  0.8017243E+03  0.7818609E-02  0.9557525E-01
        1   -1    0    0  501    0  0.00000000000E+00  0.00000000000E+00  0.57685668918E+03  0.57685668920E+03  0.50400001928E-02 0.  1.
       -1   -1    0    0    0  501  0.00000000000E+00  0.00000000000E+00 -0.27856221014E+03  0.27856221018E+03  0.50400001928E-02 0. -1.
    10030    2    1    2    0    0  0.00000000000E+00  0.00000000000E+00  0.29829447904E+03  0.85541889938E+03  0.80172432743E+03 0.  0.
        5    1    3    3  502    0 -0.24235401807E+03 -0.61560425377E+02  0.48340688548E+03  0.54426966017E+03  0.46999998093E+01 0.  1.
       -5    1    3    3    0  502  0.24235401807E+03  0.61560425377E+02 -0.18511240644E+03  0.31114923921E+03  0.46999998093E+01 0. -1.
</event>
<event>
 5   0  0.1119792E-02  0.7528674E+03  0.7818609E-02  0.9630863E-01
       -2   -1    0    0    0  501  0.00000000000E+00  0.00000000000E+00  0.13645245280E+03  0.13645245283E+03  0.25500000920E-02 0. -1.
        2   -1    0    0  501    0  0.00000000000E+00  0.00000000000E+00 -0.10384740123E+04  0.10384740123E+04  0.25500000920E-02 0.  1.
    10030    2    1    2    0    0  0.00000000000E+00  0.00000000000E+00 -0.90202155947E+03  0.11749264651E+04  0.75286738848E+03 0.  0.
        4    1    3    3  502    0 -0.26333729837E+03  0.24290049753E+03 -0.63135001569E+03  0.72591434731E+03  0.12699999809E+01 0.  1.
       -4    1    3    3    0  502  0.26333729837E+03 -0.24290049753E+03 -0.27067154377E+03  0.44901211779E+03  0.12699999809E+01 0. -1.
</event>
<event>
 5   0  0.1106332E-02  0.8042085E+03  0.7818609E-02  0.9553945E-01
        2   -1    0    0  501    0  0.00000000000E+00  0.00000000000E+00  0.13759989032E+03  0.13759989034E+03  0.25500000920E-02 0. -1.
       -2   -1    0    0    0  501  0.00000000000E+00  0.00000000000E+00 -0.11750578119E+04  0.11750578119E+04  0.25500000920E-02 0.  1.
    10030    2    1    2    0    0  0.00000000000E+00  0.00000000000E+00 -0.10374579216E+04  0.13126577022E+04  0.80420849549E+03 0.  0.
        1    1    3    3  502    0 -0.23065263308E+03 -0.16741502719E+03 -0.55739374499E+02  0.29040541725E+03  0.50400001928E-02 0. -1.
       -1    1    3    3    0  502  0.23065263308E+03  0.16741502719E+03 -0.98171854706E+03  0.10222522850E+04  0.50400001928E-02 0.  1.
</event>
<event>
 5   0  0.1106332E-02  0.7917736E+03  0.7818609E-02  0.9572001E-01
       -2   -1    0    0    0  501  0.00000000000E+00  0.00000000000E+00  0.30115790494E+03  0.30115790495E+03  0.25500000920E-02 0. -1.
        2   -1    0    0  501    0  0.00000000000E+00  0.00000000000E+00 -0.52041260264E+03  0.52041260265E+03  0.25500000920E-02 0.  1.
    10030    2    1    2    0    0  0.00000000000E+00  0.00000000000E+00 -0.21925469770E+03  0.82157050760E+03  0.79177362705E+03 0.  0.
        1    1    3    3  502    0  0.26007151704E+03  0.29213484321E+03 -0.46115994462E+02  0.39383581041E+03  0.50400001928E-02 0. -1.
       -1    1    3    3    0  502 -0.26007151704E+03 -0.29213484321E+03 -0.17313870324E+03  0.42773469718E+03  0.50400001928E-02 0.  1.
</event>
<event>
 5   0  0.6551489E-03  0.8040990E+03  0.7818609E-02  0.9554103E-01
        1   -1    0    0  501    0  0.00000000000E+00  0.00000000000E+00  0.30980911378E+03  0.30980911382E+03  0.50400001928E-02 0.  1.
       -1   -1    0    0    0  501  0.00000000000E+00  0.00000000000E+00 -0.52175283011E+03  0.52175283014E+03  0.50400001928E-02 0. -1.
    10030    2    1    2    0    0  0.00000000000E+00  0.00000000000E+00 -0.21194371634E+03  0.83156194396E+03  0.80409895395E+03 0.  0.
        4    1    3    3  502    0  0.40002655519E+03 -0.21452636045E+02 -0.14120462150E+03  0.42476089567E+03  0.12699999809E+01 0.  1.
       -4    1    3    3    0  502 -0.40002655519E+03  0.21452636045E+02 -0.70739094835E+02  0.40680104829E+03  0.12699999809E+01 0. -1.
</event>
<event>
 5   0  0.1119792E-02  0.8035853E+03  0.7818609E-02  0.9554842E-01
        2   -1    0    0  501    0  0.00000000000E+00  0.00000000000E+00  0.79740415979E+03  0.79740415980E+03  0.25500000920E-02 0. -1.
       -2   -1    0    0    0  501  0.00000000000E+00  0.00000000000E+00 -0.20245357913E+03  0.20245357915E+03  0.25500000920E-02 0.  1.
    10030    2    1    2    0    0  0.00000000000E+00  0.00000000000E+00  0.59495058066E+03  0.99985773894E+03  0.80358528153E+03 0.  0.
        4    1    3    3  502    0 -0.68303775241E+02 -0.31630310838E+03  0.11392322738E+01  0.32359847471E+03  0.12699999809E+01 0.  1.
       -4    1    3    3    0  502  0.68303775241E+02  0.31630310838E+03  0.59381134839E+03  0.67625926423E+03  0.12699999809E+01 0. -1.
</event>
<event>
 5   0  0.1119792E-02  0.8031686E+03  0.7818609E-02  0.9555442E-01
       -2   -1    0    0    0  501  0.00000000000E+00  0.00000000000E+00  0.22782367864E+03  0.22782367865E+03  0.25500000920E-02 0.  1.
        2   -1    0    0  501    0  0.00000000000E+00  0.00000000000E+00 -0.70787180148E+03  0.70787180148E+03  0.25500000920E-02 0. -1.
    10030    2    1    2    0    0  0.00000000000E+00  0.00000000000E+00 -0.48004812284E+03  0.93569548014E+03  0.80316861947E+03 0.  0.
        4    1    3    3  502    0 -0.92172988152E+02  0.32920000900E+02  0.21371325541E+03  0.23506287381E+03  0.12699999809E+01 0.  1.
       -4    1    3    3    0  502  0.92172988152E+02 -0.32920000900E+02 -0.69376137825E+03  0.70063260633E+03  0.12699999809E+01 0. -1.
</event>
<event>
 5   0  0.4385875E-03  0.8089430E+03  0.7818609E-02  0.9547162E-01
        4   -1    0    0  501    0  0.00000000000E+00  0.00000000000E+00  0.12245760667E+04  0.12245767252E+04  0.12699999809E+01 0. -1.
       -4   -1    0    0    0  501  0.00000000000E+00  0.00000000000E+00 -0.13359126007E+03  0.13359729663E+03  0.12699999809E+01 0.  1.
    10030    2    1    2    0    0  0.00000000000E+00  0.00000000000E+00  0.10909848066E+04  0.13581740219E+04  0.80894302976E+03 0.  0.
        3    1    3    3  502    0  0.36325453629E+02 -0.10097627301E+02 -0.13063784662E+03  0.13596969453E+03  0.10100000352E+00 0.  1.
       -3    1    3    3    0  502 -0.36325453629E+02  0.10097627301E+02  0.12216226532E+04  0.12222043273E+04  0.10100000352E+00 0. -1.
</event>
<event>
 5   0  0.1106332E-02  0.8003038E+03  0.7818609E-02  0.9559577E-01
       -2   -1    0    0    0  501  0.00000000000E+00  0.00000000000E+00  0.51123603586E+03  0.51123603586E+03  0.25500000920E-02 0. -1.
        2   -1    0    0  501    0  0.00000000000E+00  0.00000000000E+00 -0.31320475889E+03  0.31320475890E+03  0.25500000920E-02 0.  1.
    10030    2    1    2    0    0  0.00000000000E+00  0.00000000000E+00  0.19803127697E+03  0.82444079476E+03  0.80030384068E+03 0.  0.
        1    1    3    3  502    0 -0.20488849901E+03  0.34275225065E+03  0.12554414144E+03  0.41859256304E+03  0.50400001928E-02 0.  1.
       -1    1    3    3    0  502  0.20488849901E+03 -0.34275225065E+03  0.72487135523E+02  0.40584823172E+03  0.50400001928E-02 0. -1.
</event>
<event>
 5   0  0.6517392E-03  0.8033994E+03  0.7818609E-02  0.9555110E-01
       -1   -1    0    0    0  501  0.00000000000E+00  0.00000000000E+00  0.23490668271E+03  0.23490668276E+03  0.50400001928E-02 0.  1.
        1   -1    0    0  501    0  0.00000000000E+00  0.00000000000E+00 -0.68692230804E+03  0.68692230805E+03  0.50400001928E-02 0. -1.
    10030    2    1    2    0    0  0.00000000000E+00  0.00000000000E+00 -0.45201562533E+03  0.92182899081E+03  0.80339937937E+03 0.  0.
        3    1    3    3  502    0 -0.36962266323E+03  0.48401893401E+02 -0.39773257875E+03  0.54511913455E+03  0.10100000352E+00 0. -1.
       -3    1    3    3    0  502  0.36962266323E+03 -0.48401893401E+02 -0.54283046582E+02  0.37670985626E+03  0.10100000352E+00 0.  1.
</event>
<event>
 5   0  0.6596225E-03  0.7631684E+03  0.7818609E-02  0.9614915E-01
        1   -1    0    0  501    0  0.00000000000E+00  0.00000000000E+00  0.11413352155E+04  0.11413352155E+04  0.50400001928E-02 0. -1.
       -1   -1    0    0    0  501  0.00000000000E+00  0.00000000000E+00 -0.12757557524E+03  0.12757557534E+03  0.50400001928E-02 0.  1.
    10030    2    1    2    0    0  0.00000000000E+00  0.00000000000E+00  0.10137596402E+04  0.12689107908E+04  0.76316838700E+03 0.  0.
        5    1    3    3  502    0  0.32675986272E+02 -0.18715455883E+03 -0.43291141485E+02  0.19491219023E+03  0.46999998093E+01 0.  1.
       -5    1    3    3    0  502 -0.32675986272E+02  0.18715455883E+03  0.10570507817E+04  0.10739986006E+04  0.46999998093E+01 0. -1.
</event>
<event>
 5   0  0.6517392E-03  0.8022124E+03  0.7818609E-02  0.9556820E-01
        1   -1    0    0  501    0  0.00000000000E+00  0.00000000000E+00  0.76041785045E+03  0.76041785047E+03  0.50400001928E-02 0.  1.
       -1   -1    0    0    0  501  0.00000000000E+00  0.00000000000E+00 -0.21157600031E+03  0.21157600037E+03  0.50400001928E-02 0. -1.
    10030    2    1    2    0    0  0.00000000000E+00  0.00000000000E+00  0.54884185014E+03  0.97199385084E+03  0.80221235941E+03 0.  0.
        3    1    3    3  502    0  0.10235986618E+03  0.20559192974E+03  0.67286603649E+03  0.71098122130E+03  0.10100000352E+00 0.  1.
       -3    1    3    3    0  502 -0.10235986618E+03 -0.20559192974E+03 -0.12402418635E+03  0.26101262954E+03  0.10100000352E+00 0. -1.
</event>
<event>
 5   0  0.6600401E-03  0.7834403E+03  0.7818609E-02  0.9584301E-01
       -1   -1    0    0    0  501  0.00000000000E+00  0.00000000000E+00  0.24371172590E+03  0.24371172596E+03  0.50400001928E-02 0. -1.
        1   -1    0    0  501    0  0.00000000000E+00  0.00000000000E+00 -0.62961549949E+03  0.62961549951E+03  0.50400001928E-02 0.  1.
    10030    2    1    2    0    0  0.00000000000E+00  0.00000000000E+00 -0.38590377358E+03  0.87332722546E+03  0.78344031060E+03 0.  0.
        2    1    3    3  502    0  0.18692262638E+03 -0.11421000792E+03  0.16905462387E+03  0.27670103003E+03  0.25500000920E-02 0. -1.
       -2    1    3    3    0  502 -0.18692262638E+03  0.11421000792E+03 -0.55495839745E+03  0.59662619543E+03  0.25500000920E-02 0.  1.
</event>
<event>
 5   0  0.1092868E-02  0.7980975E+03  0.7818609E-02  0.9562775E-01
        2   -1    0    0  501    0  0.00000000000E+00  0.00000000000E+00  0.19522145729E+04  0.19522145729E+04  0.25500000920E-02 0.  1.
       -2   -1    0    0    0  501  0.00000000000E+00  0.00000000000E+00 -0.81568849408E+02  0.81568849448E+02  0.25500000920E-02 0. -1.
    10030    2    1    2    0    0  0.00000000000E+00  0.00000000000E+00  0.18706457235E+04  0.20337834223E+04  0.79809747913E+03 0.  0.
        3    1    3    3  502    0  0.12556699220E+02  0.25944541836E+03  0.17072917846E+04  0.17269379965E+04  0.10100000352E+00 0.  1.
       -3    1    3    3    0  502 -0.12556699220E+02 -0.25944541836E+03  0.16335393887E+03  0.30684542583E+03  0.10100000352E+00 0. -1.
</event>
<event>
 5   0  0.1154714E-02  0.7966904E+03  0.7818609E-02  0.9564820E-01
        2   -1    0    0  501    0  0.00000000000E+00  0.00000000000E+00  0.52343111766E+03  0.52343111767E+03  0.25500000920E-02 0.  1.
       -2   -1    0    0    0  501  0.00000000000E+00  0.00000000000E+00 -0.30315143971E+03  0.30315143972E+03  0.25500000920E-02 0. -1.
    10030    2    1    2    0    0  0.00000000000E+00  0.00000000000E+00  0.22027967795E+03  0.82658255738E+03  0.79669039636E+03 0.  0.
        5    1    3    3  502    0 -0.16768228576E+03  0.31528102349E+02  0.48356855742E+03  0.51280796593E+03  0.46999998093E+01 0.  1.
       -5    1    3    3    0  502  0.16768228576E+03 -0.31528102349E+02 -0.26328887946E+03  0.31377459146E+03  0.46999998093E+01 0. -1.
</event>
<event>
 5   0  0.1121480E-02  0.7969116E+03  0.7818609E-02  0.9564498E-01
        2   -1    0    0  501    0  0.00000000000E+00  0.00000000000E+00  0.56363444368E+03  0.56363444368E+03  0.25500000920E-02 0.  1.
       -2   -1    0    0    0  501  0.00000000000E+00  0.00000000000E+00 -0.28168442219E+03  0.28168442220E+03  0.25500000920E-02 0. -1.
    10030    2    1    2    0    0  0.00000000000E+00  0.00000000000E+00  0.28195002148E+03  0.84531886588E+03  0.79691164529E+03 0.  0.
        2    1    3    3  502    0 -0.31323119693E+03 -0.24614009625E+03  0.14974222644E+03  0.42558367461E+03  0.25500000920E-02 0.  1.
       -2    1    3    3    0  502  0.31323119693E+03  0.24614009625E+03  0.13220779505E+03  0.41973519127E+03  0.25500000920E-02 0. -1.
</event>
<event>
 5   0  0.6600401E-03  0.8005902E+03  0.7818609E-02  0.9559163E-01
       -1   -1    0    0    0  501  0.00000000000E+00  0.00000000000E+00  0.19410692447E+03  0.19410692454E+03  0.50400001928E-02 0.  1.
        1   -1    0    0  501    0  0.00000000000E+00  0.00000000000E+00 -0.82550456763E+03  0.82550456764E+03  0.50400001928E-02 0. -1.
    10030    2    1    2    0    0  0.00000000000E+00  0.00000000000E+00 -0.63139764315E+03  0.10196114922E+04  0.80059016432E+03 0.  0.
        2    1    3    3  502    0  0.46668414027E+02 -0.33297980075E+02  0.18885137481E+03  0.19736144030E+03  0.25500000920E-02 0.  1.
       -2    1    3    3    0  502 -0.46668414027E+02  0.33297980075E+02 -0.82024901796E+03  0.82225005188E+03  0.25500000920E-02 0. -1.
</event>
<event>
 5   0  0.1106332E-02  0.8011719E+03  0.7818609E-02  0.9558322E-01
       -2   -1    0    0    0  501  0.00000000000E+00  0.00000000000E+00  0.32468833742E+03  0.32468833743E+03  0.25500000920E-02 0.  1.
        2   -1    0    0  501    0  0.00000000000E+00  0.00000000000E+00 -0.49422503711E+03  0.49422503711E+03  0.25500000920E-02 0. -1.
    10030    2    1    2    0    0  0.00000000000E+00  0.00000000000E+00 -0.16953669968E+03  0.81891337455E+03  0.80117190569E+03 0.  0.
        1    1    3    3  502    0  0.18416982953E+03 -0.29510007327E+03 -0.28782943541E+03  0.45149569573E+03  0.50400001928E-02 0. -1.
       -1    1    3    3    0  502 -0.18416982953E+03  0.29510007327E+03  0.11829273573E+03  0.36741767881E+03  0.50400001928E-02 0.  1.
</event>
<event>
 5   0  0.4385875E-03  0.7986287E+03  0.7818609E-02  0.9562004E-01
        3   -1    0    0  501    0  0.00000000000E+00  0.00000000000E+00  0.57780419212E+03  0.57780420095E+03  0.10100000352E+00 0.  1.
       -3   -1    0    0    0  501  0.00000000000E+00  0.00000000000E+00 -0.27596188277E+03  0.27596190125E+03  0.10100000352E+00 0. -1.
    10030    2    1    2    0    0  0.00000000000E+00  0.00000000000E+00  0.30184230935E+03  0.85376610220E+03  0.79862868566E+03 0.  0.
        2    1    3    3  502    0  0.46628032688E+02  0.24836789645E+03  0.48144505257E+03  0.54373718290E+03  0.25500000920E-02 0.  1.
       -2    1    3    3    0  502 -0.46628032688E+02 -0.24836789645E+03 -0.17960274322E+03  0.31002891930E+03  0.25500000920E-02 0. -1.
</event>
<event>
 5   0  0.4385875E-03  0.8090903E+03  0.7818609E-02  0.9546952E-01
        4   -1    0    0  501    0  0.00000000000E+00  0.00000000000E+00  0.78316491613E+03  0.78316594586E+03  0.12699999809E+01 0. -1.
       -4   -1    0    0    0  501  0.00000000000E+00  0.00000000000E+00 -0.20896537134E+03  0.20896923056E+03  0.12699999809E+01 0.  1.
    10030    2    1    2    0    0  0.00000000000E+00  0.00000000000E+00  0.57419954478E+03  0.99213517642E+03  0.80909028610E+03 0.  0.
        1    1    3    3  502    0 -0.33131521849E+03  0.23204347186E+03  0.29512444159E+03  0.50071187612E+03  0.50400001928E-02 0.  1.
       -1    1    3    3    0  502  0.33131521849E+03 -0.23204347186E+03  0.27907510319E+03  0.49142330030E+03  0.50400001928E-02 0. -1.
</event>
<event>
 5   0  0.6557679E-03  0.7985544E+03  0.7818609E-02  0.9562112E-01
        1   -1    0    0  501    0  0.00000000000E+00  0.00000000000E+00  0.41702455666E+03  0.41702455669E+03  0.50400001928E-02 0. -1.
       -1   -1    0    0    0  501  0.00000000000E+00  0.00000000000E+00 -0.38228511205E+03  0.38228511208E+03  0.50400001928E-02 0.  1.
    10030    2    1    2    0    0  0.00000000000E+00  0.00000000000E+00  0.34739444617E+02  0.79930966878E+03  0.79855439238E+03 0.  0.
        1    1    3    3  502    0  0.24510649359E+03  0.18177547112E+03  0.27510649209E+03  0.41085654080E+03  0.50400001928E-02 0. -1.
       -1    1    3    3    0  502 -0.24510649359E+03 -0.18177547112E+03 -0.24036704747E+03  0.38845312798E+03  0.50400001928E-02 0.  1.
</event>
<event>
 5   0  0.4385875E-03  0.8018195E+03  0.7818609E-02  0.9557387E-01
       -3   -1    0    0    0  501  0.00000000000E+00  0.00000000000E+00  0.49136757037E+03  0.49136758075E+03  0.10100000352E+00 0. -1.
        3   -1    0    0  501    0  0.00000000000E+00  0.00000000000E+00 -0.32710462894E+03  0.32710464453E+03  0.10100000352E+00 0.  1.
    10030    2    1    2    0    0  0.00000000000E+00  0.00000000000E+00  0.16426294143E+03  0.81847222528E+03  0.80181947446E+03 0.  0.
        3    1    3    3  502    0 -0.12698545066E+03 -0.16877376448E+03 -0.26570768169E+03  0.33942667922E+03  0.10100000352E+00 0.  1.
       -3    1    3    3    0  502  0.12698545066E+03  0.16877376448E+03  0.42997062312E+03  0.47904554606E+03  0.10100000352E+00 0. -1.
</event>
<event>
 5   0  0.6517392E-03  0.8043784E+03  0.7818609E-02  0.9553701E-01
       -1   -1    0    0    0  501  0.00000000000E+00  0.00000000000E+00  0.66444967820E+03  0.66444967822E+03  0.50400001928E-02 0. -1.
        1   -1    0    0  501    0  0.00000000000E+00  0.00000000000E+00 -0.24344379523E+03  0.24344379529E+03  0.50400001928E-02 0.  1.
    10030    2    1    2    0    0  0.00000000000E+00  0.00000000000E+00  0.42100588297E+03  0.90789347351E+03  0.80437839711E+03 0.  0.
        3    1    3    3  502    0  0.14412525735E+03  0.30654250861E+03 -0.34232091896E+02  0.34045887521E+03  0.10100000352E+00 0.  1.
       -3    1    3    3    0  502 -0.14412525735E+03 -0.30654250861E+03  0.45523797486E+03  0.56743459830E+03  0.10100000352E+00 0. -1.
</event>
<event>
 5   0  0.6600401E-03  0.8039046E+03  0.7818609E-02  0.9554382E-01
        1   -1    0    0  501    0  0.00000000000E+00  0.00000000000E+00  0.30055856552E+03  0.30055856557E+03  0.50400001928E-02 0. -1.
       -1   -1    0    0    0  501  0.00000000000E+00  0.00000000000E+00 -0.53755135895E+03  0.53755135898E+03  0.50400001928E-02 0.  1.
    10030    2    1    2    0    0  0.00000000000E+00  0.00000000000E+00 -0.23699279343E+03  0.83810992454E+03  0.80390463457E+03 0.  0.
        2    1    3    3  502    0  0.17430085350E+03 -0.24255863271E+03 -0.39892110810E+03  0.49835080850E+03  0.25500000920E-02 0.  1.
       -2    1    3    3    0  502 -0.17430085350E+03  0.24255863271E+03  0.16192831468E+03  0.33975911604E+03  0.25500000920E-02 0. -1.
</event>
<event>
 5   0  0.6517392E-03  0.8223255E+03  0.7818609E-02  0.9528252E-01
       -1   -1    0    0    0  501  0.00000000000E+00  0.00000000000E+00  0.23453905420E+03  0.23453905425E+03  0.50400001928E-02 0.  1.
        1   -1    0    0  501    0  0.00000000000E+00  0.00000000000E+00 -0.72079598204E+03  0.72079598206E+03  0.50400001928E-02 0. -1.
    10030    2    1    2    0    0  0.00000000000E+00  0.00000000000E+00 -0.48625692784E+03  0.95533503631E+03  0.82232550230E+03 0.  0.
        3    1    3    3  502    0  0.26015804836E+03  0.29251753059E+03 -0.38918603043E+03  0.55200950382E+03  0.10100000352E+00 0.  1.
       -3    1    3    3    0  502 -0.26015804836E+03 -0.29251753059E+03 -0.97070897412E+02  0.40332553249E+03  0.10100000352E+00 0. -1.
</event>
<event>
 5   0  0.6551489E-03  0.8004801E+03  0.7818609E-02  0.9559323E-01
       -1   -1    0    0    0  501  0.00000000000E+00  0.00000000000E+00  0.21321188321E+03  0.21321188327E+03  0.50400001928E-02 0. -1.
        1   -1    0    0  501    0  0.00000000000E+00  0.00000000000E+00 -0.75132810396E+03  0.75132810398E+03  0.50400001928E-02 0.  1.
    10030    2    1    2    0    0  0.00000000000E+00  0.00000000000E+00 -0.53811622075E+03  0.96453998725E+03  0.80048005595E+03 0.  0.
        4    1    3    3  502    0  0.35540859491E+03  0.14231160505E+02 -0.49016817423E+03  0.60562715196E+03  0.12699999809E+01 0. -1.
       -4    1    3    3    0  502 -0.35540859491E+03 -0.14231160505E+02 -0.47948046516E+02  0.35891283529E+03  0.12699999809E+01 0.  1.
</event>
<event>
 5   0  0.6600401E-03  0.7832795E+03  0.7818609E-02  0.9584540E-01
        1   -1    0    0  501    0  0.00000000000E+00  0.00000000000E+00  0.28004430997E+03  0.28004431002E+03  0.50400001928E-02 0.  1.
       -1   -1    0    0    0  501  0.00000000000E+00  0.00000000000E+00 -0.54770504603E+03  0.54770504605E+03  0.50400001928E-02 0. -1.
    10030    2    1    2    0    0  0.00000000000E+00  0.00000000000E+00 -0.26766073606E+03  0.82774935607E+03  0.78327946918E+03 0.  0.
        2    1    3    3  502    0  0.27756023941E+03  0.10602301772E+03 -0.40346540300E+03  0.50106376661E+03  0.25500000920E-02 0. -1.
       -2    1    3    3    0  502 -0.27756023941E+03 -0.10602301772E+03  0.13580466694E+03  0.32668558945E+03  0.25500000920E-02 0.  1.
</event>
<event>
 5   0  0.1121480E-02  0.7985106E+03  0.7818609E-02  0.9562175E-01
       -2   -1    0    0    0  501  0.00000000000E+00  0.00000000000E+00  0.11805053601E+03  0.11805053603E+03  0.25500000920E-02 0. -1.
        2   -1    0    0  501    0  0.00000000000E+00  0.00000000000E+00 -0.13503097343E+04  0.13503097343E+04  0.25500000920E-02 0.  1.
    10030    2    1    2    0    0  0.00000000000E+00  0.00000000000E+00 -0.12322591983E+04  0.14683602704E+04  0.79851058336E+03 0.  0.
        2    1    3    3  502    0 -0.91339826606E+02  0.36168512458E+03 -0.87777812365E+03  0.95375758326E+03  0.25500000920E-02 0.  1.
       -2    1    3    3    0  502  0.91339826606E+02 -0.36168512458E+03 -0.35448107468E+03  0.51460268711E+03  0.25500000920E-02 0. -1.
</event>
<event>
 5   0  0.6600401E-03  0.7966793E+03  0.7818609E-02  0.9564836E-01
       -1   -1    0    0    0  501  0.00000000000E+00  0.00000000000E+00  0.16993630258E+03  0.16993630265E+03  0.50400001928E-02 0. -1.
        1   -1    0    0  501    0  0.00000000000E+00  0.00000000000E+00 -0.93372917051E+03  0.93372917053E+03  0.50400001928E-02 0.  1.
    10030    2    1    2    0    0  0.00000000000E+00  0.00000000000E+00 -0.76379286794E+03  0.11036654732E+04  0.79667931540E+03 0.  0.
        2    1    3    3  502    0  0.75862651994E+02  0.28118857383E+03 -0.75837131653E+03  0.81237258064E+03  0.25500000920E-02 0. -1.
       -2    1    3    3    0  502 -0.75862651994E+02 -0.28118857383E+03 -0.54215514023E+01  0.29129289255E+03  0.25500000920E-02 0.  1.
</event>
<event>
 5   0  0.6596225E-03  0.8012337E+03  0.7818609E-02  0.9558233E-01
       -1   -1    0    0    0  501  0.00000000000E+00  0.00000000000E+00  0.57309876965E+03  0.57309876968E+03  0.50400001928E-02 0. -1.
        1   -1    0    0  501    0  0.00000000000E+00  0.00000000000E+00 -0.28004572015E+03  0.28004572019E+03  0.50400001928E-02 0.  1.
    10030    2    1    2    0    0  0.00000000000E+00  0.00000000000E+00  0.29305304951E+03  0.85314448987E+03  0.80123369298E+03 0.  0.
        5    1    3    3  502    0 -0.13498305548E+03 -0.35490629895E+03  0.28243985937E+03  0.47325814357E+03  0.46999998093E+01 0. -1.
       -5    1    3    3    0  502  0.13498305548E+03  0.35490629895E+03  0.10613190140E+02  0.37988634630E+03  0.46999998093E+01 0.  1.
</event>
<event>
 5   0  0.6596225E-03  0.7950903E+03  0.7818609E-02  0.9567151E-01
       -1   -1    0    0    0  501  0.00000000000E+00  0.00000000000E+00  0.36266315147E+03  0.36266315150E+03  0.50400001928E-02 0. -1.
        1   -1    0    0  501    0  0.00000000000E+00  0.00000000000E+00 -0.43578215409E+03  0.43578215412E+03  0.50400001928E-02 0.  1.
    10030    2    1    2    0    0  0.00000000000E+00  0.00000000000E+00 -0.73119002625E+02  0.79844530562E+03  0.79509025747E+03 0.  0.
        5    1    3    3  502    0  0.30149354213E+03 -0.83393380547E+02 -0.28288464219E+03  0.42178030140E+03  0.46999998093E+01 0.  1.
       -5    1    3    3    0  502 -0.30149354213E+03  0.83393380547E+02  0.20976563957E+03  0.37666500422E+03  0.46999998093E+01 0. -1.
</event>
<event>
 5   0  0.1092868E-02  0.7994089E+03  0.7818609E-02  0.9560873E-01
        2   -1    0    0  501    0  0.00000000000E+00  0.00000000000E+00  0.78253783638E+03  0.78253783638E+03  0.25500000920E-02 0. -1.
       -2   -1    0    0    0  501  0.00000000000E+00  0.00000000000E+00 -0.20416094228E+03  0.20416094229E+03  0.25500000920E-02 0.  1.
    10030    2    1    2    0    0  0.00000000000E+00  0.00000000000E+00  0.57837689410E+03  0.98669877868E+03  0.79940893679E+03 0.  0.
        3    1    3    3  502    0 -0.15337320325E+03  0.18322272783E+03  0.68467965383E+03  0.72517594144E+03  0.10100000352E+00 0. -1.
       -3    1    3    3    0  502  0.15337320325E+03 -0.18322272783E+03 -0.10630275974E+03  0.26152283724E+03  0.10100000352E+00 0.  1.
</event>
<event>
 5   0  0.1092868E-02  0.8086358E+03  0.7818609E-02  0.9547601E-01
       -2   -1    0    0    0  501  0.00000000000E+00  0.00000000000E+00  0.17264636818E+03  0.17264636820E+03  0.25500000920E-02 0. -1.
        2   -1    0    0  501    0  0.00000000000E+00  0.00000000000E+00 -0.94686596531E+03  0.94686596532E+03  0.25500000920E-02 0.  1.
    10030    2    1    2    0    0  0.00000000000E+00  0.00000000000E+00 -0.77421959713E+03  0.11195123335E+04  0.80863581439E+03 0.  0.
        3    1    3    3  502    0  0.13183288037E+03 -0.26261479229E+03 -0.26262293767E+01  0.29385939624E+03  0.10100000352E+00 0. -1.
       -3    1    3    3    0  502 -0.13183288037E+03  0.26261479229E+03 -0.77159336775E+03  0.82565293728E+03  0.10100000352E+00 0.  1.
</event>
<event>
 5   0  0.1119792E-02  0.8001917E+03  0.7818609E-02  0.9559740E-01
       -2   -1    0    0    0  501  0.00000000000E+00  0.00000000000E+00  0.12880953461E+03  0.12880953463E+03  0.25500000920E-02 0.  1.
        2   -1    0    0  501    0  0.00000000000E+00  0.00000000000E+00 -0.12427394852E+04  0.12427394852E+04  0.25500000920E-02 0. -1.
    10030    2    1    2    0    0  0.00000000000E+00  0.00000000000E+00 -0.11139299506E+04  0.13715490199E+04  0.80019171390E+03 0.  0.
        4    1    3    3  502    0  0.13027792919E+02  0.28263560479E+03 -0.72097258043E+02  0.29197985547E+03  0.12699999809E+01 0.  1.
       -4    1    3    3    0  502 -0.13027792919E+02 -0.28263560479E+03 -0.10418326926E+04  0.10795691644E+04  0.12699999809E+01 0. -1.
</event>
<event>
 5   0  0.1092868E-02  0.7931920E+03  0.7818609E-02  0.9569924E-01
       -2   -1    0    0    0  501  0.00000000000E+00  0.00000000000E+00  0.19549579494E+03  0.19549579495E+03  0.25500000920E-02 0. -1.
        2   -1    0    0  501    0  0.00000000000E+00  0.00000000000E+00 -0.80456140644E+03  0.80456140645E+03  0.25500000920E-02 0.  1.
    10030    2    1    2    0    0  0.00000000000E+00  0.00000000000E+00 -0.60906561151E+03  0.10000572014E+04  0.79319196097E+03 0.  0.
        3    1    3    3  502    0  0.37895533481E+03  0.83598769933E+02 -0.40767573848E+03  0.56284582086E+03  0.10100000352E+00 0.  1.
       -3    1    3    3    0  502 -0.37895533481E+03 -0.83598769933E+02 -0.20138987303E+03  0.43721138054E+03  0.10100000352E+00 0. -1.
</event>
<event>
 5   0  0.1106332E-02  0.8030963E+03  0.7818609E-02  0.9555546E-01
       -2   -1    0    0    0  501  0.00000000000E+00  0.00000000000E+00  0.37341127264E+03  0.37341127265E+03  0.25500000920E-02 0. -1.
        2   -1    0    0  501    0  0.00000000000E+00  0.00000000000E+00 -0.43180517230E+03  0.43180517231E+03  0.25500000920E-02 0.  1.
    10030    2    1    2    0    0  0.00000000000E+00  0.00000000000E+00 -0.58393899664E+02  0.80521644496E+03  0.80309630538E+03 0.  0.
        1    1    3    3  502    0 -0.14235862870E+03 -0.36666313002E+03  0.51843956498E+02  0.39673117590E+03  0.50400001928E-02 0. -1.
       -1    1    3    3    0  502  0.14235862870E+03  0.36666313002E+03 -0.11023785616E+03  0.40848526906E+03  0.50400001928E-02 0.  1.
</event>
<event>
 5   0  0.1092868E-02  0.7962923E+03  0.7818609E-02  0.9565399E-01
       -2   -1    0    0    0  501  0.00000000000E+00  0.00000000000E+00  0.11612977004E+03  0.11612977007E+03  0.25500000920E-02 0.  1.
        2   -1    0    0  501    0  0.00000000000E+00  0.00000000000E+00 -0.13650277187E+04  0.13650277187E+04  0.25500000920E-02 0. -1.
    10030    2    1    2    0    0  0.00000000000E+00  0.00000000000E+00 -0.12488979486E+04  0.14811574887E+04  0.79629229581E+03 0.  0.
        3    1    3    3  502    0 -0.33881769898E+03  0.96374358570E+02 -0.96961504990E+03  0.10316195061E+04  0.10100000352E+00 0. -1.
       -3    1    3    3    0  502  0.33881769898E+03 -0.96374358570E+02 -0.27928289871E+03  0.44953798265E+03  0.10100000352E+00 0.  1.
</event>
<event>
 5   0  0.1154714E-02  0.7956086E+03  0.7818609E-02  0.9566395E-01
       -2   -1    0    0    0  501  0.00000000000E+00  0.00000000000E+00  0.22353795336E+03  0.22353795337E+03  0.25500000920E-02 0. -1.
        2   -1    0    0  501    0  0.00000000000E+00  0.00000000000E+00 -0.70792577869E+03  0.70792577869E+03  0.25500000920E-02 0.  1.
    10030    2    1    2    0    0  0.00000000000E+00  0.00000000000E+00 -0.48438782533E+03  0.93146373206E+03  0.79560864677E+03 0.  0.
        5    1    3    3  502    0  0.11488045082E+03  0.35151590906E+03 -0.41372162808E+03  0.55493119199E+03  0.46999998093E+01 0.  1.
       -5    1    3    3    0  502 -0.11488045082E+03 -0.35151590906E+03 -0.70666197248E+02  0.37653254007E+03  0.46999998093E+01 0. -1.
</event>
<event>
 5   0  0.6517392E-03  0.8020335E+03  0.7818609E-02  0.9557078E-01
        1   -1    0    0  501    0  0.00000000000E+00  0.00000000000E+00  0.64243414740E+03  0.64243414742E+03  0.50400001928E-02 0. -1.
       -1   -1    0    0    0  501  0.00000000000E+00  0.00000000000E+00 -0.25032047446E+03  0.25032047451E+03  0.50400001928E-02 0.  1.
    10030    2    1    2    0    0  0.00000000000E+00  0.00000000000E+00  0.39211367294E+03  0.89275462193E+03  0.80203346718E+03 0.  0.
        3    1    3    3  502    0 -0.14490380780E+03  0.31795398627E+03 -0.22982262543E+02  0.35017145157E+03  0.10100000352E+00 0.  1.
       -3    1    3    3    0  502  0.14490380780E+03 -0.31795398627E+03  0.41509593548E+03  0.54258317036E+03  0.10100000352E+00 0. -1.
</event>
<event>
 5   0  0.4385875E-03  0.7972140E+03  0.7818609E-02  0.9564058E-01
        3   -1    0    0  501    0  0.00000000000E+00  0.00000000000E+00  0.68442030218E+03  0.68442030963E+03  0.10100000352E+00 0. -1.
       -3   -1    0    0    0  501  0.00000000000E+00  0.00000000000E+00 -0.23214907109E+03  0.23214909306E+03  0.10100000352E+00 0.  1.
    10030    2    1    2    0    0  0.00000000000E+00  0.00000000000E+00  0.45227123108E+03  0.91656940269E+03  0.79721402615E+03 0.  0.
        3    1    3    3  502    0 -0.36711468177E+02 -0.38652202751E+02  0.68030357095E+03  0.68238895325E+03  0.10100000352E+00 0. -1.
       -3    1    3    3    0  502  0.36711468177E+02  0.38652202751E+02 -0.22803233987E+03  0.23418044944E+03  0.10100000352E+00 0.  1.
</event>
<event>
 5   0  0.6557679E-03  0.8004000E+03  0.7818609E-02  0.9559438E-01
        1   -1    0    0  501    0  0.00000000000E+00  0.00000000000E+00  0.81236564152E+03  0.81236564154E+03  0.50400001928E-02 0.  1.
       -1   -1    0    0    0  501  0.00000000000E+00  0.00000000000E+00 -0.19715267005E+03  0.19715267012E+03  0.50400001928E-02 0. -1.
    10030    2    1    2    0    0  0.00000000000E+00  0.00000000000E+00  0.61521297147E+03  0.10095183117E+04  0.80040003830E+03 0.  0.
        1    1    3    3  502    0 -0.38311526261E+03  0.86939586124E+02  0.21135056598E+03  0.44609960530E+03  0.50400001928E-02 0.  1.
       -1    1    3    3    0  502  0.38311526261E+03 -0.86939586124E+02  0.40386240548E+03  0.56341870636E+03  0.50400001928E-02 0. -1.
</event>
<event>
 5   0  0.6517392E-03  0.8035305E+03  0.7818609E-02  0.9554921E-01
       -1   -1    0    0    0  501  0.00000000000E+00  0.00000000000E+00  0.52748881677E+03  0.52748881680E+03  0.50400001928E-02 0. -1.
        1   -1    0    0  501    0  0.00000000000E+00  0.00000000000E+00 -0.30600705420E+03  0.30600705424E+03  0.50400001928E-02 0.  1.
    10030    2    1    2    0    0  0.00000000000E+00  0.00000000000E+00  0.22148176257E+03  0.83349587103E+03  0.80353045734E+03 0.  0.
        3    1    3    3  502    0 -0.32916396095E+03 -0.22055039474E+03  0.41748091033E+02  0.39841473757E+03  0.10100000352E+00 0.  1.
       -3    1    3    3    0  502  0.32916396095E+03  0.22055039474E+03  0.17973367154E+03  0.43508113346E+03  0.10100000352E+00 0. -1.
</event>
<event>
 5   0  0.6551489E-03  0.8005497E+03  0.7818609E-02  0.9559222E-01
       -1   -1    0    0    0  501  0.00000000000E+00  0.00000000000E+00  0.14465763815E+03  0.14465763824E+03  0.50400001928E-02 0. -1.
        1   -1    0    0  501    0  0.00000000000E+00  0.00000000000E+00 -0.11075804389E+04  0.11075804389E+04  0.50400001928E-02 0.  1.
    10030    2    1    2    0    0  0.00000000000E+00  0.00000000000E+00 -0.96292280071E+03  0.12522380771E+04  0.80054973714E+03 0.  0.
        4    1    3    3  502    0  0.17443064900E+03 -0.25184085508E+03 -0.88443774600E+03  0.93599231143E+03  0.12699999809E+01 0.  1.
       -4    1    3    3    0  502 -0.17443064900E+03  0.25184085508E+03 -0.78485054712E+02  0.31624576568E+03  0.12699999809E+01 0. -1.
</event>
<event>
 5   0  0.6551489E-03  0.8114176E+03  0.7818609E-02  0.9543636E-01
        1   -1    0    0  501    0  0.00000000000E+00  0.00000000000E+00  0.18226268913E+04  0.18226268913E+04  0.50400001928E-02 0.  1.
       -1   -1    0    0    0  501  0.00000000000E+00  0.00000000000E+00 -0.90309000778E+02  0.90309000919E+02  0.50400001928E-02 0. -1.
    10030    2    1    2    0    0  0.00000000000E+00  0.00000000000E+00  0.17323178905E+04  0.19129358922E+04  0.81141755832E+03 0.  0.
        4    1    3    3  502    0 -0.15231409581E+03 -0.25162872263E+03  0.20739500560E+03  0.35990401371E+03  0.12699999809E+01 0. -1.
       -4    1    3    3    0  502  0.15231409581E+03  0.25162872263E+03  0.15249228849E+04  0.15530318785E+04  0.12699999809E+01 0.  1.
</event>
<event>
 5   0  0.1119792E-02  0.7994851E+03  0.7818609E-02  0.9560763E-01
       -2   -1    0    0    0  501  0.00000000000E+00  0.00000000000E+00  0.23749824718E+03  0.23749824719E+03  0.25500000920E-02 0. -1.
        2   -1    0    0  501    0  0.00000000000E+00  0.00000000000E+00 -0.67282218353E+03  0.67282218353E+03  0.25500000920E-02 0.  1.
    10030    2    1    2    0    0  0.00000000000E+00  0.00000000000E+00 -0.43532393635E+03  0.91032043072E+03  0.79948505741E+03 0.  0.
        4    1    3    3  502    0  0.27895101608E+03 -0.27350559735E+03 -0.12122371283E+03  0.40904251931E+03  0.12699999809E+01 0. -1.
       -4    1    3    3    0  502 -0.27895101608E+03  0.27350559735E+03 -0.31410022353E+03  0.50127791141E+03  0.12699999809E+01 0.  1.
</event>
<event>
 5   0  0.1154714E-02  0.8008214E+03  0.7818609E-02  0.9558829E-01
       -2   -1    0    0    0  501  0.00000000000E+00  0.00000000000E+00  0.43562931315E+03  0.43562931315E+03  0.25500000920E-02 0.  1.
        2   -1    0    0  501    0  0.00000000000E+00  0.00000000000E+00 -0.36803938852E+03  0.36803938853E+03  0.25500000920E-02 0. -1.
    10030    2    1    2    0    0  0.00000000000E+00  0.00000000000E+00  0.67589924627E+02  0.80366870168E+03  0.80082144337E+03 0.  0.
        5    1    3    3  502    0 -0.33456864675E+03 -0.14006021073E+03 -0.13637683316E+03  0.38752260919E+03  0.46999998093E+01 0. -1.
       -5    1    3    3    0  502  0.33456864675E+03  0.14006021073E+03  0.20396675778E+03  0.41614609249E+03  0.46999998093E+01 0.  1.
</event>
<event>
 5   0  0.6551489E-03  0.8053413E+03  0.7818609E-02  0.9552318E-01
       -1   -1    0    0    0  501  0.00000000000E+00  0.00000000000E+00  0.87983493865E+03  0.87983493866E+03  0.50400001928E-02 0.  1.
        1   -1    0    0  501    0  0.00000000000E+00  0.00000000000E+00 -0.18428870099E+03  0.18428870106E+03  0.50400001928E-02 0. -1.
    10030    2    1    2    0    0  0.00000000000E+00  0.00000000000E+00  0.69554623766E+03  0.10641236397E+04  0.80534126424E+03 0.  0.
        4    1    3    3  502    0  0.33472916261E+02 -0.30326280754E+03  0.69499271499E+03  0.75901597700E+03  0.12699999809E+01 0.  1.
       -4    1    3    3    0  502 -0.33472916261E+02  0.30326280754E+03  0.55352267293E+00  0.30510766272E+03  0.12699999809E+01 0. -1.
</event>
<event>
 5   0  0.1092868E-02  0.7949779E+03  0.7818609E-02  0.9567315E-01
       -2   -1    0    0    0  501  0.00000000000E+00  0.00000000000E+00  0.13490394614E+03  0.13490394616E+03  0.25500000920E-02 0.  1.
        2   -1    0    0  501    0  0.00000000000E+00  0.00000000000E+00 -0.11711849635E+04  0.11711849635E+04  0.25500000920E-02 0. -1.
    10030    2    1    2    0    0  0.00000000000E+00  0.00000000000E+00 -0.10362810174E+04  0.13060889097E+04  0.79497791983E+03 0.  0.
        3    1    3    3  502    0  0.19871017788E+03 -0.37972191848E+02 -0.10802749430E+04  0.10990548597E+04  0.10100000352E+00 0. -1.
       -3    1    3    3    0  502 -0.19871017788E+03  0.37972191848E+02  0.43993925571E+02  0.20703404994E+03  0.10100000352E+00 0.  1.
</event>
<event>
 5   0  0.1106332E-02  0.7976421E+03  0.7818609E-02  0.9563436E-01
        2   -1    0    0  501    0  0.00000000000E+00  0.00000000000E+00  0.61826965023E+03  0.61826965024E+03  0.25500000920E-02 0.  1.
       -2   -1    0    0    0  501  0.00000000000E+00  0.00000000000E+00 -0.25726352733E+03  0.25726352734E+03  0.25500000920E-02 0. -1.
    10030    2    1    2    0    0  0.00000000000E+00  0.00000000000E+00  0.36100612291E+03  0.87553317758E+03  0.79764210286E+03 0.  0.
        1    1    3    3  502    0  0.39321121006E+03 -0.41497537447E+02  0.23776145513E+03  0.46137578058E+03  0.50400001928E-02 0. -1.
       -1    1    3    3    0  502 -0.39321121006E+03  0.41497537447E+02  0.12324466777E+03  0.41415739700E+03  0.50400001928E-02 0.  1.
</event>
<event>
 5   0  0.1121480E-02  0.7971183E+03  0.7818609E-02  0.9564198E-01
       -2   -1    0    0    0  501  0.00000000000E+00  0.00000000000E+00  0.12525640964E+03  0.12525640967E+03  0.25500000920E-02 0. -1.
        2   -1    0    0  501    0  0.00000000000E+00  0.00000000000E+00 -0.12681936881E+04  0.12681936881E+04  0.25500000920E-02 0.  1.
    10030    2    1    2    0    0  0.00000000000E+00  0.00000000000E+00 -0.11429372785E+04  0.13934500978E+04  0.79711828012E+03 0.  0.
        2    1    3    3  502    0 -0.23539979890E+03 -0.26156918764E+03 -0.24434374560E+03  0.42841028380E+03  0.25500000920E-02 0. -1.
       -2    1    3    3    0  502  0.23539979890E+03  0.26156918764E+03 -0.89859353290E+03  0.96503981400E+03  0.25500000920E-02 0.  1.
</event>
<event>
 5   0  0.4385875E-03  0.8040483E+03  0.7818609E-02  0.9554176E-01
       -4   -1    0    0    0  501  0.00000000000E+00  0.00000000000E+00  0.21983348985E+03  0.21983715828E+03  0.12699999809E+01 0.  1.
        4   -1    0    0  501    0  0.00000000000E+00  0.00000000000E+00 -0.73519801398E+03  0.73519911090E+03  0.12699999809E+01 0. -1.
    10030    2    1    2    0    0  0.00000000000E+00  0.00000000000E+00 -0.51536452414E+03  0.95503626917E+03  0.80404830868E+03 0.  0.
        3    1    3    3  502    0  0.13323295535E+03  0.96420421378E+02  0.17805099762E+03  0.24238417028E+03  0.10100000352E+00 0.  1.
       -3    1    3    3    0  502 -0.13323295535E+03 -0.96420421378E+02 -0.69341552175E+03  0.71265209889E+03  0.10100000352E+00 0. -1.
</event>
<event>
 5   0  0.6551489E-03  0.7945263E+03  0.7818609E-02  0.9567974E-01
        1   -1    0    0  501    0  0.00000000000E+00  0.00000000000E+00  0.22399620628E+04  0.22399620629E+04  0.50400001928E-02 0.  1.
       -1   -1    0    0    0  501  0.00000000000E+00  0.00000000000E+00 -0.70455669709E+02  0.70455669890E+02  0.50400001928E-02 0. -1.
    10030    2    1    2    0    0  0.00000000000E+00  0.00000000000E+00  0.21695063931E+04  0.23104177327E+04  0.79452634312E+03 0.  0.
        4    1    3    3  502    0  0.82374111425E+02  0.34632293640E+03  0.57200757980E+03  0.67373537443E+03  0.12699999809E+01 0.  1.
       -4    1    3    3    0  502 -0.82374111425E+02 -0.34632293640E+03  0.15974988133E+04  0.16366823583E+04  0.12699999809E+01 0. -1.
</event>
<event>
 5   0  0.1154714E-02  0.8028035E+03  0.7818609E-02  0.9555968E-01
        2   -1    0    0  501    0  0.00000000000E+00  0.00000000000E+00  0.37025776202E+03  0.37025776203E+03  0.25500000920E-02 0.  1.
       -2   -1    0    0    0  501  0.00000000000E+00  0.00000000000E+00 -0.43516542839E+03  0.43516542840E+03  0.25500000920E-02 0. -1.
    10030    2    1    2    0    0  0.00000000000E+00  0.00000000000E+00 -0.64907666365E+02  0.80542319043E+03  0.80280353171E+03 0.  0.
        5    1    3    3  502    0  0.39016814586E+03  0.29679727206E+02  0.57220267312E+02  0.39548491405E+03  0.46999998093E+01 0. -1.
       -5    1    3    3    0  502 -0.39016814586E+03 -0.29679727206E+02 -0.12212793368E+03  0.40993827637E+03  0.46999998093E+01 0.  1.
</event>
<event>
 5   0  0.4385875E-03  0.7975053E+03  0.7818609E-02  0.9563635E-01
        4   -1    0    0  501    0  0.00000000000E+00  0.00000000000E+00  0.25755886786E+03  0.25756199897E+03  0.12699999809E+01 0.  1.
       -4   -1    0    0    0  501  0.00000000000E+00  0.00000000000E+00 -0.61734135026E+03  0.61734265658E+03  0.12699999809E+01 0. -1.
    10030    2    1    2    0    0  0.00000000000E+00  0.00000000000E+00 -0.35978248240E+03  0.87490465556E+03  0.79750531138E+03 0.  0.
        4    1    3    3  502    0  0.24480244720E+03 -0.93015320679E+02  0.14999495897E+03  0.30179494471E+03  0.12699999809E+01 0.  1.
       -4    1    3    3    0  502 -0.24480244720E+03  0.93015320679E+02 -0.50977744136E+03  0.57310971084E+03  0.12699999809E+01 0. -1.
</event>
<event>
 5   0  0.6596225E-03  0.8058901E+03  0.7818609E-02  0.9551530E-01
       -1   -1    0    0    0  501  0.00000000000E+00  0.00000000000E+00  0.16807261123E+03  0.16807261131E+03  0.50400001928E-02 0.  1.
        1   -1    0    0  501    0  0.00000000000E+00  0.00000000000E+00 -0.96603914096E+03  0.96603914097E+03  0.50400001928E-02 0. -1.
    10030    2    1    2    0    0  0.00000000000E+00  0.00000000000E+00 -0.79796652973E+03  0.11341117523E+04  0.80589011911E+03 0.  0.
        5    1    3    3  502    0 -0.18993166268E+03  0.33739878100E+03 -0.55588475325E+03  0.67745252439E+03  0.46999998093E+01 0. -1.
       -5    1    3    3    0  502  0.18993166268E+03 -0.33739878100E+03 -0.24208177647E+03  0.45665922788E+03  0.46999998093E+01 0.  1.
</event>
<event>
 5   0  0.6551489E-03  0.7898259E+03  0.7818609E-02  0.9574862E-01
        1   -1    0    0  501    0  0.00000000000E+00  0.00000000000E+00  0.28453655306E+03  0.28453655311E+03  0.50400001928E-02 0.  1.
       -1   -1    0    0    0  501  0.00000000000E+00  0.00000000000E+00 -0.54810614254E+03  0.54810614256E+03  0.50400001928E-02 0. -1.
    10030    2    1    2    0    0  0.00000000000E+00  0.00000000000E+00 -0.26356958947E+03  0.83264269566E+03  0.78982588597E+03 0.  0.
        4    1    3    3  502    0 -0.21884353601E+02  0.15761075991E+03  0.24924271162E+03  0.29570867213E+03  0.12699999809E+01 0.  1.
       -4    1    3    3    0  502  0.21884353601E+02 -0.15761075991E+03 -0.51281230110E+03  0.53693402354E+03  0.12699999809E+01 0. -1.
</event>
<event>
 5   0  0.6517392E-03  0.8007961E+03  0.7818609E-02  0.9558866E-01
       -1   -1    0    0    0  501  0.00000000000E+00  0.00000000000E+00  0.51490915633E+03  0.51490915635E+03  0.50400001928E-02 0.  1.
        1   -1    0    0  501    0  0.00000000000E+00  0.00000000000E+00 -0.31135313849E+03  0.31135313853E+03  0.50400001928E-02 0. -1.
    10030    2    1    2    0    0  0.00000000000E+00  0.00000000000E+00  0.20355601784E+03  0.82626229488E+03  0.80079605865E+03 0.  0.
        3    1    3    3  502    0 -0.37330087022E+03 -0.46039590895E+02  0.24342212878E+03  0.44802625662E+03  0.10100000352E+00 0.  1.
       -3    1    3    3    0  502  0.37330087022E+03  0.46039590895E+02 -0.39866110946E+02  0.37823603826E+03  0.10100000352E+00 0. -1.
</event>
<event>
 5   0  0.4385875E-03  0.7966613E+03  0.7818609E-02  0.9564862E-01
       -3   -1    0    0    0  501  0.00000000000E+00  0.00000000000E+00  0.30946687318E+03  0.30946688966E+03  0.10100000352E+00 0.  1.
        3   -1    0    0  501    0  0.00000000000E+00  0.00000000000E+00 -0.51271178257E+03  0.51271179252E+03  0.10100000352E+00 0. -1.
    10030    2    1    2    0    0  0.00000000000E+00  0.00000000000E+00 -0.20324490939E+03  0.82217868218E+03  0.79666134100E+03 0.  0.
        5    1    3    3  502    0 -0.19233206161E+03  0.27282519029E+03  0.12263948962E+03  0.35565115041E+03  0.46999998093E+01 0.  1.
       -5    1    3    3    0  502  0.19233206161E+03 -0.27282519029E+03 -0.32588439901E+03  0.46652753177E+03  0.46999998093E+01 0. -1.
</event>
<event>
 5   0  0.4385875E-03  0.8000619E+03  0.7818609E-02  0.9559928E-01
       -3   -1    0    0    0  501  0.00000000000E+00  0.00000000000E+00  0.10099311361E+03  0.10099316411E+03  0.10100000352E+00 0.  1.
        3   -1    0    0  501    0  0.00000000000E+00  0.00000000000E+00 -0.15845109798E+04  0.15845109830E+04  0.10100000352E+00 0. -1.
    10030    2    1    2    0    0  0.00000000000E+00  0.00000000000E+00 -0.14835178662E+04  0.16855041471E+04  0.80006185429E+03 0.  0.
        4    1    3    3  502    0  0.53212465277E+02 -0.22910922173E+03 -0.60078706652E+02  0.24276257091E+03  0.12699999809E+01 0.  1.
       -4    1    3    3    0  502 -0.53212465277E+02  0.22910922173E+03 -0.14234391595E+04  0.14427415762E+04  0.12699999809E+01 0. -1.
</event>
<event>
 5   0  0.6596225E-03  0.8027810E+03  0.7818609E-02  0.9556000E-01
       -1   -1    0    0    0  501  0.00000000000E+00  0.00000000000E+00  0.19812948284E+03  0.19812948291E+03  0.50400001928E-02 0. -1.
        1   -1    0    0  501    0  0.00000000000E+00  0.00000000000E+00 -0.81317705548E+03  0.81317705550E+03  0.50400001928E-02 0.  1.
    10030    2    1    2    0    0  0.00000000000E+00  0.00000000000E+00 -0.61504757264E+03  0.10113065384E+04  0.80278103989E+03 0.  0.
        5    1    3    3  502    0 -0.27661350476E+03 -0.14798550975E+03  0.78616256817E+01  0.31384492551E+03  0.46999998093E+01 0. -1.
       -5    1    3    3    0  502  0.27661350476E+03  0.14798550975E+03 -0.62290919832E+03  0.69746161289E+03  0.46999998093E+01 0.  1.
</event>
<event>
 5   0  0.6551489E-03  0.8005266E+03  0.7818609E-02  0.9559255E-01
        1   -1    0    0  501    0  0.00000000000E+00  0.00000000000E+00  0.67034163050E+03  0.67034163052E+03  0.50400001928E-02 0. -1.
       -1   -1    0    0    0  501  0.00000000000E+00  0.00000000000E+00 -0.23899862659E+03  0.23899862664E+03  0.50400001928E-02 0.  1.
    10030    2    1    2    0    0  0.00000000000E+00  0.00000000000E+00  0.43134300391E+03  0.90934025716E+03  0.80052664932E+03 0.  0.
        4    1    3    3  502    0  0.11389645021E+03 -0.33409835928E+03  0.43004303077E+03  0.55635666281E+03  0.12699999809E+01 0. -1.
       -4    1    3    3    0  502 -0.11389645021E+03  0.33409835928E+03  0.12999731388E+01  0.35298359434E+03  0.12699999809E+01 0.  1.
</event>
<event>
 5   0  0.6596225E-03  0.8046896E+03  0.7818609E-02  0.9553254E-01
        1   -1    0    0  501    0  0.00000000000E+00  0.00000000000E+00  0.22859636518E+03  0.22859636524E+03  0.50400001928E-02 0.  1.
       -1   -1    0    0    0  501  0.00000000000E+00  0.00000000000E+00 -0.70815352146E+03  0.70815352148E+03  0.50400001928E-02 0. -1.
    10030    2    1    2    0    0  0.00000000000E+00  0.00000000000E+00 -0.47955715628E+03  0.93674988672E+03  0.80468955761E+03 0.  0.
        5    1    3    3  502    0 -0.65863216575E+01 -0.40053099121E+03 -0.19636516292E+03  0.44614999917E+03  0.46999998093E+01 0.  1.
       -5    1    3    3    0  502  0.65863216575E+01  0.40053099121E+03 -0.28319199336E+03  0.49059988754E+03  0.46999998093E+01 0. -1.
</event>
<event>
 5   0  0.1106332E-02  0.7990762E+03  0.7818609E-02  0.9561355E-01
       -2   -1    0    0    0  501  0.00000000000E+00  0.00000000000E+00  0.26523878892E+03  0.26523878893E+03  0.25500000920E-02 0.  1.
        2   -1    0    0  501    0  0.00000000000E+00  0.00000000000E+00 -0.60183772141E+03  0.60183772142E+03  0.25500000920E-02 0. -1.
    10030    2    1    2    0    0  0.00000000000E+00  0.00000000000E+00 -0.33659893249E+03  0.86707651035E+03  0.79907623757E+03 0.  0.
        1    1    3    3  502    0  0.71909450717E+02  0.20965394403E+03 -0.52901105615E+03  0.57356642414E+03  0.50400001928E-02 0.  1.
       -1    1    3    3    0  502 -0.71909450717E+02 -0.20965394403E+03  0.19241212366E+03  0.29351008621E+03  0.50400001928E-02 0. -1.
</event>
<event>
 5   0  0.6557679E-03  0.8090463E+03  0.7818609E-02  0.9547014E-01
       -1   -1    0    0    0  501  0.00000000000E+00  0.00000000000E+00  0.12917480196E+03  0.12917480206E+03  0.50400001928E-02 0.  1.
        1   -1    0    0  501    0  0.00000000000E+00  0.00000000000E+00 -0.12668027603E+04  0.12668027603E+04  0.50400001928E-02 0. -1.
    10030    2    1    2    0    0  0.00000000000E+00  0.00000000000E+00 -0.11376279583E+04  0.13959775623E+04  0.80904634170E+03 0.  0.
        1    1    3    3  502    0  0.90827639610E+02 -0.37745108296E+03 -0.76494060566E+03  0.85781880974E+03  0.50400001928E-02 0.  1.
       -1    1    3    3    0  502 -0.90827639610E+02  0.37745108296E+03 -0.37268735266E+03  0.53815875260E+03  0.50400001928E-02 0. -1.
</event>
<event>
 5   0  0.1119792E-02  0.8017549E+03  0.7818609E-02  0.9557480E-01
       -2   -1    0    0    0  501  0.00000000000E+00  0.00000000000E+00  0.31302374632E+03  0.31302374633E+03  0.25500000920E-02 0.  1.
        2   -1    0    0  501    0  0.00000000000E+00  0.00000000000E+00 -0.51338827213E+03  0.51338827213E+03  0.25500000920E-02 0. -1.
    10030    2    1    2    0    0  0.00000000000E+00  0.00000000000E+00 -0.20036452581E+03  0.82641201846E+03  0.80175487591E+03 0.  0.
        4    1    3    3  502    0  0.82610856564E+02  0.15710338526E+03  0.27030902705E+03  0.32337997818E+03  0.12699999809E+01 0.  1.
       -4    1    3    3    0  502 -0.82610856564E+02 -0.15710338526E+03 -0.47067355286E+03  0.50303204028E+03  0.12699999809E+01 0. -1.
</event>
<event>
 5   0  0.1154714E-02  0.7999497E+03  0.7818609E-02  0.9560090E-01
       -2   -1    0    0    0  501  0.00000000000E+00  0.00000000000E+00  0.15248646188E+03  0.15248646190E+03  0.25500000920E-02 0. -1.
        2   -1    0    0  501    0  0.00000000000E+00  0.00000000000E+00 -0.10491416612E+04  0.10491416612E+04  0.25500000920E-02 0.  1.
    10030    2    1    2    0    0  0.00000000000E+00  0.00000000000E+00 -0.89665519933E+03  0.12016281231E+04  0.79994974829E+03 0.  0.
        5    1    3    3  502    0 -0.25827320002E+03  0.17850843949E+01 -0.90702979066E+03  0.94309774866E+03  0.46999998093E+01 0.  1.
       -5    1    3    3    0  502  0.25827320002E+03 -0.17850843949E+01  0.10374591331E+02  0.25853037446E+03  0.46999998093E+01 0. -1.
</event>
<event>
 5   0  0.6600401E-03  0.8051454E+03  0.7818609E-02  0.9552599E-01
       -1   -1    0    0    0  501  0.00000000000E+00  0.00000000000E+00  0.24404076355E+03  0.24404076360E+03  0.50400001928E-02 0. -1.
        1   -1    0    0  501    0  0.00000000000E+00  0.00000000000E+00 -0.66408898093E+03  0.66408898095E+03  0.50400001928E-02 0.  1.
    10030    2    1    2    0    0  0.00000000000E+00  0.00000000000E+00 -0.42004821738E+03  0.90812974456E+03  0.80514540800E+03 0.  0.
        2    1    3    3  502    0  0.40026587611E+03  0.10721749778E+02 -0.16301518555E+03  0.43232126737E+03  0.25500000920E-02 0.  1.
       -2    1    3    3    0  502 -0.40026587611E+03 -0.10721749778E+02 -0.25703303183E+03  0.47580847718E+03  0.25500000920E-02 0. -1.
</event>
<event>
 5   0  0.6557679E-03  0.7998257E+03  0.7818609E-02  0.9560269E-01
       -1   -1    0    0    0  501  0.00000000000E+00  0.00000000000E+00  0.57853676271E+03  0.57853676273E+03  0.50400001928E-02 0.  1.
        1   -1    0    0  501    0  0.00000000000E+00  0.00000000000E+00 -0.27643927539E+03  0.27643927543E+03  0.50400001928E-02 0. -1.
    10030    2    1    2    0    0  0.00000000000E+00  0.00000000000E+00  0.30209748732E+03  0.85497603817E+03  0.79982568975E+03 0.  0.
        1    1    3    3  502    0 -0.37063750250E+03 -0.62401560519E+02  0.29708575622E+03  0.47908878048E+03  0.50400001928E-02 0.  1.
       -1    1    3    3    0  502  0.37063750250E+03  0.62401560519E+02  0.50117311051E+01  0.37588725768E+03  0.50400001928E-02 0. -1.
</event>
<event>
 5   0  0.1121480E-02  0.8070177E+03  0.7818609E-02  0.9549915E-01
        2   -1    0    0  501    0  0.00000000000E+00  0.00000000000E+00  0.23934014790E+03  0.23934014791E+03  0.25500000920E-02 0.  1.
       -2   -1    0    0    0  501  0.00000000000E+00  0.00000000000E+00 -0.68028445538E+03  0.68028445539E+03  0.25500000920E-02 0. -1.
    10030    2    1    2    0    0  0.00000000000E+00  0.00000000000E+00 -0.44094430748E+03  0.91962460330E+03  0.80701767557E+03 0.  0.
        2    1    3    3  502    0  0.30946567172E+03  0.87488060325E+02 -0.49819201304E+03  0.59297423598E+03  0.25500000920E-02 0. -1.
       -2    1    3    3    0  502 -0.30946567172E+03 -0.87488060325E+02  0.57247705559E+02  0.32665036732E+03  0.25500000920E-02 0.  1.
</event>
<event>
 5   0  0.6517392E-03  0.8029738E+03  0.7818609E-02  0.9555723E-01
       -1   -1    0    0    0  501  0.00000000000E+00  0.00000000000E+00  0.10114845069E+03  0.10114845081E+03  0.50400001928E-02 0. -1.
        1   -1    0    0  501    0  0.00000000000E+00  0.00000000000E+00 -0.15936153406E+04  0.15936153406E+04  0.50400001928E-02 0.  1.
    10030    2    1    2    0    0  0.00000000000E+00  0.00000000000E+00 -0.14924668899E+04  0.16947637914E+04  0.80297377992E+03 0.  0.
        3    1    3    3  502    0 -0.92798498148E+02  0.19805861298E+03 -0.35635083825E+02  0.22160470400E+03  0.10100000352E+00 0. -1.
       -3    1    3    3    0  502  0.92798498148E+02 -0.19805861298E+03 -0.14568318061E+04  0.14731590874E+04  0.10100000352E+00 0.  1.
</event>
<event>
 5   0  0.6517392E-03  0.7733500E+03  0.7818609E-02  0.9599414E-01
        1   -1    0    0  501    0  0.00000000000E+00  0.00000000000E+00  0.46098474018E+03  0.46098474021E+03  0.50400001928E-02 0. -1.
       -1   -1    0    0    0  501  0.00000000000E+00  0.00000000000E+00 -0.32434384029E+03  0.32434384032E+03  0.50400001928E-02 0.  1.
    10030    2    1    2    0    0  0.00000000000E+00  0.00000000000E+00  0.13664089989E+03  0.78532858053E+03  0.77335001382E+03 0.  0.
        3    1    3    3  502    0 -0.11305074023E+03  0.33944263508E+03 -0.80634121607E+02  0.36674738465E+03  0.10100000352E+00 0.  1.
       -3    1    3    3    0  502  0.11305074023E+03 -0.33944263508E+03  0.21727502150E+03  0.41858119588E+03  0.10100000352E+00 0. -1.
</event>
<event>
 5   0  0.1121480E-02  0.8305378E+03  0.7818609E-02  0.9516837E-01
       -2   -1    0    0    0  501  0.00000000000E+00  0.00000000000E+00  0.11104286162E+03  0.11104286165E+03  0.25500000920E-02 0.  1.
        2   -1    0    0  501    0  0.00000000000E+00  0.00000000000E+00 -0.15529883705E+04  0.15529883705E+04  0.25500000920E-02 0. -1.
    10030    2    1    2    0    0  0.00000000000E+00  0.00000000000E+00 -0.14419455089E+04  0.16640312322E+04  0.83053783237E+03 0.  0.
        2    1    3    3  502    0 -0.24862492819E+03  0.21628461500E+03 -0.21468303313E+03  0.39329657299E+03  0.25500000920E-02 0.  1.
       -2    1    3    3    0  502  0.24862492819E+03 -0.21628461500E+03 -0.12272624758E+04  0.12707346592E+04  0.25500000920E-02 0. -1.
</event>
<event>
 5   0  0.6517392E-03  0.8061078E+03  0.7818609E-02  0.9551218E-01
       -1   -1    0    0    0  501  0.00000000000E+00  0.00000000000E+00  0.88986259629E+03  0.88986259631E+03  0.50400001928E-02 0. -1.
        1   -1    0    0  501    0  0.00000000000E+00  0.00000000000E+00 -0.18255901977E+03  0.18255901984E+03  0.50400001928E-02 0.  1.
    10030    2    1    2    0    0  0.00000000000E+00  0.00000000000E+00  0.70730357652E+03  0.10724216162E+04  0.80610779269E+03 0.  0.
        3    1    3    3  502    0 -0.31232961887E+03 -0.37666665336E+02  0.68885187183E+03  0.75728824104E+03  0.10100000352E+00 0. -1.
       -3    1    3    3    0  502  0.31232961887E+03  0.37666665336E+02  0.18451704690E+02  0.31513337511E+03  0.10100000352E+00 0.  1.
</event>
<event>
 5   0  0.1092868E-02  0.7931350E+03  0.7818609E-02  0.9570007E-01
       -2   -1    0    0    0  501  0.00000000000E+00  0.00000000000E+00  0.15744503291E+03  0.15744503293E+03  0.25500000920E-02 0.  1.
        2   -1    0    0  501    0  0.00000000000E+00  0.00000000000E+00 -0.99886151582E+03  0.99886151582E+03  0.25500000920E-02 0. -1.
    10030    2    1    2    0    0  0.00000000000E+00  0.00000000000E+00 -0.84141648291E+03  0.11563065488E+04  0.79313500551E+03 0.  0.
        3    1    3    3  502    0  0.27879801544E+03  0.24014234582E+03 -0.63630452316E+03  0.73503750657E+03  0.10100000352E+00 0. -1.
       -3    1    3    3    0  502 -0.27879801544E+03 -0.24014234582E+03 -0.20511195975E+03  0.42126904218E+03  0.10100000352E+00 0.  1.
</event>
<event>
 5   0  0.1092868E-02  0.8128264E+03  0.7818609E-02  0.9541635E-01
        2   -1    0    0  501    0  0.00000000000E+00  0.00000000000E+00  0.18816161055E+04  0.18816161055E+04  0.25500000920E-02 0.  1.
       -2   -1    0    0    0  501  0.00000000000E+00  0.00000000000E+00 -0.87781829506E+02  0.87781829543E+02  0.25500000920E-02 0. -1.
    10030    2    1    2    0    0  0.00000000000E+00  0.00000000000E+00  0.17938342760E+04  0.19693979351E+04  0.81282643709E+03 0.  0.
        3    1    3    3  502    0  0.12369868113E+03 -0.18885184420E+03  0.78115300662E+02  0.23888991851E+03  0.10100000352E+00 0.  1.
       -3    1    3    3    0  502 -0.12369868113E+03  0.18885184420E+03  0.17157189754E+04  0.17305080166E+04  0.10100000352E+00 0. -1.
</event>
<event>
 5   0  0.1121480E-02  0.7982956E+03  0.7818609E-02  0.9562487E-01
       -2   -1    0    0    0  501  0.00000000000E+00  0.00000000000E+00  0.32127404917E+03  0.32127404918E+03  0.25500000920E-02 0.  1.
        2   -1    0    0  501    0  0.00000000000E+00  0.00000000000E+00 -0.49589735552E+03  0.49589735553E+03  0.25500000920E-02 0. -1.
    10030    2    1    2    0    0  0.00000000000E+00  0.00000000000E+00 -0.17462330635E+03  0.81717140471E+03  0.79829556278E+03 0.  0.
        2    1    3    3  502    0 -0.11527298202E+03  0.11051798163E+02 -0.47832394484E+03  0.49214205149E+03  0.25500000920E-02 0. -1.
       -2    1    3    3    0  502  0.11527298202E+03 -0.11051798163E+02  0.30370063849E+03  0.32502935322E+03  0.25500000920E-02 0.  1.
</event>
<event>
 5   0  0.6551489E-03  0.7959993E+03  0.7818609E-02  0.9565826E-01
        1   -1    0    0  501    0  0.00000000000E+00  0.00000000000E+00  0.87435767529E+03  0.87435767530E+03  0.50400001928E-02 0. -1.
       -1   -1    0    0    0  501  0.00000000000E+00  0.00000000000E+00 -0.18116582957E+03  0.18116582964E+03  0.50400001928E-02 0.  1.
    10030    2    1    2    0    0  0.00000000000E+00  0.00000000000E+00  0.69319184571E+03  0.10555235049E+04  0.79599933073E+03 0.  0.
        4    1    3    3  502    0  0.37057288570E+02 -0.37065306698E+03  0.53245476827E+03  0.64982046125E+03  0.12699999809E+01 0. -1.
       -4    1    3    3    0  502 -0.37057288570E+02  0.37065306698E+03  0.16073707744E+03  0.40570304369E+03  0.12699999809E+01 0.  1.
</event>
<event>
 5   0  0.1106332E-02  0.8107107E+03  0.7818609E-02  0.9544642E-01
        2   -1    0    0  501    0  0.00000000000E+00  0.00000000000E+00  0.97545266849E+03  0.97545266849E+03  0.25500000920E-02 0.  1.
       -2   -1    0    0    0  501  0.00000000000E+00  0.00000000000E+00 -0.16844790917E+03  0.16844790919E+03  0.25500000920E-02 0. -1.
    10030    2    1    2    0    0  0.00000000000E+00  0.00000000000E+00  0.80700475932E+03  0.11439005777E+04  0.81071070676E+03 0.  0.
        1    1    3    3  502    0 -0.22831208726E+03 -0.23027442066E+03  0.60310225479E+02  0.32983335386E+03  0.50400001928E-02 0. -1.
       -1    1    3    3    0  502  0.22831208726E+03  0.23027442066E+03  0.74669453384E+03  0.81406722382E+03  0.50400001928E-02 0.  1.
</event>
<event>
 5   0  0.1121480E-02  0.7914442E+03  0.7818609E-02  0.9572485E-01
        2   -1    0    0  501    0  0.00000000000E+00  0.00000000000E+00  0.12911219570E+04  0.12911219570E+04  0.25500000920E-02 0.  1.
       -2   -1    0    0    0  501  0.00000000000E+00  0.00000000000E+00 -0.12128674492E+03  0.12128674495E+03  0.25500000920E-02 0. -1.
    10030    2    1    2    0    0  0.00000000000E+00  0.00000000000E+00  0.11698352121E+04  0.14124087020E+04  0.79144419761E+03 0.  0.
        2    1    3    3  502    0 -0.31381385212E+03  0.15189004447E+03  0.91900564327E+03  0.98291459026E+03  0.25500000920E-02 0.  1.
       -2    1    3    3    0  502  0.31381385212E+03 -0.15189004447E+03  0.25082956885E+03  0.42949411172E+03  0.25500000920E-02 0. -1.
</event>
<event>
 5   0  0.1106332E-02  0.8005758E+03  0.7818609E-02  0.9559184E-01
       -2   -1    0    0    0  501  0.00000000000E+00  0.00000000000E+00  0.84527950373E+02  0.84527950411E+02  0.25500000920E-02 0.  1.
        2   -1    0    0  501    0  0.00000000000E+00  0.00000000000E+00 -0.18955906849E+04  0.18955906849E+04  0.25500000920E-02 0. -1.
    10030    2    1    2    0    0  0.00000000000E+00  0.00000000000E+00 -0.18110627346E+04  0.19801186353E+04  0.80057578125E+03 0.  0.
        1    1    3    3  502    0  0.16017212736E+03 -0.28282728332E+03 -0.14833898503E+04  0.15185821778E+04  0.50400001928E-02 0. -1.
       -1    1    3    3    0  502 -0.16017212736E+03  0.28282728332E+03 -0.32767288421E+03  0.46153645755E+03  0.50400001928E-02 0.  1.
</event>
<event>
 5   0  0.1092868E-02  0.8033369E+03  0.7818609E-02  0.9555200E-01
        2   -1    0    0  501    0  0.00000000000E+00  0.00000000000E+00  0.58166877100E+03  0.58166877101E+03  0.25500000920E-02 0.  1.
       -2   -1    0    0    0  501  0.00000000000E+00  0.00000000000E+00 -0.27737009851E+03  0.27737009852E+03  0.25500000920E-02 0. -1.
    10030    2    1    2    0    0  0.00000000000E+00  0.00000000000E+00  0.30429867249E+03  0.85903886952E+03  0.80333685168E+03 0.  0.
        3    1    3    3  502    0  0.34964857915E+03 -0.17866137128E+03  0.24265541447E+03  0.46157954337E+03  0.10100000352E+00 0. -1.
       -3    1    3    3    0  502 -0.34964857915E+03  0.17866137128E+03  0.61643258020E+02  0.39745932615E+03  0.10100000352E+00 0.  1.
</event>
<event>
 5   0  0.4385875E-03  0.7987080E+03  0.7818609E-02  0.9561889E-01
       -4   -1    0    0    0  501  0.00000000000E+00  0.00000000000E+00  0.46119521472E+03  0.46119696332E+03  0.12699999809E+01 0. -1.
        4   -1    0    0  501    0  0.00000000000E+00  0.00000000000E+00 -0.34580143503E+03  0.34580376714E+03  0.12699999809E+01 0.  1.
    10030    2    1    2    0    0  0.00000000000E+00  0.00000000000E+00  0.11539377969E+03  0.80700073046E+03  0.79870799081E+03 0.  0.
        5    1    3    3  502    0 -0.27025357397E+03 -0.14751402586E+03 -0.19923479021E+03  0.36676146703E+03  0.46999998093E+01 0.  1.
       -5    1    3    3    0  502  0.27025357397E+03  0.14751402586E+03  0.31462856990E+03  0.44023926343E+03  0.46999998093E+01 0. -1.
</event>
<event>
 5   0  0.1106332E-02  0.7938918E+03  0.7818609E-02  0.9568901E-01
       -2   -1    0    0    0  501  0.00000000000E+00  0.00000000000E+00  0.28229057000E+03  0.28229057001E+03  0.25500000920E-02 0.  1.
        2   -1    0    0  501    0  0.00000000000E+00  0.00000000000E+00 -0.55816965283E+03  0.55816965284E+03  0.25500000920E-02 0. -1.
    10030    2    1    2    0    0  0.00000000000E+00  0.00000000000E+00 -0.27587908284E+03  0.84046022285E+03  0.79389175449E+03 0.  0.
        1    1    3    3  502    0  0.31931734133E+02  0.21723581844E+03 -0.48802589422E+03  0.53514512976E+03  0.50400001928E-02 0. -1.
       -1    1    3    3    0  502 -0.31931734133E+02 -0.21723581844E+03  0.21214681138E+03  0.30531509308E+03  0.50400001928E-02 0.  1.
</event>
<event>
 5   0  0.1119792E-02  0.8007186E+03  0.7818609E-02  0.9558978E-01
       -2   -1    0    0    0  501  0.00000000000E+00  0.00000000000E+00  0.17135872706E+03  0.17135872708E+03  0.25500000920E-02 0. -1.
        2   -1    0    0  501    0  0.00000000000E+00  0.00000000000E+00 -0.93539188729E+03  0.93539188729E+03  0.25500000920E-02 0.  1.
    10030    2    1    2    0    0  0.00000000000E+00  0.00000000000E+00 -0.76403316023E+03  0.11067506144E+04  0.80071858508E+03 0.  0.
        4    1    3    3  502    0  0.16479512076E+03 -0.33976552574E+02  0.12011118650E+03  0.20673690521E+03  0.12699999809E+01 0. -1.
       -4    1    3    3    0  502 -0.16479512076E+03  0.33976552574E+02 -0.88414434672E+03  0.90001370917E+03  0.12699999809E+01 0.  1.
</event>
<event>
 5   0  0.6557679E-03  0.7996471E+03  0.7818609E-02  0.9560528E-01
       -1   -1    0    0    0  501  0.00000000000E+00  0.00000000000E+00  0.25588344894E+03  0.25588344899E+03  0.50400001928E-02 0. -1.
        1   -1    0    0  501    0  0.00000000000E+00  0.00000000000E+00 -0.62473315671E+03  0.62473315673E+03  0.50400001928E-02 0.  1.
    10030    2    1    2    0    0  0.00000000000E+00  0.00000000000E+00 -0.36884970777E+03  0.88061660571E+03  0.79964710925E+03 0.  0.
        1    1    3    3  502    0  0.17983437236E+03 -0.17315154870E+03 -0.52835736310E+03  0.58436577883E+03  0.50400001928E-02 0.  1.
       -1    1    3    3    0  502 -0.17983437236E+03  0.17315154870E+03  0.15950765533E+03  0.29625082689E+03  0.50400001928E-02 0. -1.
</event>
<event>
 5   0  0.6600401E-03  0.7999789E+03  0.7818609E-02  0.9560048E-01
        1   -1    0    0  501    0  0.00000000000E+00  0.00000000000E+00  0.12080536671E+04  0.12080536671E+04  0.50400001928E-02 0.  1.
       -1   -1    0    0    0  501  0.00000000000E+00  0.00000000000E+00 -0.13243746360E+03  0.13243746370E+03  0.50400001928E-02 0. -1.
    10030    2    1    2    0    0  0.00000000000E+00  0.00000000000E+00  0.10756162035E+04  0.13404911308E+04  0.79997890880E+03 0.  0.
        2    1    3    3  502    0 -0.23913971481E+03  0.17139574732E+03  0.99186895795E+03  0.10345860695E+04  0.25500000920E-02 0.  1.
       -2    1    3    3    0  502  0.23913971481E+03 -0.17139574732E+03  0.83747245530E+02  0.30590506131E+03  0.25500000920E-02 0. -1.
</event>
<event>
 5   0  0.6596225E-03  0.8000746E+03  0.7818609E-02  0.9559909E-01
        1   -1    0    0  501    0  0.00000000000E+00  0.00000000000E+00  0.82185054873E+03  0.82185054874E+03  0.50400001928E-02 0. -1.
       -1   -1    0    0    0  501  0.00000000000E+00  0.00000000000E+00 -0.19471890107E+03  0.19471890113E+03  0.50400001928E-02 0.  1.
    10030    2    1    2    0    0  0.00000000000E+00  0.00000000000E+00  0.62713164766E+03  0.10165694499E+04  0.80007458585E+03 0.  0.
        5    1    3    3  502    0  0.26477513831E+03  0.29983619069E+03  0.31310661131E+03  0.50800143224E+03  0.46999998093E+01 0.  1.
       -5    1    3    3    0  502 -0.26477513831E+03 -0.29983619069E+03  0.31402503635E+03  0.50856801764E+03  0.46999998093E+01 0. -1.
</event>
<event>
 5   0  0.6596225E-03  0.7884926E+03  0.7818609E-02  0.9576825E-01
        1   -1    0    0  501    0  0.00000000000E+00  0.00000000000E+00  0.17767312880E+04  0.17767312880E+04  0.50400001928E-02 0.  1.
       -1   -1    0    0    0  501  0.00000000000E+00  0.00000000000E+00 -0.87480949655E+02  0.87480949800E+02  0.50400001928E-02 0. -1.
    10030    2    1    2    0    0  0.00000000000E+00  0.00000000000E+00  0.16892503383E+04  0.18642122378E+04  0.78849258841E+03 0.  0.
        5    1    3    3  502    0  0.22778923207E+03  0.24246648926E+03  0.34459321293E+03  0.47900365872E+03  0.46999998093E+01 0. -1.
       -5    1    3    3    0  502 -0.22778923207E+03 -0.24246648926E+03  0.13446571254E+04  0.13852085791E+04  0.46999998093E+01 0.  1.
</event>
<event>
 5   0  0.6557679E-03  0.8010035E+03  0.7818609E-02  0.9558566E-01
       -1   -1    0    0    0  501  0.00000000000E+00  0.00000000000E+00  0.17283702727E+03  0.17283702734E+03  0.50400001928E-02 0. -1.
        1   -1    0    0  501    0  0.00000000000E+00  0.00000000000E+00 -0.92805140430E+03  0.92805140432E+03  0.50400001928E-02 0.  1.
    10030    2    1    2    0    0  0.00000000000E+00  0.00000000000E+00 -0.75521437704E+03  0.11008884317E+04  0.80100348544E+03 0.  0.
        1    1    3    3  502    0  0.39323576235E+03  0.33036539542E+02 -0.47158818183E+03  0.61491559665E+03  0.50400001928E-02 0.  1.
       -1    1    3    3    0  502 -0.39323576235E+03 -0.33036539542E+02 -0.28362619520E+03  0.48597283501E+03  0.50400001928E-02 0. -1.
</event>
<event>
 5   0  0.1119792E-02  0.8016063E+03  0.7818609E-02  0.9557695E-01
       -2   -1    0    0    0  501  0.00000000000E+00  0.00000000000E+00  0.35649526292E+03  0.35649526293E+03  0.25500000920E-02 0. -1.
        2   -1    0    0  501    0  0.00000000000E+00  0.00000000000E+00 -0.45061797575E+03  0.45061797575E+03  0.25500000920E-02 0.  1.
    10030    2    1    2    0    0  0.00000000000E+00  0.00000000000E+00 -0.94122712823E+02  0.80711323869E+03  0.80160632170E+03 0.  0.
        4    1    3    3  502    0 -0.93983406775E+01 -0.32547046664E+03  0.18825816734E+03  0.37611448248E+03  0.12699999809E+01 0. -1.
       -4    1    3    3    0  502  0.93983406775E+01  0.32547046664E+03 -0.28238088017E+03  0.43099875620E+03  0.12699999809E+01 0.  1.
</event>
<event>
 5   0  0.6557679E-03  0.8046474E+03  0.7818609E-02  0.9553314E-01
        1   -1    0    0  501    0  0.00000000000E+00  0.00000000000E+00  0.79226267435E+03  0.79226267437E+03  0.50400001928E-02 0. -1.
       -1   -1    0    0    0  501  0.00000000000E+00  0.00000000000E+00 -0.20430641795E+03  0.20430641801E+03  0.50400001928E-02 0.  1.
    10030    2    1    2    0    0  0.00000000000E+00  0.00000000000E+00  0.58795625641E+03  0.99656909238E+03  0.80464737397E+03 0.  0.
        1    1    3    3  502    0  0.29935142853E+03 -0.26685988485E+03  0.33389744339E+03  0.52183616072E+03  0.50400001928E-02 0. -1.
       -1    1    3    3    0  502 -0.29935142853E+03  0.26685988485E+03  0.25405881301E+03  0.47473293166E+03  0.50400001928E-02 0.  1.
</event>
<event>
 5   0  0.1154714E-02  0.7952290E+03  0.7818609E-02  0.9566949E-01
       -2   -1    0    0    0  501  0.00000000000E+00  0.00000000000E+00  0.33232433974E+03  0.33232433975E+03  0.25500000920E-02 0. -1.
        2   -1    0    0  501    0  0.00000000000E+00  0.00000000000E+00 -0.47573193962E+03  0.47573193962E+03  0.25500000920E-02 0.  1.
    10030    2    1    2    0    0  0.00000000000E+00  0.00000000000E+00 -0.14340759988E+03  0.80805627937E+03  0.79522903049E+03 0.  0.
        5    1    3    3  502    0  0.34283820171E+03  0.17123218372E+03 -0.17932115453E+03  0.42312723825E+03  0.46999998093E+01 0.  1.
       -5    1    3    3    0  502 -0.34283820171E+03 -0.17123218372E+03  0.35913554647E+02  0.38492904112E+03  0.46999998093E+01 0. -1.
</event>
<event>
 5   0  0.1154714E-02  0.8001199E+03  0.7818609E-02  0.9559844E-01
       -2   -1    0    0    0  501  0.00000000000E+00  0.00000000000E+00  0.15918321772E+03  0.15918321774E+03  0.25500000920E-02 0.  1.
        2   -1    0    0  501    0  0.00000000000E+00  0.00000000000E+00 -0.10054324613E+04  0.10054324613E+04  0.25500000920E-02 0. -1.
    10030    2    1    2    0    0  0.00000000000E+00  0.00000000000E+00 -0.84624924356E+03  0.11646156790E+04  0.80011992701E+03 0.  0.
        5    1    3    3  502    0 -0.37639851068E+03  0.11689355857E+03 -0.52276284588E+03  0.65470835180E+03  0.46999998093E+01 0. -1.
       -5    1    3    3    0  502  0.37639851068E+03 -0.11689355857E+03 -0.32348639767E+03  0.50990732722E+03  0.46999998093E+01 0.  1.
</event>
<event>
 5   0  0.1154714E-02  0.7985684E+03  0.7818609E-02  0.9562092E-01
        2   -1    0    0  501    0  0.00000000000E+00  0.00000000000E+00  0.87361668488E+03  0.87361668488E+03  0.25500000920E-02 0. -1.
       -2   -1    0    0    0  501  0.00000000000E+00  0.00000000000E+00 -0.18249176903E+03  0.18249176905E+03  0.25500000920E-02 0.  1.
    10030    2    1    2    0    0  0.00000000000E+00  0.00000000000E+00  0.69112491585E+03  0.10561084539E+04  0.79856835472E+03 0.  0.
        5    1    3    3  502    0  0.28364101550E+03  0.25950575154E+03  0.20306136021E+03  0.43480049076E+03  0.46999998093E+01 0.  1.
       -5    1    3    3    0  502 -0.28364101550E+03 -0.25950575154E+03  0.48806355564E+03  0.62130796317E+03  0.46999998093E+01 0. -1.
</event>
<event>
 5   0  0.1121480E-02  0.7992372E+03  0.7818609E-02  0.9561122E-01
        2   -1    0    0  501    0  0.00000000000E+00  0.00000000000E+00  0.43385485321E+03  0.43385485322E+03  0.25500000920E-02 0.  1.
       -2   -1    0    0    0  501  0.00000000000E+00  0.00000000000E+00 -0.36808395099E+03  0.36808395100E+03  0.25500000920E-02 0. -1.
    10030    2    1    2    0    0  0.00000000000E+00  0.00000000000E+00  0.65770902225E+02  0.80193880422E+03  0.79923715763E+03 0.  0.
        2    1    3    3  502    0  0.22857298306E+03  0.31543737545E+03  0.12234209072E+03  0.40830617627E+03  0.25500000920E-02 0. -1.
       -2    1    3    3    0  502 -0.22857298306E+03 -0.31543737545E+03 -0.56571188493E+02  0.39363262795E+03  0.25500000920E-02 0.  1.
</event>
<event>
 5   0  0.6551489E-03  0.7969750E+03  0.7818609E-02  0.9564406E-01
       -1   -1    0    0    0  501  0.00000000000E+00  0.00000000000E+00  0.53328022002E+03  0.53328022004E+03  0.50400001928E-02 0.  1.
        1   -1    0    0  501    0  0.00000000000E+00  0.00000000000E+00 -0.29776518222E+03  0.29776518227E+03  0.50400001928E-02 0. -1.
    10030    2    1    2    0    0  0.00000000000E+00  0.00000000000E+00  0.23551503780E+03  0.83104540231E+03  0.79697498560E+03 0.  0.
        4    1    3    3  502    0 -0.14201362323E+03 -0.31620420023E+03 -0.87210316095E+02  0.35743561317E+03  0.12699999809E+01 0. -1.
       -4    1    3    3    0  502  0.14201362323E+03  0.31620420023E+03  0.32272535389E+03  0.47360978914E+03  0.12699999809E+01 0.  1.
</event>
<event>
 5   0  0.1106332E-02  0.8049702E+03  0.7818609E-02  0.9552851E-01
        2   -1    0    0  501    0  0.00000000000E+00  0.00000000000E+00  0.15599536418E+04  0.15599536418E+04  0.25500000920E-02 0. -1.
       -2   -1    0    0    0  501  0.00000000000E+00  0.00000000000E+00 -0.10384556332E+03  0.10384556335E+03  0.25500000920E-02 0.  1.
    10030    2    1    2    0    0  0.00000000000E+00  0.00000000000E+00  0.14561080785E+04  0.16637992052E+04  0.80497022233E+03 0.  0.
        1    1    3    3  502    0 -0.26355859321E+03  0.56199297810E+02  0.13459618862E+04  0.13726743577E+04  0.50400001928E-02 0. -1.
       -1    1    3    3    0  502  0.26355859321E+03 -0.56199297810E+02  0.11014619234E+03  0.29112484752E+03  0.50400001928E-02 0.  1.
</event>
<event>
 5   0  0.1154714E-02  0.7970474E+03  0.7818609E-02  0.9564301E-01
        2   -1    0    0  501    0  0.00000000000E+00  0.00000000000E+00  0.13109381598E+04  0.13109381598E+04  0.25500000920E-02 0. -1.
       -2   -1    0    0    0  501  0.00000000000E+00  0.00000000000E+00 -0.12115074112E+03  0.12115074114E+03  0.25500000920E-02 0.  1.
    10030    2    1    2    0    0  0.00000000000E+00  0.00000000000E+00  0.11897874187E+04  0.14320889010E+04  0.79704737536E+03 0.  0.
        5    1    3    3  502    0  0.12154275410E+03 -0.28554951484E+03  0.14575166191E+03  0.34289474107E+03  0.46999998093E+01 0.  1.
       -5    1    3    3    0  502 -0.12154275410E+03  0.28554951484E+03  0.10440357568E+04  0.10891941599E+04  0.46999998093E+01 0. -1.
</event>
<event>
 5   0  0.1119792E-02  0.7744574E+03  0.7818609E-02  0.9597743E-01
       -2   -1    0    0    0  501  0.00000000000E+00  0.00000000000E+00  0.84097757220E+03  0.84097757220E+03  0.25500000920E-02 0. -1.
        2   -1    0    0  501    0  0.00000000000E+00  0.00000000000E+00 -0.17829970235E+03  0.17829970237E+03  0.25500000920E-02 0.  1.
    10030    2    1    2    0    0  0.00000000000E+00  0.00000000000E+00  0.66267786984E+03  0.10192772746E+04  0.77445736053E+03 0.  0.
        4    1    3    3  502    0 -0.12562565409E+02 -0.27671725694E+03  0.68745570835E+03  0.74116612320E+03  0.12699999809E+01 0. -1.
       -4    1    3    3    0  502  0.12562565409E+02  0.27671725694E+03 -0.24777838502E+02  0.27811115138E+03  0.12699999809E+01 0.  1.
</event>
<event>
 5   0  0.1092868E-02  0.8048776E+03  0.7818609E-02  0.9552984E-01
       -2   -1    0    0    0  501  0.00000000000E+00  0.00000000000E+00  0.82238956119E+02  0.82238956159E+02  0.25500000920E-02 0. -1.
        2   -1    0    0  501    0  0.00000000000E+00  0.00000000000E+00 -0.19693461353E+04  0.19693461353E+04  0.25500000920E-02 0.  1.
    10030    2    1    2    0    0  0.00000000000E+00  0.00000000000E+00 -0.18871071792E+04  0.20515850915E+04  0.80487755701E+03 0.  0.
        3    1    3    3  502    0 -0.34598857034E+03 -0.66237744596E+02 -0.44758037044E+03  0.56958206417E+03  0.10100000352E+00 0. -1.
       -3    1    3    3    0  502  0.34598857034E+03  0.66237744596E+02 -0.14395268087E+04  0.14820030273E+04  0.10100000352E+00 0.  1.
</event>
<event>
 5   0  0.1154714E-02  0.8004458E+03  0.7818609E-02  0.9559372E-01
        2   -1    0    0  501    0  0.00000000000E+00  0.00000000000E+00  0.27693682643E+03  0.27693682644E+03  0.25500000920E-02 0.  1.
       -2   -1    0    0    0  501  0.00000000000E+00  0.00000000000E+00 -0.57839321739E+03  0.57839321739E+03  0.25500000920E-02 0. -1.
    10030    2    1    2    0    0  0.00000000000E+00  0.00000000000E+00 -0.30145639096E+03  0.85533004383E+03  0.80044583092E+03 0.  0.
        5    1    3    3  502    0 -0.86888259535E+02 -0.10116791235E+03  0.25246549875E+03  0.28556161190E+03  0.46999998093E+01 0.  1.
       -5    1    3    3    0  502  0.86888259535E+02  0.10116791235E+03 -0.55392188971E+03  0.56976843193E+03  0.46999998093E+01 0. -1.
</event>
<event>
 5   0  0.6551489E-03  0.7981122E+03  0.7818609E-02  0.9562754E-01
        1   -1    0    0  501    0  0.00000000000E+00  0.00000000000E+00  0.81926514247E+03  0.81926514249E+03  0.50400001928E-02 0.  1.
       -1   -1    0    0    0  501  0.00000000000E+00  0.00000000000E+00 -0.19437633334E+03  0.19437633341E+03  0.50400001928E-02 0. -1.
    10030    2    1    2    0    0  0.00000000000E+00  0.00000000000E+00  0.62488880912E+03  0.10136414759E+04  0.79811215871E+03 0.  0.
        4    1    3    3  502    0 -0.54706916528E+02 -0.21522457021E+03  0.73353731135E+03  0.76641572425E+03  0.12699999809E+01 0.  1.
       -4    1    3    3    0  502  0.54706916528E+02  0.21522457021E+03 -0.10864850223E+03  0.24722575164E+03  0.12699999809E+01 0. -1.
</event>
<event>
 5   0  0.6517392E-03  0.8223308E+03  0.7818609E-02  0.9528245E-01
        1   -1    0    0  501    0  0.00000000000E+00  0.00000000000E+00  0.73509649915E+03  0.73509649916E+03  0.50400001928E-02 0. -1.
       -1   -1    0    0    0  501  0.00000000000E+00  0.00000000000E+00 -0.22997930794E+03  0.22997930800E+03  0.50400001928E-02 0.  1.
    10030    2    1    2    0    0  0.00000000000E+00  0.00000000000E+00  0.50511719120E+03  0.96507580716E+03  0.82233079519E+03 0.  0.
        3    1    3    3  502    0 -0.20110432661E+03 -0.47193658843E+02  0.66977915701E+03  0.70090963824E+03  0.10100000352E+00 0. -1.
       -3    1    3    3    0  502  0.20110432661E+03  0.47193658843E+02 -0.16466196581E+03  0.26416616892E+03  0.10100000352E+00 0.  1.
</event>
<event>
 5   0  0.6596225E-03  0.8021134E+03  0.7818609E-02  0.9556963E-01
       -1   -1    0    0    0  501  0.00000000000E+00  0.00000000000E+00  0.22627807465E+03  0.22627807471E+03  0.50400001928E-02 0. -1.
        1   -1    0    0  501    0  0.00000000000E+00  0.00000000000E+00 -0.71083550759E+03  0.71083550761E+03  0.50400001928E-02 0.  1.
    10030    2    1    2    0    0  0.00000000000E+00  0.00000000000E+00 -0.48455743294E+03  0.93711358231E+03  0.80211343359E+03 0.  0.
        5    1    3    3  502    0  0.35482570900E+03 -0.16294912737E+02 -0.45977690082E+03  0.58101953193E+03  0.46999998093E+01 0.  1.
       -5    1    3    3    0  502 -0.35482570900E+03  0.16294912737E+02 -0.24780532117E+02  0.35609405039E+03  0.46999998093E+01 0. -1.
</event>
<event>
 5   0  0.1106332E-02  0.7849468E+03  0.7818609E-02  0.9582065E-01
        2   -1    0    0  501    0  0.00000000000E+00  0.00000000000E+00  0.69046396314E+03  0.69046396314E+03  0.25500000920E-02 0. -1.
       -2   -1    0    0    0  501  0.00000000000E+00  0.00000000000E+00 -0.22308966529E+03  0.22308966531E+03  0.25500000920E-02 0.  1.
    10030    2    1    2    0    0  0.00000000000E+00  0.00000000000E+00  0.46737429785E+03  0.91355362845E+03  0.78494681206E+03 0.  0.
        1    1    3    3  502    0  0.44746026593E+02  0.82644150087E+02  0.67717505285E+03  0.68366535284E+03  0.50400001928E-02 0. -1.
       -1    1    3    3    0  502 -0.44746026593E+02 -0.82644150087E+02 -0.20980075501E+03  0.22988827562E+03  0.50400001928E-02 0.  1.
</event>
<event>
 5   0  0.1154714E-02  0.8013731E+03  0.7818609E-02  0.9558032E-01
       -2   -1    0    0    0  501  0.00000000000E+00  0.00000000000E+00  0.38631599560E+03  0.38631599561E+03  0.25500000920E-02 0.  1.
        2   -1    0    0  501    0  0.00000000000E+00  0.00000000000E+00 -0.41559162255E+03  0.41559162255E+03  0.25500000920E-02 0. -1.
    10030    2    1    2    0    0  0.00000000000E+00  0.00000000000E+00 -0.29275626947E+02  0.80190761816E+03  0.80137305029E+03 0.  0.
        5    1    3    3  502    0  0.10910099901E+03  0.26124218220E+03 -0.29833547815E+03  0.41131089612E+03  0.46999998093E+01 0. -1.
       -5    1    3    3    0  502 -0.10910099901E+03 -0.26124218220E+03  0.26905985120E+03  0.39059672204E+03  0.46999998093E+01 0.  1.
</event>
<event>
 5   0  0.6596225E-03  0.8005629E+03  0.7818609E-02  0.9559203E-01
       -1   -1    0    0    0  501  0.00000000000E+00  0.00000000000E+00  0.80409306597E+02  0.80409306755E+02  0.50400001928E-02 0. -1.
        1   -1    0    0  501    0  0.00000000000E+00  0.00000000000E+00 -0.19926205968E+04  0.19926205968E+04  0.50400001928E-02 0.  1.
    10030    2    1    2    0    0  0.00000000000E+00  0.00000000000E+00 -0.19122112902E+04  0.20730299036E+04  0.80056290364E+03 0.  0.
        5    1    3    3  502    0  0.21080037625E+03 -0.23199214658E+03 -0.16005964490E+04  0.16310083498E+04  0.46999998093E+01 0.  1.
       -5    1    3    3    0  502 -0.21080037625E+03  0.23199214658E+03 -0.31161484122E+03  0.44202155374E+03  0.46999998093E+01 0. -1.
</event>
<event>
 5   0  0.6557679E-03  0.7992025E+03  0.7818609E-02  0.9561172E-01
       -1   -1    0    0    0  501  0.00000000000E+00  0.00000000000E+00  0.28845483004E+03  0.28845483009E+03  0.50400001928E-02 0. -1.
        1   -1    0    0  501    0  0.00000000000E+00  0.00000000000E+00 -0.55357418234E+03  0.55357418236E+03  0.50400001928E-02 0.  1.
    10030    2    1    2    0    0  0.00000000000E+00  0.00000000000E+00 -0.26511935229E+03  0.84202901245E+03  0.79920246924E+03 0.  0.
        1    1    3    3  502    0 -0.15840243186E+03 -0.13302403076E+03  0.22765975434E+03  0.30759663026E+03  0.50400001928E-02 0. -1.
       -1    1    3    3    0  502  0.15840243186E+03  0.13302403076E+03 -0.49277910663E+03  0.53443238219E+03  0.50400001928E-02 0.  1.
</event>
<event>
 5   0  0.1119792E-02  0.8055048E+03  0.7818609E-02  0.9552083E-01
        2   -1    0    0  501    0  0.00000000000E+00  0.00000000000E+00  0.33273851179E+03  0.33273851180E+03  0.25500000920E-02 0.  1.
       -2   -1    0    0    0  501  0.00000000000E+00  0.00000000000E+00 -0.48749843694E+03  0.48749843695E+03  0.25500000920E-02 0. -1.
    10030    2    1    2    0    0  0.00000000000E+00  0.00000000000E+00 -0.15475992515E+03  0.82023694875E+03  0.80550482163E+03 0.  0.
        4    1    3    3  502    0  0.18303357345E+03 -0.25144639146E+03 -0.33795324255E+03  0.45928268402E+03  0.12699999809E+01 0. -1.
       -4    1    3    3    0  502 -0.18303357345E+03  0.25144639146E+03  0.18319331741E+03  0.36095426473E+03  0.12699999809E+01 0.  1.
</event>
<event>
 5   0  0.6551489E-03  0.8027895E+03  0.7818609E-02  0.9555988E-01
        1   -1    0    0  501    0  0.00000000000E+00  0.00000000000E+00  0.44164212085E+03  0.44164212088E+03  0.50400001928E-02 0.  1.
       -1   -1    0    0    0  501  0.00000000000E+00  0.00000000000E+00 -0.36481513734E+03  0.36481513737E+03  0.50400001928E-02 0. -1.
    10030    2    1    2    0    0  0.00000000000E+00  0.00000000000E+00  0.76826983508E+02  0.80645725825E+03  0.80278946430E+03 0.  0.
        4    1    3    3  502    0  0.17692542378E+03 -0.22725562658E+03 -0.24244999420E+03  0.37647222736E+03  0.12699999809E+01 0. -1.
       -4    1    3    3    0  502 -0.17692542378E+03  0.22725562658E+03  0.31927697771E+03  0.42998503088E+03  0.12699999809E+01 0.  1.
</event>
<event>
 5   0  0.1119792E-02  0.8038707E+03  0.7818609E-02  0.9554431E-01
       -2   -1    0    0    0  501  0.00000000000E+00  0.00000000000E+00  0.35083833012E+03  0.35083833013E+03  0.25500000920E-02 0. -1.
        2   -1    0    0  501    0  0.00000000000E+00  0.00000000000E+00 -0.46047429442E+03  0.46047429443E+03  0.25500000920E-02 0.  1.
    10030    2    1    2    0    0  0.00000000000E+00  0.00000000000E+00 -0.10963596430E+03  0.81131262456E+03  0.80387071729E+03 0.  0.
        4    1    3    3  502    0 -0.91048812780E+01  0.31814326827E+03  0.19291802530E+03  0.37217874119E+03  0.12699999809E+01 0. -1.
       -4    1    3    3    0  502  0.91048812780E+01 -0.31814326827E+03 -0.30255398960E+03  0.43913388338E+03  0.12699999809E+01 0.  1.
</event>
<event>
 5   0  0.1106332E-02  0.8015732E+03  0.7818609E-02  0.9557743E-01
        2   -1    0    0  501    0  0.00000000000E+00  0.00000000000E+00  0.17671750995E+04  0.17671750995E+04  0.25500000920E-02 0. -1.
       -2   -1    0    0    0  501  0.00000000000E+00  0.00000000000E+00 -0.90896436182E+02  0.90896436218E+02  0.25500000920E-02 0.  1.
    10030    2    1    2    0    0  0.00000000000E+00  0.00000000000E+00  0.16762786633E+04  0.18580715357E+04  0.80157324977E+03 0.  0.
        1    1    3    3  502    0 -0.30244190287E+03 -0.24081416941E+03  0.59317983776E+03  0.70804299923E+03  0.50400001928E-02 0.  1.
       -1    1    3    3    0  502  0.30244190287E+03  0.24081416941E+03  0.10830988255E+04  0.11500285365E+04  0.50400001928E-02 0. -1.
</event>
<event>
 5   0  0.4385875E-03  0.7964322E+03  0.7818609E-02  0.9565196E-01
        4   -1    0    0  501    0  0.00000000000E+00  0.00000000000E+00  0.19928306978E+03  0.19928711650E+03  0.12699999809E+01 0. -1.
       -4   -1    0    0    0  501  0.00000000000E+00  0.00000000000E+00 -0.79572001315E+03  0.79572102664E+03  0.12699999809E+01 0.  1.
    10030    2    1    2    0    0  0.00000000000E+00  0.00000000000E+00 -0.59643694337E+03  0.99500814313E+03  0.79643215498E+03 0.  0.
        4    1    3    3  502    0 -0.51692857745E+02  0.60305830457E+01  0.19501600034E+03  0.20184492256E+03  0.12699999809E+01 0. -1.
       -4    1    3    3    0  502  0.51692857745E+02 -0.60305830457E+01 -0.79145294371E+03  0.79316322058E+03  0.12699999809E+01 0.  1.
</event>
<event>
 5   0  0.6557679E-03  0.8036907E+03  0.7818609E-02  0.9554690E-01
       -1   -1    0    0    0  501  0.00000000000E+00  0.00000000000E+00  0.15642433311E+03  0.15642433319E+03  0.50400001928E-02 0. -1.
        1   -1    0    0  501    0  0.00000000000E+00  0.00000000000E+00 -0.10323181843E+04  0.10323181843E+04  0.50400001928E-02 0.  1.
    10030    2    1    2    0    0  0.00000000000E+00  0.00000000000E+00 -0.87589385122E+03  0.11887425175E+04  0.80369069571E+03 0.  0.
        1    1    3    3  502    0 -0.49722026721E+02 -0.10063653058E+03  0.13276452615E+03  0.17385744349E+03  0.50400001928E-02 0. -1.
       -1    1    3    3    0  502  0.49722026721E+02  0.10063653058E+03 -0.10086583774E+04  0.10148850740E+04  0.50400001928E-02 0.  1.
</event>
<event>
 5   0  0.6596225E-03  0.8010756E+03  0.7818609E-02  0.9558461E-01
        1   -1    0    0  501    0  0.00000000000E+00  0.00000000000E+00  0.10574267028E+04  0.10574267028E+04  0.50400001928E-02 0. -1.
       -1   -1    0    0    0  501  0.00000000000E+00  0.00000000000E+00 -0.15171788148E+03  0.15171788156E+03  0.50400001928E-02 0.  1.
    10030    2    1    2    0    0  0.00000000000E+00  0.00000000000E+00  0.90570882133E+03  0.12091445844E+04  0.80107562496E+03 0.  0.
        5    1    3    3  502    0  0.30330807603E+03 -0.25157365661E+03  0.56089376140E+03  0.68549908480E+03  0.46999998093E+01 0.  1.
       -5    1    3    3    0  502 -0.30330807603E+03  0.25157365661E+03  0.34481505994E+03  0.52364549959E+03  0.46999998093E+01 0. -1.
</event>
<event>
 5   0  0.1119792E-02  0.8054610E+03  0.7818609E-02  0.9552146E-01
       -2   -1    0    0    0  501  0.00000000000E+00  0.00000000000E+00  0.23576646114E+03  0.23576646116E+03  0.25500000920E-02 0. -1.
        2   -1    0    0  501    0  0.00000000000E+00  0.00000000000E+00 -0.68793446788E+03  0.68793446789E+03  0.25500000920E-02 0.  1.
    10030    2    1    2    0    0  0.00000000000E+00  0.00000000000E+00 -0.45216800674E+03  0.92370092904E+03  0.80546104809E+03 0.  0.
        4    1    3    3  502    0 -0.24668533894E+03  0.36045275781E+02 -0.58880100548E+03  0.63940687775E+03  0.12699999809E+01 0.  1.
       -4    1    3    3    0  502  0.24668533894E+03 -0.36045275781E+02  0.13663299874E+03  0.28429405129E+03  0.12699999809E+01 0. -1.
</event>
<event>
 5   0  0.4385875E-03  0.8128729E+03  0.7818609E-02  0.9541569E-01
        3   -1    0    0  501    0  0.00000000000E+00  0.00000000000E+00  0.15962125643E+03  0.15962128838E+03  0.10100000352E+00 0.  1.
       -3   -1    0    0    0  501  0.00000000000E+00  0.00000000000E+00 -0.10348908746E+04  0.10348908795E+04  0.10100000352E+00 0. -1.
    10030    2    1    2    0    0  0.00000000000E+00  0.00000000000E+00 -0.87526961814E+03  0.11945121679E+04  0.81287293889E+03 0.  0.
        3    1    3    3  502    0 -0.40372729007E+03 -0.14323548074E+02 -0.37208638917E+03  0.54922598262E+03  0.10100000352E+00 0. -1.
       -3    1    3    3    0  502  0.40372729007E+03  0.14323548074E+02 -0.50318322897E+03  0.64528618526E+03  0.10100000352E+00 0.  1.
</event>
<event>
 5   0  0.6551489E-03  0.7981356E+03  0.7818609E-02  0.9562720E-01
       -1   -1    0    0    0  501  0.00000000000E+00  0.00000000000E+00  0.20607115738E+03  0.20607115744E+03  0.50400001928E-02 0. -1.
        1   -1    0    0  501    0  0.00000000000E+00  0.00000000000E+00 -0.77281611007E+03  0.77281611008E+03  0.50400001928E-02 0.  1.
    10030    2    1    2    0    0  0.00000000000E+00  0.00000000000E+00 -0.56674495269E+03  0.97888726752E+03  0.79813560322E+03 0.  0.
        4    1    3    3  502    0 -0.26341191249E+03  0.18364413544E+03  0.72316945141E+01  0.32119295513E+03  0.12699999809E+01 0. -1.
       -4    1    3    3    0  502  0.26341191249E+03 -0.18364413544E+03 -0.57397664720E+03  0.65769431239E+03  0.12699999809E+01 0.  1.
</event>
<event>
 5   0  0.1119792E-02  0.7970723E+03  0.7818609E-02  0.9564265E-01
        2   -1    0    0  501    0  0.00000000000E+00  0.00000000000E+00  0.87802113396E+03  0.87802113396E+03  0.25500000920E-02 0. -1.
       -2   -1    0    0    0  501  0.00000000000E+00  0.00000000000E+00 -0.18089661108E+03  0.18089661110E+03  0.25500000920E-02 0.  1.
    10030    2    1    2    0    0  0.00000000000E+00  0.00000000000E+00  0.69712452288E+03  0.10589177451E+04  0.79707226172E+03 0.  0.
        4    1    3    3  502    0  0.23561168742E+03  0.29429098905E+02  0.77378997583E+03  0.80940192655E+03  0.12699999809E+01 0. -1.
       -4    1    3    3    0  502 -0.23561168742E+03 -0.29429098905E+02 -0.76665452954E+02  0.24951581851E+03  0.12699999809E+01 0.  1.
</event>
<event>
 5   0  0.6600401E-03  0.7914457E+03  0.7818609E-02  0.9572482E-01
        1   -1    0    0  501    0  0.00000000000E+00  0.00000000000E+00  0.45305354463E+03  0.45305354466E+03  0.50400001928E-02 0. -1.
       -1   -1    0    0    0  501  0.00000000000E+00  0.00000000000E+00 -0.34564691199E+03  0.34564691202E+03  0.50400001928E-02 0.  1.
    10030    2    1    2    0    0  0.00000000000E+00  0.00000000000E+00  0.10740663265E+03  0.79870045668E+03  0.79144566129E+03 0.  0.
        2    1    3    3  502    0  0.88244176713E+02 -0.25171663583E+02 -0.33476144918E+03  0.34711075356E+03  0.25500000920E-02 0.  1.
       -2    1    3    3    0  502 -0.88244176713E+02  0.25171663583E+02  0.44216808183E+03  0.45158970312E+03  0.25500000920E-02 0. -1.
</event>
<event>
 5   0  0.1106332E-02  0.8017025E+03  0.7818609E-02  0.9557556E-01
        2   -1    0    0  501    0  0.00000000000E+00  0.00000000000E+00  0.28791492336E+03  0.28791492337E+03  0.25500000920E-02 0.  1.
       -2   -1    0    0    0  501  0.00000000000E+00  0.00000000000E+00 -0.55808756323E+03  0.55808756324E+03  0.25500000920E-02 0. -1.
    10030    2    1    2    0    0  0.00000000000E+00  0.00000000000E+00 -0.27017263987E+03  0.84600248661E+03  0.80170253337E+03 0.  0.
        1    1    3    3  502    0 -0.34948119378E+03  0.19563676970E+03 -0.15245444253E+03  0.42854778909E+03  0.50400001928E-02 0.  1.
       -1    1    3    3    0  502  0.34948119378E+03 -0.19563676970E+03 -0.11771819734E+03  0.41745469751E+03  0.50400001928E-02 0. -1.
</event>
<event>
 5   0  0.6557679E-03  0.8005282E+03  0.7818609E-02  0.9559253E-01
       -1   -1    0    0    0  501  0.00000000000E+00  0.00000000000E+00  0.21583941083E+03  0.21583941089E+03  0.50400001928E-02 0. -1.
        1   -1    0    0  501    0  0.00000000000E+00  0.00000000000E+00 -0.74227100153E+03  0.74227100155E+03  0.50400001928E-02 0.  1.
    10030    2    1    2    0    0  0.00000000000E+00  0.00000000000E+00 -0.52643159070E+03  0.95811041244E+03  0.80052816486E+03 0.  0.
        1    1    3    3  502    0 -0.33730992627E+03 -0.19127306340E+03 -0.38198727889E+03  0.54431392818E+03  0.50400001928E-02 0.  1.
       -1    1    3    3    0  502  0.33730992627E+03  0.19127306340E+03 -0.14444431181E+03  0.41379648426E+03  0.50400001928E-02 0. -1.
</event>
<event>
 5   0  0.6557679E-03  0.8010310E+03  0.7818609E-02  0.9558526E-01
        1   -1    0    0  501    0  0.00000000000E+00  0.00000000000E+00  0.47588999540E+03  0.47588999543E+03  0.50400001928E-02 0.  1.
       -1   -1    0    0    0  501  0.00000000000E+00  0.00000000000E+00 -0.33707929840E+03  0.33707929844E+03  0.50400001928E-02 0. -1.
    10030    2    1    2    0    0  0.00000000000E+00  0.00000000000E+00  0.13881069700E+03  0.81296929387E+03  0.80103100013E+03 0.  0.
        1    1    3    3  502    0 -0.19179797619E+03 -0.14246719772E+03 -0.25683416566E+03  0.35078077879E+03  0.50400001928E-02 0. -1.
       -1    1    3    3    0  502  0.19179797619E+03  0.14246719772E+03  0.39564486265E+03  0.46218851507E+03  0.50400001928E-02 0.  1.
</event>
<event>
 5   0  0.6517392E-03  0.7971036E+03  0.7818609E-02  0.9564219E-01
       -1   -1    0    0    0  501  0.00000000000E+00  0.00000000000E+00  0.36926121773E+03  0.36926121777E+03  0.50400001928E-02 0. -1.
        1   -1    0    0  501    0  0.00000000000E+00  0.00000000000E+00 -0.43016572227E+03  0.43016572230E+03  0.50400001928E-02 0.  1.
    10030    2    1    2    0    0  0.00000000000E+00  0.00000000000E+00 -0.60904504539E+02  0.79942694007E+03  0.79710355276E+03 0.  0.
        3    1    3    3  502    0  0.87759456625E+02 -0.17615215185E+03 -0.37803451442E+03  0.42619409559E+03  0.10100000352E+00 0.  1.
       -3    1    3    3    0  502 -0.87759456625E+02  0.17615215185E+03  0.31713000988E+03  0.37323284447E+03  0.10100000352E+00 0. -1.
</event>
<event>
 5   0  0.1092868E-02  0.7947322E+03  0.7818609E-02  0.9567673E-01
       -2   -1    0    0    0  501  0.00000000000E+00  0.00000000000E+00  0.22912782574E+03  0.22912782576E+03  0.25500000920E-02 0. -1.
        2   -1    0    0  501    0  0.00000000000E+00  0.00000000000E+00 -0.68913426283E+03  0.68913426283E+03  0.25500000920E-02 0.  1.
    10030    2    1    2    0    0  0.00000000000E+00  0.00000000000E+00 -0.46000643708E+03  0.91826208859E+03  0.79473224496E+03 0.  0.
        3    1    3    3  502    0  0.26971523341E+03  0.10683049531E+03 -0.54376470541E+03  0.61631090118E+03  0.10100000352E+00 0.  1.
       -3    1    3    3    0  502 -0.26971523341E+03 -0.10683049531E+03  0.83758268323E+02  0.30195118741E+03  0.10100000352E+00 0. -1.
</event>
<event>
 5   0  0.1121480E-02  0.8003100E+03  0.7818609E-02  0.9559569E-01
        2   -1    0    0  501    0  0.00000000000E+00  0.00000000000E+00  0.92441988744E+03  0.92441988745E+03  0.25500000920E-02 0.  1.
       -2   -1    0    0    0  501  0.00000000000E+00  0.00000000000E+00 -0.17321568200E+03  0.17321568201E+03  0.25500000920E-02 0. -1.
    10030    2    1    2    0    0  0.00000000000E+00  0.00000000000E+00  0.75120420545E+03  0.10976355695E+04  0.80030999310E+03 0.  0.
        2    1    3    3  502    0 -0.18831112488E+03 -0.41718792691E+01  0.85981716946E+03  0.88020682185E+03  0.25500000920E-02 0.  1.
       -2    1    3    3    0  502  0.18831112488E+03  0.41718792691E+01 -0.10861296401E+03  0.21742874761E+03  0.25500000920E-02 0. -1.
</event>
<event>
 5   0  0.6600401E-03  0.8024669E+03  0.7818609E-02  0.9556453E-01
        1   -1    0    0  501    0  0.00000000000E+00  0.00000000000E+00  0.16430542111E+03  0.16430542119E+03  0.50400001928E-02 0.  1.
       -1   -1    0    0    0  501  0.00000000000E+00  0.00000000000E+00 -0.97981119887E+03  0.97981119888E+03  0.50400001928E-02 0. -1.
    10030    2    1    2    0    0  0.00000000000E+00  0.00000000000E+00 -0.81550577776E+03  0.11441166201E+04  0.80246692564E+03 0.  0.
        2    1    3    3  502    0 -0.81373583252E+02 -0.65108951569E+02 -0.96017775047E+03  0.96581682949E+03  0.25500000920E-02 0. -1.
       -2    1    3    3    0  502  0.81373583252E+02  0.65108951569E+02  0.14467197271E+03  0.17829979058E+03  0.25500000920E-02 0.  1.
</event>
<event>
 5   0  0.1106332E-02  0.7991560E+03  0.7818609E-02  0.9561240E-01
        2   -1    0    0  501    0  0.00000000000E+00  0.00000000000E+00  0.46888264934E+03  0.46888264935E+03  0.25500000920E-02 0. -1.
       -2   -1    0    0    0  501  0.00000000000E+00  0.00000000000E+00 -0.34051715480E+03  0.34051715481E+03  0.25500000920E-02 0.  1.
    10030    2    1    2    0    0  0.00000000000E+00  0.00000000000E+00  0.12836549454E+03  0.80939980415E+03  0.79915601904E+03 0.  0.
        1    1    3    3  502    0  0.26983405787E+03  0.23213890989E+03 -0.11970358609E+03  0.37553673698E+03  0.50400001928E-02 0.  1.
       -1    1    3    3    0  502 -0.26983405787E+03 -0.23213890989E+03  0.24806908063E+03  0.43386306718E+03  0.50400001928E-02 0. -1.
</event>
<event>
 5   0  0.1154714E-02  0.8009093E+03  0.7818609E-02  0.9558702E-01
       -2   -1    0    0    0  501  0.00000000000E+00  0.00000000000E+00  0.10669166354E+03  0.10669166357E+03  0.25500000920E-02 0. -1.
        2   -1    0    0  501    0  0.00000000000E+00  0.00000000000E+00 -0.15030595374E+04  0.15030595374E+04  0.25500000920E-02 0.  1.
    10030    2    1    2    0    0  0.00000000000E+00  0.00000000000E+00 -0.13963678739E+04  0.16097512010E+04  0.80090928942E+03 0.  0.
        5    1    3    3  502    0 -0.13893268247E+03 -0.36791786539E+03 -0.54675945198E+03  0.67352344745E+03  0.46999998093E+01 0. -1.
       -5    1    3    3    0  502  0.13893268247E+03  0.36791786539E+03 -0.84960842191E+03  0.93622775355E+03  0.46999998093E+01 0.  1.
</event>
<event>
 5   0  0.6551489E-03  0.8192571E+03  0.7818609E-02  0.9532554E-01
        1   -1    0    0  501    0  0.00000000000E+00  0.00000000000E+00  0.31947837779E+03  0.31947837783E+03  0.50400001928E-02 0.  1.
       -1   -1    0    0    0  501  0.00000000000E+00  0.00000000000E+00 -0.52521723679E+03  0.52521723682E+03  0.50400001928E-02 0. -1.
    10030    2    1    2    0    0  0.00000000000E+00  0.00000000000E+00 -0.20573885900E+03  0.84469561465E+03  0.81925710452E+03 0.  0.
        4    1    3    3  502    0 -0.37450952087E+03  0.90343935187E+02  0.40645014274E+02  0.38739261471E+03  0.12699999809E+01 0.  1.
       -4    1    3    3    0  502  0.37450952087E+03 -0.90343935187E+02 -0.24638387328E+03  0.45730299994E+03  0.12699999809E+01 0. -1.
</event>
<event>
 5   0  0.1106332E-02  0.7978630E+03  0.7818609E-02  0.9563116E-01
       -2   -1    0    0    0  501  0.00000000000E+00  0.00000000000E+00  0.78791664527E+03  0.78791664527E+03  0.25500000920E-02 0. -1.
        2   -1    0    0  501    0  0.00000000000E+00  0.00000000000E+00 -0.20198371866E+03  0.20198371867E+03  0.25500000920E-02 0.  1.
    10030    2    1    2    0    0  0.00000000000E+00  0.00000000000E+00  0.58593292661E+03  0.98990036395E+03  0.79786298075E+03 0.  0.
        1    1    3    3  502    0 -0.31993744382E+03  0.23819995789E+03  0.30148541215E+03  0.49999264161E+03  0.50400001928E-02 0. -1.
       -1    1    3    3    0  502  0.31993744382E+03 -0.23819995789E+03  0.28444751447E+03  0.48990772234E+03  0.50400001928E-02 0.  1.
</event>
<event>
 5   0  0.6557679E-03  0.8036980E+03  0.7818609E-02  0.9554680E-01
       -1   -1    0    0    0  501  0.00000000000E+00  0.00000000000E+00  0.29947426354E+03  0.29947426359E+03  0.50400001928E-02 0.  1.
        1   -1    0    0  501    0  0.00000000000E+00  0.00000000000E+00 -0.53922033750E+03  0.53922033752E+03  0.50400001928E-02 0. -1.
    10030    2    1    2    0    0  0.00000000000E+00  0.00000000000E+00 -0.23974607395E+03  0.83869460111E+03  0.80369798678E+03 0.  0.
        1    1    3    3  502    0  0.28293878093E+03 -0.84785548522E+00  0.17790771786E+03  0.33422481762E+03  0.50400001928E-02 0.  1.
       -1    1    3    3    0  502 -0.28293878093E+03  0.84785548522E+00 -0.41765379182E+03  0.50446978349E+03  0.50400001928E-02 0. -1.
</event>
<event>
 5   0  0.1106332E-02  0.8211983E+03  0.7818609E-02  0.9529830E-01
        2   -1    0    0  501    0  0.00000000000E+00  0.00000000000E+00  0.17551622590E+04  0.17551622590E+04  0.25500000920E-02 0. -1.
       -2   -1    0    0    0  501  0.00000000000E+00  0.00000000000E+00 -0.96054733199E+02  0.96054733232E+02  0.25500000920E-02 0.  1.
    10030    2    1    2    0    0  0.00000000000E+00  0.00000000000E+00  0.16591075258E+04  0.18512169923E+04  0.82119825266E+03 0.  0.
        1    1    3    3  502    0  0.29360991327E+03  0.14826177277E+03  0.27551560910E+03  0.42906547906E+03  0.50400001928E-02 0.  1.
       -1    1    3    3    0  502 -0.29360991327E+03 -0.14826177277E+03  0.13835919167E+04  0.14221515132E+04  0.50400001928E-02 0. -1.
</event>
<event>
 5   0  0.6551489E-03  0.8072899E+03  0.7818609E-02  0.9549525E-01
        1   -1    0    0  501    0  0.00000000000E+00  0.00000000000E+00  0.60404132673E+03  0.60404132675E+03  0.50400001928E-02 0.  1.
       -1   -1    0    0    0  501  0.00000000000E+00  0.00000000000E+00 -0.26973196305E+03  0.26973196310E+03  0.50400001928E-02 0. -1.
    10030    2    1    2    0    0  0.00000000000E+00  0.00000000000E+00  0.33430936367E+03  0.87377328985E+03  0.80728991782E+03 0.  0.
        4    1    3    3  502    0  0.31056249724E+03 -0.16828313801E+03 -0.44276862174E+02  0.35599204016E+03  0.12699999809E+01 0. -1.
       -4    1    3    3    0  502 -0.31056249724E+03  0.16828313801E+03  0.37858622585E+03  0.51778124969E+03  0.12699999809E+01 0.  1.
</event>
<event>
 5   0  0.1121480E-02  0.7967374E+03  0.7818609E-02  0.9564752E-01
       -2   -1    0    0    0  501  0.00000000000E+00  0.00000000000E+00  0.17358520482E+03  0.17358520484E+03  0.25500000920E-02 0.  1.
        2   -1    0    0  501    0  0.00000000000E+00  0.00000000000E+00 -0.91423478103E+03  0.91423478104E+03  0.25500000920E-02 0. -1.
    10030    2    1    2    0    0  0.00000000000E+00  0.00000000000E+00 -0.74064957621E+03  0.10878199859E+04  0.79673742659E+03 0.  0.
        2    1    3    3  502    0  0.91891553451E+02 -0.37457059865E+03 -0.50652035580E+03  0.63663966403E+03  0.25500000920E-02 0. -1.
       -2    1    3    3    0  502 -0.91891553451E+02  0.37457059865E+03 -0.23412922041E+03  0.45118032185E+03  0.25500000920E-02 0.  1.
</event>
<event>
 5   0  0.1121480E-02  0.8003955E+03  0.7818609E-02  0.9559445E-01
       -2   -1    0    0    0  501  0.00000000000E+00  0.00000000000E+00  0.61217473826E+03  0.61217473827E+03  0.25500000920E-02 0.  1.
        2   -1    0    0  501    0  0.00000000000E+00  0.00000000000E+00 -0.26162175415E+03  0.26162175416E+03  0.25500000920E-02 0. -1.
    10030    2    1    2    0    0  0.00000000000E+00  0.00000000000E+00  0.35055298411E+03  0.87379649243E+03  0.80039547445E+03 0.  0.
        2    1    3    3  502    0  0.25462587462E+03  0.28363611308E+03  0.30842187298E+03  0.49031401408E+03  0.25500000920E-02 0.  1.
       -2    1    3    3    0  502 -0.25462587462E+03 -0.28363611308E+03  0.42131111136E+02  0.38348247835E+03  0.25500000920E-02 0. -1.
</event>
<event>
 5   0  0.6551489E-03  0.7986584E+03  0.7818609E-02  0.9561961E-01
        1   -1    0    0  501    0  0.00000000000E+00  0.00000000000E+00  0.12115272601E+04  0.12115272601E+04  0.50400001928E-02 0. -1.
       -1   -1    0    0    0  501  0.00000000000E+00  0.00000000000E+00 -0.13162212445E+03  0.13162212454E+03  0.50400001928E-02 0.  1.
    10030    2    1    2    0    0  0.00000000000E+00  0.00000000000E+00  0.10799051357E+04  0.13431493847E+04  0.79865835468E+03 0.  0.
        4    1    3    3  502    0  0.32257104183E+03 -0.22025282672E+03  0.40026753461E+03  0.55926657049E+03  0.12699999809E+01 0. -1.
       -4    1    3    3    0  502 -0.32257104183E+03  0.22025282672E+03  0.67963760108E+03  0.78388281420E+03  0.12699999809E+01 0.  1.
</event>
<event>
 5   0  0.6596225E-03  0.7950666E+03  0.7818609E-02  0.9567186E-01
       -1   -1    0    0    0  501  0.00000000000E+00  0.00000000000E+00  0.32159177304E+03  0.32159177308E+03  0.50400001928E-02 0.  1.
        1   -1    0    0  501    0  0.00000000000E+00  0.00000000000E+00 -0.49140781671E+03  0.49140781674E+03  0.50400001928E-02 0. -1.
    10030    2    1    2    0    0  0.00000000000E+00  0.00000000000E+00 -0.16981604367E+03  0.81299958982E+03  0.79506656599E+03 0.  0.
        5    1    3    3  502    0 -0.21295144639E+03 -0.30140087109E+03 -0.23595512207E+03  0.43804989812E+03  0.46999998093E+01 0. -1.
       -5    1    3    3    0  502  0.21295144639E+03  0.30140087109E+03  0.66139078393E+02  0.37494969170E+03  0.46999998093E+01 0.  1.
</event>
<event>
 5   0  0.4385875E-03  0.7946168E+03  0.7818609E-02  0.9567842E-01
        4   -1    0    0  501    0  0.00000000000E+00  0.00000000000E+00  0.44995708839E+03  0.44995888067E+03  0.12699999809E+01 0. -1.
       -4   -1    0    0    0  501  0.00000000000E+00  0.00000000000E+00 -0.35081644234E+03  0.35081874111E+03  0.12699999809E+01 0.  1.
    10030    2    1    2    0    0  0.00000000000E+00  0.00000000000E+00  0.99140646057E+02  0.80077762178E+03  0.79461684594E+03 0.  0.
        5    1    3    3  502    0  0.31214058347E+03 -0.79311952348E+02 -0.18484822807E+03  0.37136651310E+03  0.46999998093E+01 0.  1.
       -5    1    3    3    0  502 -0.31214058347E+03  0.79311952348E+02  0.28398887413E+03  0.42941110868E+03  0.46999998093E+01 0. -1.
</event>
<event>
 5   0  0.1092868E-02  0.7991714E+03  0.7818609E-02  0.9561217E-01
       -2   -1    0    0    0  501  0.00000000000E+00  0.00000000000E+00  0.42386939867E+03  0.42386939868E+03  0.25500000920E-02 0. -1.
        2   -1    0    0  501    0  0.00000000000E+00  0.00000000000E+00 -0.37669320055E+03  0.37669320056E+03  0.25500000920E-02 0.  1.
    10030    2    1    2    0    0  0.00000000000E+00  0.00000000000E+00  0.47176198116E+02  0.80056259924E+03  0.79917137188E+03 0.  0.
        3    1    3    3  502    0 -0.24471615479E+03 -0.49186574083E+02  0.33616237415E+03  0.41870092844E+03  0.10100000352E+00 0. -1.
       -3    1    3    3    0  502  0.24471615479E+03  0.49186574083E+02 -0.28898617603E+03  0.38186167079E+03  0.10100000352E+00 0.  1.
</event>
<event>
 5   0  0.6600401E-03  0.8013110E+03  0.7818609E-02  0.9558121E-01
       -1   -1    0    0    0  501  0.00000000000E+00  0.00000000000E+00  0.83524540441E+02  0.83524540593E+02  0.50400001928E-02 0. -1.
        1   -1    0    0  501    0  0.00000000000E+00  0.00000000000E+00 -0.19218884206E+04  0.19218884206E+04  0.50400001928E-02 0.  1.
    10030    2    1    2    0    0  0.00000000000E+00  0.00000000000E+00 -0.18383638801E+04  0.20054129612E+04  0.80131104389E+03 0.  0.
        2    1    3    3  502    0  0.24019657765E+03  0.32024352299E+03 -0.96064901402E+03  0.10407193849E+04  0.25500000920E-02 0. -1.
       -2    1    3    3    0  502 -0.24019657765E+03 -0.32024352299E+03 -0.87771486610E+03  0.96469357628E+03  0.25500000920E-02 0.  1.
</event>
<event>
 5   0  0.6557679E-03  0.7957288E+03  0.7818609E-02  0.9566220E-01
       -1   -1    0    0    0  501  0.00000000000E+00  0.00000000000E+00  0.28059685887E+03  0.28059685892E+03  0.50400001928E-02 0. -1.
        1   -1    0    0  501    0  0.00000000000E+00  0.00000000000E+00 -0.56414067198E+03  0.56414067201E+03  0.50400001928E-02 0.  1.
    10030    2    1    2    0    0  0.00000000000E+00  0.00000000000E+00 -0.28354381311E+03  0.84473753092E+03  0.79572884967E+03 0.  0.
        1    1    3    3  502    0 -0.32424004494E+03  0.75126926585E+02  0.89645971196E+02  0.34469125608E+03  0.50400001928E-02 0. -1.
       -1    1    3    3    0  502  0.32424004494E+03 -0.75126926585E+02 -0.37318978431E+03  0.50004627484E+03  0.50400001928E-02 0.  1.
</event>
<event>
 5   0  0.1106332E-02  0.7969493E+03  0.7818609E-02  0.9564443E-01
        2   -1    0    0  501    0  0.00000000000E+00  0.00000000000E+00  0.31432260766E+03  0.31432260768E+03  0.25500000920E-02 0.  1.
       -2   -1    0    0    0  501  0.00000000000E+00  0.00000000000E+00 -0.50515630244E+03  0.50515630245E+03  0.25500000920E-02 0. -1.
    10030    2    1    2    0    0  0.00000000000E+00  0.00000000000E+00 -0.19083369478E+03  0.81947891013E+03  0.79694929894E+03 0.  0.
        1    1    3    3  502    0 -0.11838872124E+02  0.20846681436E+03  0.25356446857E+03  0.32847147719E+03  0.50400001928E-02 0.  1.
       -1    1    3    3    0  502  0.11838872124E+02 -0.20846681436E+03 -0.44439816335E+03  0.49100743293E+03  0.50400001928E-02 0. -1.
</event>
<event>
 5   0  0.6596225E-03  0.8317023E+03  0.7818609E-02  0.9515230E-01
       -1   -1    0    0    0  501  0.00000000000E+00  0.00000000000E+00  0.19371780209E+03  0.19371780215E+03  0.50400001928E-02 0. -1.
        1   -1    0    0  501    0  0.00000000000E+00  0.00000000000E+00 -0.89270147098E+03  0.89270147100E+03  0.50400001928E-02 0.  1.
    10030    2    1    2    0    0  0.00000000000E+00  0.00000000000E+00 -0.69898366890E+03  0.10864192731E+04  0.83170227106E+03 0.  0.
        5    1    3    3  502    0 -0.36260378725E+02  0.41268523905E+03 -0.39633824117E+03  0.57334981731E+03  0.46999998093E+01 0.  1.
       -5    1    3    3    0  502  0.36260378725E+02 -0.41268523905E+03 -0.30264542772E+03  0.51306945584E+03  0.46999998093E+01 0. -1.
</event>
<event>
 5   0  0.6596225E-03  0.7970721E+03  0.7818609E-02  0.9564265E-01
        1   -1    0    0  501    0  0.00000000000E+00  0.00000000000E+00  0.17351489335E+04  0.17351489335E+04  0.50400001928E-02 0. -1.
       -1   -1    0    0    0  501  0.00000000000E+00  0.00000000000E+00 -0.91537387622E+02  0.91537387760E+02  0.50400001928E-02 0.  1.
    10030    2    1    2    0    0  0.00000000000E+00  0.00000000000E+00  0.16436115459E+04  0.18266863212E+04  0.79707214388E+03 0.  0.
        5    1    3    3  502    0 -0.13478323140E+03  0.25026797116E+03  0.18172195794E+03  0.33741004261E+03  0.46999998093E+01 0.  1.
       -5    1    3    3    0  502  0.13478323140E+03 -0.25026797116E+03  0.14618895879E+04  0.14892762786E+04  0.46999998093E+01 0. -1.
</event>
<event>
 5   0  0.1121480E-02  0.8064056E+03  0.7818609E-02  0.9550791E-01
        2   -1    0    0  501    0  0.00000000000E+00  0.00000000000E+00  0.17019191971E+04  0.17019191971E+04  0.25500000920E-02 0. -1.
       -2   -1    0    0    0  501  0.00000000000E+00  0.00000000000E+00 -0.95523042529E+02  0.95523042563E+02  0.25500000920E-02 0.  1.
    10030    2    1    2    0    0  0.00000000000E+00  0.00000000000E+00  0.16063961546E+04  0.17974422397E+04  0.80640560484E+03 0.  0.
        2    1    3    3  502    0  0.16917510779E+03  0.19686079639E+03  0.11547188014E+03  0.28409179038E+03  0.25500000920E-02 0.  1.
       -2    1    3    3    0  502 -0.16917510779E+03 -0.19686079639E+03  0.14909242744E+04  0.15133504493E+04  0.25500000920E-02 0. -1.
</event>
<event>
 5   0  0.1121480E-02  0.8034727E+03  0.7818609E-02  0.9555004E-01
       -2   -1    0    0    0  501  0.00000000000E+00  0.00000000000E+00  0.97695337496E+02  0.97695337529E+02  0.25500000920E-02 0. -1.
        2   -1    0    0  501    0  0.00000000000E+00  0.00000000000E+00 -0.16519940265E+04  0.16519940265E+04  0.25500000920E-02 0.  1.
    10030    2    1    2    0    0  0.00000000000E+00  0.00000000000E+00 -0.15542986890E+04  0.17496893640E+04  0.80347274749E+03 0.  0.
        2    1    3    3  502    0  0.12386913606E+03 -0.31981884875E+03 -0.12327145679E+04  0.12795361913E+04  0.25500000920E-02 0.  1.
       -2    1    3    3    0  502 -0.12386913606E+03  0.31981884875E+03 -0.32158412107E+03  0.47015317272E+03  0.25500000920E-02 0. -1.
</event>
<event>
 5   0  0.6557679E-03  0.7969043E+03  0.7818609E-02  0.9564509E-01
       -1   -1    0    0    0  501  0.00000000000E+00  0.00000000000E+00  0.25181285213E+03  0.25181285218E+03  0.50400001928E-02 0. -1.
        1   -1    0    0  501    0  0.00000000000E+00  0.00000000000E+00 -0.63048451660E+03  0.63048451662E+03  0.50400001928E-02 0.  1.
    10030    2    1    2    0    0  0.00000000000E+00  0.00000000000E+00 -0.37867166447E+03  0.88229736880E+03  0.79690427124E+03 0.  0.
        1    1    3    3  502    0  0.39817831964E+03  0.14137988927E+02 -0.18460639773E+03  0.43911886668E+03  0.50400001928E-02 0. -1.
       -1    1    3    3    0  502 -0.39817831964E+03 -0.14137988927E+02 -0.19406526674E+03  0.44317850212E+03  0.50400001928E-02 0.  1.
</event>
<event>
 5   0  0.1154714E-02  0.8094800E+03  0.7818609E-02  0.9546396E-01
        2   -1    0    0  501    0  0.00000000000E+00  0.00000000000E+00  0.13965149892E+04  0.13965149892E+04  0.25500000920E-02 0.  1.
       -2   -1    0    0    0  501  0.00000000000E+00  0.00000000000E+00 -0.11730233031E+03  0.11730233034E+03  0.25500000920E-02 0. -1.
    10030    2    1    2    0    0  0.00000000000E+00  0.00000000000E+00  0.12792126589E+04  0.15138173195E+04  0.80947998757E+03 0.  0.
        5    1    3    3  502    0 -0.24785706639E+03 -0.27813953199E+03  0.34392974880E+03  0.50705471768E+03  0.46999998093E+01 0. -1.
       -5    1    3    3    0  502  0.24785706639E+03  0.27813953199E+03  0.93528291005E+03  0.10067626018E+04  0.46999998093E+01 0.  1.
</event>
<event>
 5   0  0.6551489E-03  0.8057816E+03  0.7818609E-02  0.9551686E-01
        1   -1    0    0  501    0  0.00000000000E+00  0.00000000000E+00  0.29683062023E+03  0.29683062027E+03  0.50400001928E-02 0.  1.
       -1   -1    0    0    0  501  0.00000000000E+00  0.00000000000E+00 -0.54684725291E+03  0.54684725293E+03  0.50400001928E-02 0. -1.
    10030    2    1    2    0    0  0.00000000000E+00  0.00000000000E+00 -0.25001663268E+03  0.84367787320E+03  0.80578163116E+03 0.  0.
        4    1    3    3  502    0  0.20511784210E+03 -0.28110979561E+03 -0.33759249396E+03  0.48483641696E+03  0.12699999809E+01 0. -1.
       -4    1    3    3    0  502 -0.20511784210E+03  0.28110979561E+03  0.87575861282E+02  0.35884145624E+03  0.12699999809E+01 0.  1.
</event>
<event>
 5   0  0.1121480E-02  0.8102160E+03  0.7818609E-02  0.9545346E-01
       -2   -1    0    0    0  501  0.00000000000E+00  0.00000000000E+00  0.41072263575E+03  0.41072263576E+03  0.25500000920E-02 0.  1.
        2   -1    0    0  501    0  0.00000000000E+00  0.00000000000E+00 -0.39957010234E+03  0.39957010235E+03  0.25500000920E-02 0. -1.
    10030    2    1    2    0    0  0.00000000000E+00  0.00000000000E+00  0.11152533411E+02  0.81029273811E+03  0.81021598506E+03 0.  0.
        2    1    3    3  502    0  0.18918843969E+03  0.12143171710E+03  0.34261643818E+03  0.40978525029E+03  0.25500000920E-02 0.  1.
       -2    1    3    3    0  502 -0.18918843969E+03 -0.12143171710E+03 -0.33146390477E+03  0.40050748783E+03  0.25500000920E-02 0. -1.
</event>
<event>
 5   0  0.6517392E-03  0.8011271E+03  0.7818609E-02  0.9558387E-01
       -1   -1    0    0    0  501  0.00000000000E+00  0.00000000000E+00  0.29496101485E+03  0.29496101489E+03  0.50400001928E-02 0.  1.
        1   -1    0    0  501    0  0.00000000000E+00  0.00000000000E+00 -0.54397407503E+03  0.54397407505E+03  0.50400001928E-02 0. -1.
    10030    2    1    2    0    0  0.00000000000E+00  0.00000000000E+00 -0.24901306018E+03  0.83893508995E+03  0.80112706920E+03 0.  0.
        3    1    3    3  502    0 -0.18766192750E+03 -0.89947354234E+02  0.23390853378E+03  0.31308263756E+03  0.10100000352E+00 0.  1.
       -3    1    3    3    0  502  0.18766192750E+03  0.89947354234E+02 -0.48292159396E+03  0.52585245239E+03  0.10100000352E+00 0. -1.
</event>
<event>
 5   0  0.6596225E-03  0.7944321E+03  0.7818609E-02  0.9568112E-01
        1   -1    0    0  501    0  0.00000000000E+00  0.00000000000E+00  0.14368790507E+03  0.14368790516E+03  0.50400001928E-02 0.  1.
       -1   -1    0    0    0  501  0.00000000000E+00  0.00000000000E+00 -0.10980785199E+04  0.10980785199E+04  0.50400001928E-02 0. -1.
    10030    2    1    2    0    0  0.00000000000E+00  0.00000000000E+00 -0.95439061479E+03  0.12417664250E+04  0.79443212973E+03 0.  0.
        5    1    3    3  502    0 -0.29529498287E+03 -0.46298983549E+02 -0.68347866162E+02  0.30665329542E+03  0.46999998093E+01 0.  1.
       -5    1    3    3    0  502  0.29529498287E+03  0.46298983549E+02 -0.88604274863E+03  0.93511312962E+03  0.46999998093E+01 0. -1.
</event>
<event>
 5   0  0.6600401E-03  0.7850592E+03  0.7818609E-02  0.9581899E-01
       -1   -1    0    0    0  501  0.00000000000E+00  0.00000000000E+00  0.74463503215E+03  0.74463503216E+03  0.50400001928E-02 0.  1.
        1   -1    0    0  501    0  0.00000000000E+00  0.00000000000E+00 -0.20691947997E+03  0.20691948003E+03  0.50400001928E-02 0. -1.
    10030    2    1    2    0    0  0.00000000000E+00  0.00000000000E+00  0.53771555217E+03  0.95155451220E+03  0.78505921728E+03 0.  0.
        2    1    3    3  502    0 -0.15066259845E+03 -0.30848411000E+03  0.49952849159E+03  0.60612736171E+03  0.25500000920E-02 0.  1.
       -2    1    3    3    0  502  0.15066259845E+03  0.30848411000E+03  0.38187060581E+02  0.34542715049E+03  0.25500000920E-02 0. -1.
</event>
<event>
 5   0  0.6596225E-03  0.8003127E+03  0.7818609E-02  0.9559565E-01
        1   -1    0    0  501    0  0.00000000000E+00  0.00000000000E+00  0.79200552787E+03  0.79200552789E+03  0.50400001928E-02 0. -1.
       -1   -1    0    0    0  501  0.00000000000E+00  0.00000000000E+00 -0.20217676838E+03  0.20217676844E+03  0.50400001928E-02 0.  1.
    10030    2    1    2    0    0  0.00000000000E+00  0.00000000000E+00  0.58982875950E+03  0.99418229633E+03  0.80031273438E+03 0.  0.
        5    1    3    3  502    0  0.20304076521E+03 -0.22783848110E+03 -0.26553104751E+02  0.30637082625E+03  0.46999998093E+01 0.  1.
       -5    1    3    3    0  502 -0.20304076521E+03  0.22783848110E+03  0.61638186425E+03  0.68781147008E+03  0.46999998093E+01 0. -1.
</event>
<event>
 5   0  0.1121480E-02  0.7986328E+03  0.7818609E-02  0.9561998E-01
        2   -1    0    0  501    0  0.00000000000E+00  0.00000000000E+00  0.85222234168E+03  0.85222234168E+03  0.25500000920E-02 0. -1.
       -2   -1    0    0    0  501  0.00000000000E+00  0.00000000000E+00 -0.18710329186E+03  0.18710329187E+03  0.25500000920E-02 0.  1.
    10030    2    1    2    0    0  0.00000000000E+00  0.00000000000E+00  0.66511904982E+03  0.10393256336E+04  0.79863284564E+03 0.  0.
        2    1    3    3  502    0 -0.14117858295E+03  0.21031797814E+03  0.73428082180E+03  0.77674536979E+03  0.25500000920E-02 0. -1.
       -2    1    3    3    0  502  0.14117858295E+03 -0.21031797814E+03 -0.69161771977E+02  0.26258026377E+03  0.25500000920E-02 0.  1.
</event>
<event>
 5   0  0.1121480E-02  0.7985470E+03  0.7818609E-02  0.9562123E-01
       -2   -1    0    0    0  501  0.00000000000E+00  0.00000000000E+00  0.72078827588E+03  0.72078827588E+03  0.25500000920E-02 0. -1.
        2   -1    0    0  501    0  0.00000000000E+00  0.00000000000E+00 -0.22117356926E+03  0.22117356927E+03  0.25500000920E-02 0.  1.
    10030    2    1    2    0    0  0.00000000000E+00  0.00000000000E+00  0.49961470662E+03  0.94196184515E+03  0.79854696960E+03 0.  0.
        2    1    3    3  502    0  0.63474050357E+02  0.17416396866E+03 -0.16733791549E+03  0.24972789395E+03  0.25500000920E-02 0.  1.
       -2    1    3    3    0  502 -0.63474050357E+02 -0.17416396866E+03  0.66695262211E+03  0.69223395120E+03  0.25500000920E-02 0. -1.
</event>
<event>
 5   0  0.6600401E-03  0.7939871E+03  0.7818609E-02  0.9568762E-01
        1   -1    0    0  501    0  0.00000000000E+00  0.00000000000E+00  0.18347217058E+03  0.18347217065E+03  0.50400001928E-02 0.  1.
       -1   -1    0    0    0  501  0.00000000000E+00  0.00000000000E+00 -0.85900697981E+03  0.85900697983E+03  0.50400001928E-02 0. -1.
    10030    2    1    2    0    0  0.00000000000E+00  0.00000000000E+00 -0.67553480923E+03  0.10424791505E+04  0.79398709101E+03 0.  0.
        2    1    3    3  502    0  0.73603379984E+02  0.38937961904E+03 -0.36911214337E+03  0.54155121610E+03  0.25500000920E-02 0.  1.
       -2    1    3    3    0  502 -0.73603379984E+02 -0.38937961904E+03 -0.30642266587E+03  0.50092793437E+03  0.25500000920E-02 0. -1.
</event>
<event>
 5   0  0.1119792E-02  0.7974227E+03  0.7818609E-02  0.9563755E-01
        2   -1    0    0  501    0  0.00000000000E+00  0.00000000000E+00  0.18512925110E+04  0.18512925110E+04  0.25500000920E-02 0.  1.
       -2   -1    0    0    0  501  0.00000000000E+00  0.00000000000E+00 -0.85870127566E+02  0.85870127604E+02  0.25500000920E-02 0. -1.
    10030    2    1    2    0    0  0.00000000000E+00  0.00000000000E+00  0.17654223834E+04  0.19371626386E+04  0.79742265861E+03 0.  0.
        4    1    3    3  502    0  0.18250347008E+03 -0.13662642195E+03  0.16773300714E+04  0.16927528104E+04  0.12699999809E+01 0.  1.
       -4    1    3    3    0  502 -0.18250347008E+03  0.13662642195E+03  0.88092311959E+02  0.24440982814E+03  0.12699999809E+01 0. -1.
</event>
<event>
 5   0  0.6596225E-03  0.7981433E+03  0.7818609E-02  0.9562709E-01
        1   -1    0    0  501    0  0.00000000000E+00  0.00000000000E+00  0.88020792367E+03  0.88020792369E+03  0.50400001928E-02 0.  1.
       -1   -1    0    0    0  501  0.00000000000E+00  0.00000000000E+00 -0.18093243823E+03  0.18093243830E+03  0.50400001928E-02 0. -1.
    10030    2    1    2    0    0  0.00000000000E+00  0.00000000000E+00  0.69927548545E+03  0.10611403620E+04  0.79814325987E+03 0.  0.
        5    1    3    3  502    0 -0.18525910810E+03 -0.21886246881E+03 -0.19321024318E+02  0.28743192127E+03  0.46999998093E+01 0. -1.
       -5    1    3    3    0  502  0.18525910810E+03  0.21886246881E+03  0.71859650976E+03  0.77370844071E+03  0.46999998093E+01 0.  1.
</event>
<event>
 5   0  0.6596225E-03  0.8002339E+03  0.7818609E-02  0.9559679E-01
       -1   -1    0    0    0  501  0.00000000000E+00  0.00000000000E+00  0.22063159855E+03  0.22063159861E+03  0.50400001928E-02 0.  1.
        1   -1    0    0  501    0  0.00000000000E+00  0.00000000000E+00 -0.72561483392E+03  0.72561483394E+03  0.50400001928E-02 0. -1.
    10030    2    1    2    0    0  0.00000000000E+00  0.00000000000E+00 -0.50498323537E+03  0.94624643255E+03  0.80023386776E+03 0.  0.
        5    1    3    3  502    0 -0.25708330341E+03 -0.92699256090E+02  0.93035325231E+02  0.28872588854E+03  0.46999998093E+01 0.  1.
       -5    1    3    3    0  502  0.25708330341E+03  0.92699256090E+02 -0.59801856060E+03  0.65752054401E+03  0.46999998093E+01 0. -1.
</event>
<event>
 5   0  0.6517392E-03  0.7990183E+03  0.7818609E-02  0.9561439E-01
        1   -1    0    0  501    0  0.00000000000E+00  0.00000000000E+00  0.54309102867E+03  0.54309102869E+03  0.50400001928E-02 0. -1.
       -1   -1    0    0    0  501  0.00000000000E+00  0.00000000000E+00 -0.29388727538E+03  0.29388727543E+03  0.50400001928E-02 0.  1.
    10030    2    1    2    0    0  0.00000000000E+00  0.00000000000E+00  0.24920375328E+03  0.83697830412E+03  0.79901825443E+03 0.  0.
        3    1    3    3  502    0 -0.20689903969E+02  0.39859032568E+03  0.14290220080E+03  0.42393793065E+03  0.10100000352E+00 0. -1.
       -3    1    3    3    0  502  0.20689903969E+02 -0.39859032568E+03  0.10630155249E+03  0.41304037347E+03  0.10100000352E+00 0.  1.
</event>
<event>
 5   0  0.1121480E-02  0.7973646E+03  0.7818609E-02  0.9563840E-01
       -2   -1    0    0    0  501  0.00000000000E+00  0.00000000000E+00  0.84637913928E+03  0.84637913928E+03  0.25500000920E-02 0.  1.
        2   -1    0    0  501    0  0.00000000000E+00  0.00000000000E+00 -0.18779714167E+03  0.18779714169E+03  0.25500000920E-02 0. -1.
    10030    2    1    2    0    0  0.00000000000E+00  0.00000000000E+00  0.65858199760E+03  0.10341762810E+04  0.79736461707E+03 0.  0.
        2    1    3    3  502    0 -0.19646533346E+03  0.52185078469E+02 -0.11553347575E+03  0.23381593977E+03  0.25500000920E-02 0. -1.
       -2    1    3    3    0  502  0.19646533346E+03 -0.52185078469E+02  0.77411547336E+03  0.80036034120E+03  0.25500000920E-02 0.  1.
</event>
<event>
 5   0  0.6557679E-03  0.8042903E+03  0.7818609E-02  0.9553828E-01
        1   -1    0    0  501    0  0.00000000000E+00  0.00000000000E+00  0.25711893130E+03  0.25711893135E+03  0.50400001928E-02 0. -1.
       -1   -1    0    0    0  501  0.00000000000E+00  0.00000000000E+00 -0.62897244277E+03  0.62897244279E+03  0.50400001928E-02 0.  1.
    10030    2    1    2    0    0  0.00000000000E+00  0.00000000000E+00 -0.37185351146E+03  0.88609137414E+03  0.80429030165E+03 0.  0.
        1    1    3    3  502    0 -0.27692276306E+03  0.99379993309E+02 -0.48795922855E+03  0.56979540936E+03  0.50400001928E-02 0.  1.
       -1    1    3    3    0  502  0.27692276306E+03 -0.99379993309E+02  0.11610571708E+03  0.31629596478E+03  0.50400001928E-02 0. -1.
</event>
<event>
 5   0  0.1121480E-02  0.8052159E+03  0.7818609E-02  0.9552498E-01
       -2   -1    0    0    0  501  0.00000000000E+00  0.00000000000E+00  0.20029911033E+03  0.20029911035E+03  0.25500000920E-02 0. -1.
        2   -1    0    0  501    0  0.00000000000E+00  0.00000000000E+00 -0.80925550795E+03  0.80925550796E+03  0.25500000920E-02 0.  1.
    10030    2    1    2    0    0  0.00000000000E+00  0.00000000000E+00 -0.60895639762E+03  0.10095546183E+04  0.80521589225E+03 0.  0.
        2    1    3    3  502    0  0.17438960714E+03 -0.30129678773E+03 -0.50913963955E+02  0.35182910781E+03  0.25500000920E-02 0.  1.
       -2    1    3    3    0  502 -0.17438960714E+03  0.30129678773E+03 -0.55804243366E+03  0.65772551049E+03  0.25500000920E-02 0. -1.
</event>
<event>
 5   0  0.1121480E-02  0.8025009E+03  0.7818609E-02  0.9556404E-01
       -2   -1    0    0    0  501  0.00000000000E+00  0.00000000000E+00  0.15003027960E+03  0.15003027963E+03  0.25500000920E-02 0.  1.
        2   -1    0    0  501    0  0.00000000000E+00  0.00000000000E+00 -0.10731295528E+04  0.10731295528E+04  0.25500000920E-02 0. -1.
    10030    2    1    2    0    0  0.00000000000E+00  0.00000000000E+00 -0.92309927324E+03  0.12231598325E+04  0.80250090811E+03 0.  0.
        2    1    3    3  502    0  0.19348286574E+03  0.26888026479E+03 -0.80666803467E+03  0.87203528271E+03  0.25500000920E-02 0. -1.
       -2    1    3    3    0  502 -0.19348286574E+03 -0.26888026479E+03 -0.11643123857E+03  0.35112454977E+03  0.25500000920E-02 0.  1.
</event>
<event>
 5   0  0.6517392E-03  0.8025579E+03  0.7818609E-02  0.9556322E-01
        1   -1    0    0  501    0  0.00000000000E+00  0.00000000000E+00  0.50671953115E+03  0.50671953117E+03  0.50400001928E-02 0. -1.
       -1   -1    0    0    0  501  0.00000000000E+00  0.00000000000E+00 -0.31777893910E+03  0.31777893914E+03  0.50400001928E-02 0.  1.
    10030    2    1    2    0    0  0.00000000000E+00  0.00000000000E+00  0.18894059204E+03  0.82449847032E+03  0.80255789837E+03 0.  0.
        3    1    3    3  502    0 -0.57690821999E+01  0.32176510059E+03 -0.15178833698E+03  0.35581704809E+03  0.10100000352E+00 0.  1.
       -3    1    3    3    0  502  0.57690821999E+01 -0.32176510059E+03  0.34072892903E+03  0.46868142223E+03  0.10100000352E+00 0. -1.
</event>
<event>
 5   0  0.6557679E-03  0.7988749E+03  0.7818609E-02  0.9561647E-01
       -1   -1    0    0    0  501  0.00000000000E+00  0.00000000000E+00  0.23264985012E+03  0.23264985018E+03  0.50400001928E-02 0.  1.
        1   -1    0    0  501    0  0.00000000000E+00  0.00000000000E+00 -0.68579568505E+03  0.68579568507E+03  0.50400001928E-02 0. -1.
    10030    2    1    2    0    0  0.00000000000E+00  0.00000000000E+00 -0.45314583493E+03  0.91844553524E+03  0.79887486724E+03 0.  0.
        1    1    3    3  502    0  0.35096811606E+03 -0.19912472977E+02 -0.85129791462E+01  0.35163560102E+03  0.50400001928E-02 0.  1.
       -1    1    3    3    0  502 -0.35096811606E+03  0.19912472977E+02 -0.44463285578E+03  0.56680993422E+03  0.50400001928E-02 0. -1.
</event>
<event>
 5   0  0.6517392E-03  0.8005466E+03  0.7818609E-02  0.9559226E-01
        1   -1    0    0  501    0  0.00000000000E+00  0.00000000000E+00  0.22903525566E+04  0.22903525566E+04  0.50400001928E-02 0. -1.
       -1   -1    0    0    0  501  0.00000000000E+00  0.00000000000E+00 -0.69953727330E+02  0.69953727512E+02  0.50400001928E-02 0.  1.
    10030    2    1    2    0    0  0.00000000000E+00  0.00000000000E+00  0.22203988292E+04  0.23603062841E+04  0.80054655943E+03 0.  0.
        3    1    3    3  502    0  0.26219394197E+03  0.63733403681E+02  0.23850350889E+03  0.36012712186E+03  0.10100000352E+00 0.  1.
       -3    1    3    3    0  502 -0.26219394197E+03 -0.63733403681E+02  0.19818953203E+04  0.20001791622E+04  0.10100000352E+00 0. -1.
</event>
<event>
 5   0  0.6596225E-03  0.8009701E+03  0.7818609E-02  0.9558614E-01
       -1   -1    0    0    0  501  0.00000000000E+00  0.00000000000E+00  0.97777077128E+02  0.97777077258E+02  0.50400001928E-02 0. -1.
        1   -1    0    0  501    0  0.00000000000E+00  0.00000000000E+00 -0.16403464286E+04  0.16403464286E+04  0.50400001928E-02 0.  1.
    10030    2    1    2    0    0  0.00000000000E+00  0.00000000000E+00 -0.15425693515E+04  0.17381235059E+04  0.80097011027E+03 0.  0.
        5    1    3    3  502    0 -0.21805280282E+03 -0.14327449688E+03 -0.14305274386E+04  0.14541339171E+04  0.46999998093E+01 0.  1.
       -5    1    3    3    0  502  0.21805280282E+03  0.14327449688E+03 -0.11204191284E+03  0.28398958873E+03  0.46999998093E+01 0. -1.
</event>
<event>
 5   0  0.6551489E-03  0.8010959E+03  0.7818609E-02  0.9558432E-01
        1   -1    0    0  501    0  0.00000000000E+00  0.00000000000E+00  0.27227537684E+03  0.27227537689E+03  0.50400001928E-02 0. -1.
       -1   -1    0    0    0  501  0.00000000000E+00  0.00000000000E+00 -0.58925145511E+03  0.58925145514E+03  0.50400001928E-02 0.  1.
    10030    2    1    2    0    0  0.00000000000E+00  0.00000000000E+00 -0.31697607827E+03  0.86152683202E+03  0.80109590443E+03 0.  0.
        4    1    3    3  502    0 -0.94810388045E+02 -0.26989060281E+03 -0.46000738981E+03  0.54169950964E+03  0.12699999809E+01 0.  1.
       -4    1    3    3    0  502  0.94810388045E+02  0.26989060281E+03  0.14303131153E+03  0.31982732238E+03  0.12699999809E+01 0. -1.
</event>
<event>
 5   0  0.6551489E-03  0.7958476E+03  0.7818609E-02  0.9566047E-01
       -1   -1    0    0    0  501  0.00000000000E+00  0.00000000000E+00  0.17491884636E+03  0.17491884643E+03  0.50400001928E-02 0. -1.
        1   -1    0    0  501    0  0.00000000000E+00  0.00000000000E+00 -0.90523901232E+03  0.90523901233E+03  0.50400001928E-02 0.  1.
    10030    2    1    2    0    0  0.00000000000E+00  0.00000000000E+00 -0.73032016596E+03  0.10801578588E+04  0.79584763305E+03 0.  0.
        4    1    3    3  502    0 -0.21576439873E+03  0.47819423163E+02  0.83963544396E+02  0.23641586808E+03  0.12699999809E+01 0. -1.
       -4    1    3    3    0  502  0.21576439873E+03 -0.47819423163E+02 -0.81428371036E+03  0.84374199069E+03  0.12699999809E+01 0.  1.
</event>
<event>
 5   0  0.1106332E-02  0.7989055E+03  0.7818609E-02  0.9561603E-01
        2   -1    0    0  501    0  0.00000000000E+00  0.00000000000E+00  0.20445839850E+04  0.20445839850E+04  0.25500000920E-02 0.  1.
       -2   -1    0    0    0  501  0.00000000000E+00  0.00000000000E+00 -0.78041546227E+02  0.78041546268E+02  0.25500000920E-02 0. -1.
    10030    2    1    2    0    0  0.00000000000E+00  0.00000000000E+00  0.19665424388E+04  0.21226255313E+04  0.79890549035E+03 0.  0.
        1    1    3    3  502    0  0.37797106921E+02  0.39709806312E+03  0.92709752418E+03  0.10092696926E+04  0.50400001928E-02 0. -1.
       -1    1    3    3    0  502 -0.37797106921E+02 -0.39709806312E+03  0.10394449146E+04  0.11133558387E+04  0.50400001928E-02 0.  1.
</event>
<event>
 5   0  0.1092868E-02  0.8003785E+03  0.7818609E-02  0.9559469E-01
        2   -1    0    0  501    0  0.00000000000E+00  0.00000000000E+00  0.11831773328E+04  0.11831773328E+04  0.25500000920E-02 0. -1.
       -2   -1    0    0    0  501  0.00000000000E+00  0.00000000000E+00 -0.13535708057E+03  0.13535708059E+03  0.25500000920E-02 0.  1.
    10030    2    1    2    0    0  0.00000000000E+00  0.00000000000E+00  0.10478202522E+04  0.13185344134E+04  0.80037848440E+03 0.  0.
        3    1    3    3  502    0 -0.22572502035E+02  0.11990460979E+03  0.11517895313E+04  0.11582339003E+04  0.10100000352E+00 0. -1.
       -3    1    3    3    0  502  0.22572502035E+02 -0.11990460979E+03 -0.10396927906E+03  0.16030051306E+03  0.10100000352E+00 0.  1.
</event>
<event>
 5   0  0.6596225E-03  0.7916364E+03  0.7818609E-02  0.9572203E-01
        1   -1    0    0  501    0  0.00000000000E+00  0.00000000000E+00  0.44940527478E+03  0.44940527481E+03  0.50400001928E-02 0. -1.
       -1   -1    0    0    0  501  0.00000000000E+00  0.00000000000E+00 -0.34862087503E+03  0.34862087506E+03  0.50400001928E-02 0.  1.
    10030    2    1    2    0    0  0.00000000000E+00  0.00000000000E+00  0.10078439975E+03  0.79802614987E+03  0.79163643211E+03 0.  0.
        5    1    3    3  502    0  0.38560209860E+03  0.71728003097E+02  0.10388733044E+03  0.40576908741E+03  0.46999998093E+01 0.  1.
       -5    1    3    3    0  502 -0.38560209860E+03 -0.71728003097E+02 -0.31029306848E+01  0.39225706246E+03  0.46999998093E+01 0. -1.
</event>
<event>
 5   0  0.1121480E-02  0.7807552E+03  0.7818609E-02  0.9588299E-01
        2   -1    0    0  501    0  0.00000000000E+00  0.00000000000E+00  0.88548566647E+03  0.88548566648E+03  0.25500000920E-02 0.  1.
       -2   -1    0    0    0  501  0.00000000000E+00  0.00000000000E+00 -0.17210290603E+03  0.17210290605E+03  0.25500000920E-02 0. -1.
    10030    2    1    2    0    0  0.00000000000E+00  0.00000000000E+00  0.71338276044E+03  0.10575885725E+04  0.78075516382E+03 0.  0.
        2    1    3    3  502    0 -0.23692840589E+03  0.90837402518E+02  0.75854079312E+03  0.79985663594E+03  0.25500000920E-02 0.  1.
       -2    1    3    3    0  502  0.23692840589E+03 -0.90837402518E+02 -0.45158032681E+02  0.25773193659E+03  0.25500000920E-02 0. -1.
</event>
<event>
 5   0  0.1119792E-02  0.8074103E+03  0.7818609E-02  0.9549353E-01
        2   -1    0    0  501    0  0.00000000000E+00  0.00000000000E+00  0.15592660974E+04  0.15592660974E+04  0.25500000920E-02 0. -1.
       -2   -1    0    0    0  501  0.00000000000E+00  0.00000000000E+00 -0.10452214719E+03  0.10452214722E+03  0.25500000920E-02 0.  1.
    10030    2    1    2    0    0  0.00000000000E+00  0.00000000000E+00  0.14547439502E+04  0.16637882446E+04  0.80741028126E+03 0.  0.
        4    1    3    3  502    0 -0.47866511732E+02 -0.68080287809E+02 -0.86649384385E+02  0.12014931231E+03  0.12699999809E+01 0.  1.
       -4    1    3    3    0  502  0.47866511732E+02  0.68080287809E+02  0.15413933346E+04  0.15436389323E+04  0.12699999809E+01 0. -1.
</event>
<event>
 5   0  0.6551489E-03  0.7985248E+03  0.7818609E-02  0.9562155E-01
       -1   -1    0    0    0  501  0.00000000000E+00  0.00000000000E+00  0.46707466747E+03  0.46707466749E+03  0.50400001928E-02 0.  1.
        1   -1    0    0  501    0  0.00000000000E+00  0.00000000000E+00 -0.34129547147E+03  0.34129547150E+03  0.50400001928E-02 0. -1.
    10030    2    1    2    0    0  0.00000000000E+00  0.00000000000E+00  0.12577919600E+03  0.80837013900E+03  0.79852481206E+03 0.  0.
        4    1    3    3  502    0  0.25827606379E+03 -0.27156307178E+03  0.20226727985E+03  0.42587168546E+03  0.12699999809E+01 0.  1.
       -4    1    3    3    0  502 -0.25827606379E+03  0.27156307178E+03 -0.76488083848E+02  0.38249845353E+03  0.12699999809E+01 0. -1.
</event>
<event>
 5   0  0.1154714E-02  0.7979548E+03  0.7818609E-02  0.9562982E-01
        2   -1    0    0  501    0  0.00000000000E+00  0.00000000000E+00  0.21795939654E+04  0.21795939654E+04  0.25500000920E-02 0. -1.
       -2   -1    0    0    0  501  0.00000000000E+00  0.00000000000E+00 -0.73033311720E+02  0.73033311765E+02  0.25500000920E-02 0.  1.
    10030    2    1    2    0    0  0.00000000000E+00  0.00000000000E+00  0.21065606536E+04  0.22526272771E+04  0.79795479959E+03 0.  0.
        5    1    3    3  502    0  0.36993708153E+03  0.14933730753E+03  0.10464817335E+04  0.11199558849E+04  0.46999998093E+01 0.  1.
       -5    1    3    3    0  502 -0.36993708153E+03 -0.14933730753E+03  0.10600789202E+04  0.11326713922E+04  0.46999998093E+01 0. -1.
</event>
<event>
 5   0  0.1092868E-02  0.7978705E+03  0.7818609E-02  0.9563105E-01
        2   -1    0    0  501    0  0.00000000000E+00  0.00000000000E+00  0.14866340096E+04  0.14866340096E+04  0.25500000920E-02 0.  1.
       -2   -1    0    0    0  501  0.00000000000E+00  0.00000000000E+00 -0.10705346272E+03  0.10705346275E+03  0.25500000920E-02 0. -1.
    10030    2    1    2    0    0  0.00000000000E+00  0.00000000000E+00  0.13795805469E+04  0.15936874724E+04  0.79787046205E+03 0.  0.
        3    1    3    3  502    0  0.93635936941E+02  0.32783009808E+03  0.11035471295E+04  0.11550136532E+04  0.10100000352E+00 0.  1.
       -3    1    3    3    0  502 -0.93635936941E+02 -0.32783009808E+03  0.27603341742E+03  0.43867381917E+03  0.10100000352E+00 0. -1.
</event>
<event>
 5   0  0.6551489E-03  0.8004845E+03  0.7818609E-02  0.9559316E-01
        1   -1    0    0  501    0  0.00000000000E+00  0.00000000000E+00  0.97896857351E+03  0.97896857352E+03  0.50400001928E-02 0. -1.
       -1   -1    0    0    0  501  0.00000000000E+00  0.00000000000E+00 -0.16363535142E+03  0.16363535150E+03  0.50400001928E-02 0.  1.
    10030    2    1    2    0    0  0.00000000000E+00  0.00000000000E+00  0.81533322208E+03  0.11426039250E+04  0.80048451980E+03 0.  0.
        4    1    3    3  502    0 -0.33046260137E+03  0.21994186599E+03  0.33471176167E+03  0.51924322973E+03  0.12699999809E+01 0.  1.
       -4    1    3    3    0  502  0.33046260137E+03 -0.21994186599E+03  0.48062146042E+03  0.62336069529E+03  0.12699999809E+01 0. -1.
</event>
<event>
 5   0  0.4385875E-03  0.8007654E+03  0.7818609E-02  0.9558910E-01
       -3   -1    0    0    0  501  0.00000000000E+00  0.00000000000E+00  0.55321611384E+03  0.55321612306E+03  0.10100000352E+00 0. -1.
        3   -1    0    0  501    0  0.00000000000E+00  0.00000000000E+00 -0.28977158404E+03  0.28977160164E+03  0.10100000352E+00 0.  1.
    10030    2    1    2    0    0  0.00000000000E+00  0.00000000000E+00  0.26344452980E+03  0.84298772470E+03  0.80076543614E+03 0.  0.
        1    1    3    3  502    0  0.59883859762E+01  0.34836088105E+03 -0.75948481183E+02  0.35659407739E+03  0.50400001928E-02 0.  1.
       -1    1    3    3    0  502 -0.59883859762E+01 -0.34836088105E+03  0.33939301098E+03  0.48639364731E+03  0.50400001928E-02 0. -1.
</event>
<event>
 5   0  0.6557679E-03  0.7975661E+03  0.7818609E-02  0.9563547E-01
       -1   -1    0    0    0  501  0.00000000000E+00  0.00000000000E+00  0.91192092431E+02  0.91192092570E+02  0.50400001928E-02 0.  1.
        1   -1    0    0  501    0  0.00000000000E+00  0.00000000000E+00 -0.17438781941E+04  0.17438781941E+04  0.50400001928E-02 0. -1.
    10030    2    1    2    0    0  0.00000000000E+00  0.00000000000E+00 -0.16526861017E+04  0.18350702867E+04  0.79756605144E+03 0.  0.
        1    1    3    3  502    0 -0.14722872424E+03  0.20127659518E+03 -0.11034482514E+03  0.27269863488E+03  0.50400001928E-02 0.  1.
       -1    1    3    3    0  502  0.14722872424E+03 -0.20127659518E+03 -0.15423412766E+04  0.15623716518E+04  0.50400001928E-02 0. -1.
</event>
<event>
 5   0  0.1119792E-02  0.7972100E+03  0.7818609E-02  0.9564064E-01
       -2   -1    0    0    0  501  0.00000000000E+00  0.00000000000E+00  0.10591448548E+03  0.10591448551E+03  0.25500000920E-02 0.  1.
        2   -1    0    0  501    0  0.00000000000E+00  0.00000000000E+00 -0.15001342339E+04  0.15001342339E+04  0.25500000920E-02 0. -1.
    10030    2    1    2    0    0  0.00000000000E+00  0.00000000000E+00 -0.13942197484E+04  0.16060487194E+04  0.79720999883E+03 0.  0.
        4    1    3    3  502    0  0.28838317869E+03  0.35687246185E+02 -0.14743440331E+03  0.32584805273E+03  0.12699999809E+01 0.  1.
       -4    1    3    3    0  502 -0.28838317869E+03 -0.35687246185E+02 -0.12467853451E+04  0.12802006667E+04  0.12699999809E+01 0. -1.
</event>
<event>
 5   0  0.1092868E-02  0.8065982E+03  0.7818609E-02  0.9550515E-01
        2   -1    0    0  501    0  0.00000000000E+00  0.00000000000E+00  0.34984611467E+03  0.34984611468E+03  0.25500000920E-02 0. -1.
       -2   -1    0    0    0  501  0.00000000000E+00  0.00000000000E+00 -0.46491916861E+03  0.46491916862E+03  0.25500000920E-02 0.  1.
    10030    2    1    2    0    0  0.00000000000E+00  0.00000000000E+00 -0.11507305394E+03  0.81476528329E+03  0.80659820178E+03 0.  0.
        3    1    3    3  502    0 -0.22227866388E+03  0.33410078212E+03 -0.98180957613E+02  0.41312304180E+03  0.10100000352E+00 0.  1.
       -3    1    3    3    0  502  0.22227866388E+03 -0.33410078212E+03 -0.16892096330E+02  0.40164224149E+03  0.10100000352E+00 0. -1.
</event>
<event>
 5   0  0.1121480E-02  0.8006005E+03  0.7818609E-02  0.9559148E-01
       -2   -1    0    0    0  501  0.00000000000E+00  0.00000000000E+00  0.28776707715E+03  0.28776707716E+03  0.25500000920E-02 0.  1.
        2   -1    0    0  501    0  0.00000000000E+00  0.00000000000E+00 -0.55684022613E+03  0.55684022614E+03  0.25500000920E-02 0. -1.
    10030    2    1    2    0    0  0.00000000000E+00  0.00000000000E+00 -0.26907314898E+03  0.84460730330E+03  0.80060048543E+03 0.  0.
        2    1    3    3  502    0 -0.58660339481E+02  0.28646142619E+03 -0.42294830196E+03  0.51418522953E+03  0.25500000920E-02 0. -1.
       -2    1    3    3    0  502  0.58660339481E+02 -0.28646142619E+03  0.15387515298E+03  0.33042207377E+03  0.25500000920E-02 0.  1.
</event>
<event>
 5   0  0.1121480E-02  0.8020425E+03  0.7818609E-02  0.9557065E-01
        2   -1    0    0  501    0  0.00000000000E+00  0.00000000000E+00  0.12716577889E+04  0.12716577889E+04  0.25500000920E-02 0. -1.
       -2   -1    0    0    0  501  0.00000000000E+00  0.00000000000E+00 -0.12646329772E+03  0.12646329774E+03  0.25500000920E-02 0.  1.
    10030    2    1    2    0    0  0.00000000000E+00  0.00000000000E+00  0.11451944911E+04  0.13981210866E+04  0.80204248658E+03 0.  0.
        2    1    3    3  502    0 -0.32314799451E+03  0.18480285870E+03  0.31262460948E+03  0.48611816403E+03  0.25500000920E-02 0.  1.
       -2    1    3    3    0  502  0.32314799451E+03 -0.18480285870E+03  0.83256988166E+03  0.91200292258E+03  0.25500000920E-02 0. -1.
</event>
<event>
 5   0  0.1119792E-02  0.8003738E+03  0.7818609E-02  0.9559476E-01
        2   -1    0    0  501    0  0.00000000000E+00  0.00000000000E+00  0.72411962761E+03  0.72411962761E+03  0.25500000920E-02 0. -1.
       -2   -1    0    0    0  501  0.00000000000E+00  0.00000000000E+00 -0.22116449871E+03  0.22116449872E+03  0.25500000920E-02 0.  1.
    10030    2    1    2    0    0  0.00000000000E+00  0.00000000000E+00  0.50295512890E+03  0.94528412633E+03  0.80037379880E+03 0.  0.
        4    1    3    3  502    0 -0.26279780841E+03 -0.23549395979E+03  0.28549728821E+02  0.35402936760E+03  0.12699999809E+01 0.  1.
       -4    1    3    3    0  502  0.26279780841E+03  0.23549395979E+03  0.47440540008E+03  0.59125475874E+03  0.12699999809E+01 0. -1.
</event>
<event>
 5   0  0.1154714E-02  0.8001020E+03  0.7818609E-02  0.9559869E-01
        2   -1    0    0  501    0  0.00000000000E+00  0.00000000000E+00  0.60550462371E+03  0.60550462372E+03  0.25500000920E-02 0. -1.
       -2   -1    0    0    0  501  0.00000000000E+00  0.00000000000E+00 -0.26430981887E+03  0.26430981889E+03  0.25500000920E-02 0.  1.
    10030    2    1    2    0    0  0.00000000000E+00  0.00000000000E+00  0.34119480484E+03  0.86981444260E+03  0.80010203706E+03 0.  0.
        5    1    3    3  502    0 -0.29951095323E+02  0.39443069627E+03  0.23533488674E+03  0.46030125047E+03  0.46999998093E+01 0.  1.
       -5    1    3    3    0  502  0.29951095323E+02 -0.39443069627E+03  0.10585991810E+03  0.40951319213E+03  0.46999998093E+01 0. -1.
</event>
<event>
 5   0  0.1154714E-02  0.7992500E+03  0.7818609E-02  0.9561103E-01
        2   -1    0    0  501    0  0.00000000000E+00  0.00000000000E+00  0.50341428637E+03  0.50341428638E+03  0.25500000920E-02 0.  1.
       -2   -1    0    0    0  501  0.00000000000E+00  0.00000000000E+00 -0.31723401154E+03  0.31723401155E+03  0.25500000920E-02 0. -1.
    10030    2    1    2    0    0  0.00000000000E+00  0.00000000000E+00  0.18618027483E+03  0.82064829793E+03  0.79924998227E+03 0.  0.
        5    1    3    3  502    0  0.38831605923E+03 -0.63885478339E+02  0.21898941994E+02  0.39417302020E+03  0.46999998093E+01 0. -1.
       -5    1    3    3    0  502 -0.38831605923E+03  0.63885478339E+02  0.16428133284E+03  0.42647527773E+03  0.46999998093E+01 0.  1.
</event>
<event>
 5   0  0.1092868E-02  0.8000760E+03  0.7818609E-02  0.9559907E-01
       -2   -1    0    0    0  501  0.00000000000E+00  0.00000000000E+00  0.10045693243E+03  0.10045693246E+03  0.25500000920E-02 0.  1.
        2   -1    0    0  501    0  0.00000000000E+00  0.00000000000E+00 -0.15930248091E+04  0.15930248091E+04  0.25500000920E-02 0. -1.
    10030    2    1    2    0    0  0.00000000000E+00  0.00000000000E+00 -0.14925678767E+04  0.16934817416E+04  0.80007596049E+03 0.  0.
        3    1    3    3  502    0 -0.59085624043E+02  0.15284182789E+03 -0.15187271930E+04  0.15275418267E+04  0.10100000352E+00 0. -1.
       -3    1    3    3    0  502  0.59085624043E+02 -0.15284182789E+03  0.26159316319E+02  0.16593991489E+03  0.10100000352E+00 0.  1.
</event>
<event>
 5   0  0.6551489E-03  0.7950793E+03  0.7818609E-02  0.9567167E-01
        1   -1    0    0  501    0  0.00000000000E+00  0.00000000000E+00  0.75510786155E+03  0.75510786157E+03  0.50400001928E-02 0.  1.
       -1   -1    0    0    0  501  0.00000000000E+00  0.00000000000E+00 -0.20929163428E+03  0.20929163434E+03  0.50400001928E-02 0. -1.
    10030    2    1    2    0    0  0.00000000000E+00  0.00000000000E+00  0.54581622727E+03  0.96439949591E+03  0.79507926257E+03 0.  0.
        4    1    3    3  502    0 -0.28677620053E+03  0.26202646552E+03  0.17043136915E+03  0.42420151145E+03  0.12699999809E+01 0. -1.
       -4    1    3    3    0  502  0.28677620053E+03 -0.26202646552E+03  0.37538485811E+03  0.54019798447E+03  0.12699999809E+01 0.  1.
</event>
<event>
 5   0  0.6557679E-03  0.8039277E+03  0.7818609E-02  0.9554349E-01
       -1   -1    0    0    0  501  0.00000000000E+00  0.00000000000E+00  0.18801044565E+03  0.18801044571E+03  0.50400001928E-02 0. -1.
        1   -1    0    0  501    0  0.00000000000E+00  0.00000000000E+00 -0.85939337017E+03  0.85939337018E+03  0.50400001928E-02 0.  1.
    10030    2    1    2    0    0  0.00000000000E+00  0.00000000000E+00 -0.67138292452E+03  0.10474038159E+04  0.80392768469E+03 0.  0.
        1    1    3    3  502    0 -0.25540439974E+03 -0.81047453027E+02 -0.72605969744E+03  0.77392685787E+03  0.50400001928E-02 0.  1.
       -1    1    3    3    0  502  0.25540439974E+03  0.81047453027E+02  0.54676772920E+02  0.27347695803E+03  0.50400001928E-02 0. -1.
</event>
<event>
 5   0  0.1121480E-02  0.8046528E+03  0.7818609E-02  0.9553307E-01
        2   -1    0    0  501    0  0.00000000000E+00  0.00000000000E+00  0.43591396338E+03  0.43591396339E+03  0.25500000920E-02 0. -1.
       -2   -1    0    0    0  501  0.00000000000E+00  0.00000000000E+00 -0.37132682904E+03  0.37132682905E+03  0.25500000920E-02 0.  1.
    10030    2    1    2    0    0  0.00000000000E+00  0.00000000000E+00  0.64587134339E+02  0.80724079245E+03  0.80465284382E+03 0.  0.
        2    1    3    3  502    0  0.16245303688E+03 -0.35834888474E+03 -0.52010253156E+02  0.39687526860E+03  0.25500000920E-02 0.  1.
       -2    1    3    3    0  502 -0.16245303688E+03  0.35834888474E+03  0.11659738750E+03  0.41036552385E+03  0.25500000920E-02 0. -1.
</event>
<event>
 5   0  0.1119792E-02  0.7987521E+03  0.7818609E-02  0.9561825E-01
        2   -1    0    0  501    0  0.00000000000E+00  0.00000000000E+00  0.63909842188E+03  0.63909842188E+03  0.25500000920E-02 0. -1.
       -2   -1    0    0    0  501  0.00000000000E+00  0.00000000000E+00 -0.24957222008E+03  0.24957222010E+03  0.25500000920E-02 0.  1.
    10030    2    1    2    0    0  0.00000000000E+00  0.00000000000E+00  0.38952620179E+03  0.88867064198E+03  0.79875205667E+03 0.  0.
        4    1    3    3  502    0 -0.36840940241E+03  0.13931488398E+03  0.26827278691E+03  0.47655642455E+03  0.12699999809E+01 0. -1.
       -4    1    3    3    0  502  0.36840940241E+03 -0.13931488398E+03  0.12125341488E+03  0.41211421743E+03  0.12699999809E+01 0.  1.
</event>
<event>
 5   0  0.6596225E-03  0.7927198E+03  0.7818609E-02  0.9570615E-01
       -1   -1    0    0    0  501  0.00000000000E+00  0.00000000000E+00  0.29558027609E+03  0.29558027613E+03  0.50400001928E-02 0. -1.
        1   -1    0    0  501    0  0.00000000000E+00  0.00000000000E+00 -0.53150089608E+03  0.53150089610E+03  0.50400001928E-02 0.  1.
    10030    2    1    2    0    0  0.00000000000E+00  0.00000000000E+00 -0.23592061999E+03  0.82708117224E+03  0.79271982852E+03 0.  0.
        5    1    3    3  502    0 -0.16159765196E+03  0.18719762576E+03 -0.44109850459E+03  0.50571408223E+03  0.46999998093E+01 0.  1.
       -5    1    3    3    0  502  0.16159765196E+03 -0.18719762576E+03  0.20517788460E+03  0.32136709001E+03  0.46999998093E+01 0. -1.
</event>
<event>
 5   0  0.4385875E-03  0.7585139E+03  0.7818609E-02  0.9622087E-01
       -3   -1    0    0    0  501  0.00000000000E+00  0.00000000000E+00  0.87322781734E+03  0.87322782318E+03  0.10100000352E+00 0.  1.
        3   -1    0    0  501    0  0.00000000000E+00  0.00000000000E+00 -0.16471740115E+03  0.16471743212E+03  0.10100000352E+00 0. -1.
    10030    2    1    2    0    0  0.00000000000E+00  0.00000000000E+00  0.70851041618E+03  0.10379452553E+04  0.75851390439E+03 0.  0.
        2    1    3    3  502    0 -0.30731431087E+03 -0.11375526250E+03  0.61551974281E+03  0.69731406067E+03  0.25500000920E-02 0.  1.
       -2    1    3    3    0  502  0.30731431087E+03  0.11375526250E+03  0.92990673377E+02  0.34063119463E+03  0.25500000920E-02 0. -1.
</event>
<event>
 5   0  0.1106332E-02  0.8003119E+03  0.7818609E-02  0.9559566E-01
        2   -1    0    0  501    0  0.00000000000E+00  0.00000000000E+00  0.91659827981E+03  0.91659827981E+03  0.25500000920E-02 0.  1.
       -2   -1    0    0    0  501  0.00000000000E+00  0.00000000000E+00 -0.17469463237E+03  0.17469463239E+03  0.25500000920E-02 0. -1.
    10030    2    1    2    0    0  0.00000000000E+00  0.00000000000E+00  0.74190364744E+03  0.10912929122E+04  0.80031193801E+03 0.  0.
        1    1    3    3  502    0  0.83118823860E+02  0.75508144286E+02 -0.15276860417E+03  0.18960080479E+03  0.50400001928E-02 0. -1.
       -1    1    3    3    0  502 -0.83118823860E+02 -0.75508144286E+02  0.89467225161E+03  0.90169210740E+03  0.50400001928E-02 0.  1.
</event>
<event>
 5   0  0.6596225E-03  0.7994962E+03  0.7818609E-02  0.9560747E-01
        1   -1    0    0  501    0  0.00000000000E+00  0.00000000000E+00  0.92898039231E+02  0.92898039368E+02  0.50400001928E-02 0. -1.
       -1   -1    0    0    0  501  0.00000000000E+00  0.00000000000E+00 -0.17201496934E+04  0.17201496934E+04  0.50400001928E-02 0.  1.
    10030    2    1    2    0    0  0.00000000000E+00  0.00000000000E+00 -0.16272516541E+04  0.18130477327E+04  0.79949617592E+03 0.  0.
        5    1    3    3  502    0  0.95046947100E+01  0.27820510310E+03 -0.16310505720E+03  0.32266665197E+03  0.46999998093E+01 0. -1.
       -5    1    3    3    0  502 -0.95046947100E+01 -0.27820510310E+03 -0.14641465969E+04  0.14903810808E+04  0.46999998093E+01 0.  1.
</event>
<event>
 5   0  0.6551489E-03  0.7972255E+03  0.7818609E-02  0.9564042E-01
       -1   -1    0    0    0  501  0.00000000000E+00  0.00000000000E+00  0.10466745457E+03  0.10466745469E+03  0.50400001928E-02 0.  1.
        1   -1    0    0  501    0  0.00000000000E+00  0.00000000000E+00 -0.15180662960E+04  0.15180662960E+04  0.50400001928E-02 0. -1.
    10030    2    1    2    0    0  0.00000000000E+00  0.00000000000E+00 -0.14133988414E+04  0.16227337507E+04  0.79722552686E+03 0.  0.
        4    1    3    3  502    0 -0.13664021407E+03  0.25971031249E+03 -0.12557898008E+04  0.12896238333E+04  0.12699999809E+01 0. -1.
       -4    1    3    3    0  502  0.13664021407E+03 -0.25971031249E+03 -0.15760904059E+03  0.33310991743E+03  0.12699999809E+01 0.  1.
</event>
<event>
 5   0  0.6551489E-03  0.8030155E+03  0.7818609E-02  0.9555663E-01
       -1   -1    0    0    0  501  0.00000000000E+00  0.00000000000E+00  0.41222421539E+03  0.41222421542E+03  0.50400001928E-02 0.  1.
        1   -1    0    0  501    0  0.00000000000E+00  0.00000000000E+00 -0.39106982877E+03  0.39106982880E+03  0.50400001928E-02 0. -1.
    10030    2    1    2    0    0  0.00000000000E+00  0.00000000000E+00  0.21154386625E+02  0.80329404423E+03  0.80301545030E+03 0.  0.
        4    1    3    3  502    0  0.43215168468E+02  0.38160674883E+03 -0.10657696746E+03  0.39856182009E+03  0.12699999809E+01 0. -1.
       -4    1    3    3    0  502 -0.43215168468E+02 -0.38160674883E+03  0.12773135409E+03  0.40473222414E+03  0.12699999809E+01 0.  1.
</event>
<event>
 5   0  0.6557679E-03  0.7976199E+03  0.7818609E-02  0.9563469E-01
       -1   -1    0    0    0  501  0.00000000000E+00  0.00000000000E+00  0.27850526611E+03  0.27850526616E+03  0.50400001928E-02 0. -1.
        1   -1    0    0  501    0  0.00000000000E+00  0.00000000000E+00 -0.57108207174E+03  0.57108207176E+03  0.50400001928E-02 0.  1.
    10030    2    1    2    0    0  0.00000000000E+00  0.00000000000E+00 -0.29257680563E+03  0.84958733792E+03  0.79761987034E+03 0.  0.
        1    1    3    3  502    0  0.39688562997E+03 -0.26437378415E+02 -0.17701629254E+03  0.43537559199E+03  0.50400001928E-02 0. -1.
       -1    1    3    3    0  502 -0.39688562997E+03  0.26437378415E+02 -0.11556051309E+03  0.41421174593E+03  0.50400001928E-02 0.  1.
</event>
<event>
 5   0  0.6557679E-03  0.8011808E+03  0.7818609E-02  0.9558310E-01
        1   -1    0    0  501    0  0.00000000000E+00  0.00000000000E+00  0.41233591110E+03  0.41233591113E+03  0.50400001928E-02 0.  1.
       -1   -1    0    0    0  501  0.00000000000E+00  0.00000000000E+00 -0.38917943333E+03  0.38917943336E+03  0.50400001928E-02 0. -1.
    10030    2    1    2    0    0  0.00000000000E+00  0.00000000000E+00  0.23156477771E+02  0.80151534449E+03  0.80118076923E+03 0.  0.
        1    1    3    3  502    0 -0.13640084850E+03  0.83443561686E+02 -0.35586880951E+03  0.39014180635E+03  0.50400001928E-02 0. -1.
       -1    1    3    3    0  502  0.13640084850E+03 -0.83443561686E+02  0.37902528728E+03  0.41137353814E+03  0.50400001928E-02 0.  1.
</event>
<event>
 5   0  0.4385875E-03  0.8169346E+03  0.7818609E-02  0.9535823E-01
        4   -1    0    0  501    0  0.00000000000E+00  0.00000000000E+00  0.44420248682E+03  0.44420430232E+03  0.12699999809E+01 0. -1.
       -4   -1    0    0    0  501  0.00000000000E+00  0.00000000000E+00 -0.37560330810E+03  0.37560545518E+03  0.12699999809E+01 0.  1.
    10030    2    1    2    0    0  0.00000000000E+00  0.00000000000E+00  0.68599178717E+02  0.81980975749E+03  0.81693463090E+03 0.  0.
        3    1    3    3  502    0 -0.22115717224E+03  0.28063863572E+03  0.23292799586E+03  0.42652549765E+03  0.10100000352E+00 0. -1.
       -3    1    3    3    0  502  0.22115717224E+03 -0.28063863572E+03 -0.16432881714E+03  0.39328425984E+03  0.10100000352E+00 0.  1.
</event>
<event>
 5   0  0.6596225E-03  0.7852670E+03  0.7818609E-02  0.9581591E-01
       -1   -1    0    0    0  501  0.00000000000E+00  0.00000000000E+00  0.19608518451E+03  0.19608518457E+03  0.50400001928E-02 0. -1.
        1   -1    0    0  501    0  0.00000000000E+00  0.00000000000E+00 -0.78619441057E+03  0.78619441059E+03  0.50400001928E-02 0.  1.
    10030    2    1    2    0    0  0.00000000000E+00  0.00000000000E+00 -0.59010922606E+03  0.98227959516E+03  0.78526702744E+03 0.  0.
        5    1    3    3  502    0  0.27322724075E+03 -0.13867630546E+03 -0.60210763830E+03  0.67560339022E+03  0.46999998093E+01 0.  1.
       -5    1    3    3    0  502 -0.27322724075E+03  0.13867630546E+03  0.11998412234E+02  0.30667620494E+03  0.46999998093E+01 0. -1.
</event>
<event>
 5   0  0.1092868E-02  0.8103888E+03  0.7818609E-02  0.9545100E-01
       -2   -1    0    0    0  501  0.00000000000E+00  0.00000000000E+00  0.21295003979E+03  0.21295003981E+03  0.25500000920E-02 0.  1.
        2   -1    0    0  501    0  0.00000000000E+00  0.00000000000E+00 -0.77099074894E+03  0.77099074894E+03  0.25500000920E-02 0. -1.
    10030    2    1    2    0    0  0.00000000000E+00  0.00000000000E+00 -0.55804070915E+03  0.98394078875E+03  0.81038882193E+03 0.  0.
        3    1    3    3  502    0  0.36524679335E+03 -0.20882315065E+02 -0.49051139118E+03  0.61191725439E+03  0.10100000352E+00 0. -1.
       -3    1    3    3    0  502 -0.36524679335E+03  0.20882315065E+02 -0.67529317966E+02  0.37202353437E+03  0.10100000352E+00 0.  1.
</event>
<event>
 5   0  0.6517392E-03  0.7994320E+03  0.7818609E-02  0.9560840E-01
        1   -1    0    0  501    0  0.00000000000E+00  0.00000000000E+00  0.11917866163E+04  0.11917866163E+04  0.50400001928E-02 0. -1.
       -1   -1    0    0    0  501  0.00000000000E+00  0.00000000000E+00 -0.13406166216E+03  0.13406166225E+03  0.50400001928E-02 0.  1.
    10030    2    1    2    0    0  0.00000000000E+00  0.00000000000E+00  0.10577249542E+04  0.13258482786E+04  0.79943203536E+03 0.  0.
        3    1    3    3  502    0 -0.32413419234E+03  0.17268397567E+03  0.79051569341E+03  0.87166381238E+03  0.10100000352E+00 0. -1.
       -3    1    3    3    0  502  0.32413419234E+03 -0.17268397567E+03  0.26720926075E+03  0.45418446619E+03  0.10100000352E+00 0.  1.
</event>
<event>
 5   0  0.4385875E-03  0.8097828E+03  0.7818609E-02  0.9545964E-01
        3   -1    0    0  501    0  0.00000000000E+00  0.00000000000E+00  0.61624186127E+03  0.61624186955E+03  0.10100000352E+00 0.  1.
       -3   -1    0    0    0  501  0.00000000000E+00  0.00000000000E+00 -0.26602711298E+03  0.26602713216E+03  0.10100000352E+00 0. -1.
    10030    2    1    2    0    0  0.00000000000E+00  0.00000000000E+00  0.35021474829E+03  0.88226900171E+03  0.80978282364E+03 0.  0.
        5    1    3    3  502    0 -0.16307613901E+03 -0.36742318341E+03  0.22760045660E+03  0.46197151499E+03  0.46999998093E+01 0.  1.
       -5    1    3    3    0  502  0.16307613901E+03  0.36742318341E+03  0.12261429169E+03  0.42029748672E+03  0.46999998093E+01 0. -1.
</event>
<event>
 5   0  0.6600401E-03  0.7824466E+03  0.7818609E-02  0.9585778E-01
        1   -1    0    0  501    0  0.00000000000E+00  0.00000000000E+00  0.28986959721E+03  0.28986959725E+03  0.50400001928E-02 0.  1.
       -1   -1    0    0    0  501  0.00000000000E+00  0.00000000000E+00 -0.52801560233E+03  0.52801560235E+03  0.50400001928E-02 0. -1.
    10030    2    1    2    0    0  0.00000000000E+00  0.00000000000E+00 -0.23814600512E+03  0.81788519960E+03  0.78244659880E+03 0.  0.
        2    1    3    3  502    0  0.28875191394E+03 -0.22964394288E+03  0.16982353948E+02  0.36932696714E+03  0.25500000920E-02 0.  1.
       -2    1    3    3    0  502 -0.28875191394E+03  0.22964394288E+03 -0.25512835907E+03  0.44855823246E+03  0.25500000920E-02 0. -1.
</event>
<event>
 5   0  0.1154714E-02  0.7971715E+03  0.7818609E-02  0.9564120E-01
        2   -1    0    0  501    0  0.00000000000E+00  0.00000000000E+00  0.11415314041E+04  0.11415314041E+04  0.25500000920E-02 0.  1.
       -2   -1    0    0    0  501  0.00000000000E+00  0.00000000000E+00 -0.13917322141E+03  0.13917322144E+03  0.25500000920E-02 0. -1.
    10030    2    1    2    0    0  0.00000000000E+00  0.00000000000E+00  0.10023581827E+04  0.12807046256E+04  0.79717150695E+03 0.  0.
        5    1    3    3  502    0  0.21310591752E+03 -0.33156384568E+03  0.59622176393E+03  0.71473855194E+03  0.46999998093E+01 0. -1.
       -5    1    3    3    0  502 -0.21310591752E+03  0.33156384568E+03  0.40613641880E+03  0.56596607364E+03  0.46999998093E+01 0.  1.
</event>
<event>
 5   0  0.1092868E-02  0.7992818E+03  0.7818609E-02  0.9561057E-01
        2   -1    0    0  501    0  0.00000000000E+00  0.00000000000E+00  0.28140710487E+03  0.28140710488E+03  0.25500000920E-02 0.  1.
       -2   -1    0    0    0  501  0.00000000000E+00  0.00000000000E+00 -0.56755087839E+03  0.56755087839E+03  0.25500000920E-02 0. -1.
    10030    2    1    2    0    0  0.00000000000E+00  0.00000000000E+00 -0.28614377352E+03  0.84895798327E+03  0.79928180152E+03 0.  0.
        3    1    3    3  502    0 -0.19231544758E+03 -0.23655750750E+03  0.13138299189E+03  0.33197317134E+03  0.10100000352E+00 0.  1.
       -3    1    3    3    0  502  0.19231544758E+03  0.23655750750E+03 -0.41752676541E+03  0.51698481193E+03  0.10100000352E+00 0. -1.
</event>
<event>
 5   0  0.6557679E-03  0.7486497E+03  0.7818609E-02  0.9637471E-01
       -1   -1    0    0    0  501  0.00000000000E+00  0.00000000000E+00  0.46812360494E+03  0.46812360496E+03  0.50400001928E-02 0. -1.
        1   -1    0    0  501    0  0.00000000000E+00  0.00000000000E+00 -0.29932075190E+03  0.29932075194E+03  0.50400001928E-02 0.  1.
    10030    2    1    2    0    0  0.00000000000E+00  0.00000000000E+00  0.16880285304E+03  0.76744435691E+03  0.74864974304E+03 0.  0.
        1    1    3    3  502    0  0.36661566359E+03  0.40018882745E+02  0.18678275449E+02  0.36926607449E+03  0.50400001928E-02 0.  1.
       -1    1    3    3    0  502 -0.36661566359E+03 -0.40018882745E+02  0.15012457759E+03  0.39817828242E+03  0.50400001928E-02 0. -1.
</event>
<event>
 5   0  0.1119792E-02  0.8012442E+03  0.7818609E-02  0.9558218E-01
        2   -1    0    0  501    0  0.00000000000E+00  0.00000000000E+00  0.16315137559E+03  0.16315137561E+03  0.25500000920E-02 0.  1.
       -2   -1    0    0    0  501  0.00000000000E+00  0.00000000000E+00 -0.98373709272E+03  0.98373709273E+03  0.25500000920E-02 0. -1.
    10030    2    1    2    0    0  0.00000000000E+00  0.00000000000E+00 -0.82058571713E+03  0.11468884683E+04  0.80124418229E+03 0.  0.
        4    1    3    3  502    0  0.26837260816E+03  0.25589149515E+03 -0.62733593047E+03  0.72873609534E+03  0.12699999809E+01 0. -1.
       -4    1    3    3    0  502 -0.26837260816E+03 -0.25589149515E+03 -0.19324978666E+03  0.41815237300E+03  0.12699999809E+01 0.  1.
</event>
<event>
 5   0  0.1106332E-02  0.7995968E+03  0.7818609E-02  0.9560601E-01
        2   -1    0    0  501    0  0.00000000000E+00  0.00000000000E+00  0.61552204260E+03  0.61552204260E+03  0.25500000920E-02 0. -1.
       -2   -1    0    0    0  501  0.00000000000E+00  0.00000000000E+00 -0.25967999379E+03  0.25967999381E+03  0.25500000920E-02 0.  1.
    10030    2    1    2    0    0  0.00000000000E+00  0.00000000000E+00  0.35584204881E+03  0.87520203641E+03  0.79959679892E+03 0.  0.
        1    1    3    3  502    0 -0.30687262921E+03 -0.15793618747E+03  0.39880442268E+03  0.52740839721E+03  0.50400001928E-02 0. -1.
       -1    1    3    3    0  502  0.30687262921E+03  0.15793618747E+03 -0.42962373873E+02  0.34779363920E+03  0.50400001928E-02 0.  1.
</event>
<event>
 5   0  0.1092868E-02  0.8038286E+03  0.7818609E-02  0.9554492E-01
        2   -1    0    0  501    0  0.00000000000E+00  0.00000000000E+00  0.86269622420E+03  0.86269622420E+03  0.25500000920E-02 0. -1.
       -2   -1    0    0    0  501  0.00000000000E+00  0.00000000000E+00 -0.18724447553E+03  0.18724447555E+03  0.25500000920E-02 0.  1.
    10030    2    1    2    0    0  0.00000000000E+00  0.00000000000E+00  0.67545174866E+03  0.10499406997E+04  0.80382859380E+03 0.  0.
        3    1    3    3  502    0  0.33881556045E+03 -0.20093756594E+03  0.44191902970E+03  0.59200027738E+03  0.10100000352E+00 0. -1.
       -3    1    3    3    0  502 -0.33881556045E+03  0.20093756594E+03  0.23353271896E+03  0.45794042237E+03  0.10100000352E+00 0.  1.
</event>
<event>
 5   0  0.6596225E-03  0.8014079E+03  0.7818609E-02  0.9557981E-01
       -1   -1    0    0    0  501  0.00000000000E+00  0.00000000000E+00  0.11228047029E+03  0.11228047041E+03  0.50400001928E-02 0.  1.
        1   -1    0    0  501    0  0.00000000000E+00  0.00000000000E+00 -0.14300229701E+04  0.14300229701E+04  0.50400001928E-02 0. -1.
    10030    2    1    2    0    0  0.00000000000E+00  0.00000000000E+00 -0.13177424998E+04  0.15423034405E+04  0.80140789041E+03 0.  0.
        5    1    3    3  502    0  0.32185492191E+03 -0.23738426072E+03 -0.70599906867E+03  0.81141768095E+03  0.46999998093E+01 0. -1.
       -5    1    3    3    0  502 -0.32185492191E+03  0.23738426072E+03 -0.61174343111E+03  0.73088575954E+03  0.46999998093E+01 0.  1.
</event>
<event>
 5   0  0.6600401E-03  0.8321300E+03  0.7818609E-02  0.9514640E-01
        1   -1    0    0  501    0  0.00000000000E+00  0.00000000000E+00  0.10664508508E+04  0.10664508508E+04  0.50400001928E-02 0. -1.
       -1   -1    0    0    0  501  0.00000000000E+00  0.00000000000E+00 -0.16232356153E+03  0.16232356161E+03  0.50400001928E-02 0.  1.
    10030    2    1    2    0    0  0.00000000000E+00  0.00000000000E+00  0.90412728929E+03  0.12287744124E+04  0.83213003878E+03 0.  0.
        2    1    3    3  502    0  0.23733257904E+03 -0.29862945777E+03  0.69740194379E+03  0.79490614373E+03  0.25500000920E-02 0.  1.
       -2    1    3    3    0  502 -0.23733257904E+03  0.29862945777E+03  0.20672534550E+03  0.43386826872E+03  0.25500000920E-02 0. -1.
</event>
<event>
 5   0  0.6557679E-03  0.8007442E+03  0.7818609E-02  0.9558940E-01
       -1   -1    0    0    0  501  0.00000000000E+00  0.00000000000E+00  0.31702500850E+03  0.31702500854E+03  0.50400001928E-02 0. -1.
        1   -1    0    0  501    0  0.00000000000E+00  0.00000000000E+00 -0.50563150073E+03  0.50563150076E+03  0.50400001928E-02 0.  1.
    10030    2    1    2    0    0  0.00000000000E+00  0.00000000000E+00 -0.18860649223E+03  0.82265650930E+03  0.80074423094E+03 0.  0.
        1    1    3    3  502    0  0.95781681306E+02 -0.84455904648E+02  0.29554200110E+03  0.32195031409E+03  0.50400001928E-02 0. -1.
       -1    1    3    3    0  502 -0.95781681306E+02  0.84455904648E+02 -0.48414849333E+03  0.50070619521E+03  0.50400001928E-02 0.  1.
</event>
<event>
 5   0  0.1121480E-02  0.8002110E+03  0.7818609E-02  0.9559712E-01
       -2   -1    0    0    0  501  0.00000000000E+00  0.00000000000E+00  0.37738507063E+03  0.37738507064E+03  0.25500000920E-02 0. -1.
        2   -1    0    0  501    0  0.00000000000E+00  0.00000000000E+00 -0.42419384267E+03  0.42419384268E+03  0.25500000920E-02 0.  1.
    10030    2    1    2    0    0  0.00000000000E+00  0.00000000000E+00 -0.46808772037E+02  0.80157891332E+03  0.80021103038E+03 0.  0.
        2    1    3    3  502    0 -0.31970156903E+03  0.11979772297E+03  0.18557590568E+03  0.38858590356E+03  0.25500000920E-02 0. -1.
       -2    1    3    3    0  502  0.31970156903E+03 -0.11979772297E+03 -0.23238467771E+03  0.41299300976E+03  0.25500000920E-02 0.  1.
</event>
<event>
 5   0  0.1119792E-02  0.7893200E+03  0.7818609E-02  0.9575606E-01
        2   -1    0    0  501    0  0.00000000000E+00  0.00000000000E+00  0.38816162195E+03  0.38816162196E+03  0.25500000920E-02 0. -1.
       -2   -1    0    0    0  501  0.00000000000E+00  0.00000000000E+00 -0.40126718155E+03  0.40126718156E+03  0.25500000920E-02 0.  1.
    10030    2    1    2    0    0  0.00000000000E+00  0.00000000000E+00 -0.13105559603E+02  0.78942880352E+03  0.78932001123E+03 0.  0.
        4    1    3    3  502    0 -0.35524418403E+03 -0.15762996694E+03 -0.75186362087E+02  0.39585380977E+03  0.12699999809E+01 0.  1.
       -4    1    3    3    0  502  0.35524418403E+03  0.15762996694E+03  0.62080802484E+02  0.39357499375E+03  0.12699999809E+01 0. -1.
</event>
<event>
 5   0  0.6600401E-03  0.7962380E+03  0.7818609E-02  0.9565479E-01
       -1   -1    0    0    0  501  0.00000000000E+00  0.00000000000E+00  0.96269585896E+02  0.96269586027E+02  0.50400001928E-02 0. -1.
        1   -1    0    0  501    0  0.00000000000E+00  0.00000000000E+00 -0.16464049511E+04  0.16464049511E+04  0.50400001928E-02 0.  1.
    10030    2    1    2    0    0  0.00000000000E+00  0.00000000000E+00 -0.15501353652E+04  0.17426745372E+04  0.79623796188E+03 0.  0.
        2    1    3    3  502    0 -0.26743016634E+03  0.95535930655E+02 -0.16439247651E+03  0.32813243402E+03  0.25500000920E-02 0. -1.
       -2    1    3    3    0  502  0.26743016634E+03 -0.95535930655E+02 -0.13857428887E+04  0.14145421032E+04  0.25500000920E-02 0.  1.
</event>
<event>
 5   0  0.4385875E-03  0.8037884E+03  0.7818609E-02  0.9554550E-01
        3   -1    0    0  501    0  0.00000000000E+00  0.00000000000E+00  0.16001552616E+03  0.16001555803E+03  0.10100000352E+00 0.  1.
       -3   -1    0    0    0  501  0.00000000000E+00  0.00000000000E+00 -0.10093952639E+04  0.10093952690E+04  0.10100000352E+00 0. -1.
    10030    2    1    2    0    0  0.00000000000E+00  0.00000000000E+00 -0.84937973774E+03  0.11694108270E+04  0.80378836977E+03 0.  0.
        3    1    3    3  502    0 -0.15692337199E+03  0.32754322394E+03 -0.67503567693E+03  0.76653942074E+03  0.10100000352E+00 0. -1.
       -3    1    3    3    0  502  0.15692337199E+03 -0.32754322394E+03 -0.17434406081E+03  0.40287140624E+03  0.10100000352E+00 0.  1.
</event>
<event>
 5   0  0.6596225E-03  0.7773279E+03  0.7818609E-02  0.9593427E-01
        1   -1    0    0  501    0  0.00000000000E+00  0.00000000000E+00  0.33191050188E+03  0.33191050192E+03  0.50400001928E-02 0.  1.
       -1   -1    0    0    0  501  0.00000000000E+00  0.00000000000E+00 -0.45512163916E+03  0.45512163919E+03  0.50400001928E-02 0. -1.
    10030    2    1    2    0    0  0.00000000000E+00  0.00000000000E+00 -0.12321113728E+03  0.78703214110E+03  0.77732786312E+03 0.  0.
        5    1    3    3  502    0 -0.94575092519E+02 -0.30765077986E+03 -0.28214151678E+03  0.42804132507E+03  0.46999998093E+01 0. -1.
       -5    1    3    3    0  502  0.94575092519E+02  0.30765077986E+03  0.15893037950E+03  0.35899081604E+03  0.46999998093E+01 0.  1.
</event>
<event>
 5   0  0.6600401E-03  0.7885401E+03  0.7818609E-02  0.9576755E-01
       -1   -1    0    0    0  501  0.00000000000E+00  0.00000000000E+00  0.68607052270E+03  0.68607052272E+03  0.50400001928E-02 0. -1.
        1   -1    0    0  501    0  0.00000000000E+00  0.00000000000E+00 -0.22657854662E+03  0.22657854667E+03  0.50400001928E-02 0.  1.
    10030    2    1    2    0    0  0.00000000000E+00  0.00000000000E+00  0.45949197608E+03  0.91264906939E+03  0.78854007367E+03 0.  0.
        2    1    3    3  502    0  0.20602795511E+03 -0.88272291170E+02  0.60515717249E+03  0.64533302961E+03  0.25500000920E-02 0. -1.
       -2    1    3    3    0  502 -0.20602795511E+03  0.88272291170E+02 -0.14566519641E+03  0.26731603979E+03  0.25500000920E-02 0.  1.
</event>
<event>
 5   0  0.4385875E-03  0.8012220E+03  0.7818609E-02  0.9558250E-01
       -3   -1    0    0    0  501  0.00000000000E+00  0.00000000000E+00  0.95274892645E+02  0.95274946180E+02  0.10100000352E+00 0. -1.
        3   -1    0    0  501    0  0.00000000000E+00  0.00000000000E+00 -0.16844849171E+04  0.16844849201E+04  0.10100000352E+00 0.  1.
    10030    2    1    2    0    0  0.00000000000E+00  0.00000000000E+00 -0.15892100245E+04  0.17797598663E+04  0.80122199165E+03 0.  0.
        2    1    3    3  502    0  0.40028544712E+03 -0.15610429174E+02 -0.78543413660E+03  0.88169093656E+03  0.25500000920E-02 0. -1.
       -2    1    3    3    0  502 -0.40028544712E+03  0.15610429174E+02 -0.80377588788E+03  0.89806892977E+03  0.25500000920E-02 0.  1.
</event>
<event>
 5   0  0.1121480E-02  0.8099405E+03  0.7818609E-02  0.9545739E-01
       -2   -1    0    0    0  501  0.00000000000E+00  0.00000000000E+00  0.21045393521E+03  0.21045393522E+03  0.25500000920E-02 0. -1.
        2   -1    0    0  501    0  0.00000000000E+00  0.00000000000E+00 -0.77927216691E+03  0.77927216691E+03  0.25500000920E-02 0.  1.
    10030    2    1    2    0    0  0.00000000000E+00  0.00000000000E+00 -0.56881823170E+03  0.98972610214E+03  0.80994047716E+03 0.  0.
        2    1    3    3  502    0 -0.20205536210E+03 -0.20592557280E+03 -0.63169310872E+03  0.69445510618E+03  0.25500000920E-02 0.  1.
       -2    1    3    3    0  502  0.20205536210E+03  0.20592557280E+03  0.62874877017E+02  0.29527099596E+03  0.25500000920E-02 0. -1.
</event>
<event>
 5   0  0.1092868E-02  0.7697446E+03  0.7818609E-02  0.9604873E-01
       -2   -1    0    0    0  501  0.00000000000E+00  0.00000000000E+00  0.25309490839E+03  0.25309490840E+03  0.25500000920E-02 0.  1.
        2   -1    0    0  501    0  0.00000000000E+00  0.00000000000E+00 -0.58526148625E+03  0.58526148626E+03  0.25500000920E-02 0. -1.
    10030    2    1    2    0    0  0.00000000000E+00  0.00000000000E+00 -0.33216657787E+03  0.83835639466E+03  0.76974463884E+03 0.  0.
        3    1    3    3  502    0 -0.34363490714E+02  0.20874253395E+02  0.25080126369E+03  0.25400367717E+03  0.10100000352E+00 0.  1.
       -3    1    3    3    0  502  0.34363490714E+02 -0.20874253395E+02 -0.58296784155E+03  0.58435271749E+03  0.10100000352E+00 0. -1.
</event>
<event>
 5   0  0.1121480E-02  0.7982077E+03  0.7818609E-02  0.9562615E-01
        2   -1    0    0  501    0  0.00000000000E+00  0.00000000000E+00  0.28752811920E+03  0.28752811922E+03  0.25500000920E-02 0. -1.
       -2   -1    0    0    0  501  0.00000000000E+00  0.00000000000E+00 -0.55397677974E+03  0.55397677975E+03  0.25500000920E-02 0.  1.
    10030    2    1    2    0    0  0.00000000000E+00  0.00000000000E+00 -0.26644866054E+03  0.84150489897E+03  0.79820774632E+03 0.  0.
        2    1    3    3  502    0 -0.23656118981E+03  0.11206658404E+03  0.18438774945E+03  0.32018581783E+03  0.25500000920E-02 0.  1.
       -2    1    3    3    0  502  0.23656118981E+03 -0.11206658404E+03 -0.45083640999E+03  0.52131908114E+03  0.25500000920E-02 0. -1.
</event>
<event>
 5   0  0.6517392E-03  0.8026827E+03  0.7818609E-02  0.9556142E-01
        1   -1    0    0  501    0  0.00000000000E+00  0.00000000000E+00  0.12453245264E+04  0.12453245264E+04  0.50400001928E-02 0. -1.
       -1   -1    0    0    0  501  0.00000000000E+00  0.00000000000E+00 -0.12934369915E+03  0.12934369925E+03  0.50400001928E-02 0.  1.
    10030    2    1    2    0    0  0.00000000000E+00  0.00000000000E+00  0.11159808272E+04  0.13746682256E+04  0.80268270434E+03 0.  0.
        3    1    3    3  502    0 -0.10316217908E+02  0.38089774086E+03  0.77384062809E+03  0.86256526781E+03  0.10100000352E+00 0. -1.
       -3    1    3    3    0  502  0.10316217908E+02 -0.38089774086E+03  0.34214019911E+03  0.51210295781E+03  0.10100000352E+00 0.  1.
</event>
<event>
 5   0  0.6596225E-03  0.8066439E+03  0.7818609E-02  0.9550450E-01
        1   -1    0    0  501    0  0.00000000000E+00  0.00000000000E+00  0.78175813396E+03  0.78175813398E+03  0.50400001928E-02 0.  1.
       -1   -1    0    0    0  501  0.00000000000E+00  0.00000000000E+00 -0.20808047310E+03  0.20808047316E+03  0.50400001928E-02 0. -1.
    10030    2    1    2    0    0  0.00000000000E+00  0.00000000000E+00  0.57367766087E+03  0.98983860714E+03  0.80664391747E+03 0.  0.
        5    1    3    3  502    0  0.98882553057E+02  0.80499070587E+02  0.75633951775E+03  0.76702634620E+03  0.46999998093E+01 0.  1.
       -5    1    3    3    0  502 -0.98882553057E+02 -0.80499070587E+02 -0.18266185688E+03  0.22281226093E+03  0.46999998093E+01 0. -1.
</event>
<event>
 5   0  0.1154714E-02  0.8027348E+03  0.7818609E-02  0.9556067E-01
       -2   -1    0    0    0  501  0.00000000000E+00  0.00000000000E+00  0.16441620199E+03  0.16441620201E+03  0.25500000920E-02 0.  1.
        2   -1    0    0  501    0  0.00000000000E+00  0.00000000000E+00 -0.97980472290E+03  0.97980472290E+03  0.25500000920E-02 0. -1.
    10030    2    1    2    0    0  0.00000000000E+00  0.00000000000E+00 -0.81538852091E+03  0.11442209249E+04  0.80273475382E+03 0.  0.
        5    1    3    3  502    0 -0.66837604363E+01 -0.31363692574E+03 -0.50885022153E+02  0.31784299476E+03  0.46999998093E+01 0.  1.
       -5    1    3    3    0  502  0.66837604363E+01  0.31363692574E+03 -0.76450349875E+03  0.82637793015E+03  0.46999998093E+01 0. -1.
</event>
<event>
 5   0  0.6596225E-03  0.7944049E+03  0.7818609E-02  0.9568151E-01
        1   -1    0    0  501    0  0.00000000000E+00  0.00000000000E+00  0.29787941822E+03  0.29787941826E+03  0.50400001928E-02 0.  1.
       -1   -1    0    0    0  501  0.00000000000E+00  0.00000000000E+00 -0.52964316066E+03  0.52964316068E+03  0.50400001928E-02 0. -1.
    10030    2    1    2    0    0  0.00000000000E+00  0.00000000000E+00 -0.23176374244E+03  0.82752257894E+03  0.79440492593E+03 0.  0.
        5    1    3    3  502    0  0.11171020227E+03  0.25175488385E+03 -0.41397234531E+03  0.49724730619E+03  0.46999998093E+01 0. -1.
       -5    1    3    3    0  502 -0.11171020227E+03 -0.25175488385E+03  0.18220860287E+03  0.33027527275E+03  0.46999998093E+01 0.  1.
</event>
<event>
 5   0  0.6600401E-03  0.8029757E+03  0.7818609E-02  0.9555720E-01
       -1   -1    0    0    0  501  0.00000000000E+00  0.00000000000E+00  0.17112825150E+03  0.17112825158E+03  0.50400001928E-02 0.  1.
        1   -1    0    0  501    0  0.00000000000E+00  0.00000000000E+00 -0.94193980849E+03  0.94193980850E+03  0.50400001928E-02 0. -1.
    10030    2    1    2    0    0  0.00000000000E+00  0.00000000000E+00 -0.77081155698E+03  0.11130680601E+04  0.80297574682E+03 0.  0.
        2    1    3    3  502    0 -0.81049216354E+02 -0.65444640172E+02  0.15206807252E+03  0.18432762974E+03  0.25500000920E-02 0.  1.
       -2    1    3    3    0  502  0.81049216354E+02  0.65444640172E+02 -0.92287962950E+03  0.92874043034E+03  0.25500000920E-02 0. -1.
</event>
<event>
 5   0  0.1154714E-02  0.7667583E+03  0.7818609E-02  0.9609420E-01
        2   -1    0    0  501    0  0.00000000000E+00  0.00000000000E+00  0.53760874469E+03  0.53760874470E+03  0.25500000920E-02 0.  1.
       -2   -1    0    0    0  501  0.00000000000E+00  0.00000000000E+00 -0.27339505621E+03  0.27339505622E+03  0.25500000920E-02 0. -1.
    10030    2    1    2    0    0  0.00000000000E+00  0.00000000000E+00  0.26421368848E+03  0.81100380092E+03  0.76675830085E+03 0.  0.
        5    1    3    3  502    0 -0.24989216177E+03  0.16976939700E+03 -0.11749742397E+03  0.32418432305E+03  0.46999998093E+01 0. -1.
       -5    1    3    3    0  502  0.24989216177E+03 -0.16976939700E+03  0.38171111245E+03  0.48681947787E+03  0.46999998093E+01 0.  1.
</event>
<event>
 5   0  0.6557679E-03  0.7974963E+03  0.7818609E-02  0.9563648E-01
        1   -1    0    0  501    0  0.00000000000E+00  0.00000000000E+00  0.51407700904E+03  0.51407700906E+03  0.50400001928E-02 0. -1.
       -1   -1    0    0    0  501  0.00000000000E+00  0.00000000000E+00 -0.30929236425E+03  0.30929236429E+03  0.50400001928E-02 0.  1.
    10030    2    1    2    0    0  0.00000000000E+00  0.00000000000E+00  0.20478464479E+03  0.82336937335E+03  0.79749631612E+03 0.  0.
        1    1    3    3  502    0  0.36185327037E+03 -0.12957600683E+03  0.21200820884E+03  0.43894784595E+03  0.50400001928E-02 0.  1.
       -1    1    3    3    0  502 -0.36185327037E+03  0.12957600683E+03 -0.72235640502E+01  0.38442152740E+03  0.50400001928E-02 0. -1.
</event>
<event>
 5   0  0.1092868E-02  0.7992032E+03  0.7818609E-02  0.9561171E-01
        2   -1    0    0  501    0  0.00000000000E+00  0.00000000000E+00  0.14954507973E+04  0.14954507973E+04  0.25500000920E-02 0. -1.
       -2   -1    0    0    0  501  0.00000000000E+00  0.00000000000E+00 -0.10677812399E+03  0.10677812402E+03  0.25500000920E-02 0.  1.
    10030    2    1    2    0    0  0.00000000000E+00  0.00000000000E+00  0.13886726733E+04  0.16022289214E+04  0.79920317990E+03 0.  0.
        3    1    3    3  502    0 -0.37156622820E+03  0.18705658663E+01  0.98909029475E+03  0.10565815550E+04  0.10100000352E+00 0. -1.
       -3    1    3    3    0  502  0.37156622820E+03 -0.18705658663E+01  0.39958237859E+03  0.54564736638E+03  0.10100000352E+00 0.  1.
</event>
<event>
 5   0  0.1106332E-02  0.8263257E+03  0.7818609E-02  0.9522674E-01
        2   -1    0    0  501    0  0.00000000000E+00  0.00000000000E+00  0.39892970911E+03  0.39892970911E+03  0.25500000920E-02 0.  1.
       -2   -1    0    0    0  501  0.00000000000E+00  0.00000000000E+00 -0.42790381457E+03  0.42790381458E+03  0.25500000920E-02 0. -1.
    10030    2    1    2    0    0  0.00000000000E+00  0.00000000000E+00 -0.28974105465E+02  0.82683352369E+03  0.82632570886E+03 0.  0.
        1    1    3    3  502    0 -0.40014113134E+03 -0.28611264471E+02  0.84427199014E+02  0.40995058410E+03  0.50400001928E-02 0. -1.
       -1    1    3    3    0  502  0.40014113134E+03  0.28611264471E+02 -0.11340130448E+03  0.41688293960E+03  0.50400001928E-02 0.  1.
</event>
<event>
 5   0  0.1092868E-02  0.7985601E+03  0.7818609E-02  0.9562104E-01
        2   -1    0    0  501    0  0.00000000000E+00  0.00000000000E+00  0.57723807513E+03  0.57723807514E+03  0.25500000920E-02 0.  1.
       -2   -1    0    0    0  501  0.00000000000E+00  0.00000000000E+00 -0.27618508713E+03  0.27618508714E+03  0.25500000920E-02 0. -1.
    10030    2    1    2    0    0  0.00000000000E+00  0.00000000000E+00  0.30105298800E+03  0.85342316228E+03  0.79856007434E+03 0.  0.
        3    1    3    3  502    0 -0.17499338900E+03 -0.68354860207E+02  0.52705189010E+03  0.55953442983E+03  0.10100000352E+00 0.  1.
       -3    1    3    3    0  502  0.17499338900E+03  0.68354860207E+02 -0.22599890210E+03  0.29388873245E+03  0.10100000352E+00 0. -1.
</event>
<event>
 5   0  0.4385875E-03  0.8018855E+03  0.7818609E-02  0.9557292E-01
        4   -1    0    0  501    0  0.00000000000E+00  0.00000000000E+00  0.23362071026E+03  0.23362416219E+03  0.12699999809E+01 0.  1.
       -4   -1    0    0    0  501  0.00000000000E+00  0.00000000000E+00 -0.68809370877E+03  0.68809488077E+03  0.12699999809E+01 0. -1.
    10030    2    1    2    0    0  0.00000000000E+00  0.00000000000E+00 -0.45447299851E+03  0.92171904296E+03  0.80188545802E+03 0.  0.
        3    1    3    3  502    0  0.11377573809E+03  0.60908551570E+02 -0.66357009417E+03  0.67600299578E+03  0.10100000352E+00 0. -1.
       -3    1    3    3    0  502 -0.11377573809E+03 -0.60908551570E+02  0.20909709565E+03  0.24571604718E+03  0.10100000352E+00 0.  1.
</event>
<event>
 5   0  0.1119792E-02  0.8061545E+03  0.7818609E-02  0.9551151E-01
        2   -1    0    0  501    0  0.00000000000E+00  0.00000000000E+00  0.57725048311E+03  0.57725048311E+03  0.25500000920E-02 0.  1.
       -2   -1    0    0    0  501  0.00000000000E+00  0.00000000000E+00 -0.28145714861E+03  0.28145714862E+03  0.25500000920E-02 0. -1.
    10030    2    1    2    0    0  0.00000000000E+00  0.00000000000E+00  0.29579333449E+03  0.85870763174E+03  0.80615451377E+03 0.  0.
        4    1    3    3  502    0  0.43021475816E+02  0.10696348456E+03 -0.26351715726E+03  0.28763681871E+03  0.12699999809E+01 0. -1.
       -4    1    3    3    0  502 -0.43021475816E+02 -0.10696348456E+03  0.55931049175E+03  0.57107081303E+03  0.12699999809E+01 0.  1.
</event>
<event>
 5   0  0.6596225E-03  0.7767879E+03  0.7818609E-02  0.9594237E-01
       -1   -1    0    0    0  501  0.00000000000E+00  0.00000000000E+00  0.93903052963E+02  0.93903053098E+02  0.50400001928E-02 0. -1.
        1   -1    0    0  501    0  0.00000000000E+00  0.00000000000E+00 -0.16064425401E+04  0.16064425401E+04  0.50400001928E-02 0.  1.
    10030    2    1    2    0    0  0.00000000000E+00  0.00000000000E+00 -0.15125394872E+04  0.17003455932E+04  0.77678789653E+03 0.  0.
        5    1    3    3  502    0  0.45349402038E+02  0.33850791080E+03 -0.11609794478E+04  0.12101816153E+04  0.46999998093E+01 0.  1.
       -5    1    3    3    0  502 -0.45349402038E+02 -0.33850791080E+03 -0.35156003939E+03  0.49016397790E+03  0.46999998093E+01 0. -1.
</event>
<event>
 5   0  0.4385875E-03  0.8038357E+03  0.7818609E-02  0.9554482E-01
       -4   -1    0    0    0  501  0.00000000000E+00  0.00000000000E+00  0.56103143280E+03  0.56103287024E+03  0.12699999809E+01 0.  1.
        4   -1    0    0  501    0  0.00000000000E+00  0.00000000000E+00 -0.28792709777E+03  0.28792989864E+03  0.12699999809E+01 0. -1.
    10030    2    1    2    0    0  0.00000000000E+00  0.00000000000E+00  0.27310433503E+03  0.84896276888E+03  0.80383568292E+03 0.  0.
        1    1    3    3  502    0  0.17200339698E+03  0.94769542289E+02  0.50691178619E+03  0.54362302538E+03  0.50400001928E-02 0.  1.
       -1    1    3    3    0  502 -0.17200339698E+03 -0.94769542289E+02 -0.23380745116E+03  0.30533974350E+03  0.50400001928E-02 0. -1.
</event>
<event>
 5   0  0.4385875E-03  0.8048789E+03  0.7818609E-02  0.9552982E-01
       -3   -1    0    0    0  501  0.00000000000E+00  0.00000000000E+00  0.10473411055E+04  0.10473411104E+04  0.10100000352E+00 0. -1.
        3   -1    0    0  501    0  0.00000000000E+00  0.00000000000E+00 -0.15463682620E+03  0.15463685919E+03  0.10100000352E+00 0.  1.
    10030    2    1    2    0    0  0.00000000000E+00  0.00000000000E+00  0.89270427929E+03  0.12019779695E+04  0.80487894060E+03 0.  0.
        1    1    3    3  502    0  0.84802646192E+02 -0.43303917729E+02 -0.13757227351E+03  0.16731063491E+03  0.50400001928E-02 0.  1.
       -1    1    3    3    0  502 -0.84802646192E+02  0.43303917729E+02  0.10302765528E+04  0.10346673346E+04  0.50400001928E-02 0. -1.
</event>
<event>
 5   0  0.4385875E-03  0.7692839E+03  0.7818609E-02  0.9605573E-01
       -3   -1    0    0    0  501  0.00000000000E+00  0.00000000000E+00  0.14407527391E+03  0.14407530931E+03  0.10100000352E+00 0.  1.
        3   -1    0    0  501    0  0.00000000000E+00  0.00000000000E+00 -0.10268896040E+04  0.10268896090E+04  0.10100000352E+00 0. -1.
    10030    2    1    2    0    0  0.00000000000E+00  0.00000000000E+00 -0.88281433010E+03  0.11709649183E+04  0.76928388677E+03 0.  0.
        1    1    3    3  502    0  0.35528613564E+03  0.47510219333E+02 -0.65376725996E+03  0.74558506513E+03  0.50400001928E-02 0. -1.
       -1    1    3    3    0  502 -0.35528613564E+03 -0.47510219333E+02 -0.22904707014E+03  0.42537985317E+03  0.50400001928E-02 0.  1.
</event>
<event>
 5   0  0.6596225E-03  0.7907312E+03  0.7818609E-02  0.9573531E-01
        1   -1    0    0  501    0  0.00000000000E+00  0.00000000000E+00  0.69000206324E+03  0.69000206326E+03  0.50400001928E-02 0. -1.
       -1   -1    0    0    0  501  0.00000000000E+00  0.00000000000E+00 -0.22654127764E+03  0.22654127770E+03  0.50400001928E-02 0.  1.
    10030    2    1    2    0    0  0.00000000000E+00  0.00000000000E+00  0.46346078559E+03  0.91654334095E+03  0.79073117813E+03 0.  0.
        5    1    3    3  502    0  0.76898894738E+02  0.38777827200E+03  0.23466977208E+03  0.45975800175E+03  0.46999998093E+01 0.  1.
       -5    1    3    3    0  502 -0.76898894738E+02 -0.38777827200E+03  0.22879101352E+03  0.45678533921E+03  0.46999998093E+01 0. -1.
</event>
<event>
 5   0  0.6600401E-03  0.7084988E+03  0.7818609E-02  0.9702808E-01
       -1   -1    0    0    0  501  0.00000000000E+00  0.00000000000E+00  0.13716315237E+03  0.13716315246E+03  0.50400001928E-02 0.  1.
        1   -1    0    0  501    0  0.00000000000E+00  0.00000000000E+00 -0.91491500893E+03  0.91491500894E+03  0.50400001928E-02 0. -1.
    10030    2    1    2    0    0  0.00000000000E+00  0.00000000000E+00 -0.77775185656E+03  0.10520781614E+04  0.70849877017E+03 0.  0.
        2    1    3    3  502    0 -0.34071242253E+02 -0.11550817844E+03 -0.88358528273E+03  0.89175441726E+03  0.25500000920E-02 0. -1.
       -2    1    3    3    0  502  0.34071242253E+02  0.11550817844E+03  0.10583342617E+03  0.16032374415E+03  0.25500000920E-02 0.  1.
</event>
<event>
 5   0  0.6517392E-03  0.8076758E+03  0.7818609E-02  0.9548973E-01
        1   -1    0    0  501    0  0.00000000000E+00  0.00000000000E+00  0.63574462510E+03  0.63574462512E+03  0.50400001928E-02 0.  1.
       -1   -1    0    0    0  501  0.00000000000E+00  0.00000000000E+00 -0.25652605260E+03  0.25652605265E+03  0.50400001928E-02 0. -1.
    10030    2    1    2    0    0  0.00000000000E+00  0.00000000000E+00  0.37921857250E+03  0.89227067777E+03  0.80767582400E+03 0.  0.
        3    1    3    3  502    0 -0.22432828443E+03  0.32163276811E+03  0.82990663256E+02  0.40082200178E+03  0.10100000352E+00 0.  1.
       -3    1    3    3    0  502  0.22432828443E+03 -0.32163276811E+03  0.29622790925E+03  0.49144867599E+03  0.10100000352E+00 0. -1.
</event>
<event>
 5   0  0.6596225E-03  0.7891268E+03  0.7818609E-02  0.9575890E-01
        1   -1    0    0  501    0  0.00000000000E+00  0.00000000000E+00  0.66778166908E+03  0.66778166910E+03  0.50400001928E-02 0.  1.
       -1   -1    0    0    0  501  0.00000000000E+00  0.00000000000E+00 -0.23313050744E+03  0.23313050749E+03  0.50400001928E-02 0. -1.
    10030    2    1    2    0    0  0.00000000000E+00  0.00000000000E+00  0.43465116164E+03  0.90091217660E+03  0.78912680706E+03 0.  0.
        5    1    3    3  502    0 -0.28040084053E+03 -0.27595372859E+03  0.25125215752E+03  0.46682419427E+03  0.46999998093E+01 0. -1.
       -5    1    3    3    0  502  0.28040084053E+03  0.27595372859E+03  0.18339900412E+03  0.43408798233E+03  0.46999998093E+01 0.  1.
</event>
<event>
 5   0  0.1154714E-02  0.8165822E+03  0.7818609E-02  0.9536320E-01
       -2   -1    0    0    0  501  0.00000000000E+00  0.00000000000E+00  0.15552087373E+03  0.15552087375E+03  0.25500000920E-02 0. -1.
        2   -1    0    0  501    0  0.00000000000E+00  0.00000000000E+00 -0.10718922506E+04  0.10718922506E+04  0.25500000920E-02 0.  1.
    10030    2    1    2    0    0  0.00000000000E+00  0.00000000000E+00 -0.91637137689E+03  0.12274131244E+04  0.81658219275E+03 0.  0.
        5    1    3    3  502    0 -0.31264858293E+02  0.40668225223E+03 -0.48471819312E+03  0.63351540027E+03  0.46999998093E+01 0. -1.
       -5    1    3    3    0  502  0.31264858293E+02 -0.40668225223E+03 -0.43165318377E+03  0.59389772410E+03  0.46999998093E+01 0.  1.
</event>
<event>
 5   0  0.6557679E-03  0.7997470E+03  0.7818609E-02  0.9560383E-01
       -1   -1    0    0    0  501  0.00000000000E+00  0.00000000000E+00  0.43278817067E+03  0.43278817070E+03  0.50400001928E-02 0.  1.
        1   -1    0    0  501    0  0.00000000000E+00  0.00000000000E+00 -0.36946206956E+03  0.36946206959E+03  0.50400001928E-02 0. -1.
    10030    2    1    2    0    0  0.00000000000E+00  0.00000000000E+00  0.63326101116E+02  0.80225024029E+03  0.79974699310E+03 0.  0.
        1    1    3    3  502    0  0.20251358015E+03  0.32583200984E+03 -0.81475453241E+02  0.39219446488E+03  0.50400001928E-02 0. -1.
       -1    1    3    3    0  502 -0.20251358015E+03 -0.32583200984E+03  0.14480155436E+03  0.41005577541E+03  0.50400001928E-02 0.  1.
</event>
<event>
 5   0  0.6596225E-03  0.7972700E+03  0.7818609E-02  0.9563977E-01
       -1   -1    0    0    0  501  0.00000000000E+00  0.00000000000E+00  0.30431735848E+03  0.30431735853E+03  0.50400001928E-02 0. -1.
        1   -1    0    0  501    0  0.00000000000E+00  0.00000000000E+00 -0.52218467097E+03  0.52218467099E+03  0.50400001928E-02 0.  1.
    10030    2    1    2    0    0  0.00000000000E+00  0.00000000000E+00 -0.21786731248E+03  0.82650202952E+03  0.79726999125E+03 0.  0.
        5    1    3    3  502    0 -0.10549900459E+03  0.11054143758E+03  0.27272011329E+03  0.31264644502E+03  0.46999998093E+01 0. -1.
       -5    1    3    3    0  502  0.10549900459E+03 -0.11054143758E+03 -0.49058742578E+03  0.51385558450E+03  0.46999998093E+01 0.  1.
</event>
<event>
 5   0  0.6551489E-03  0.8047059E+03  0.7818609E-02  0.9553230E-01
        1   -1    0    0  501    0  0.00000000000E+00  0.00000000000E+00  0.55532662435E+03  0.55532662438E+03  0.50400001928E-02 0. -1.
       -1   -1    0    0    0  501  0.00000000000E+00  0.00000000000E+00 -0.29151835316E+03  0.29151835320E+03  0.50400001928E-02 0.  1.
    10030    2    1    2    0    0  0.00000000000E+00  0.00000000000E+00  0.26380827119E+03  0.84684497758E+03  0.80470591653E+03 0.  0.
        4    1    3    3  502    0 -0.32573725537E+03 -0.12072029021E+03 -0.81723896114E+02  0.35687330539E+03  0.12699999809E+01 0.  1.
       -4    1    3    3    0  502  0.32573725537E+03  0.12072029021E+03  0.34553216731E+03  0.48997167219E+03  0.12699999809E+01 0. -1.
</event>
<event>
 5   0  0.6600401E-03  0.7825248E+03  0.7818609E-02  0.9585662E-01
        1   -1    0    0  501    0  0.00000000000E+00  0.00000000000E+00  0.17677799663E+03  0.17677799670E+03  0.50400001928E-02 0. -1.
       -1   -1    0    0    0  501  0.00000000000E+00  0.00000000000E+00 -0.86598028682E+03  0.86598028683E+03  0.50400001928E-02 0.  1.
    10030    2    1    2    0    0  0.00000000000E+00  0.00000000000E+00 -0.68920229019E+03  0.10427582835E+04  0.78252478625E+03 0.  0.
        2    1    3    3  502    0 -0.18855025950E+03 -0.33904307759E+03 -0.41235021546E+03  0.56615731826E+03  0.25500000920E-02 0.  1.
       -2    1    3    3    0  502  0.18855025950E+03  0.33904307759E+03 -0.27685207473E+03  0.47660096528E+03  0.25500000920E-02 0. -1.
</event>
<event>
 5   0  0.1121480E-02  0.8074929E+03  0.7818609E-02  0.9549234E-01
        2   -1    0    0  501    0  0.00000000000E+00  0.00000000000E+00  0.22558009358E+04  0.22558009358E+04  0.25500000920E-02 0.  1.
       -2   -1    0    0    0  501  0.00000000000E+00  0.00000000000E+00 -0.72263120278E+02  0.72263120323E+02  0.25500000920E-02 0. -1.
    10030    2    1    2    0    0  0.00000000000E+00  0.00000000000E+00  0.21835378155E+04  0.23280640561E+04  0.80749294585E+03 0.  0.
        2    1    3    3  502    0  0.27336682235E+02 -0.14649866778E+03  0.21736030757E+04  0.21787059197E+04  0.25500000920E-02 0.  1.
       -2    1    3    3    0  502 -0.27336682235E+02  0.14649866778E+03  0.99347398360E+01  0.14935813643E+03  0.25500000920E-02 0. -1.
</event>
<event>
 5   0  0.1092868E-02  0.8016014E+03  0.7818609E-02  0.9557702E-01
        2   -1    0    0  501    0  0.00000000000E+00  0.00000000000E+00  0.59686097040E+03  0.59686097041E+03  0.25500000920E-02 0. -1.
       -2   -1    0    0    0  501  0.00000000000E+00  0.00000000000E+00 -0.26914338937E+03  0.26914338939E+03  0.25500000920E-02 0.  1.
    10030    2    1    2    0    0  0.00000000000E+00  0.00000000000E+00  0.32771758103E+03  0.86600435979E+03  0.80160135870E+03 0.  0.
        3    1    3    3  502    0 -0.31566528394E+03 -0.10064776032E+02  0.43045473113E+03  0.53388871214E+03  0.10100000352E+00 0. -1.
       -3    1    3    3    0  502  0.31566528394E+03  0.10064776032E+02 -0.10273715010E+03  0.33211564765E+03  0.10100000352E+00 0.  1.
</event>
<event>
 5   0  0.1119792E-02  0.8004461E+03  0.7818609E-02  0.9559372E-01
        2   -1    0    0  501    0  0.00000000000E+00  0.00000000000E+00  0.12311517216E+04  0.12311517216E+04  0.25500000920E-02 0.  1.
       -2   -1    0    0    0  501  0.00000000000E+00  0.00000000000E+00 -0.13010458435E+03  0.13010458438E+03  0.25500000920E-02 0. -1.
    10030    2    1    2    0    0  0.00000000000E+00  0.00000000000E+00  0.11010471373E+04  0.13612563060E+04  0.80044608322E+03 0.  0.
        4    1    3    3  502    0 -0.15472391780E+03  0.19168724822E+03  0.14103633243E+02  0.24674686876E+03  0.12699999809E+01 0. -1.
       -4    1    3    3    0  502  0.15472391780E+03 -0.19168724822E+03  0.10869435040E+04  0.11145094372E+04  0.12699999809E+01 0.  1.
</event>
<event>
 5   0  0.6517392E-03  0.8112508E+03  0.7818609E-02  0.9543873E-01
       -1   -1    0    0    0  501  0.00000000000E+00  0.00000000000E+00  0.16338936915E+03  0.16338936923E+03  0.50400001928E-02 0. -1.
        1   -1    0    0  501    0  0.00000000000E+00  0.00000000000E+00 -0.10069931056E+04  0.10069931056E+04  0.50400001928E-02 0.  1.
    10030    2    1    2    0    0  0.00000000000E+00  0.00000000000E+00 -0.84360373643E+03  0.11703824748E+04  0.81125080786E+03 0.  0.
        3    1    3    3  502    0  0.75049650213E+02  0.72473493089E+02 -0.98730478969E+03  0.99280190126E+03  0.10100000352E+00 0.  1.
       -3    1    3    3    0  502 -0.75049650213E+02 -0.72473493089E+02  0.14370105326E+03  0.17758057356E+03  0.10100000352E+00 0. -1.
</event>
<event>
 5   0  0.1106332E-02  0.8291671E+03  0.7818609E-02  0.9518733E-01
       -2   -1    0    0    0  501  0.00000000000E+00  0.00000000000E+00  0.19610543211E+03  0.19610543213E+03  0.25500000920E-02 0. -1.
        2   -1    0    0  501    0  0.00000000000E+00  0.00000000000E+00 -0.87646484474E+03  0.87646484475E+03  0.25500000920E-02 0.  1.
    10030    2    1    2    0    0  0.00000000000E+00  0.00000000000E+00 -0.68035941263E+03  0.10725702769E+04  0.82916709322E+03 0.  0.
        1    1    3    3  502    0 -0.24237246758E+03  0.33442878757E+03 -0.38668445615E+03  0.56578431902E+03  0.50400001928E-02 0.  1.
       -1    1    3    3    0  502  0.24237246758E+03 -0.33442878757E+03 -0.29367495649E+03  0.50678595786E+03  0.50400001928E-02 0. -1.
</event>
<event>
 5   0  0.1154714E-02  0.7899093E+03  0.7818609E-02  0.9574739E-01
        2   -1    0    0  501    0  0.00000000000E+00  0.00000000000E+00  0.15351829792E+04  0.15351829792E+04  0.25500000920E-02 0.  1.
       -2   -1    0    0    0  501  0.00000000000E+00  0.00000000000E+00 -0.10160951027E+03  0.10160951030E+03  0.25500000920E-02 0. -1.
    10030    2    1    2    0    0  0.00000000000E+00  0.00000000000E+00  0.14335734690E+04  0.16367924895E+04  0.78990933838E+03 0.  0.
        5    1    3    3  502    0 -0.32594410359E+03 -0.17096114253E+03  0.10134689429E+04  0.10782433209E+04  0.46999998093E+01 0.  1.
       -5    1    3    3    0  502  0.32594410359E+03  0.17096114253E+03  0.42010452608E+03  0.55854916861E+03  0.46999998093E+01 0. -1.
</event>
<event>
 5   0  0.6551489E-03  0.7895561E+03  0.7818609E-02  0.9575258E-01
        1   -1    0    0  501    0  0.00000000000E+00  0.00000000000E+00  0.29278460549E+03  0.29278460554E+03  0.50400001928E-02 0. -1.
       -1   -1    0    0    0  501  0.00000000000E+00  0.00000000000E+00 -0.53230154471E+03  0.53230154473E+03  0.50400001928E-02 0.  1.
    10030    2    1    2    0    0  0.00000000000E+00  0.00000000000E+00 -0.23951693921E+03  0.82508615027E+03  0.78955607223E+03 0.  0.
        4    1    3    3  502    0  0.35452590159E+03 -0.11462757673E+03  0.16572948539E+02  0.37296698483E+03  0.12699999809E+01 0. -1.
       -4    1    3    3    0  502 -0.35452590159E+03  0.11462757673E+03 -0.25608988775E+03  0.45211916544E+03  0.12699999809E+01 0.  1.
</event>
<event>
 5   0  0.6600401E-03  0.7968211E+03  0.7818609E-02  0.9564630E-01
       -1   -1    0    0    0  501  0.00000000000E+00  0.00000000000E+00  0.21682222855E+03  0.21682222861E+03  0.50400001928E-02 0.  1.
        1   -1    0    0  501    0  0.00000000000E+00  0.00000000000E+00 -0.73207880596E+03  0.73207880598E+03  0.50400001928E-02 0. -1.
    10030    2    1    2    0    0  0.00000000000E+00  0.00000000000E+00 -0.51525657741E+03  0.94890103459E+03  0.79682107960E+03 0.  0.
        2    1    3    3  502    0  0.19871651342E+03 -0.11771437035E+03 -0.64421919407E+03  0.68437072972E+03  0.25500000920E-02 0. -1.
       -2    1    3    3    0  502 -0.19871651342E+03  0.11771437035E+03  0.12896261666E+03  0.26453030487E+03  0.25500000920E-02 0.  1.
</event>
<event>
 5   0  0.6600401E-03  0.7993817E+03  0.7818609E-02  0.9560912E-01
       -1   -1    0    0    0  501  0.00000000000E+00  0.00000000000E+00  0.11876335226E+03  0.11876335236E+03  0.50400001928E-02 0.  1.
        1   -1    0    0  501    0  0.00000000000E+00  0.00000000000E+00 -0.13451353178E+04  0.13451353179E+04  0.50400001928E-02 0. -1.
    10030    2    1    2    0    0  0.00000000000E+00  0.00000000000E+00 -0.12263719656E+04  0.14638986702E+04  0.79938171025E+03 0.  0.
        2    1    3    3  502    0  0.26472454108E+03 -0.48757357142E+02 -0.11542579310E+04  0.11852289795E+04  0.25500000920E-02 0. -1.
       -2    1    3    3    0  502 -0.26472454108E+03  0.48757357142E+02 -0.72114034552E+02  0.27866969070E+03  0.25500000920E-02 0.  1.
</event>
<event>
 5   0  0.6517392E-03  0.8007579E+03  0.7818609E-02  0.9558921E-01
       -1   -1    0    0    0  501  0.00000000000E+00  0.00000000000E+00  0.43447962153E+03  0.43447962155E+03  0.50400001928E-02 0.  1.
        1   -1    0    0  501    0  0.00000000000E+00  0.00000000000E+00 -0.36895468269E+03  0.36895468272E+03  0.50400001928E-02 0. -1.
    10030    2    1    2    0    0  0.00000000000E+00  0.00000000000E+00  0.65524938836E+02  0.80343430428E+03  0.80075786832E+03 0.  0.
        3    1    3    3  502    0  0.30508408115E+02 -0.14413153380E+03 -0.34077021347E+03  0.37125329708E+03  0.10100000352E+00 0. -1.
       -3    1    3    3    0  502 -0.30508408115E+02  0.14413153380E+03  0.40629515230E+03  0.43218100720E+03  0.10100000352E+00 0.  1.
</event>
<event>
 5   0  0.6600401E-03  0.7994106E+03  0.7818609E-02  0.9560871E-01
       -1   -1    0    0    0  501  0.00000000000E+00  0.00000000000E+00  0.16283900990E+03  0.16283900998E+03  0.50400001928E-02 0.  1.
        1   -1    0    0  501    0  0.00000000000E+00  0.00000000000E+00 -0.98111814525E+03  0.98111814526E+03  0.50400001928E-02 0. -1.
    10030    2    1    2    0    0  0.00000000000E+00  0.00000000000E+00 -0.81827913535E+03  0.11439571552E+04  0.79941055140E+03 0.  0.
        2    1    3    3  502    0  0.11674157382E+03 -0.35455566690E+03 -0.61365752929E+03  0.71827145234E+03  0.25500000920E-02 0. -1.
       -2    1    3    3    0  502 -0.11674157382E+03  0.35455566690E+03 -0.20462160606E+03  0.42568570291E+03  0.25500000920E-02 0.  1.
</event>
<event>
 5   0  0.1121480E-02  0.7999226E+03  0.7818609E-02  0.9560129E-01
       -2   -1    0    0    0  501  0.00000000000E+00  0.00000000000E+00  0.17629063109E+03  0.17629063111E+03  0.25500000920E-02 0.  1.
        2   -1    0    0  501    0  0.00000000000E+00  0.00000000000E+00 -0.90741661675E+03  0.90741661675E+03  0.25500000920E-02 0. -1.
    10030    2    1    2    0    0  0.00000000000E+00  0.00000000000E+00 -0.73112598566E+03  0.10837072479E+04  0.79992261635E+03 0.  0.
        2    1    3    3  502    0 -0.99888646271E+02  0.99536544589E+02 -0.87262133519E+03  0.88394188723E+03  0.25500000920E-02 0. -1.
       -2    1    3    3    0  502  0.99888646271E+02 -0.99536544589E+02  0.14149534953E+03  0.19976536063E+03  0.25500000920E-02 0.  1.
</event>
<event>
 5   0  0.1121480E-02  0.8006992E+03  0.7818609E-02  0.9559006E-01
        2   -1    0    0  501    0  0.00000000000E+00  0.00000000000E+00  0.48746565611E+03  0.48746565612E+03  0.25500000920E-02 0.  1.
       -2   -1    0    0    0  501  0.00000000000E+00  0.00000000000E+00 -0.32880221699E+03  0.32880221700E+03  0.25500000920E-02 0. -1.
    10030    2    1    2    0    0  0.00000000000E+00  0.00000000000E+00  0.15866343913E+03  0.81626787312E+03  0.80069916559E+03 0.  0.
        2    1    3    3  502    0  0.49849240762E+02  0.15077092681E+03 -0.29532322997E+03  0.33530975134E+03  0.25500000920E-02 0. -1.
       -2    1    3    3    0  502 -0.49849240762E+02 -0.15077092681E+03  0.45398666910E+03  0.48095812178E+03  0.25500000920E-02 0.  1.
</event>
<event>
 5   0  0.1092868E-02  0.7927277E+03  0.7818609E-02  0.9570604E-01
        2   -1    0    0  501    0  0.00000000000E+00  0.00000000000E+00  0.51136332109E+03  0.51136332109E+03  0.25500000920E-02 0.  1.
       -2   -1    0    0    0  501  0.00000000000E+00  0.00000000000E+00 -0.30722634259E+03  0.30722634260E+03  0.25500000920E-02 0. -1.
    10030    2    1    2    0    0  0.00000000000E+00  0.00000000000E+00  0.20413697850E+03  0.81858966369E+03  0.79272765279E+03 0.  0.
        3    1    3    3  502    0  0.22076668167E+03  0.32918592164E+03  0.10384926060E+03  0.40973891427E+03  0.10100000352E+00 0. -1.
       -3    1    3    3    0  502 -0.22076668167E+03 -0.32918592164E+03  0.10028771790E+03  0.40885074942E+03  0.10100000352E+00 0.  1.
</event>
<event>
 5   0  0.4385875E-03  0.8024214E+03  0.7818609E-02  0.9556519E-01
        3   -1    0    0  501    0  0.00000000000E+00  0.00000000000E+00  0.29724707613E+03  0.29724709329E+03  0.10100000352E+00 0.  1.
       -3   -1    0    0    0  501  0.00000000000E+00  0.00000000000E+00 -0.54153613473E+03  0.54153614414E+03  0.10100000352E+00 0. -1.
    10030    2    1    2    0    0  0.00000000000E+00  0.00000000000E+00 -0.24428905860E+03  0.83878323743E+03  0.80242144490E+03 0.  0.
        1    1    3    3  502    0 -0.24914425976E+03  0.77276999657E+02 -0.44079498600E+03  0.51219607238E+03  0.50400001928E-02 0. -1.
       -1    1    3    3    0  502  0.24914425976E+03 -0.77276999657E+02  0.19650592740E+03  0.32658716505E+03  0.50400001928E-02 0.  1.
</event>
<event>
 5   0  0.6557679E-03  0.7808150E+03  0.7818609E-02  0.9588209E-01
       -1   -1    0    0    0  501  0.00000000000E+00  0.00000000000E+00  0.28026047406E+03  0.28026047410E+03  0.50400001928E-02 0. -1.
        1   -1    0    0  501    0  0.00000000000E+00  0.00000000000E+00 -0.54384416117E+03  0.54384416120E+03  0.50400001928E-02 0.  1.
    10030    2    1    2    0    0  0.00000000000E+00  0.00000000000E+00 -0.26358368711E+03  0.82410463530E+03  0.78081501638E+03 0.  0.
        1    1    3    3  502    0  0.65082808089E+02 -0.36283905037E+03 -0.26748926632E+03  0.45545412064E+03  0.50400001928E-02 0. -1.
       -1    1    3    3    0  502 -0.65082808089E+02  0.36283905037E+03  0.39055792116E+01  0.36865051466E+03  0.50400001928E-02 0.  1.
</event>
<event>
 5   0  0.6600401E-03  0.8065906E+03  0.7818609E-02  0.9550526E-01
       -1   -1    0    0    0  501  0.00000000000E+00  0.00000000000E+00  0.59262970067E+03  0.59262970069E+03  0.50400001928E-02 0.  1.
        1   -1    0    0  501    0  0.00000000000E+00  0.00000000000E+00 -0.27444980250E+03  0.27444980255E+03  0.50400001928E-02 0. -1.
    10030    2    1    2    0    0  0.00000000000E+00  0.00000000000E+00  0.31817989816E+03  0.86707950324E+03  0.80659061322E+03 0.  0.
        2    1    3    3  502    0  0.94239593155E+02  0.56698714742E+02  0.57619740460E+03  0.58659977348E+03  0.25500000920E-02 0.  1.
       -2    1    3    3    0  502 -0.94239593155E+02 -0.56698714742E+02 -0.25801750644E+03  0.28047972976E+03  0.25500000920E-02 0. -1.
</event>
<event>
 5   0  0.4385875E-03  0.7999952E+03  0.7818609E-02  0.9560024E-01
        3   -1    0    0  501    0  0.00000000000E+00  0.00000000000E+00  0.17137536655E+03  0.17137539631E+03  0.10100000352E+00 0.  1.
       -3   -1    0    0    0  501  0.00000000000E+00  0.00000000000E+00 -0.93361167146E+03  0.93361167693E+03  0.10100000352E+00 0. -1.
    10030    2    1    2    0    0  0.00000000000E+00  0.00000000000E+00 -0.76223630492E+03  0.11049870732E+04  0.79999515467E+03 0.  0.
        5    1    3    3  502    0  0.33631186329E+03  0.15225497021E+03 -0.16852919703E+03  0.40584655424E+03  0.46999998093E+01 0.  1.
       -5    1    3    3    0  502 -0.33631186329E+03 -0.15225497021E+03 -0.59370710789E+03  0.69914051899E+03  0.46999998093E+01 0. -1.
</event>
<event>
 5   0  0.6600401E-03  0.7930405E+03  0.7818609E-02  0.9570146E-01
       -1   -1    0    0    0  501  0.00000000000E+00  0.00000000000E+00  0.14596713654E+03  0.14596713662E+03  0.50400001928E-02 0.  1.
        1   -1    0    0  501    0  0.00000000000E+00  0.00000000000E+00 -0.10771486036E+04  0.10771486037E+04  0.50400001928E-02 0. -1.
    10030    2    1    2    0    0  0.00000000000E+00  0.00000000000E+00 -0.93118146710E+03  0.12231157403E+04  0.79304047150E+03 0.  0.
        2    1    3    3  502    0 -0.37691090277E+02  0.33287992239E+02  0.14102934814E+03  0.14972636961E+03  0.25500000920E-02 0.  1.
       -2    1    3    3    0  502  0.37691090277E+02 -0.33287992239E+02 -0.10722108152E+04  0.10733893707E+04  0.25500000920E-02 0. -1.
</event>
<event>
 5   0  0.1092868E-02  0.7871726E+03  0.7818609E-02  0.9578772E-01
       -2   -1    0    0    0  501  0.00000000000E+00  0.00000000000E+00  0.40527371241E+03  0.40527371242E+03  0.25500000920E-02 0. -1.
        2   -1    0    0  501    0  0.00000000000E+00  0.00000000000E+00 -0.38223588560E+03  0.38223588560E+03  0.25500000920E-02 0.  1.
    10030    2    1    2    0    0  0.00000000000E+00  0.00000000000E+00  0.23037826814E+02  0.78750959802E+03  0.78717255130E+03 0.  0.
        3    1    3    3  502    0  0.35487850474E+03 -0.17020269261E+03  0.99573213783E+01  0.39370911616E+03  0.10100000352E+00 0. -1.
       -3    1    3    3    0  502 -0.35487850474E+03  0.17020269261E+03  0.13080505436E+02  0.39380048187E+03  0.10100000352E+00 0.  1.
</event>
<event>
 5   0  0.1121480E-02  0.8207796E+03  0.7818609E-02  0.9530417E-01
        2   -1    0    0  501    0  0.00000000000E+00  0.00000000000E+00  0.21947414414E+03  0.21947414416E+03  0.25500000920E-02 0. -1.
       -2   -1    0    0    0  501  0.00000000000E+00  0.00000000000E+00 -0.76737878457E+03  0.76737878457E+03  0.25500000920E-02 0.  1.
    10030    2    1    2    0    0  0.00000000000E+00  0.00000000000E+00 -0.54790464043E+03  0.98685292873E+03  0.82077963422E+03 0.  0.
        2    1    3    3  502    0  0.10248354522E+03  0.56904752658E+02  0.19891709282E+03  0.23088750018E+03  0.25500000920E-02 0. -1.
       -2    1    3    3    0  502 -0.10248354522E+03 -0.56904752658E+02 -0.74682173325E+03  0.75596542856E+03  0.25500000920E-02 0.  1.
</event>
<event>
 5   0  0.1121480E-02  0.8053621E+03  0.7818609E-02  0.9552288E-01
       -2   -1    0    0    0  501  0.00000000000E+00  0.00000000000E+00  0.16624517327E+03  0.16624517329E+03  0.25500000920E-02 0. -1.
        2   -1    0    0  501    0  0.00000000000E+00  0.00000000000E+00 -0.97537894008E+03  0.97537894009E+03  0.25500000920E-02 0.  1.
    10030    2    1    2    0    0  0.00000000000E+00  0.00000000000E+00 -0.80913376681E+03  0.11416241134E+04  0.80536213199E+03 0.  0.
        2    1    3    3  502    0 -0.51748140014E+02 -0.36485168495E+03 -0.17443151549E+03  0.40770206721E+03  0.25500000920E-02 0. -1.
       -2    1    3    3    0  502  0.51748140014E+02  0.36485168495E+03 -0.63470225132E+03  0.73392204616E+03  0.25500000920E-02 0.  1.
</event>
<event>
 5   0  0.6551489E-03  0.7997382E+03  0.7818609E-02  0.9560396E-01
       -1   -1    0    0    0  501  0.00000000000E+00  0.00000000000E+00  0.23501224992E+03  0.23501224998E+03  0.50400001928E-02 0. -1.
        1   -1    0    0  501    0  0.00000000000E+00  0.00000000000E+00 -0.68037002505E+03  0.68037002506E+03  0.50400001928E-02 0.  1.
    10030    2    1    2    0    0  0.00000000000E+00  0.00000000000E+00 -0.44535777512E+03  0.91538227504E+03  0.79973818316E+03 0.  0.
        4    1    3    3  502    0  0.79605286473E+02 -0.34773337112E+03 -0.15894558319E+02  0.35708507237E+03  0.12699999809E+01 0. -1.
       -4    1    3    3    0  502 -0.79605286473E+02  0.34773337112E+03 -0.42946321680E+03  0.55829720267E+03  0.12699999809E+01 0.  1.
</event>
<event>
 5   0  0.6596225E-03  0.8016333E+03  0.7818609E-02  0.9557656E-01
        1   -1    0    0  501    0  0.00000000000E+00  0.00000000000E+00  0.13039436377E+04  0.13039436377E+04  0.50400001928E-02 0. -1.
       -1   -1    0    0    0  501  0.00000000000E+00  0.00000000000E+00 -0.12320624920E+03  0.12320624930E+03  0.50400001928E-02 0.  1.
    10030    2    1    2    0    0  0.00000000000E+00  0.00000000000E+00  0.11807373885E+04  0.14271498870E+04  0.80163334472E+03 0.  0.
        5    1    3    3  502    0  0.86806445929E+02  0.17151875244E+02 -0.10555056785E+03  0.13781349082E+03  0.46999998093E+01 0.  1.
       -5    1    3    3    0  502 -0.86806445929E+02 -0.17151875244E+02  0.12862879563E+04  0.12893363961E+04  0.46999998093E+01 0. -1.
</event>
<event>
 5   0  0.1106332E-02  0.8005377E+03  0.7818609E-02  0.9559239E-01
       -2   -1    0    0    0  501  0.00000000000E+00  0.00000000000E+00  0.41839064832E+03  0.41839064833E+03  0.25500000920E-02 0.  1.
        2   -1    0    0  501    0  0.00000000000E+00  0.00000000000E+00 -0.38293200398E+03  0.38293200399E+03  0.25500000920E-02 0. -1.
    10030    2    1    2    0    0  0.00000000000E+00  0.00000000000E+00  0.35458644341E+02  0.80132265231E+03  0.80053774280E+03 0.  0.
        1    1    3    3  502    0 -0.10391196402E+03  0.31508455371E+03 -0.20640805999E+03  0.39074321428E+03  0.50400001928E-02 0. -1.
       -1    1    3    3    0  502  0.10391196402E+03 -0.31508455371E+03  0.24186670433E+03  0.41057943804E+03  0.50400001928E-02 0.  1.
</event>
<event>
 5   0  0.1092868E-02  0.8006216E+03  0.7818609E-02  0.9559118E-01
       -2   -1    0    0    0  501  0.00000000000E+00  0.00000000000E+00  0.36857141733E+03  0.36857141734E+03  0.25500000920E-02 0.  1.
        2   -1    0    0  501    0  0.00000000000E+00  0.00000000000E+00 -0.43478337264E+03  0.43478337264E+03  0.25500000920E-02 0. -1.
    10030    2    1    2    0    0  0.00000000000E+00  0.00000000000E+00 -0.66211955307E+02  0.80335478998E+03  0.80062156826E+03 0.  0.
        3    1    3    3  502    0  0.39872670530E+03 -0.34661147380E+02 -0.41154147145E+02  0.40234071965E+03  0.10100000352E+00 0. -1.
       -3    1    3    3    0  502 -0.39872670530E+03  0.34661147380E+02 -0.25057808161E+02  0.40101407034E+03  0.10100000352E+00 0.  1.
</event>
<event>
 5   0  0.4385875E-03  0.8016401E+03  0.7818609E-02  0.9557646E-01
        4   -1    0    0  501    0  0.00000000000E+00  0.00000000000E+00  0.34215649862E+03  0.34215885557E+03  0.12699999809E+01 0.  1.
       -4   -1    0    0    0  501  0.00000000000E+00  0.00000000000E+00 -0.46953676019E+03  0.46953847773E+03  0.12699999809E+01 0. -1.
    10030    2    1    2    0    0  0.00000000000E+00  0.00000000000E+00 -0.12738026157E+03  0.81169733331E+03  0.80164008748E+03 0.  0.
        3    1    3    3  502    0  0.74916422742E+02 -0.20977786773E+02  0.33444021328E+03  0.34336977793E+03  0.10100000352E+00 0.  1.
       -3    1    3    3    0  502 -0.74916422742E+02  0.20977786773E+02 -0.46182047485E+03  0.46832755538E+03  0.10100000352E+00 0. -1.
</event>
<event>
 5   0  0.1092868E-02  0.7982890E+03  0.7818609E-02  0.9562497E-01
        2   -1    0    0  501    0  0.00000000000E+00  0.00000000000E+00  0.13984590447E+04  0.13984590447E+04  0.25500000920E-02 0.  1.
       -2   -1    0    0    0  501  0.00000000000E+00  0.00000000000E+00 -0.11392277894E+03  0.11392277897E+03  0.25500000920E-02 0. -1.
    10030    2    1    2    0    0  0.00000000000E+00  0.00000000000E+00  0.12845362657E+04  0.15123818237E+04  0.79828902192E+03 0.  0.
        3    1    3    3  502    0  0.26913226267E+03 -0.17155809236E+03  0.18816575125E+03  0.37050062619E+03  0.10100000352E+00 0. -1.
       -3    1    3    3    0  502 -0.26913226267E+03  0.17155809236E+03  0.10963705145E+04  0.11418811975E+04  0.10100000352E+00 0.  1.
</event>
<event>
 5   0  0.1121480E-02  0.8023767E+03  0.7818609E-02  0.9556583E-01
       -2   -1    0    0    0  501  0.00000000000E+00  0.00000000000E+00  0.43814451856E+03  0.43814451857E+03  0.25500000920E-02 0. -1.
        2   -1    0    0  501    0  0.00000000000E+00  0.00000000000E+00 -0.36734934485E+03  0.36734934486E+03  0.25500000920E-02 0.  1.
    10030    2    1    2    0    0  0.00000000000E+00  0.00000000000E+00  0.70795173707E+02  0.80549386343E+03  0.80237672412E+03 0.  0.
        2    1    3    3  502    0  0.25534179798E+03 -0.71493868986E+02 -0.26683895014E+03  0.37618324314E+03  0.25500000920E-02 0.  1.
       -2    1    3    3    0  502 -0.25534179798E+03  0.71493868986E+02  0.33763412385E+03  0.42931062029E+03  0.25500000920E-02 0. -1.
</event>
<event>
 5   0  0.1154714E-02  0.8060295E+03  0.7818609E-02  0.9551330E-01
        2   -1    0    0  501    0  0.00000000000E+00  0.00000000000E+00  0.17347641336E+04  0.17347641336E+04  0.25500000920E-02 0.  1.
       -2   -1    0    0    0  501  0.00000000000E+00  0.00000000000E+00 -0.93627067110E+02  0.93627067144E+02  0.25500000920E-02 0. -1.
    10030    2    1    2    0    0  0.00000000000E+00  0.00000000000E+00  0.16411370665E+04  0.18283912007E+04  0.80602947338E+03 0.  0.
        5    1    3    3  502    0 -0.35661633609E+02  0.14496696656E+02 -0.89384556499E+02  0.97435082308E+02  0.46999998093E+01 0. -1.
       -5    1    3    3    0  502  0.35661633609E+02 -0.14496696656E+02  0.17305216230E+04  0.17309561184E+04  0.46999998093E+01 0.  1.
</event>
<event>
 5   0  0.6517392E-03  0.8043653E+03  0.7818609E-02  0.9553720E-01
       -1   -1    0    0    0  501  0.00000000000E+00  0.00000000000E+00  0.69581772847E+03  0.69581772849E+03  0.50400001928E-02 0.  1.
        1   -1    0    0  501    0  0.00000000000E+00  0.00000000000E+00 -0.23246158973E+03  0.23246158978E+03  0.50400001928E-02 0. -1.
    10030    2    1    2    0    0  0.00000000000E+00  0.00000000000E+00  0.46335613874E+03  0.92827931827E+03  0.80436532833E+03 0.  0.
        3    1    3    3  502    0  0.22865698683E+03 -0.17687053807E+03 -0.91010355566E+02  0.30306781400E+03  0.10100000352E+00 0. -1.
       -3    1    3    3    0  502 -0.22865698683E+03  0.17687053807E+03  0.55436649431E+03  0.62521150427E+03  0.10100000352E+00 0.  1.
</event>
<event>
 5   0  0.6596225E-03  0.8002074E+03  0.7818609E-02  0.9559717E-01
       -1   -1    0    0    0  501  0.00000000000E+00  0.00000000000E+00  0.49623422929E+03  0.49623422932E+03  0.50400001928E-02 0. -1.
        1   -1    0    0  501    0  0.00000000000E+00  0.00000000000E+00 -0.32259557727E+03  0.32259557730E+03  0.50400001928E-02 0.  1.
    10030    2    1    2    0    0  0.00000000000E+00  0.00000000000E+00  0.17363865203E+03  0.81882980662E+03  0.80020739233E+03 0.  0.
        5    1    3    3  502    0 -0.21020072946E+03  0.27387157888E+03  0.29368961825E+03  0.45328321196E+03  0.46999998093E+01 0. -1.
       -5    1    3    3    0  502  0.21020072946E+03 -0.27387157888E+03 -0.12005096622E+03  0.36554659466E+03  0.46999998093E+01 0.  1.
</event>
<event>
 5   0  0.1106332E-02  0.8104987E+03  0.7818609E-02  0.9544944E-01
        2   -1    0    0  501    0  0.00000000000E+00  0.00000000000E+00  0.10249246809E+04  0.10249246809E+04  0.25500000920E-02 0.  1.
       -2   -1    0    0    0  501  0.00000000000E+00  0.00000000000E+00 -0.16023328032E+03  0.16023328034E+03  0.25500000920E-02 0. -1.
    10030    2    1    2    0    0  0.00000000000E+00  0.00000000000E+00  0.86469140055E+03  0.11851579612E+04  0.81049871982E+03 0.  0.
        1    1    3    3  502    0 -0.26401754031E+03  0.14564116802E+03  0.82826511164E+03  0.88144183393E+03  0.50400001928E-02 0.  1.
       -1    1    3    3    0  502  0.26401754031E+03 -0.14564116802E+03  0.36426288906E+02  0.30371612727E+03  0.50400001928E-02 0. -1.
</event>
<event>
 5   0  0.6600401E-03  0.8034066E+03  0.7818609E-02  0.9555099E-01
        1   -1    0    0  501    0  0.00000000000E+00  0.00000000000E+00  0.35112411443E+03  0.35112411446E+03  0.50400001928E-02 0.  1.
       -1   -1    0    0    0  501  0.00000000000E+00  0.00000000000E+00 -0.45956843327E+03  0.45956843330E+03  0.50400001928E-02 0. -1.
    10030    2    1    2    0    0  0.00000000000E+00  0.00000000000E+00 -0.10844431884E+03  0.81069254776E+03  0.80340664468E+03 0.  0.
        2    1    3    3  502    0  0.31204405419E+03  0.21706212305E+03  0.76871765715E+02  0.38781016669E+03  0.25500000920E-02 0. -1.
       -2    1    3    3    0  502 -0.31204405419E+03 -0.21706212305E+03 -0.18531608456E+03  0.42288238107E+03  0.25500000920E-02 0.  1.
</event>
<event>
 5   0  0.1121480E-02  0.8128159E+03  0.7818609E-02  0.9541650E-01
        2   -1    0    0  501    0  0.00000000000E+00  0.00000000000E+00  0.29168394488E+03  0.29168394489E+03  0.25500000920E-02 0. -1.
       -2   -1    0    0    0  501  0.00000000000E+00  0.00000000000E+00 -0.56625469602E+03  0.56625469603E+03  0.25500000920E-02 0.  1.
    10030    2    1    2    0    0  0.00000000000E+00  0.00000000000E+00 -0.27457075115E+03  0.85793864092E+03  0.81281585503E+03 0.  0.
        2    1    3    3  502    0  0.36708515297E+03  0.51878289709E+01  0.46716447882E+02  0.37008222007E+03  0.25500000920E-02 0.  1.
       -2    1    3    3    0  502 -0.36708515297E+03 -0.51878289709E+01 -0.32128719903E+03  0.48785642085E+03  0.25500000920E-02 0. -1.
</event>
<event>
 5   0  0.6557679E-03  0.7803285E+03  0.7818609E-02  0.9588936E-01
        1   -1    0    0  501    0  0.00000000000E+00  0.00000000000E+00  0.88816158052E+03  0.88816158053E+03  0.50400001928E-02 0. -1.
       -1   -1    0    0    0  501  0.00000000000E+00  0.00000000000E+00 -0.17139688915E+03  0.17139688923E+03  0.50400001928E-02 0.  1.
    10030    2    1    2    0    0  0.00000000000E+00  0.00000000000E+00  0.71676469136E+03  0.10595584698E+04  0.78032847446E+03 0.  0.
        1    1    3    3  502    0  0.22092323942E+03  0.17140934574E+03 -0.11088654688E+02  0.27984138331E+03  0.50400001928E-02 0.  1.
       -1    1    3    3    0  502 -0.22092323942E+03 -0.17140934574E+03  0.72785334605E+03  0.77971708645E+03  0.50400001928E-02 0. -1.
</event>
<event>
 5   0  0.1119792E-02  0.7817893E+03  0.7818609E-02  0.9586757E-01
        2   -1    0    0  501    0  0.00000000000E+00  0.00000000000E+00  0.92171442111E+03  0.92171442111E+03  0.25500000920E-02 0.  1.
       -2   -1    0    0    0  501  0.00000000000E+00  0.00000000000E+00 -0.16577654223E+03  0.16577654225E+03  0.25500000920E-02 0. -1.
    10030    2    1    2    0    0  0.00000000000E+00  0.00000000000E+00  0.75593787887E+03  0.10874909634E+04  0.78178930581E+03 0.  0.
        4    1    3    3  502    0 -0.11387632541E+03 -0.15757828728E+03 -0.93748148524E+02  0.21584499615E+03  0.12699999809E+01 0. -1.
       -4    1    3    3    0  502  0.11387632541E+03  0.15757828728E+03  0.84968602740E+03  0.87164596722E+03  0.12699999809E+01 0.  1.
</event>
<event>
 5   0  0.6551489E-03  0.8040978E+03  0.7818609E-02  0.9554105E-01
        1   -1    0    0  501    0  0.00000000000E+00  0.00000000000E+00  0.50306198885E+03  0.50306198888E+03  0.50400001928E-02 0. -1.
       -1   -1    0    0    0  501  0.00000000000E+00  0.00000000000E+00 -0.32131884909E+03  0.32131884913E+03  0.50400001928E-02 0.  1.
    10030    2    1    2    0    0  0.00000000000E+00  0.00000000000E+00  0.18174313976E+03  0.82438083801E+03  0.80409775353E+03 0.  0.
        4    1    3    3  502    0 -0.16902909316E+03  0.30673553059E+03 -0.11155297215E+03  0.36756387004E+03  0.12699999809E+01 0.  1.
       -4    1    3    3    0  502  0.16902909316E+03 -0.30673553059E+03  0.29329611191E+03  0.45681696797E+03  0.12699999809E+01 0. -1.
</event>
<event>
 5   0  0.4385875E-03  0.8087085E+03  0.7818609E-02  0.9547497E-01
       -4   -1    0    0    0  501  0.00000000000E+00  0.00000000000E+00  0.89570539925E+02  0.89579542991E+02  0.12699999809E+01 0.  1.
        4   -1    0    0  501    0  0.00000000000E+00  0.00000000000E+00 -0.18253025324E+04  0.18253029742E+04  0.12699999809E+01 0. -1.
    10030    2    1    2    0    0  0.00000000000E+00  0.00000000000E+00 -0.17357319925E+04  0.19148825172E+04  0.80870854145E+03 0.  0.
        2    1    3    3  502    0  0.23928821736E+03  0.62715167502E+02 -0.11049293602E+03  0.27092569483E+03  0.25500000920E-02 0.  1.
       -2    1    3    3    0  502 -0.23928821736E+03 -0.62715167502E+02 -0.16252390565E+04  0.16439568224E+04  0.25500000920E-02 0. -1.
</event>
<event>
 5   0  0.6600401E-03  0.8024432E+03  0.7818609E-02  0.9556487E-01
        1   -1    0    0  501    0  0.00000000000E+00  0.00000000000E+00  0.17147320356E+04  0.17147320356E+04  0.50400001928E-02 0. -1.
       -1   -1    0    0    0  501  0.00000000000E+00  0.00000000000E+00 -0.93879843238E+02  0.93879843373E+02  0.50400001928E-02 0.  1.
    10030    2    1    2    0    0  0.00000000000E+00  0.00000000000E+00  0.16208521924E+04  0.18086118790E+04  0.80244320628E+03 0.  0.
        2    1    3    3  502    0  0.13536632258E+03  0.22589602692E+03  0.12818202356E+03  0.29288852391E+03  0.25500000920E-02 0.  1.
       -2    1    3    3    0  502 -0.13536632258E+03 -0.22589602692E+03  0.14926701688E+04  0.15157233551E+04  0.25500000920E-02 0. -1.
</event>
<event>
 5   0  0.6517392E-03  0.8026127E+03  0.7818609E-02  0.9556243E-01
       -1   -1    0    0    0  501  0.00000000000E+00  0.00000000000E+00  0.16238752238E+03  0.16238752246E+03  0.50400001928E-02 0.  1.
        1   -1    0    0  501    0  0.00000000000E+00  0.00000000000E+00 -0.99174359047E+03  0.99174359048E+03  0.50400001928E-02 0. -1.
    10030    2    1    2    0    0  0.00000000000E+00  0.00000000000E+00 -0.82935606809E+03  0.11541311129E+04  0.80261269500E+03 0.  0.
        3    1    3    3  502    0  0.30739321867E+03 -0.83380106703E+01 -0.78545810714E+03  0.84350729788E+03  0.10100000352E+00 0. -1.
       -3    1    3    3    0  502 -0.30739321867E+03  0.83380106703E+01 -0.43897960955E+02  0.31062381506E+03  0.10100000352E+00 0.  1.
</event>
<event>
 5   0  0.1106332E-02  0.7956446E+03  0.7818609E-02  0.9566343E-01
        2   -1    0    0  501    0  0.00000000000E+00  0.00000000000E+00  0.51740606558E+03  0.51740606559E+03  0.25500000920E-02 0.  1.
       -2   -1    0    0    0  501  0.00000000000E+00  0.00000000000E+00 -0.30587693067E+03  0.30587693068E+03  0.25500000920E-02 0. -1.
    10030    2    1    2    0    0  0.00000000000E+00  0.00000000000E+00  0.21152913492E+03  0.82328299627E+03  0.79564459215E+03 0.  0.
        1    1    3    3  502    0 -0.20554998666E+03 -0.81165596139E+01 -0.24657201324E+03  0.32111436171E+03  0.50400001928E-02 0. -1.
       -1    1    3    3    0  502  0.20554998666E+03  0.81165596139E+01  0.45810114816E+03  0.50216863455E+03  0.50400001928E-02 0.  1.
</event>
<event>
 5   0  0.6517392E-03  0.7994763E+03  0.7818609E-02  0.9560775E-01
        1   -1    0    0  501    0  0.00000000000E+00  0.00000000000E+00  0.89463550996E+03  0.89463550998E+03  0.50400001928E-02 0. -1.
       -1   -1    0    0    0  501  0.00000000000E+00  0.00000000000E+00 -0.17860972307E+03  0.17860972314E+03  0.50400001928E-02 0.  1.
    10030    2    1    2    0    0  0.00000000000E+00  0.00000000000E+00  0.71602578690E+03  0.10732452331E+04  0.79947633042E+03 0.  0.
        3    1    3    3  502    0 -0.39923037102E+03 -0.13597075969E+02  0.37796154086E+03  0.54993154682E+03  0.10100000352E+00 0. -1.
       -3    1    3    3    0  502  0.39923037102E+03  0.13597075969E+02  0.33806424604E+03  0.52331368630E+03  0.10100000352E+00 0.  1.
</event>
<event>
 5   0  0.1106332E-02  0.7745826E+03  0.7818609E-02  0.9597554E-01
        2   -1    0    0  501    0  0.00000000000E+00  0.00000000000E+00  0.35902697564E+03  0.35902697565E+03  0.25500000920E-02 0. -1.
       -2   -1    0    0    0  501  0.00000000000E+00  0.00000000000E+00 -0.41778071458E+03  0.41778071459E+03  0.25500000920E-02 0.  1.
    10030    2    1    2    0    0  0.00000000000E+00  0.00000000000E+00 -0.58753738945E+02  0.77680769024E+03  0.77458258809E+03 0.  0.
        1    1    3    3  502    0 -0.19989430729E+02  0.74279470489E+02  0.35128897609E+03  0.35961223814E+03  0.50400001928E-02 0. -1.
       -1    1    3    3    0  502  0.19989430729E+02 -0.74279470489E+02 -0.41004271503E+03  0.41719545210E+03  0.50400001928E-02 0.  1.
</event>
<event>
 5   0  0.6517392E-03  0.7975424E+03  0.7818609E-02  0.9563581E-01
       -1   -1    0    0    0  501  0.00000000000E+00  0.00000000000E+00  0.35520775045E+03  0.35520775048E+03  0.50400001928E-02 0.  1.
        1   -1    0    0  501    0  0.00000000000E+00  0.00000000000E+00 -0.44767731523E+03  0.44767731526E+03  0.50400001928E-02 0. -1.
    10030    2    1    2    0    0  0.00000000000E+00  0.00000000000E+00 -0.92469564786E+02  0.80288506575E+03  0.79754235523E+03 0.  0.
        3    1    3    3  502    0 -0.30896546178E+03  0.26995215470E+01  0.20754821295E+03  0.37221393699E+03  0.10100000352E+00 0.  1.
       -3    1    3    3    0  502  0.30896546178E+03 -0.26995215470E+01 -0.30001777773E+03  0.43067112876E+03  0.10100000352E+00 0. -1.
</event>
<event>
 5   0  0.6596225E-03  0.7982989E+03  0.7818609E-02  0.9562483E-01
        1   -1    0    0  501    0  0.00000000000E+00  0.00000000000E+00  0.10272525316E+04  0.10272525316E+04  0.50400001928E-02 0.  1.
       -1   -1    0    0    0  501  0.00000000000E+00  0.00000000000E+00 -0.15509360542E+03  0.15509360550E+03  0.50400001928E-02 0. -1.
    10030    2    1    2    0    0  0.00000000000E+00  0.00000000000E+00  0.87215892620E+03  0.11823461371E+04  0.79829893864E+03 0.  0.
        5    1    3    3  502    0 -0.23888954627E+03 -0.10448475786E+03 -0.11474308742E+02  0.26103453738E+03  0.46999998093E+01 0. -1.
       -5    1    3    3    0  502  0.23888954627E+03  0.10448475786E+03  0.88363323494E+03  0.92131159975E+03  0.46999998093E+01 0.  1.
</event>
<event>
 5   0  0.1119792E-02  0.8024557E+03  0.7818609E-02  0.9556469E-01
        2   -1    0    0  501    0  0.00000000000E+00  0.00000000000E+00  0.27265995375E+03  0.27265995376E+03  0.25500000920E-02 0. -1.
       -2   -1    0    0    0  501  0.00000000000E+00  0.00000000000E+00 -0.59041965643E+03  0.59041965643E+03  0.25500000920E-02 0.  1.
    10030    2    1    2    0    0  0.00000000000E+00  0.00000000000E+00 -0.31775970268E+03  0.86307961020E+03  0.80245572145E+03 0.  0.
        4    1    3    3  502    0  0.12199176553E+03  0.34641105071E+03 -0.33263853120E+03  0.49551247436E+03  0.12699999809E+01 0.  1.
       -4    1    3    3    0  502 -0.12199176553E+03 -0.34641105071E+03  0.14878828519E+02  0.36756713584E+03  0.12699999809E+01 0. -1.
</event>
<event>
 5   0  0.1121480E-02  0.7554356E+03  0.7818609E-02  0.9626861E-01
       -2   -1    0    0    0  501  0.00000000000E+00  0.00000000000E+00  0.47165464422E+03  0.47165464423E+03  0.25500000920E-02 0. -1.
        2   -1    0    0  501    0  0.00000000000E+00  0.00000000000E+00 -0.30248984249E+03  0.30248984250E+03  0.25500000920E-02 0.  1.
    10030    2    1    2    0    0  0.00000000000E+00  0.00000000000E+00  0.16916480173E+03  0.77414448673E+03  0.75543560691E+03 0.  0.
        2    1    3    3  502    0  0.50143630287E+02 -0.10117127310E+03  0.45395425399E+03  0.46778678357E+03  0.25500000920E-02 0. -1.
       -2    1    3    3    0  502 -0.50143630287E+02  0.10117127310E+03 -0.28478945226E+03  0.30635770316E+03  0.25500000920E-02 0.  1.
</event>
<event>
 5   0  0.6551489E-03  0.8011904E+03  0.7818609E-02  0.9558296E-01
        1   -1    0    0  501    0  0.00000000000E+00  0.00000000000E+00  0.13489720027E+04  0.13489720028E+04  0.50400001928E-02 0. -1.
       -1   -1    0    0    0  501  0.00000000000E+00  0.00000000000E+00 -0.11896208596E+03  0.11896208606E+03  0.50400001928E-02 0.  1.
    10030    2    1    2    0    0  0.00000000000E+00  0.00000000000E+00  0.12300099168E+04  0.14679340888E+04  0.80119042289E+03 0.  0.
        4    1    3    3  502    0 -0.11513297818E+03  0.14620404691E+03 -0.34954875967E+02  0.18935332649E+03  0.12699999809E+01 0.  1.
       -4    1    3    3    0  502  0.11513297818E+03 -0.14620404691E+03  0.12649647928E+04  0.12785807623E+04  0.12699999809E+01 0. -1.
</event>
<event>
 5   0  0.4385875E-03  0.7976589E+03  0.7818609E-02  0.9563412E-01
        3   -1    0    0  501    0  0.00000000000E+00  0.00000000000E+00  0.38388467070E+03  0.38388468399E+03  0.10100000352E+00 0. -1.
       -3   -1    0    0    0  501  0.00000000000E+00  0.00000000000E+00 -0.41435601625E+03  0.41435602856E+03  0.10100000352E+00 0.  1.
    10030    2    1    2    0    0  0.00000000000E+00  0.00000000000E+00 -0.30471345546E+02  0.79824071255E+03  0.79765890722E+03 0.  0.
        4    1    3    3  502    0  0.28889050723E+03  0.19141979702E+03  0.18230145567E+03  0.39157974602E+03  0.12699999809E+01 0. -1.
       -4    1    3    3    0  502 -0.28889050723E+03 -0.19141979702E+03 -0.21277280122E+03  0.40666096652E+03  0.12699999809E+01 0.  1.
</event>
<event>
 5   0  0.1154714E-02  0.7809242E+03  0.7818609E-02  0.9588046E-01
       -2   -1    0    0    0  501  0.00000000000E+00  0.00000000000E+00  0.21918587732E+03  0.21918587734E+03  0.25500000920E-02 0.  1.
        2   -1    0    0  501    0  0.00000000000E+00  0.00000000000E+00 -0.69557700643E+03  0.69557700644E+03  0.25500000920E-02 0. -1.
    10030    2    1    2    0    0  0.00000000000E+00  0.00000000000E+00 -0.47639112911E+03  0.91476288377E+03  0.78092421248E+03 0.  0.
        5    1    3    3  502    0 -0.32429048219E+03 -0.15879944373E+03 -0.64226217783E+02  0.36678151155E+03  0.46999998093E+01 0.  1.
       -5    1    3    3    0  502  0.32429048219E+03  0.15879944373E+03 -0.41216491133E+03  0.54798137222E+03  0.46999998093E+01 0. -1.
</event>
<event>
 5   0  0.6551489E-03  0.7925935E+03  0.7818609E-02  0.9570800E-01
        1   -1    0    0  501    0  0.00000000000E+00  0.00000000000E+00  0.13932845580E+04  0.13932845580E+04  0.50400001928E-02 0. -1.
       -1   -1    0    0    0  501  0.00000000000E+00  0.00000000000E+00 -0.11272004391E+03  0.11272004402E+03  0.50400001928E-02 0.  1.
    10030    2    1    2    0    0  0.00000000000E+00  0.00000000000E+00  0.12805645141E+04  0.15060046021E+04  0.79259345608E+03 0.  0.
        4    1    3    3  502    0  0.17443807770E+03 -0.31728549841E+03  0.33419108718E+03  0.49273119051E+03  0.12699999809E+01 0.  1.
       -4    1    3    3    0  502 -0.17443807770E+03  0.31728549841E+03  0.94637342694E+03  0.10132734116E+04  0.12699999809E+01 0. -1.
</event>
<event>
 5   0  0.1119792E-02  0.7959608E+03  0.7818609E-02  0.9565882E-01
       -2   -1    0    0    0  501  0.00000000000E+00  0.00000000000E+00  0.13204766571E+03  0.13204766573E+03  0.25500000920E-02 0. -1.
        2   -1    0    0  501    0  0.00000000000E+00  0.00000000000E+00 -0.11994789439E+04  0.11994789439E+04  0.25500000920E-02 0.  1.
    10030    2    1    2    0    0  0.00000000000E+00  0.00000000000E+00 -0.10674312782E+04  0.13315266097E+04  0.79596078957E+03 0.  0.
        4    1    3    3  502    0  0.26889778932E+03 -0.29211687178E+03 -0.48794865497E+03  0.62907375614E+03  0.12699999809E+01 0.  1.
       -4    1    3    3    0  502 -0.26889778932E+03  0.29211687178E+03 -0.57948262325E+03  0.70245285353E+03  0.12699999809E+01 0. -1.
</event>
<event>
 5   0  0.6600401E-03  0.8050286E+03  0.7818609E-02  0.9552767E-01
       -1   -1    0    0    0  501  0.00000000000E+00  0.00000000000E+00  0.48976655421E+03  0.48976655424E+03  0.50400001928E-02 0. -1.
        1   -1    0    0  501    0  0.00000000000E+00  0.00000000000E+00 -0.33080610616E+03  0.33080610620E+03  0.50400001928E-02 0.  1.
    10030    2    1    2    0    0  0.00000000000E+00  0.00000000000E+00  0.15896044805E+03  0.82057266044E+03  0.80502861254E+03 0.  0.
        2    1    3    3  502    0  0.18135968367E+03 -0.35750588081E+03  0.11645707207E+03  0.41744944522E+03  0.25500000920E-02 0. -1.
       -2    1    3    3    0  502 -0.18135968367E+03  0.35750588081E+03  0.42503375986E+02  0.40312321522E+03  0.25500000920E-02 0.  1.
</event>
<event>
 5   0  0.6600401E-03  0.8048795E+03  0.7818609E-02  0.9552981E-01
       -1   -1    0    0    0  501  0.00000000000E+00  0.00000000000E+00  0.16781164081E+03  0.16781164089E+03  0.50400001928E-02 0.  1.
        1   -1    0    0  501    0  0.00000000000E+00  0.00000000000E+00 -0.96511625502E+03  0.96511625503E+03  0.50400001928E-02 0. -1.
    10030    2    1    2    0    0  0.00000000000E+00  0.00000000000E+00 -0.79730461421E+03  0.11329278959E+04  0.80487947515E+03 0.  0.
        2    1    3    3  502    0  0.16584525944E+03 -0.22114851171E+03 -0.81034424085E+03  0.85619454740E+03  0.25500000920E-02 0. -1.
       -2    1    3    3    0  502 -0.16584525944E+03  0.22114851171E+03  0.13039626648E+02  0.27673334852E+03  0.25500000920E-02 0.  1.
</event>
<event>
 5   0  0.1121480E-02  0.8000698E+03  0.7818609E-02  0.9559916E-01
       -2   -1    0    0    0  501  0.00000000000E+00  0.00000000000E+00  0.20053784376E+03  0.20053784377E+03  0.25500000920E-02 0. -1.
        2   -1    0    0  501    0  0.00000000000E+00  0.00000000000E+00 -0.79799360843E+03  0.79799360844E+03  0.25500000920E-02 0.  1.
    10030    2    1    2    0    0  0.00000000000E+00  0.00000000000E+00 -0.59745576468E+03  0.99853145221E+03  0.80006979090E+03 0.  0.
        2    1    3    3  502    0 -0.16311053142E+03  0.33476707050E+03 -0.11634995255E+03  0.39014272827E+03  0.25500000920E-02 0. -1.
       -2    1    3    3    0  502  0.16311053142E+03 -0.33476707050E+03 -0.48110581213E+03  0.60838872394E+03  0.25500000920E-02 0.  1.
</event>
<event>
 5   0  0.6596225E-03  0.8015770E+03  0.7818609E-02  0.9557737E-01
       -1   -1    0    0    0  501  0.00000000000E+00  0.00000000000E+00  0.85398805932E+03  0.85398805933E+03  0.50400001928E-02 0. -1.
        1   -1    0    0  501    0  0.00000000000E+00  0.00000000000E+00 -0.18809561911E+03  0.18809561918E+03  0.50400001928E-02 0.  1.
    10030    2    1    2    0    0  0.00000000000E+00  0.00000000000E+00  0.66589244020E+03  0.10420836785E+04  0.80157697765E+03 0.  0.
        5    1    3    3  502    0 -0.37956126224E+03  0.11250361242E+03  0.41398283150E+03  0.57282430934E+03  0.46999998093E+01 0. -1.
       -5    1    3    3    0  502  0.37956126224E+03 -0.11250361242E+03  0.25190960870E+03  0.46925936917E+03  0.46999998093E+01 0.  1.
</event>
<event>
 5   0  0.6551489E-03  0.7850844E+03  0.7818609E-02  0.9581861E-01
        1   -1    0    0  501    0  0.00000000000E+00  0.00000000000E+00  0.20624545264E+03  0.20624545271E+03  0.50400001928E-02 0. -1.
       -1   -1    0    0    0  501  0.00000000000E+00  0.00000000000E+00 -0.74711652048E+03  0.74711652050E+03  0.50400001928E-02 0.  1.
    10030    2    1    2    0    0  0.00000000000E+00  0.00000000000E+00 -0.54087106784E+03  0.95336197321E+03  0.78508441580E+03 0.  0.
        4    1    3    3  502    0 -0.25006253051E+03  0.13539501710E+03 -0.59903756710E+03  0.66310685377E+03  0.12699999809E+01 0.  1.
       -4    1    3    3    0  502  0.25006253051E+03 -0.13539501710E+03  0.58166499264E+02  0.29025511943E+03  0.12699999809E+01 0. -1.
</event>
<event>
 5   0  0.6596225E-03  0.7744298E+03  0.7818609E-02  0.9597785E-01
       -1   -1    0    0    0  501  0.00000000000E+00  0.00000000000E+00  0.24715972736E+03  0.24715972742E+03  0.50400001928E-02 0. -1.
        1   -1    0    0  501    0  0.00000000000E+00  0.00000000000E+00 -0.60663346286E+03  0.60663346288E+03  0.50400001928E-02 0.  1.
    10030    2    1    2    0    0  0.00000000000E+00  0.00000000000E+00 -0.35947373550E+03  0.85379319030E+03  0.77442975491E+03 0.  0.
        5    1    3    3  502    0 -0.92894366713E+02 -0.15533884639E+03  0.19761695538E+03  0.26801878967E+03  0.46999998093E+01 0. -1.
       -5    1    3    3    0  502  0.92894366713E+02  0.15533884639E+03 -0.55709069088E+03  0.58577440062E+03  0.46999998093E+01 0.  1.
</event>
<event>
 5   0  0.1121480E-02  0.7972989E+03  0.7818609E-02  0.9563935E-01
       -2   -1    0    0    0  501  0.00000000000E+00  0.00000000000E+00  0.30234692102E+03  0.30234692103E+03  0.25500000920E-02 0.  1.
        2   -1    0    0  501    0  0.00000000000E+00  0.00000000000E+00 -0.52562595696E+03  0.52562595696E+03  0.25500000920E-02 0. -1.
    10030    2    1    2    0    0  0.00000000000E+00  0.00000000000E+00 -0.22327903594E+03  0.82797287799E+03  0.79729891433E+03 0.  0.
        2    1    3    3  502    0 -0.16968847180E+03  0.18716203409E+03 -0.43188254535E+03  0.50034621758E+03  0.25500000920E-02 0. -1.
       -2    1    3    3    0  502  0.16968847180E+03 -0.18716203409E+03  0.20860350941E+03  0.32762666041E+03  0.25500000920E-02 0.  1.
</event>
<event>
 5   0  0.1121480E-02  0.7988791E+03  0.7818609E-02  0.9561641E-01
       -2   -1    0    0    0  501  0.00000000000E+00  0.00000000000E+00  0.13005478320E+03  0.13005478322E+03  0.25500000920E-02 0.  1.
        2   -1    0    0  501    0  0.00000000000E+00  0.00000000000E+00 -0.12268056928E+04  0.12268056928E+04  0.25500000920E-02 0. -1.
    10030    2    1    2    0    0  0.00000000000E+00  0.00000000000E+00 -0.10967509096E+04  0.13568604760E+04  0.79887908576E+03 0.  0.
        2    1    3    3  502    0  0.20861906180E+03  0.31515559535E+03 -0.32884074377E+03  0.50098023613E+03  0.25500000920E-02 0.  1.
       -2    1    3    3    0  502 -0.20861906180E+03 -0.31515559535E+03 -0.76791016580E+03  0.85588023986E+03  0.25500000920E-02 0. -1.
</event>
<event>
 5   0  0.6551489E-03  0.7992892E+03  0.7818609E-02  0.9561047E-01
        1   -1    0    0  501    0  0.00000000000E+00  0.00000000000E+00  0.76136472440E+03  0.76136472442E+03  0.50400001928E-02 0. -1.
       -1   -1    0    0    0  501  0.00000000000E+00  0.00000000000E+00 -0.20977566128E+03  0.20977566134E+03  0.50400001928E-02 0.  1.
    10030    2    1    2    0    0  0.00000000000E+00  0.00000000000E+00  0.55158906312E+03  0.97114038576E+03  0.79928915563E+03 0.  0.
        4    1    3    3  502    0 -0.22657097439E+03 -0.31796771027E+03  0.17215307071E+03  0.42670383625E+03  0.12699999809E+01 0.  1.
       -4    1    3    3    0  502  0.22657097439E+03  0.31796771027E+03  0.37943599240E+03  0.54443654951E+03  0.12699999809E+01 0. -1.
</event>
<event>
 5   0  0.1092868E-02  0.8052053E+03  0.7818609E-02  0.9552513E-01
        2   -1    0    0  501    0  0.00000000000E+00  0.00000000000E+00  0.85644428249E+03  0.85644428249E+03  0.25500000920E-02 0.  1.
       -2   -1    0    0    0  501  0.00000000000E+00  0.00000000000E+00 -0.18925796974E+03  0.18925796976E+03  0.25500000920E-02 0. -1.
    10030    2    1    2    0    0  0.00000000000E+00  0.00000000000E+00  0.66718631275E+03  0.10457022522E+04  0.80520533060E+03 0.  0.
        3    1    3    3  502    0 -0.75567676796E+02  0.11578472039E+03 -0.15745873180E+03  0.20954674341E+03  0.10100000352E+00 0. -1.
       -3    1    3    3    0  502  0.75567676796E+02 -0.11578472039E+03  0.82464504455E+03  0.83615550883E+03  0.10100000352E+00 0.  1.
</event>
<event>
 5   0  0.1092868E-02  0.7771292E+03  0.7818609E-02  0.9593725E-01
        2   -1    0    0  501    0  0.00000000000E+00  0.00000000000E+00  0.11728153209E+04  0.11728153209E+04  0.25500000920E-02 0.  1.
       -2   -1    0    0    0  501  0.00000000000E+00  0.00000000000E+00 -0.12873506358E+03  0.12873506361E+03  0.25500000920E-02 0. -1.
    10030    2    1    2    0    0  0.00000000000E+00  0.00000000000E+00  0.10440802573E+04  0.13015503845E+04  0.77712921687E+03 0.  0.
        3    1    3    3  502    0  0.29585449990E+03 -0.11812983186E+03  0.14942443228E+03  0.35186959722E+03  0.10100000352E+00 0. -1.
       -3    1    3    3    0  502 -0.29585449990E+03  0.11812983186E+03  0.89465582505E+03  0.94968078731E+03  0.10100000352E+00 0.  1.
</event>
<event>
 5   0  0.1119792E-02  0.8053579E+03  0.7818609E-02  0.9552294E-01
        2   -1    0    0  501    0  0.00000000000E+00  0.00000000000E+00  0.10853696451E+04  0.10853696451E+04  0.25500000920E-02 0.  1.
       -2   -1    0    0    0  501  0.00000000000E+00  0.00000000000E+00 -0.14939643270E+03  0.14939643273E+03  0.25500000920E-02 0. -1.
    10030    2    1    2    0    0  0.00000000000E+00  0.00000000000E+00  0.93597321239E+03  0.12347660778E+04  0.80535794069E+03 0.  0.
        4    1    3    3  502    0  0.11982940919E+02 -0.26729312941E+03  0.92937092534E+03  0.96712002237E+03  0.12699999809E+01 0.  1.
       -4    1    3    3    0  502 -0.11982940919E+02  0.26729312941E+03  0.66022870507E+01  0.26764605545E+03  0.12699999809E+01 0. -1.
</event>
<event>
 5   0  0.6551489E-03  0.8025153E+03  0.7818609E-02  0.9556383E-01
       -1   -1    0    0    0  501  0.00000000000E+00  0.00000000000E+00  0.41310251180E+03  0.41310251183E+03  0.50400001928E-02 0.  1.
        1   -1    0    0  501    0  0.00000000000E+00  0.00000000000E+00 -0.38975238419E+03  0.38975238422E+03  0.50400001928E-02 0. -1.
    10030    2    1    2    0    0  0.00000000000E+00  0.00000000000E+00  0.23350127616E+02  0.80285489605E+03  0.80251526818E+03 0.  0.
        4    1    3    3  502    0  0.14477545891E+03  0.31361011232E+02 -0.36139377459E+03  0.39057716234E+03  0.12699999809E+01 0. -1.
       -4    1    3    3    0  502 -0.14477545891E+03 -0.31361011232E+02  0.38474390221E+03  0.41227773371E+03  0.12699999809E+01 0.  1.
</event>
<event>
 5   0  0.6551489E-03  0.8011040E+03  0.7818609E-02  0.9558420E-01
        1   -1    0    0  501    0  0.00000000000E+00  0.00000000000E+00  0.25423578822E+03  0.25423578827E+03  0.50400001928E-02 0.  1.
       -1   -1    0    0    0  501  0.00000000000E+00  0.00000000000E+00 -0.63107528483E+03  0.63107528485E+03  0.50400001928E-02 0. -1.
    10030    2    1    2    0    0  0.00000000000E+00  0.00000000000E+00 -0.37683949661E+03  0.88531107311E+03  0.80110404441E+03 0.  0.
        4    1    3    3  502    0 -0.30557377886E+03  0.17206524701E+03 -0.40230572638E+03  0.53369775523E+03  0.12699999809E+01 0. -1.
       -4    1    3    3    0  502  0.30557377886E+03 -0.17206524701E+03  0.25466229774E+02  0.35161331788E+03  0.12699999809E+01 0.  1.
</event>
<event>
 5   0  0.1154714E-02  0.7996814E+03  0.7818609E-02  0.9560478E-01
        2   -1    0    0  501    0  0.00000000000E+00  0.00000000000E+00  0.37423410299E+03  0.37423410300E+03  0.25500000920E-02 0.  1.
       -2   -1    0    0    0  501  0.00000000000E+00  0.00000000000E+00 -0.42719941296E+03  0.42719941297E+03  0.25500000920E-02 0. -1.
    10030    2    1    2    0    0  0.00000000000E+00  0.00000000000E+00 -0.52965309969E+02  0.80143351597E+03  0.79968140935E+03 0.  0.
        5    1    3    3  502    0  0.78508871912E+02 -0.37867623442E+03  0.75184994944E+02  0.39399772455E+03  0.46999998093E+01 0.  1.
       -5    1    3    3    0  502 -0.78508871912E+02  0.37867623442E+03 -0.12815030491E+03  0.40743579142E+03  0.46999998093E+01 0. -1.
</event>
<event>
 5   0  0.6551489E-03  0.8028722E+03  0.7818609E-02  0.9555869E-01
       -1   -1    0    0    0  501  0.00000000000E+00  0.00000000000E+00  0.13259670440E+03  0.13259670450E+03  0.50400001928E-02 0.  1.
        1   -1    0    0  501    0  0.00000000000E+00  0.00000000000E+00 -0.12153463698E+04  0.12153463698E+04  0.50400001928E-02 0. -1.
    10030    2    1    2    0    0  0.00000000000E+00  0.00000000000E+00 -0.10827496654E+04  0.13479430743E+04  0.80287215276E+03 0.  0.
        4    1    3    3  502    0  0.28682947334E+03  0.14981796568E+03 -0.94020750545E+03  0.99433813958E+03  0.12699999809E+01 0. -1.
       -4    1    3    3    0  502 -0.28682947334E+03 -0.14981796568E+03 -0.14254215997E+03  0.35360493476E+03  0.12699999809E+01 0.  1.
</event>
<event>
 5   0  0.1092868E-02  0.8054365E+03  0.7818609E-02  0.9552181E-01
       -2   -1    0    0    0  501  0.00000000000E+00  0.00000000000E+00  0.87488840724E+02  0.87488840761E+02  0.25500000920E-02 0.  1.
        2   -1    0    0  501    0  0.00000000000E+00  0.00000000000E+00 -0.18537449381E+04  0.18537449381E+04  0.25500000920E-02 0. -1.
    10030    2    1    2    0    0  0.00000000000E+00  0.00000000000E+00 -0.17662560974E+04  0.19412337789E+04  0.80543651686E+03 0.  0.
        3    1    3    3  502    0 -0.24380194168E+03 -0.24099931593E+03 -0.37377928119E+03  0.50717947346E+03  0.10100000352E+00 0.  1.
       -3    1    3    3    0  502  0.24380194168E+03  0.24099931593E+03 -0.13924768162E+04  0.14340543054E+04  0.10100000352E+00 0. -1.
</event>
<event>
 5   0  0.1092868E-02  0.8023752E+03  0.7818609E-02  0.9556585E-01
        2   -1    0    0  501    0  0.00000000000E+00  0.00000000000E+00  0.11448899713E+04  0.11448899713E+04  0.25500000920E-02 0.  1.
       -2   -1    0    0    0  501  0.00000000000E+00  0.00000000000E+00 -0.14058248992E+03  0.14058248994E+03  0.25500000920E-02 0. -1.
    10030    2    1    2    0    0  0.00000000000E+00  0.00000000000E+00  0.10043074814E+04  0.12854724612E+04  0.80237518122E+03 0.  0.
        3    1    3    3  502    0 -0.26537551781E+03  0.15511570356E+03  0.89119122913E+02  0.32004261469E+03  0.10100000352E+00 0. -1.
       -3    1    3    3    0  502  0.26537551781E+03 -0.15511570356E+03  0.91518835844E+03  0.96542984653E+03  0.10100000352E+00 0.  1.
</event>
<event>
 5   0  0.6551489E-03  0.8039876E+03  0.7818609E-02  0.9554263E-01
       -1   -1    0    0    0  501  0.00000000000E+00  0.00000000000E+00  0.14089564561E+03  0.14089564570E+03  0.50400001928E-02 0. -1.
        1   -1    0    0  501    0  0.00000000000E+00  0.00000000000E+00 -0.11469410945E+04  0.11469410945E+04  0.50400001928E-02 0.  1.
    10030    2    1    2    0    0  0.00000000000E+00  0.00000000000E+00 -0.10060454489E+04  0.12878367402E+04  0.80398757716E+03 0.  0.
        4    1    3    3  502    0  0.45951120511E+02  0.43973777829E+01 -0.11426784223E+04  0.11436111367E+04  0.12699999809E+01 0.  1.
       -4    1    3    3    0  502 -0.45951120511E+02 -0.43973777829E+01  0.13663297335E+03  0.14422560353E+03  0.12699999809E+01 0. -1.
</event>
<event>
 5   0  0.6517392E-03  0.8401535E+03  0.7818609E-02  0.9503649E-01
        1   -1    0    0  501    0  0.00000000000E+00  0.00000000000E+00  0.91488688486E+03  0.91488688487E+03  0.50400001928E-02 0.  1.
       -1   -1    0    0    0  501  0.00000000000E+00  0.00000000000E+00 -0.19288119830E+03  0.19288119837E+03  0.50400001928E-02 0. -1.
    10030    2    1    2    0    0  0.00000000000E+00  0.00000000000E+00  0.72200568656E+03  0.11077680832E+04  0.84015350670E+03 0.  0.
        3    1    3    3  502    0  0.25824986683E+03 -0.33087573203E+03  0.33844383932E+03  0.53918084752E+03  0.10100000352E+00 0. -1.
       -3    1    3    3    0  502 -0.25824986683E+03  0.33087573203E+03  0.38356184724E+03  0.56858723572E+03  0.10100000352E+00 0.  1.
</event>
<event>
 5   0  0.6551489E-03  0.8095667E+03  0.7818609E-02  0.9546272E-01
       -1   -1    0    0    0  501  0.00000000000E+00  0.00000000000E+00  0.67023820302E+02  0.67023820491E+02  0.50400001928E-02 0.  1.
        1   -1    0    0  501    0  0.00000000000E+00  0.00000000000E+00 -0.24446463954E+04  0.24446463954E+04  0.50400001928E-02 0. -1.
    10030    2    1    2    0    0  0.00000000000E+00  0.00000000000E+00 -0.23776225751E+04  0.25116702159E+04  0.80956665186E+03 0.  0.
        4    1    3    3  502    0 -0.15259466309E+03  0.16069517854E+03 -0.13789733854E+03  0.26100835329E+03  0.12699999809E+01 0.  1.
       -4    1    3    3    0  502  0.15259466309E+03 -0.16069517854E+03 -0.22397252365E+04  0.22506618626E+04  0.12699999809E+01 0. -1.
</event>
<event>
 5   0  0.1154714E-02  0.8022029E+03  0.7818609E-02  0.9556834E-01
       -2   -1    0    0    0  501  0.00000000000E+00  0.00000000000E+00  0.21656478310E+03  0.21656478312E+03  0.25500000920E-02 0. -1.
        2   -1    0    0  501    0  0.00000000000E+00  0.00000000000E+00 -0.74288327610E+03  0.74288327611E+03  0.25500000920E-02 0.  1.
    10030    2    1    2    0    0  0.00000000000E+00  0.00000000000E+00 -0.52631849300E+03  0.95944805922E+03  0.80220285606E+03 0.  0.
        5    1    3    3  502    0 -0.97375447055E+02  0.20749874113E+02  0.20151709231E+03  0.22481940187E+03  0.46999998093E+01 0. -1.
       -5    1    3    3    0  502  0.97375447055E+02 -0.20749874113E+02 -0.72783558531E+03  0.73462865736E+03  0.46999998093E+01 0.  1.
</event>
<event>
 5   0  0.6551489E-03  0.7955367E+03  0.7818609E-02  0.9566500E-01
       -1   -1    0    0    0  501  0.00000000000E+00  0.00000000000E+00  0.10638456571E+04  0.10638456571E+04  0.50400001928E-02 0.  1.
        1   -1    0    0  501    0  0.00000000000E+00  0.00000000000E+00 -0.14872425901E+03  0.14872425909E+03  0.50400001928E-02 0. -1.
    10030    2    1    2    0    0  0.00000000000E+00  0.00000000000E+00  0.91512139809E+03  0.12125699162E+04  0.79553669208E+03 0.  0.
        4    1    3    3  502    0 -0.97902795813E+02 -0.11145671009E+03  0.10200986791E+04  0.10308299974E+04  0.12699999809E+01 0.  1.
       -4    1    3    3    0  502  0.97902795813E+02  0.11145671009E+03 -0.10497728099E+03  0.18173991877E+03  0.12699999809E+01 0. -1.
</event>
<event>
 5   0  0.4385875E-03  0.7979473E+03  0.7818609E-02  0.9562993E-01
       -3   -1    0    0    0  501  0.00000000000E+00  0.00000000000E+00  0.15293353167E+04  0.15293353200E+04  0.10100000352E+00 0. -1.
        3   -1    0    0  501    0  0.00000000000E+00  0.00000000000E+00 -0.10408439685E+03  0.10408444586E+03  0.10100000352E+00 0.  1.
    10030    2    1    2    0    0  0.00000000000E+00  0.00000000000E+00  0.14252509198E+04  0.16334197659E+04  0.79794733351E+03 0.  0.
        2    1    3    3  502    0 -0.17672453336E+03 -0.17930806237E+03  0.13462027979E+04  0.13695418632E+04  0.25500000920E-02 0. -1.
       -2    1    3    3    0  502  0.17672453336E+03  0.17930806237E+03  0.79048121866E+02  0.26387790263E+03  0.25500000920E-02 0.  1.
</event>
<event>
 5   0  0.6600401E-03  0.8032218E+03  0.7818609E-02  0.9555365E-01
        1   -1    0    0  501    0  0.00000000000E+00  0.00000000000E+00  0.11893975668E+04  0.11893975668E+04  0.50400001928E-02 0.  1.
       -1   -1    0    0    0  501  0.00000000000E+00  0.00000000000E+00 -0.13560757277E+03  0.13560757286E+03  0.50400001928E-02 0. -1.
    10030    2    1    2    0    0  0.00000000000E+00  0.00000000000E+00  0.10537899940E+04  0.13250051396E+04  0.80322180537E+03 0.  0.
        2    1    3    3  502    0 -0.20524919735E+03 -0.16710857584E+03  0.28616811382E+02  0.26621688720E+03  0.25500000920E-02 0. -1.
       -2    1    3    3    0  502  0.20524919735E+03  0.16710857584E+03  0.10251731826E+04  0.10587882524E+04  0.25500000920E-02 0.  1.
</event>
<event>
 5   0  0.6596225E-03  0.8012325E+03  0.7818609E-02  0.9558235E-01
        1   -1    0    0  501    0  0.00000000000E+00  0.00000000000E+00  0.51252012370E+03  0.51252012373E+03  0.50400001928E-02 0. -1.
       -1   -1    0    0    0  501  0.00000000000E+00  0.00000000000E+00 -0.31314552035E+03  0.31314552039E+03  0.50400001928E-02 0.  1.
    10030    2    1    2    0    0  0.00000000000E+00  0.00000000000E+00  0.19937460335E+03  0.82566564412E+03  0.80123250272E+03 0.  0.
        5    1    3    3  502    0 -0.11322627443E+03 -0.38360870676E+02  0.49368071250E+03  0.50797094554E+03  0.46999998093E+01 0. -1.
       -5    1    3    3    0  502  0.11322627443E+03  0.38360870676E+02 -0.29430610915E+03  0.31769469857E+03  0.46999998093E+01 0.  1.
</event>
<event>
 5   0  0.1121480E-02  0.7606908E+03  0.7818609E-02  0.9618726E-01
       -2   -1    0    0    0  501  0.00000000000E+00  0.00000000000E+00  0.59339056965E+03  0.59339056965E+03  0.25500000920E-02 0.  1.
        2   -1    0    0  501    0  0.00000000000E+00  0.00000000000E+00 -0.24378986335E+03  0.24378986337E+03  0.25500000920E-02 0. -1.
    10030    2    1    2    0    0  0.00000000000E+00  0.00000000000E+00  0.34960070629E+03  0.83718043302E+03  0.76069075424E+03 0.  0.
        2    1    3    3  502    0 -0.66850112920E+02  0.22160764934E+03 -0.15734739062E+03  0.27988763671E+03  0.25500000920E-02 0. -1.
       -2    1    3    3    0  502  0.66850112920E+02 -0.22160764934E+03  0.50694809692E+03  0.55729279631E+03  0.25500000920E-02 0.  1.
</event>
<event>
 5   0  0.1119792E-02  0.8019394E+03  0.7818609E-02  0.9557214E-01
       -2   -1    0    0    0  501  0.00000000000E+00  0.00000000000E+00  0.15715120169E+03  0.15715120171E+03  0.25500000920E-02 0. -1.
        2   -1    0    0  501    0  0.00000000000E+00  0.00000000000E+00 -0.10230700339E+04  0.10230700339E+04  0.25500000920E-02 0.  1.
    10030    2    1    2    0    0  0.00000000000E+00  0.00000000000E+00 -0.86591883225E+03  0.11802212357E+04  0.80193936244E+03 0.  0.
        4    1    3    3  502    0  0.34434638531E+03 -0.16773230276E+03 -0.25841131307E+03  0.46204607788E+03  0.12699999809E+01 0.  1.
       -4    1    3    3    0  502 -0.34434638531E+03  0.16773230276E+03 -0.60750751918E+03  0.71817515777E+03  0.12699999809E+01 0. -1.
</event>
<event>
 5   0  0.1092868E-02  0.8012847E+03  0.7818609E-02  0.9558159E-01
        2   -1    0    0  501    0  0.00000000000E+00  0.00000000000E+00  0.10924556661E+04  0.10924556661E+04  0.25500000920E-02 0. -1.
       -2   -1    0    0    0  501  0.00000000000E+00  0.00000000000E+00 -0.14692981616E+03  0.14692981619E+03  0.25500000920E-02 0.  1.
    10030    2    1    2    0    0  0.00000000000E+00  0.00000000000E+00  0.94552584993E+03  0.12393854823E+04  0.80128474390E+03 0.  0.
        3    1    3    3  502    0  0.17374951834E+03 -0.27073351203E+03  0.84213710516E+03  0.90148790549E+03  0.10100000352E+00 0. -1.
       -3    1    3    3    0  502 -0.17374951834E+03  0.27073351203E+03  0.10338874477E+03  0.33789757680E+03  0.10100000352E+00 0.  1.
</event>
<event>
 5   0  0.6551489E-03  0.8095247E+03  0.7818609E-02  0.9546332E-01
        1   -1    0    0  501    0  0.00000000000E+00  0.00000000000E+00  0.90019409514E+03  0.90019409515E+03  0.50400001928E-02 0.  1.
       -1   -1    0    0    0  501  0.00000000000E+00  0.00000000000E+00 -0.18199694765E+03  0.18199694772E+03  0.50400001928E-02 0. -1.
    10030    2    1    2    0    0  0.00000000000E+00  0.00000000000E+00  0.71819714749E+03  0.10821910429E+04  0.80952474367E+03 0.  0.
        4    1    3    3  502    0 -0.35382524192E+03 -0.14278051098E+01  0.62186712988E+03  0.71548213155E+03  0.12699999809E+01 0.  1.
       -4    1    3    3    0  502  0.35382524192E+03  0.14278051098E+01  0.96330017610E+02  0.36670891132E+03  0.12699999809E+01 0. -1.
</event>
<event>
 5   0  0.6517392E-03  0.8037759E+03  0.7818609E-02  0.9554568E-01
       -1   -1    0    0    0  501  0.00000000000E+00  0.00000000000E+00  0.10284328026E+03  0.10284328039E+03  0.50400001928E-02 0.  1.
        1   -1    0    0  501    0  0.00000000000E+00  0.00000000000E+00 -0.15704857601E+04  0.15704857601E+04  0.50400001928E-02 0. -1.
    10030    2    1    2    0    0  0.00000000000E+00  0.00000000000E+00 -0.14676424798E+04  0.16733290405E+04  0.80377585752E+03 0.  0.
        3    1    3    3  502    0 -0.12983954433E+03  0.37557858374E+03 -0.85866745735E+03  0.94616456938E+03  0.10100000352E+00 0. -1.
       -3    1    3    3    0  502  0.12983954433E+03 -0.37557858374E+03 -0.60897502248E+03  0.72716447111E+03  0.10100000352E+00 0.  1.
</event>
<event>
 5   0  0.6596225E-03  0.7079969E+03  0.7818609E-02  0.9703653E-01
       -1   -1    0    0    0  501  0.00000000000E+00  0.00000000000E+00  0.65003335453E+02  0.65003335648E+02  0.50400001928E-02 0.  1.
        1   -1    0    0  501    0  0.00000000000E+00  0.00000000000E+00 -0.19278225349E+04  0.19278225349E+04  0.50400001928E-02 0. -1.
    10030    2    1    2    0    0  0.00000000000E+00  0.00000000000E+00 -0.18628191994E+04  0.19928258706E+04  0.70799687889E+03 0.  0.
        5    1    3    3  502    0  0.18472186542E+03  0.11883954206E+03 -0.15010904458E+03  0.26608235489E+03  0.46999998093E+01 0.  1.
       -5    1    3    3    0  502 -0.18472186542E+03 -0.11883954206E+03 -0.17127101549E+04  0.17267435157E+04  0.46999998093E+01 0. -1.
</event>
<event>
 5   0  0.6596225E-03  0.7959284E+03  0.7818609E-02  0.9565929E-01
       -1   -1    0    0    0  501  0.00000000000E+00  0.00000000000E+00  0.19808852490E+03  0.19808852497E+03  0.50400001928E-02 0.  1.
        1   -1    0    0  501    0  0.00000000000E+00  0.00000000000E+00 -0.79951875380E+03  0.79951875381E+03  0.50400001928E-02 0. -1.
    10030    2    1    2    0    0  0.00000000000E+00  0.00000000000E+00 -0.60143022889E+03  0.99760727878E+03  0.79592836514E+03 0.  0.
        5    1    3    3  502    0 -0.40808861385E+02 -0.39512088005E+03 -0.27085584914E+03  0.48080230244E+03  0.46999998093E+01 0.  1.
       -5    1    3    3    0  502  0.40808861385E+02  0.39512088005E+03 -0.33057437976E+03  0.51680497634E+03  0.46999998093E+01 0. -1.
</event>
<event>
 5   0  0.1121480E-02  0.7965846E+03  0.7818609E-02  0.9564974E-01
       -2   -1    0    0    0  501  0.00000000000E+00  0.00000000000E+00  0.17367021411E+03  0.17367021413E+03  0.25500000920E-02 0. -1.
        2   -1    0    0  501    0  0.00000000000E+00  0.00000000000E+00 -0.91343678493E+03  0.91343678494E+03  0.25500000920E-02 0.  1.
    10030    2    1    2    0    0  0.00000000000E+00  0.00000000000E+00 -0.73976657082E+03  0.10871069991E+04  0.79658461454E+03 0.  0.
        2    1    3    3  502    0 -0.20394892028E+03 -0.35672436574E+02 -0.83422389112E+03  0.85953312056E+03  0.25500000920E-02 0.  1.
       -2    1    3    3    0  502  0.20394892028E+03  0.35672436574E+02  0.94457320300E+02  0.22757387851E+03  0.25500000920E-02 0. -1.
</event>
<event>
 5   0  0.1121480E-02  0.7939960E+03  0.7818609E-02  0.9568748E-01
       -2   -1    0    0    0  501  0.00000000000E+00  0.00000000000E+00  0.21617711885E+03  0.21617711886E+03  0.25500000920E-02 0. -1.
        2   -1    0    0  501    0  0.00000000000E+00  0.00000000000E+00 -0.72906619755E+03  0.72906619756E+03  0.25500000920E-02 0.  1.
    10030    2    1    2    0    0  0.00000000000E+00  0.00000000000E+00 -0.51288907871E+03  0.94524331642E+03  0.79399604544E+03 0.  0.
        2    1    3    3  502    0  0.84211753353E+02 -0.29696912793E+03 -0.55365010227E+03  0.63388541401E+03  0.25500000920E-02 0.  1.
       -2    1    3    3    0  502 -0.84211753353E+02  0.29696912793E+03  0.40761023558E+02  0.31135790241E+03  0.25500000920E-02 0. -1.
</event>
<event>
 5   0  0.6517392E-03  0.7948474E+03  0.7818609E-02  0.9567505E-01
        1   -1    0    0  501    0  0.00000000000E+00  0.00000000000E+00  0.58434513057E+03  0.58434513059E+03  0.50400001928E-02 0.  1.
       -1   -1    0    0    0  501  0.00000000000E+00  0.00000000000E+00 -0.27029503673E+03  0.27029503677E+03  0.50400001928E-02 0. -1.
    10030    2    1    2    0    0  0.00000000000E+00  0.00000000000E+00  0.31405009384E+03  0.85464016736E+03  0.79484737795E+03 0.  0.
        3    1    3    3  502    0  0.32352153463E+03  0.22696922686E+03  0.11186090355E+03  0.41072385523E+03  0.10100000352E+00 0.  1.
       -3    1    3    3    0  502 -0.32352153463E+03 -0.22696922686E+03  0.20218919029E+03  0.44391631214E+03  0.10100000352E+00 0. -1.
</event>
<event>
 5   0  0.6557679E-03  0.8011561E+03  0.7818609E-02  0.9558345E-01
        1   -1    0    0  501    0  0.00000000000E+00  0.00000000000E+00  0.12935413574E+04  0.12935413574E+04  0.50400001928E-02 0.  1.
       -1   -1    0    0    0  501  0.00000000000E+00  0.00000000000E+00 -0.12404921214E+03  0.12404921225E+03  0.50400001928E-02 0. -1.
    10030    2    1    2    0    0  0.00000000000E+00  0.00000000000E+00  0.11694921453E+04  0.14175905697E+04  0.80115613046E+03 0.  0.
        1    1    3    3  502    0  0.83079545491E+02  0.21148156665E+03  0.11684870561E+04  0.11903733297E+04  0.50400001928E-02 0. -1.
       -1    1    3    3    0  502 -0.83079545491E+02 -0.21148156665E+03  0.10050892360E+01  0.22721723997E+03  0.50400001928E-02 0.  1.
</event>
<event>
 5   0  0.1106332E-02  0.7962336E+03  0.7818609E-02  0.9565485E-01
        2   -1    0    0  501    0  0.00000000000E+00  0.00000000000E+00  0.85209913180E+03  0.85209913180E+03  0.25500000920E-02 0.  1.
       -2   -1    0    0    0  501  0.00000000000E+00  0.00000000000E+00 -0.18600770030E+03  0.18600770031E+03  0.25500000920E-02 0. -1.
    10030    2    1    2    0    0  0.00000000000E+00  0.00000000000E+00  0.66609143150E+03  0.10381068321E+04  0.79623363391E+03 0.  0.
        1    1    3    3  502    0 -0.61224575486E+01 -0.19447746980E+03 -0.11979310141E+03  0.22849367150E+03  0.50400001928E-02 0. -1.
       -1    1    3    3    0  502  0.61224575486E+01  0.19447746980E+03  0.78588453291E+03  0.80961316062E+03  0.50400001928E-02 0.  1.
</event>
<event>
 5   0  0.1154714E-02  0.7990854E+03  0.7818609E-02  0.9561342E-01
        2   -1    0    0  501    0  0.00000000000E+00  0.00000000000E+00  0.65861949632E+03  0.65861949632E+03  0.25500000920E-02 0.  1.
       -2   -1    0    0    0  501  0.00000000000E+00  0.00000000000E+00 -0.24237725141E+03  0.24237725142E+03  0.25500000920E-02 0. -1.
    10030    2    1    2    0    0  0.00000000000E+00  0.00000000000E+00  0.41624224491E+03  0.90099674774E+03  0.79908543536E+03 0.  0.
        5    1    3    3  502    0  0.34656759266E+03  0.79223004664E+02  0.41365101834E+03  0.54544902211E+03  0.46999998093E+01 0.  1.
       -5    1    3    3    0  502 -0.34656759266E+03 -0.79223004664E+02  0.25912265629E+01  0.35554772563E+03  0.46999998093E+01 0. -1.
</event>
<event>
 5   0  0.6600401E-03  0.8003208E+03  0.7818609E-02  0.9559553E-01
       -1   -1    0    0    0  501  0.00000000000E+00  0.00000000000E+00  0.20788387052E+03  0.20788387058E+03  0.50400001928E-02 0.  1.
        1   -1    0    0  501    0  0.00000000000E+00  0.00000000000E+00 -0.77027793392E+03  0.77027793394E+03  0.50400001928E-02 0. -1.
    10030    2    1    2    0    0  0.00000000000E+00  0.00000000000E+00 -0.56239406341E+03  0.97816180452E+03  0.80032083145E+03 0.  0.
        2    1    3    3  502    0 -0.83106076843E+02 -0.28070510491E+03  0.52237084740E+02  0.29737297954E+03  0.25500000920E-02 0.  1.
       -2    1    3    3    0  502  0.83106076843E+02  0.28070510491E+03 -0.61463114815E+03  0.68078882498E+03  0.25500000920E-02 0. -1.
</event>
<event>
 5   0  0.6600401E-03  0.8029325E+03  0.7818609E-02  0.9555782E-01
       -1   -1    0    0    0  501  0.00000000000E+00  0.00000000000E+00  0.61725993056E+03  0.61725993058E+03  0.50400001928E-02 0. -1.
        1   -1    0    0  501    0  0.00000000000E+00  0.00000000000E+00 -0.26111387799E+03  0.26111387803E+03  0.50400001928E-02 0.  1.
    10030    2    1    2    0    0  0.00000000000E+00  0.00000000000E+00  0.35614605258E+03  0.87837380862E+03  0.80293246098E+03 0.  0.
        2    1    3    3  502    0  0.10099674060E+02  0.19073736317E+03 -0.20822308349E+03  0.28255901619E+03  0.25500000920E-02 0.  1.
       -2    1    3    3    0  502 -0.10099674060E+02 -0.19073736317E+03  0.56436913607E+03  0.59581479243E+03  0.25500000920E-02 0. -1.
</event>
<event>
 5   0  0.6517392E-03  0.8010300E+03  0.7818609E-02  0.9558527E-01
        1   -1    0    0  501    0  0.00000000000E+00  0.00000000000E+00  0.89623456167E+03  0.89623456168E+03  0.50400001928E-02 0. -1.
       -1   -1    0    0    0  501  0.00000000000E+00  0.00000000000E+00 -0.17898470855E+03  0.17898470862E+03  0.50400001928E-02 0.  1.
    10030    2    1    2    0    0  0.00000000000E+00  0.00000000000E+00  0.71724985312E+03  0.10752192703E+04  0.80103004153E+03 0.  0.
        3    1    3    3  502    0  0.15042998846E+02 -0.26616355448E+03 -0.42591181000E+02  0.26996916203E+03  0.10100000352E+00 0.  1.
       -3    1    3    3    0  502 -0.15042998846E+02  0.26616355448E+03  0.75984103412E+03  0.80525010827E+03  0.10100000352E+00 0. -1.
</event>
<event>
 5   0  0.1092868E-02  0.8008790E+03  0.7818609E-02  0.9558746E-01
       -2   -1    0    0    0  501  0.00000000000E+00  0.00000000000E+00  0.15043450606E+03  0.15043450609E+03  0.25500000920E-02 0. -1.
        2   -1    0    0  501    0  0.00000000000E+00  0.00000000000E+00 -0.10659242075E+04  0.10659242075E+04  0.25500000920E-02 0.  1.
    10030    2    1    2    0    0  0.00000000000E+00  0.00000000000E+00 -0.91548970143E+03  0.12163587136E+04  0.80087897131E+03 0.  0.
        3    1    3    3  502    0 -0.49560570039E+02 -0.87999460109E+02  0.13077319747E+03  0.16523254661E+03  0.10100000352E+00 0. -1.
       -3    1    3    3    0  502  0.49560570039E+02  0.87999460109E+02 -0.10462628989E+04  0.10511261670E+04  0.10100000352E+00 0.  1.
</event>
<event>
 5   0  0.6596225E-03  0.7975938E+03  0.7818609E-02  0.9563506E-01
        1   -1    0    0  501    0  0.00000000000E+00  0.00000000000E+00  0.82805951235E+03  0.82805951236E+03  0.50400001928E-02 0. -1.
       -1   -1    0    0    0  501  0.00000000000E+00  0.00000000000E+00 -0.19206225986E+03  0.19206225993E+03  0.50400001928E-02 0.  1.
    10030    2    1    2    0    0  0.00000000000E+00  0.00000000000E+00  0.63599725248E+03  0.10201217723E+04  0.79759383469E+03 0.  0.
        5    1    3    3  502    0  0.24329505386E+03 -0.30499640829E+03  0.21251726159E+03  0.44429828806E+03  0.46999998093E+01 0.  1.
       -5    1    3    3    0  502 -0.24329505386E+03  0.30499640829E+03  0.42347999089E+03  0.57582348423E+03  0.46999998093E+01 0. -1.
</event>
<event>
 5   0  0.6600401E-03  0.7860699E+03  0.7818609E-02  0.9580402E-01
       -1   -1    0    0    0  501  0.00000000000E+00  0.00000000000E+00  0.39968539810E+03  0.39968539813E+03  0.50400001928E-02 0. -1.
        1   -1    0    0  501    0  0.00000000000E+00  0.00000000000E+00 -0.38649518960E+03  0.38649518963E+03  0.50400001928E-02 0.  1.
    10030    2    1    2    0    0  0.00000000000E+00  0.00000000000E+00  0.13190208497E+02  0.78618058776E+03  0.78606993008E+03 0.  0.
        2    1    3    3  502    0  0.48321474367E+02  0.36333259384E+03  0.14849863945E+03  0.39547109194E+03  0.25500000920E-02 0. -1.
       -2    1    3    3    0  502 -0.48321474367E+02 -0.36333259384E+03 -0.13530843095E+03  0.39070949582E+03  0.25500000920E-02 0.  1.
</event>
<event>
 5   0  0.1092868E-02  0.7992285E+03  0.7818609E-02  0.9561134E-01
       -2   -1    0    0    0  501  0.00000000000E+00  0.00000000000E+00  0.17909759183E+03  0.17909759185E+03  0.25500000920E-02 0. -1.
        2   -1    0    0  501    0  0.00000000000E+00  0.00000000000E+00 -0.89164544558E+03  0.89164544559E+03  0.25500000920E-02 0.  1.
    10030    2    1    2    0    0  0.00000000000E+00  0.00000000000E+00 -0.71254785375E+03  0.10707430374E+04  0.79922850821E+03 0.  0.
        3    1    3    3  502    0 -0.84959895869E+01  0.25658317202E+03  0.54005440923E+02  0.26234272213E+03  0.10100000352E+00 0. -1.
       -3    1    3    3    0  502  0.84959895869E+01 -0.25658317202E+03 -0.76655329467E+03  0.80840031530E+03  0.10100000352E+00 0.  1.
</event>
<event>
 5   0  0.1154714E-02  0.7796548E+03  0.7818609E-02  0.9589942E-01
       -2   -1    0    0    0  501  0.00000000000E+00  0.00000000000E+00  0.86052270297E+03  0.86052270297E+03  0.25500000920E-02 0. -1.
        2   -1    0    0  501    0  0.00000000000E+00  0.00000000000E+00 -0.17659660271E+03  0.17659660273E+03  0.25500000920E-02 0.  1.
    10030    2    1    2    0    0  0.00000000000E+00  0.00000000000E+00  0.68392610025E+03  0.10371193057E+04  0.77965475927E+03 0.  0.
        5    1    3    3  502    0  0.14088580362E+03 -0.26939713570E+03  0.17431712428E+02  0.30454815872E+03  0.46999998093E+01 0.  1.
       -5    1    3    3    0  502 -0.14088580362E+03  0.26939713570E+03  0.66649438783E+03  0.73257114698E+03  0.46999998093E+01 0. -1.
</event>
<event>
 5   0  0.1154714E-02  0.8093074E+03  0.7818609E-02  0.9546642E-01
       -2   -1    0    0    0  501  0.00000000000E+00  0.00000000000E+00  0.70138988639E+02  0.70138988686E+02  0.25500000920E-02 0. -1.
        2   -1    0    0  501    0  0.00000000000E+00  0.00000000000E+00 -0.23345731086E+04  0.23345731086E+04  0.25500000920E-02 0.  1.
    10030    2    1    2    0    0  0.00000000000E+00  0.00000000000E+00 -0.22644341200E+04  0.24047120973E+04  0.80930735027E+03 0.  0.
        5    1    3    3  502    0 -0.36390582922E+03  0.15546262085E+03 -0.88138355457E+03  0.96615482160E+03  0.46999998093E+01 0. -1.
       -5    1    3    3    0  502  0.36390582922E+03 -0.15546262085E+03 -0.13830505654E+04  0.14385572757E+04  0.46999998093E+01 0.  1.
</event>
<event>
 5   0  0.1154714E-02  0.8045526E+03  0.7818609E-02  0.9553451E-01
        2   -1    0    0  501    0  0.00000000000E+00  0.00000000000E+00  0.24438641573E+03  0.24438641575E+03  0.25500000920E-02 0. -1.
       -2   -1    0    0    0  501  0.00000000000E+00  0.00000000000E+00 -0.66217349416E+03  0.66217349417E+03  0.25500000920E-02 0.  1.
    10030    2    1    2    0    0  0.00000000000E+00  0.00000000000E+00 -0.41778707843E+03  0.90655990991E+03  0.80455256345E+03 0.  0.
        5    1    3    3  502    0 -0.77927698957E+02  0.20860989033E+03  0.16856066075E+03  0.27933062660E+03  0.46999998093E+01 0. -1.
       -5    1    3    3    0  502  0.77927698957E+02 -0.20860989033E+03 -0.58634773918E+03  0.62722928331E+03  0.46999998093E+01 0.  1.
</event>
<event>
 5   0  0.1121480E-02  0.8005022E+03  0.7818609E-02  0.9559291E-01
        2   -1    0    0  501    0  0.00000000000E+00  0.00000000000E+00  0.92977074919E+03  0.92977074919E+03  0.25500000920E-02 0. -1.
       -2   -1    0    0    0  501  0.00000000000E+00  0.00000000000E+00 -0.17230154061E+03  0.17230154063E+03  0.25500000920E-02 0.  1.
    10030    2    1    2    0    0  0.00000000000E+00  0.00000000000E+00  0.75746920858E+03  0.11020722898E+04  0.80050217367E+03 0.  0.
        2    1    3    3  502    0 -0.26033611517E+03 -0.16170037409E+03  0.24300393126E+02  0.30742871199E+03  0.25500000920E-02 0.  1.
       -2    1    3    3    0  502  0.26033611517E+03  0.16170037409E+03  0.73316881545E+03  0.79464357784E+03  0.25500000920E-02 0. -1.
</event>
<event>
 5   0  0.1119792E-02  0.8108863E+03  0.7818609E-02  0.9544392E-01
        2   -1    0    0  501    0  0.00000000000E+00  0.00000000000E+00  0.14480410016E+04  0.14480410016E+04  0.25500000920E-02 0.  1.
       -2   -1    0    0    0  501  0.00000000000E+00  0.00000000000E+00 -0.11352175087E+03  0.11352175090E+03  0.25500000920E-02 0. -1.
    10030    2    1    2    0    0  0.00000000000E+00  0.00000000000E+00  0.13345192507E+04  0.15615627525E+04  0.81088630488E+03 0.  0.
        4    1    3    3  502    0 -0.54121245349E+02 -0.17985348959E+03 -0.24687550324E+02  0.18943989801E+03  0.12699999809E+01 0. -1.
       -4    1    3    3    0  502  0.54121245349E+02  0.17985348959E+03  0.13592068010E+04  0.13721228545E+04  0.12699999809E+01 0.  1.
</event>
<event>
 5   0  0.1092868E-02  0.7998805E+03  0.7818609E-02  0.9560190E-01
       -2   -1    0    0    0  501  0.00000000000E+00  0.00000000000E+00  0.23577923223E+03  0.23577923224E+03  0.25500000920E-02 0.  1.
        2   -1    0    0  501    0  0.00000000000E+00  0.00000000000E+00 -0.67839814696E+03  0.67839814697E+03  0.25500000920E-02 0. -1.
    10030    2    1    2    0    0  0.00000000000E+00  0.00000000000E+00 -0.44261891473E+03  0.91417737921E+03  0.79988047668E+03 0.  0.
        3    1    3    3  502    0 -0.30045304609E+02 -0.38906438681E+03 -0.12116203018E+03  0.40860012869E+03  0.10100000352E+00 0. -1.
       -3    1    3    3    0  502  0.30045304609E+02  0.38906438681E+03 -0.32145688456E+03  0.50557725052E+03  0.10100000352E+00 0.  1.
</event>
<event>
 5   0  0.1154714E-02  0.8206632E+03  0.7818609E-02  0.9530580E-01
        2   -1    0    0  501    0  0.00000000000E+00  0.00000000000E+00  0.18944771253E+04  0.18944771253E+04  0.25500000920E-02 0. -1.
       -2   -1    0    0    0  501  0.00000000000E+00  0.00000000000E+00 -0.88875194975E+02  0.88875195012E+02  0.25500000920E-02 0.  1.
    10030    2    1    2    0    0  0.00000000000E+00  0.00000000000E+00  0.18056019303E+04  0.19833523203E+04  0.82066320480E+03 0.  0.
        5    1    3    3  502    0 -0.72937917878E+02  0.33637392834E+03  0.36303022805E+03  0.50028031743E+03  0.46999998093E+01 0.  1.
       -5    1    3    3    0  502  0.72937917878E+02 -0.33637392834E+03  0.14425717023E+04  0.14830720029E+04  0.46999998093E+01 0. -1.
</event>
<event>
 5   0  0.1106332E-02  0.7991701E+03  0.7818609E-02  0.9561219E-01
       -2   -1    0    0    0  501  0.00000000000E+00  0.00000000000E+00  0.35336174479E+03  0.35336174480E+03  0.25500000920E-02 0. -1.
        2   -1    0    0  501    0  0.00000000000E+00  0.00000000000E+00 -0.45185483511E+03  0.45185483512E+03  0.25500000920E-02 0.  1.
    10030    2    1    2    0    0  0.00000000000E+00  0.00000000000E+00 -0.98493090315E+02  0.80521657992E+03  0.79917010188E+03 0.  0.
        1    1    3    3  502    0  0.27778545350E+03  0.11299144678E+03 -0.31532101437E+03  0.43515418802E+03  0.50400001928E-02 0.  1.
       -1    1    3    3    0  502 -0.27778545350E+03 -0.11299144678E+03  0.21682792405E+03  0.37006239190E+03  0.50400001928E-02 0. -1.
</event>
<event>
 5   0  0.6596225E-03  0.7975181E+03  0.7818609E-02  0.9563617E-01
        1   -1    0    0  501    0  0.00000000000E+00  0.00000000000E+00  0.24846038386E+03  0.24846038391E+03  0.50400001928E-02 0.  1.
       -1   -1    0    0    0  501  0.00000000000E+00  0.00000000000E+00 -0.63997639400E+03  0.63997639402E+03  0.50400001928E-02 0. -1.
    10030    2    1    2    0    0  0.00000000000E+00  0.00000000000E+00 -0.39151601015E+03  0.88843677793E+03  0.79751810148E+03 0.  0.
        5    1    3    3  502    0 -0.13258364517E+02  0.32593733153E+03 -0.45119204261E+03  0.55678297174E+03  0.46999998093E+01 0. -1.
       -5    1    3    3    0  502  0.13258364517E+02 -0.32593733153E+03  0.59676032459E+02  0.33165380619E+03  0.46999998093E+01 0.  1.
</event>
<event>
 5   0  0.1106332E-02  0.8019015E+03  0.7818609E-02  0.9557269E-01
       -2   -1    0    0    0  501  0.00000000000E+00  0.00000000000E+00  0.12636039975E+03  0.12636039978E+03  0.25500000920E-02 0.  1.
        2   -1    0    0  501    0  0.00000000000E+00  0.00000000000E+00 -0.12722459005E+04  0.12722459005E+04  0.25500000920E-02 0. -1.
    10030    2    1    2    0    0  0.00000000000E+00  0.00000000000E+00 -0.11458855007E+04  0.13986063003E+04  0.80190149167E+03 0.  0.
        1    1    3    3  502    0  0.10389297363E+02 -0.16685998672E+03 -0.12085546009E+04  0.12200632836E+04  0.50400001928E-02 0. -1.
       -1    1    3    3    0  502 -0.10389297363E+02  0.16685998672E+03  0.62669100128E+02  0.17854301667E+03  0.50400001928E-02 0.  1.
</event>
<event>
 5   0  0.6600401E-03  0.7978374E+03  0.7818609E-02  0.9563153E-01
       -1   -1    0    0    0  501  0.00000000000E+00  0.00000000000E+00  0.24970814917E+03  0.24970814922E+03  0.50400001928E-02 0. -1.
        1   -1    0    0  501    0  0.00000000000E+00  0.00000000000E+00 -0.63728854905E+03  0.63728854907E+03  0.50400001928E-02 0.  1.
    10030    2    1    2    0    0  0.00000000000E+00  0.00000000000E+00 -0.38758039988E+03  0.88699669829E+03  0.79783743733E+03 0.  0.
        2    1    3    3  502    0 -0.17750073864E+03  0.14371571914E+03 -0.55741173870E+03  0.60238572908E+03  0.25500000920E-02 0.  1.
       -2    1    3    3    0  502  0.17750073864E+03 -0.14371571914E+03  0.16983133882E+03  0.28461096922E+03  0.25500000920E-02 0. -1.
</event>
<event>
 5   0  0.1092868E-02  0.8030607E+03  0.7818609E-02  0.9555597E-01
       -2   -1    0    0    0  501  0.00000000000E+00  0.00000000000E+00  0.34209886896E+03  0.34209886897E+03  0.25500000920E-02 0.  1.
        2   -1    0    0  501    0  0.00000000000E+00  0.00000000000E+00 -0.47128666356E+03  0.47128666356E+03  0.25500000920E-02 0. -1.
    10030    2    1    2    0    0  0.00000000000E+00  0.00000000000E+00 -0.12918779460E+03  0.81338553253E+03  0.80306073136E+03 0.  0.
        3    1    3    3  502    0  0.24361176925E+03 -0.26180475445E+03 -0.24952890617E+03  0.43606548681E+03  0.10100000352E+00 0. -1.
       -3    1    3    3    0  502 -0.24361176925E+03  0.26180475445E+03  0.12034111157E+03  0.37732004572E+03  0.10100000352E+00 0.  1.
</event>
<event>
 5   0  0.6551489E-03  0.8015230E+03  0.7818609E-02  0.9557815E-01
        1   -1    0    0  501    0  0.00000000000E+00  0.00000000000E+00  0.31492272636E+03  0.31492272640E+03  0.50400001928E-02 0.  1.
       -1   -1    0    0    0  501  0.00000000000E+00  0.00000000000E+00 -0.50999742667E+03  0.50999742670E+03  0.50400001928E-02 0. -1.
    10030    2    1    2    0    0  0.00000000000E+00  0.00000000000E+00 -0.19507470031E+03  0.82492015310E+03  0.80152300048E+03 0.  0.
        4    1    3    3  502    0 -0.34552220533E+03  0.18974739604E+03 -0.23189450263E+02  0.39487850307E+03  0.12699999809E+01 0.  1.
       -4    1    3    3    0  502  0.34552220533E+03 -0.18974739604E+03 -0.17188525005E+03  0.43004165003E+03  0.12699999809E+01 0. -1.
</event>
<event>
 5   0  0.6557679E-03  0.8054218E+03  0.7818609E-02  0.9552202E-01
       -1   -1    0    0    0  501  0.00000000000E+00  0.00000000000E+00  0.40382450865E+03  0.40382450868E+03  0.50400001928E-02 0.  1.
        1   -1    0    0  501    0  0.00000000000E+00  0.00000000000E+00 -0.40160040518E+03  0.40160040521E+03  0.50400001928E-02 0. -1.
    10030    2    1    2    0    0  0.00000000000E+00  0.00000000000E+00  0.22241034770E+01  0.80542491389E+03  0.80542184306E+03 0.  0.
        1    1    3    3  502    0 -0.27757498167E+03 -0.19201664414E+03  0.22078952487E+03  0.40331907517E+03  0.50400001928E-02 0.  1.
       -1    1    3    3    0  502  0.27757498167E+03  0.19201664414E+03 -0.21856542139E+03  0.40210583872E+03  0.50400001928E-02 0. -1.
</event>
<event>
 5   0  0.6596225E-03  0.7946671E+03  0.7818609E-02  0.9567768E-01
        1   -1    0    0  501    0  0.00000000000E+00  0.00000000000E+00  0.15681898224E+04  0.15681898225E+04  0.50400001928E-02 0.  1.
       -1   -1    0    0    0  501  0.00000000000E+00  0.00000000000E+00 -0.10067273788E+03  0.10067273801E+03  0.50400001928E-02 0. -1.
    10030    2    1    2    0    0  0.00000000000E+00  0.00000000000E+00  0.14675170846E+04  0.16688625605E+04  0.79466713296E+03 0.  0.
        5    1    3    3  502    0 -0.33217802468E+03  0.21719673102E+03  0.77220849004E+03  0.86824230612E+03  0.46999998093E+01 0.  1.
       -5    1    3    3    0  502  0.33217802468E+03 -0.21719673102E+03  0.69530859452E+03  0.80062025434E+03  0.46999998093E+01 0. -1.
</event>
<event>
 5   0  0.1119792E-02  0.7976885E+03  0.7818609E-02  0.9563369E-01
        2   -1    0    0  501    0  0.00000000000E+00  0.00000000000E+00  0.12735749505E+04  0.12735749505E+04  0.25500000920E-02 0.  1.
       -2   -1    0    0    0  501  0.00000000000E+00  0.00000000000E+00 -0.12490567149E+03  0.12490567151E+03  0.25500000920E-02 0. -1.
    10030    2    1    2    0    0  0.00000000000E+00  0.00000000000E+00  0.11486692790E+04  0.13984806220E+04  0.79768849660E+03 0.  0.
        4    1    3    3  502    0 -0.27706506602E+03  0.13717899445E+03  0.13257848612E+03  0.33639529605E+03  0.12699999809E+01 0. -1.
       -4    1    3    3    0  502  0.27706506602E+03 -0.13717899445E+03  0.10160907929E+04  0.10620853260E+04  0.12699999809E+01 0.  1.
</event>
<event>
 5   0  0.6600401E-03  0.8007816E+03  0.7818609E-02  0.9558886E-01
       -1   -1    0    0    0  501  0.00000000000E+00  0.00000000000E+00  0.27465670622E+03  0.27465670626E+03  0.50400001928E-02 0.  1.
        1   -1    0    0  501    0  0.00000000000E+00  0.00000000000E+00 -0.58368425735E+03  0.58368425738E+03  0.50400001928E-02 0. -1.
    10030    2    1    2    0    0  0.00000000000E+00  0.00000000000E+00 -0.30902755114E+03  0.85834096364E+03  0.80078160724E+03 0.  0.
        2    1    3    3  502    0 -0.86212290351E+02 -0.29726038174E+03  0.11774454193E+03  0.33114961984E+03  0.25500000920E-02 0.  1.
       -2    1    3    3    0  502  0.86212290351E+02  0.29726038174E+03 -0.42677209306E+03  0.52719134380E+03  0.25500000920E-02 0. -1.
</event>
<event>
 5   0  0.1121480E-02  0.7939793E+03  0.7818609E-02  0.9568773E-01
        2   -1    0    0  501    0  0.00000000000E+00  0.00000000000E+00  0.16482212623E+04  0.16482212623E+04  0.25500000920E-02 0.  1.
       -2   -1    0    0    0  501  0.00000000000E+00  0.00000000000E+00 -0.95618708919E+02  0.95618708953E+02  0.25500000920E-02 0. -1.
    10030    2    1    2    0    0  0.00000000000E+00  0.00000000000E+00  0.15526025534E+04  0.17438399713E+04  0.79397931748E+03 0.  0.
        2    1    3    3  502    0 -0.12027652768E+03 -0.35520018508E+03  0.49021158987E+03  0.61720419429E+03  0.25500000920E-02 0. -1.
       -2    1    3    3    0  502  0.12027652768E+03  0.35520018508E+03  0.10623909635E+04  0.11266357770E+04  0.25500000920E-02 0.  1.
</event>
<event>
 5   0  0.4385875E-03  0.7911177E+03  0.7818609E-02  0.9572964E-01
       -3   -1    0    0    0  501  0.00000000000E+00  0.00000000000E+00  0.10669710851E+04  0.10669710899E+04  0.10100000352E+00 0. -1.
        3   -1    0    0  501    0  0.00000000000E+00  0.00000000000E+00 -0.14664574307E+03  0.14664577785E+03  0.10100000352E+00 0.  1.
    10030    2    1    2    0    0  0.00000000000E+00  0.00000000000E+00  0.92032534206E+03  0.12136168678E+04  0.79111766917E+03 0.  0.
        3    1    3    3  502    0 -0.91985800284E+02 -0.27429017445E+03  0.87398849159E+03  0.92062608093E+03  0.10100000352E+00 0. -1.
       -3    1    3    3    0  502  0.91985800284E+02  0.27429017445E+03  0.46336850466E+02  0.29299078683E+03  0.10100000352E+00 0.  1.
</event>
<event>
 5   0  0.1106332E-02  0.8004349E+03  0.7818609E-02  0.9559388E-01
        2   -1    0    0  501    0  0.00000000000E+00  0.00000000000E+00  0.16211477449E+04  0.16211477449E+04  0.25500000920E-02 0. -1.
       -2   -1    0    0    0  501  0.00000000000E+00  0.00000000000E+00 -0.98802842684E+02  0.98802842717E+02  0.25500000920E-02 0.  1.
    10030    2    1    2    0    0  0.00000000000E+00  0.00000000000E+00  0.15223449022E+04  0.17199505876E+04  0.80043489588E+03 0.  0.
        1    1    3    3  502    0 -0.25307220836E+03 -0.33214546564E+01  0.94993305213E+02  0.27033368781E+03  0.50400001928E-02 0.  1.
       -1    1    3    3    0  502  0.25307220836E+03  0.33214546564E+01  0.14273515970E+04  0.14496168998E+04  0.50400001928E-02 0. -1.
</event>
<event>
 5   0  0.1154714E-02  0.7981299E+03  0.7818609E-02  0.9562728E-01
        2   -1    0    0  501    0  0.00000000000E+00  0.00000000000E+00  0.88796162262E+03  0.88796162263E+03  0.25500000920E-02 0.  1.
       -2   -1    0    0    0  501  0.00000000000E+00  0.00000000000E+00 -0.17934652832E+03  0.17934652834E+03  0.25500000920E-02 0. -1.
    10030    2    1    2    0    0  0.00000000000E+00  0.00000000000E+00  0.70861509430E+03  0.10673081510E+04  0.79812989999E+03 0.  0.
        5    1    3    3  502    0 -0.27480255090E+03 -0.28681718220E+02 -0.30702149277E+02  0.27803560008E+03  0.46999998093E+01 0. -1.
       -5    1    3    3    0  502  0.27480255090E+03  0.28681718220E+02  0.73931724357E+03  0.78927255089E+03  0.46999998093E+01 0.  1.
</event>
<event>
 5   0  0.6600401E-03  0.8122736E+03  0.7818609E-02  0.9542420E-01
        1   -1    0    0  501    0  0.00000000000E+00  0.00000000000E+00  0.28653346604E+03  0.28653346608E+03  0.50400001928E-02 0. -1.
       -1   -1    0    0    0  501  0.00000000000E+00  0.00000000000E+00 -0.57566439406E+03  0.57566439408E+03  0.50400001928E-02 0.  1.
    10030    2    1    2    0    0  0.00000000000E+00  0.00000000000E+00 -0.28913092802E+03  0.86219786016E+03  0.81227363402E+03 0.  0.
        2    1    3    3  502    0  0.71905552749E+02 -0.55347769373E+02  0.27563599280E+03  0.29018784368E+03  0.25500000920E-02 0. -1.
       -2    1    3    3    0  502 -0.71905552749E+02  0.55347769373E+02 -0.56476692082E+03  0.57201001648E+03  0.25500000920E-02 0.  1.
</event>
<event>
 5   0  0.6551489E-03  0.8125072E+03  0.7818609E-02  0.9542088E-01
       -1   -1    0    0    0  501  0.00000000000E+00  0.00000000000E+00  0.52791043728E+03  0.52791043730E+03  0.50400001928E-02 0.  1.
        1   -1    0    0  501    0  0.00000000000E+00  0.00000000000E+00 -0.31263258089E+03  0.31263258093E+03  0.50400001928E-02 0. -1.
    10030    2    1    2    0    0  0.00000000000E+00  0.00000000000E+00  0.21527785639E+03  0.84054301823E+03  0.81250723692E+03 0.  0.
        4    1    3    3  502    0 -0.90395174298E+02 -0.13120769723E+03  0.49423624966E+03  0.51928588535E+03  0.12699999809E+01 0.  1.
       -4    1    3    3    0  502  0.90395174298E+02  0.13120769723E+03 -0.27895839327E+03  0.32125713288E+03  0.12699999809E+01 0. -1.
</event>
<event>
 5   0  0.1119792E-02  0.8032208E+03  0.7818609E-02  0.9555367E-01
        2   -1    0    0  501    0  0.00000000000E+00  0.00000000000E+00  0.56620985765E+03  0.56620985765E+03  0.25500000920E-02 0.  1.
       -2   -1    0    0    0  501  0.00000000000E+00  0.00000000000E+00 -0.28486063264E+03  0.28486063265E+03  0.25500000920E-02 0. -1.
    10030    2    1    2    0    0  0.00000000000E+00  0.00000000000E+00  0.28134922501E+03  0.85107049030E+03  0.80322076234E+03 0.  0.
        4    1    3    3  502    0  0.13363399916E+03 -0.10833355729E+03  0.52519146746E+03  0.55264988533E+03  0.12699999809E+01 0.  1.
       -4    1    3    3    0  502 -0.13363399916E+03  0.10833355729E+03 -0.24384224245E+03  0.29842060497E+03  0.12699999809E+01 0. -1.
</event>
<event>
 5   0  0.1092868E-02  0.7962561E+03  0.7818609E-02  0.9565452E-01
        2   -1    0    0  501    0  0.00000000000E+00  0.00000000000E+00  0.12766645160E+04  0.12766645160E+04  0.25500000920E-02 0.  1.
       -2   -1    0    0    0  501  0.00000000000E+00  0.00000000000E+00 -0.12415629890E+03  0.12415629893E+03  0.25500000920E-02 0. -1.
    10030    2    1    2    0    0  0.00000000000E+00  0.00000000000E+00  0.11525082171E+04  0.14008208150E+04  0.79625609265E+03 0.  0.
        3    1    3    3  502    0  0.22389245211E+03  0.31652664884E+03  0.73545473191E+03  0.83139077600E+03  0.10100000352E+00 0.  1.
       -3    1    3    3    0  502 -0.22389245211E+03 -0.31652664884E+03  0.41705348521E+03  0.56943003895E+03  0.10100000352E+00 0. -1.
</event>
<event>
 5   0  0.6557679E-03  0.7977750E+03  0.7818609E-02  0.9563243E-01
        1   -1    0    0  501    0  0.00000000000E+00  0.00000000000E+00  0.47546299477E+03  0.47546299480E+03  0.50400001928E-02 0.  1.
       -1   -1    0    0    0  501  0.00000000000E+00  0.00000000000E+00 -0.33464483129E+03  0.33464483133E+03  0.50400001928E-02 0. -1.
    10030    2    1    2    0    0  0.00000000000E+00  0.00000000000E+00  0.14081816348E+03  0.81010782613E+03  0.79777499007E+03 0.  0.
        1    1    3    3  502    0 -0.30224678101E+03 -0.25860977851E+03  0.40301115049E+02  0.39982035225E+03  0.50400001928E-02 0.  1.
       -1    1    3    3    0  502  0.30224678101E+03  0.25860977851E+03  0.10051704843E+03  0.41028747388E+03  0.50400001928E-02 0. -1.
</event>
<event>
 5   0  0.6557679E-03  0.8220565E+03  0.7818609E-02  0.9528629E-01
       -1   -1    0    0    0  501  0.00000000000E+00  0.00000000000E+00  0.23411294462E+03  0.23411294468E+03  0.50400001928E-02 0. -1.
        1   -1    0    0  501    0  0.00000000000E+00  0.00000000000E+00 -0.72163546663E+03  0.72163546665E+03  0.50400001928E-02 0.  1.
    10030    2    1    2    0    0  0.00000000000E+00  0.00000000000E+00 -0.48752252201E+03  0.95574841133E+03  0.82205645566E+03 0.  0.
        1    1    3    3  502    0  0.32933498870E+03 -0.24250517879E+03 -0.19619405181E+03  0.45361040829E+03  0.50400001928E-02 0.  1.
       -1    1    3    3    0  502 -0.32933498870E+03  0.24250517879E+03 -0.29132847019E+03  0.50213800303E+03  0.50400001928E-02 0. -1.
</event>
<event>
 5   0  0.6600401E-03  0.8106618E+03  0.7818609E-02  0.9544711E-01
        1   -1    0    0  501    0  0.00000000000E+00  0.00000000000E+00  0.16368409502E+03  0.16368409510E+03  0.50400001928E-02 0.  1.
       -1   -1    0    0    0  501  0.00000000000E+00  0.00000000000E+00 -0.10037209539E+04  0.10037209539E+04  0.50400001928E-02 0. -1.
    10030    2    1    2    0    0  0.00000000000E+00  0.00000000000E+00 -0.84003685885E+03  0.11674050490E+04  0.81066184328E+03 0.  0.
        2    1    3    3  502    0  0.24106389763E+03  0.32261143889E+03 -0.48606091988E+03  0.63122512710E+03  0.25500000920E-02 0.  1.
       -2    1    3    3    0  502 -0.24106389763E+03 -0.32261143889E+03 -0.35397593896E+03  0.53617992187E+03  0.25500000920E-02 0. -1.
</event>
<event>
 5   0  0.6600401E-03  0.8073209E+03  0.7818609E-02  0.9549480E-01
        1   -1    0    0  501    0  0.00000000000E+00  0.00000000000E+00  0.15610425491E+04  0.15610425491E+04  0.50400001928E-02 0.  1.
       -1   -1    0    0    0  501  0.00000000000E+00  0.00000000000E+00 -0.10438009594E+03  0.10438009606E+03  0.50400001928E-02 0. -1.
    10030    2    1    2    0    0  0.00000000000E+00  0.00000000000E+00  0.14566624531E+04  0.16654226451E+04  0.80732093035E+03 0.  0.
        2    1    3    3  502    0 -0.13286620025E+03 -0.35807856559E+03  0.45882385412E+03  0.59698661243E+03  0.25500000920E-02 0. -1.
       -2    1    3    3    0  502  0.13286620025E+03  0.35807856559E+03  0.99783859902E+03  0.10684360327E+04  0.25500000920E-02 0.  1.
</event>
<event>
 5   0  0.1154714E-02  0.7794242E+03  0.7818609E-02  0.9590287E-01
       -2   -1    0    0    0  501  0.00000000000E+00  0.00000000000E+00  0.68478259835E+02  0.68478259883E+02  0.25500000920E-02 0.  1.
        2   -1    0    0  501    0  0.00000000000E+00  0.00000000000E+00 -0.22178649915E+04  0.22178649915E+04  0.25500000920E-02 0. -1.
    10030    2    1    2    0    0  0.00000000000E+00  0.00000000000E+00 -0.21493867317E+04  0.22863432514E+04  0.77942423679E+03 0.  0.
        5    1    3    3  502    0  0.31100109655E+03 -0.13452758466E+03 -0.16391991251E+04  0.16738623643E+04  0.46999998093E+01 0. -1.
       -5    1    3    3    0  502 -0.31100109655E+03  0.13452758466E+03 -0.51018760663E+03  0.61248088709E+03  0.46999998093E+01 0.  1.
</event>
<event>
 5   0  0.6596225E-03  0.8020136E+03  0.7818609E-02  0.9557107E-01
       -1   -1    0    0    0  501  0.00000000000E+00  0.00000000000E+00  0.38160225791E+03  0.38160225794E+03  0.50400001928E-02 0. -1.
        1   -1    0    0  501    0  0.00000000000E+00  0.00000000000E+00 -0.42139801576E+03  0.42139801579E+03  0.50400001928E-02 0.  1.
    10030    2    1    2    0    0  0.00000000000E+00  0.00000000000E+00 -0.39795757854E+02  0.80300027374E+03  0.80201355181E+03 0.  0.
        5    1    3    3  502    0 -0.32785254866E+03 -0.13544086625E+03  0.16728887443E+03  0.39222337950E+03  0.46999998093E+01 0. -1.
       -5    1    3    3    0  502  0.32785254866E+03  0.13544086625E+03 -0.20708463229E+03  0.41077689424E+03  0.46999998093E+01 0.  1.
</event>
<event>
 5   0  0.6517392E-03  0.8016768E+03  0.7818609E-02  0.9557593E-01
       -1   -1    0    0    0  501  0.00000000000E+00  0.00000000000E+00  0.33530506955E+03  0.33530506959E+03  0.50400001928E-02 0.  1.
        1   -1    0    0  501    0  0.00000000000E+00  0.00000000000E+00 -0.47917978592E+03  0.47917978594E+03  0.50400001928E-02 0. -1.
    10030    2    1    2    0    0  0.00000000000E+00  0.00000000000E+00 -0.14387471637E+03  0.81448485553E+03  0.80167677145E+03 0.  0.
        3    1    3    3  502    0 -0.23618541515E+03  0.27181353108E+03 -0.25083366252E+03  0.43884357402E+03  0.10100000352E+00 0. -1.
       -3    1    3    3    0  502  0.23618541515E+03 -0.27181353108E+03  0.10695894616E+03  0.37564128151E+03  0.10100000352E+00 0.  1.
</event>
<event>
 5   0  0.6517392E-03  0.7948300E+03  0.7818609E-02  0.9567531E-01
        1   -1    0    0  501    0  0.00000000000E+00  0.00000000000E+00  0.16842450316E+03  0.16842450324E+03  0.50400001928E-02 0.  1.
       -1   -1    0    0    0  501  0.00000000000E+00  0.00000000000E+00 -0.93774171304E+03  0.93774171305E+03  0.50400001928E-02 0. -1.
    10030    2    1    2    0    0  0.00000000000E+00  0.00000000000E+00 -0.76931720988E+03  0.11061662163E+04  0.79482999984E+03 0.  0.
        3    1    3    3  502    0  0.59396758168E+02 -0.35689847447E+03 -0.61348320303E+03  0.71222619059E+03  0.10100000352E+00 0. -1.
       -3    1    3    3    0  502 -0.59396758168E+02  0.35689847447E+03 -0.15583400685E+03  0.39394002571E+03  0.10100000352E+00 0.  1.
</event>
<event>
 5   0  0.6551489E-03  0.7503908E+03  0.7818609E-02  0.9634737E-01
       -1   -1    0    0    0  501  0.00000000000E+00  0.00000000000E+00  0.15270974797E+03  0.15270974805E+03  0.50400001928E-02 0.  1.
        1   -1    0    0  501    0  0.00000000000E+00  0.00000000000E+00 -0.92182457673E+03  0.92182457675E+03  0.50400001928E-02 0. -1.
    10030    2    1    2    0    0  0.00000000000E+00  0.00000000000E+00 -0.76911482877E+03  0.10745343248E+04  0.75039082840E+03 0.  0.
        4    1    3    3  502    0 -0.82177581118E+02  0.13767882310E+02  0.13929035112E+03  0.16231489222E+03  0.12699999809E+01 0.  1.
       -4    1    3    3    0  502  0.82177581118E+02 -0.13767882310E+02 -0.90840517989E+03  0.91221943258E+03  0.12699999809E+01 0. -1.
</event>
<event>
 5   0  0.1121480E-02  0.8093603E+03  0.7818609E-02  0.9546566E-01
        2   -1    0    0  501    0  0.00000000000E+00  0.00000000000E+00  0.18877336558E+04  0.18877336558E+04  0.25500000920E-02 0.  1.
       -2   -1    0    0    0  501  0.00000000000E+00  0.00000000000E+00 -0.86752708586E+02  0.86752708623E+02  0.25500000920E-02 0. -1.
    10030    2    1    2    0    0  0.00000000000E+00  0.00000000000E+00  0.18009809473E+04  0.19744863645E+04  0.80936026038E+03 0.  0.
        2    1    3    3  502    0  0.17672292001E+03  0.92488781628E+02  0.17594833336E+04  0.17707531636E+04  0.25500000920E-02 0.  1.
       -2    1    3    3    0  502 -0.17672292001E+03 -0.92488781628E+02  0.41497613646E+02  0.20373320085E+03  0.25500000920E-02 0. -1.
</event>
<event>
 5   0  0.1106332E-02  0.8027257E+03  0.7818609E-02  0.9556080E-01
        2   -1    0    0  501    0  0.00000000000E+00  0.00000000000E+00  0.20045686643E+03  0.20045686644E+03  0.25500000920E-02 0. -1.
       -2   -1    0    0    0  501  0.00000000000E+00  0.00000000000E+00 -0.80362495499E+03  0.80362495500E+03  0.25500000920E-02 0.  1.
    10030    2    1    2    0    0  0.00000000000E+00  0.00000000000E+00 -0.60316808857E+03  0.10040818214E+04  0.80272570725E+03 0.  0.
        1    1    3    3  502    0  0.33352463872E+03 -0.22303754197E+03 -0.31456572525E+03  0.50983921513E+03  0.50400001928E-02 0.  1.
       -1    1    3    3    0  502 -0.33352463872E+03  0.22303754197E+03 -0.28860236332E+03  0.49424260631E+03  0.50400001928E-02 0. -1.
</event>
<event>
 5   0  0.6596225E-03  0.8024729E+03  0.7818609E-02  0.9556445E-01
       -1   -1    0    0    0  501  0.00000000000E+00  0.00000000000E+00  0.56576470723E+03  0.56576470725E+03  0.50400001928E-02 0. -1.
        1   -1    0    0  501    0  0.00000000000E+00  0.00000000000E+00 -0.28455410345E+03  0.28455410349E+03  0.50400001928E-02 0.  1.
    10030    2    1    2    0    0  0.00000000000E+00  0.00000000000E+00  0.28121060378E+03  0.85031881075E+03  0.80247285077E+03 0.  0.
        5    1    3    3  502    0 -0.36273079289E+03 -0.82230121731E+02 -0.18807801382E+02  0.37243958493E+03  0.46999998093E+01 0.  1.
       -5    1    3    3    0  502  0.36273079289E+03  0.82230121731E+02  0.30001840516E+03  0.47787922582E+03  0.46999998093E+01 0. -1.
</event>
<event>
 5   0  0.6600401E-03  0.7994132E+03  0.7818609E-02  0.9560867E-01
        1   -1    0    0  501    0  0.00000000000E+00  0.00000000000E+00  0.85033038356E+03  0.85033038357E+03  0.50400001928E-02 0. -1.
       -1   -1    0    0    0  501  0.00000000000E+00  0.00000000000E+00 -0.18788623383E+03  0.18788623390E+03  0.50400001928E-02 0.  1.
    10030    2    1    2    0    0  0.00000000000E+00  0.00000000000E+00  0.66244414972E+03  0.10382166175E+04  0.79941321811E+03 0.  0.
        2    1    3    3  502    0 -0.20182436869E+03 -0.16304139747E+03 -0.63662018023E+02  0.26714869574E+03  0.25500000920E-02 0.  1.
       -2    1    3    3    0  502  0.20182436869E+03  0.16304139747E+03  0.72610616775E+03  0.77106792174E+03  0.25500000920E-02 0. -1.
</event>
<event>
 5   0  0.6517392E-03  0.7990857E+03  0.7818609E-02  0.9561341E-01
        1   -1    0    0  501    0  0.00000000000E+00  0.00000000000E+00  0.16508230132E+04  0.16508230132E+04  0.50400001928E-02 0. -1.
       -1   -1    0    0    0  501  0.00000000000E+00  0.00000000000E+00 -0.96699947946E+02  0.96699948077E+02  0.50400001928E-02 0.  1.
    10030    2    1    2    0    0  0.00000000000E+00  0.00000000000E+00  0.15541230652E+04  0.17475229612E+04  0.79908572647E+03 0.  0.
        3    1    3    3  502    0  0.50266850303E+02 -0.39061831409E+03  0.92417145548E+03  0.10045906195E+04  0.10100000352E+00 0.  1.
       -3    1    3    3    0  502 -0.50266850303E+02  0.39061831409E+03  0.62995160973E+03  0.74293234170E+03  0.10100000352E+00 0. -1.
</event>
<event>
 5   0  0.1121480E-02  0.8027980E+03  0.7818609E-02  0.9555976E-01
        2   -1    0    0  501    0  0.00000000000E+00  0.00000000000E+00  0.75688680836E+03  0.75688680837E+03  0.25500000920E-02 0.  1.
       -2   -1    0    0    0  501  0.00000000000E+00  0.00000000000E+00 -0.21287353783E+03  0.21287353785E+03  0.25500000920E-02 0. -1.
    10030    2    1    2    0    0  0.00000000000E+00  0.00000000000E+00  0.54401327053E+03  0.96976034622E+03  0.80279803848E+03 0.  0.
        2    1    3    3  502    0 -0.26275800880E+03 -0.18543371384E+02 -0.93863483482E+02  0.27963544366E+03  0.25500000920E-02 0. -1.
       -2    1    3    3    0  502  0.26275800880E+03  0.18543371384E+02  0.63787675401E+03  0.69012490256E+03  0.25500000920E-02 0.  1.
</event>
<event>
 5   0  0.1106332E-02  0.7930491E+03  0.7818609E-02  0.9570133E-01
        2   -1    0    0  501    0  0.00000000000E+00  0.00000000000E+00  0.68506380733E+03  0.68506380734E+03  0.25500000920E-02 0. -1.
       -2   -1    0    0    0  501  0.00000000000E+00  0.00000000000E+00 -0.22951396655E+03  0.22951396657E+03  0.25500000920E-02 0.  1.
    10030    2    1    2    0    0  0.00000000000E+00  0.00000000000E+00  0.45554984078E+03  0.91457777390E+03  0.79304908239E+03 0.  0.
        1    1    3    3  502    0  0.31048133898E+03  0.26983833117E+02 -0.54957490999E+02  0.31646028969E+03  0.50400001928E-02 0.  1.
       -1    1    3    3    0  502 -0.31048133898E+03 -0.26983833117E+02  0.51050733178E+03  0.59811748422E+03  0.50400001928E-02 0. -1.
</event>
<event>
 5   0  0.6557679E-03  0.7989616E+03  0.7818609E-02  0.9561521E-01
        1   -1    0    0  501    0  0.00000000000E+00  0.00000000000E+00  0.10909481829E+04  0.10909481829E+04  0.50400001928E-02 0.  1.
       -1   -1    0    0    0  501  0.00000000000E+00  0.00000000000E+00 -0.14628093801E+03  0.14628093810E+03  0.50400001928E-02 0. -1.
    10030    2    1    2    0    0  0.00000000000E+00  0.00000000000E+00  0.94466724491E+03  0.12372291210E+04  0.79896163507E+03 0.  0.
        1    1    3    3  502    0 -0.58537051567E+02  0.30015346818E+03  0.74305297244E+02  0.31470616151E+03  0.50400001928E-02 0. -1.
       -1    1    3    3    0  502  0.58537051567E+02 -0.30015346818E+03  0.87036194767E+03  0.92252295952E+03  0.50400001928E-02 0.  1.
</event>
<event>
 5   0  0.1121480E-02  0.7894126E+03  0.7818609E-02  0.9575470E-01
        2   -1    0    0  501    0  0.00000000000E+00  0.00000000000E+00  0.11575173907E+04  0.11575173907E+04  0.25500000920E-02 0.  1.
       -2   -1    0    0    0  501  0.00000000000E+00  0.00000000000E+00 -0.13459242946E+03  0.13459242948E+03  0.25500000920E-02 0. -1.
    10030    2    1    2    0    0  0.00000000000E+00  0.00000000000E+00  0.10229249612E+04  0.12921098202E+04  0.78941263675E+03 0.  0.
        2    1    3    3  502    0  0.97288833741E+02 -0.37828095348E+03  0.60450814564E+03  0.71971639907E+03  0.25500000920E-02 0. -1.
       -2    1    3    3    0  502 -0.97288833741E+02  0.37828095348E+03  0.41841681557E+03  0.57239342108E+03  0.25500000920E-02 0.  1.
</event>
<event>
 5   0  0.6551489E-03  0.7974204E+03  0.7818609E-02  0.9563759E-01
        1   -1    0    0  501    0  0.00000000000E+00  0.00000000000E+00  0.91026249696E+03  0.91026249697E+03  0.50400001928E-02 0.  1.
       -1   -1    0    0    0  501  0.00000000000E+00  0.00000000000E+00 -0.17464172953E+03  0.17464172960E+03  0.50400001928E-02 0. -1.
    10030    2    1    2    0    0  0.00000000000E+00  0.00000000000E+00  0.73562076742E+03  0.10849042266E+04  0.79742038309E+03 0.  0.
        4    1    3    3  502    0 -0.60822370420E+02  0.32160723792E+03  0.67757130530E+03  0.75248592205E+03  0.12699999809E+01 0.  1.
       -4    1    3    3    0  502  0.60822370420E+02 -0.32160723792E+03  0.58049462128E+02  0.33241830452E+03  0.12699999809E+01 0. -1.
</event>
<event>
 5   0  0.4385875E-03  0.7971564E+03  0.7818609E-02  0.9564142E-01
        3   -1    0    0  501    0  0.00000000000E+00  0.00000000000E+00  0.47289479224E+03  0.47289480302E+03  0.10100000352E+00 0.  1.
       -3   -1    0    0    0  501  0.00000000000E+00  0.00000000000E+00 -0.33594065524E+03  0.33594067042E+03  0.10100000352E+00 0. -1.
    10030    2    1    2    0    0  0.00000000000E+00  0.00000000000E+00  0.13695413700E+03  0.80883547344E+03  0.79715643851E+03 0.  0.
        4    1    3    3  502    0  0.16964374499E+02 -0.10971698539E+03 -0.31993332142E+03  0.33865107403E+03  0.12699999809E+01 0. -1.
       -4    1    3    3    0  502 -0.16964374499E+02  0.10971698539E+03  0.45688745842E+03  0.47018439941E+03  0.12699999809E+01 0.  1.
</event>
<event>
 5   0  0.6517392E-03  0.8912858E+03  0.7818609E-02  0.9436541E-01
        1   -1    0    0  501    0  0.00000000000E+00  0.00000000000E+00  0.53503210823E+03  0.53503210825E+03  0.50400001928E-02 0.  1.
       -1   -1    0    0    0  501  0.00000000000E+00  0.00000000000E+00 -0.37118818051E+03  0.37118818054E+03  0.50400001928E-02 0. -1.
    10030    2    1    2    0    0  0.00000000000E+00  0.00000000000E+00  0.16384392772E+03  0.90622028880E+03  0.89128580106E+03 0.  0.
        3    1    3    3  502    0 -0.19324071813E+03 -0.19972666784E+03  0.43613397715E+03  0.51715140260E+03  0.10100000352E+00 0.  1.
       -3    1    3    3    0  502  0.19324071813E+03  0.19972666784E+03 -0.27229004942E+03  0.38906888620E+03  0.10100000352E+00 0. -1.
</event>
<event>
 5   0  0.1154714E-02  0.8064161E+03  0.7818609E-02  0.9550776E-01
       -2   -1    0    0    0  501  0.00000000000E+00  0.00000000000E+00  0.13294068324E+03  0.13294068326E+03  0.25500000920E-02 0.  1.
        2   -1    0    0  501    0  0.00000000000E+00  0.00000000000E+00 -0.12229268812E+04  0.12229268812E+04  0.25500000920E-02 0. -1.
    10030    2    1    2    0    0  0.00000000000E+00  0.00000000000E+00 -0.10899861980E+04  0.13558675645E+04  0.80641610887E+03 0.  0.
        5    1    3    3  502    0  0.92431565329E+02  0.29780375921E+03 -0.11526439011E+03  0.33247352209E+03  0.46999998093E+01 0.  1.
       -5    1    3    3    0  502 -0.92431565329E+02 -0.29780375921E+03 -0.97472180789E+03  0.10233940424E+04  0.46999998093E+01 0. -1.
</event>
<event>
 5   0  0.1121480E-02  0.8011026E+03  0.7818609E-02  0.9558423E-01
       -2   -1    0    0    0  501  0.00000000000E+00  0.00000000000E+00  0.40076041201E+03  0.40076041201E+03  0.25500000920E-02 0.  1.
        2   -1    0    0  501    0  0.00000000000E+00  0.00000000000E+00 -0.40034226413E+03  0.40034226414E+03  0.25500000920E-02 0. -1.
    10030    2    1    2    0    0  0.00000000000E+00  0.00000000000E+00  0.41814787820E+00  0.80110267615E+03  0.80110256702E+03 0.  0.
        2    1    3    3  502    0  0.15444738263E+03 -0.16887186219E+02  0.36940034793E+03  0.40074404315E+03  0.25500000920E-02 0.  1.
       -2    1    3    3    0  502 -0.15444738263E+03  0.16887186219E+02 -0.36898220005E+03  0.40035863301E+03  0.25500000920E-02 0. -1.
</event>
<event>
 5   0  0.6596225E-03  0.8107021E+03  0.7818609E-02  0.9544654E-01
       -1   -1    0    0    0  501  0.00000000000E+00  0.00000000000E+00  0.14987868360E+03  0.14987868369E+03  0.50400001928E-02 0.  1.
        1   -1    0    0  501    0  0.00000000000E+00  0.00000000000E+00 -0.10962831890E+04  0.10962831891E+04  0.50400001928E-02 0. -1.
    10030    2    1    2    0    0  0.00000000000E+00  0.00000000000E+00 -0.94640450545E+03  0.12461618727E+04  0.81070211863E+03 0.  0.
        5    1    3    3  502    0  0.18212199971E+03  0.16963616010E+03 -0.96494872256E+03  0.99654050432E+03  0.46999998093E+01 0. -1.
       -5    1    3    3    0  502 -0.18212199971E+03 -0.16963616010E+03  0.18544217109E+02  0.24962136843E+03  0.46999998093E+01 0.  1.
</event>
<event>
 5   0  0.6596225E-03  0.8014379E+03  0.7818609E-02  0.9557938E-01
       -1   -1    0    0    0  501  0.00000000000E+00  0.00000000000E+00  0.33372235819E+03  0.33372235823E+03  0.50400001928E-02 0. -1.
        1   -1    0    0  501    0  0.00000000000E+00  0.00000000000E+00 -0.48116553215E+03  0.48116553218E+03  0.50400001928E-02 0.  1.
    10030    2    1    2    0    0  0.00000000000E+00  0.00000000000E+00 -0.14744317396E+03  0.81488789041E+03  0.80143794793E+03 0.  0.
        5    1    3    3  502    0  0.14552099260E+03 -0.29601390550E+03 -0.30503232152E+03  0.44929655987E+03  0.46999998093E+01 0.  1.
       -5    1    3    3    0  502 -0.14552099260E+03  0.29601390550E+03  0.15758914756E+03  0.36559133054E+03  0.46999998093E+01 0. -1.
</event>
<event>
 5   0  0.6600401E-03  0.7964124E+03  0.7818609E-02  0.9565225E-01
        1   -1    0    0  501    0  0.00000000000E+00  0.00000000000E+00  0.18727333244E+04  0.18727333244E+04  0.50400001928E-02 0. -1.
       -1   -1    0    0    0  501  0.00000000000E+00  0.00000000000E+00 -0.84672062836E+02  0.84672062986E+02  0.50400001928E-02 0.  1.
    10030    2    1    2    0    0  0.00000000000E+00  0.00000000000E+00  0.17880612615E+04  0.19574053874E+04  0.79641244056E+03 0.  0.
        2    1    3    3  502    0  0.29735025277E+03 -0.94499586500E+02  0.28590624554E+03  0.42318994071E+03  0.25500000920E-02 0.  1.
       -2    1    3    3    0  502 -0.29735025277E+03  0.94499586500E+02  0.15021550160E+04  0.15342154466E+04  0.25500000920E-02 0. -1.
</event>
<event>
 5   0  0.6557679E-03  0.8016266E+03  0.7818609E-02  0.9557666E-01
        1   -1    0    0  501    0  0.00000000000E+00  0.00000000000E+00  0.43571180238E+03  0.43571180241E+03  0.50400001928E-02 0.  1.
       -1   -1    0    0    0  501  0.00000000000E+00  0.00000000000E+00 -0.36870999753E+03  0.36870999756E+03  0.50400001928E-02 0. -1.
    10030    2    1    2    0    0  0.00000000000E+00  0.00000000000E+00  0.67001804853E+02  0.80442179997E+03  0.80162659039E+03 0.  0.
        1    1    3    3  502    0 -0.18579581767E+03  0.70172704034E+02  0.38286282912E+03  0.43130991202E+03  0.50400001928E-02 0.  1.
       -1    1    3    3    0  502  0.18579581767E+03 -0.70172704034E+02 -0.31586102427E+03  0.37311188796E+03  0.50400001928E-02 0. -1.
</event>
<event>
 5   0  0.1121480E-02  0.7993050E+03  0.7818609E-02  0.9561024E-01
       -2   -1    0    0    0  501  0.00000000000E+00  0.00000000000E+00  0.85846279394E+03  0.85846279394E+03  0.25500000920E-02 0. -1.
        2   -1    0    0  501    0  0.00000000000E+00  0.00000000000E+00 -0.18605594026E+03  0.18605594028E+03  0.25500000920E-02 0.  1.
    10030    2    1    2    0    0  0.00000000000E+00  0.00000000000E+00  0.67240685367E+03  0.10445187342E+04  0.79930495387E+03 0.  0.
        2    1    3    3  502    0 -0.33876534635E+03  0.97547818020E+02  0.90178813243E+02  0.36388151238E+03  0.25500000920E-02 0.  1.
       -2    1    3    3    0  502  0.33876534635E+03 -0.97547818020E+02  0.58222804043E+03  0.68063722184E+03  0.25500000920E-02 0. -1.
</event>
<event>
 5   0  0.6557679E-03  0.7980612E+03  0.7818609E-02  0.9562828E-01
       -1   -1    0    0    0  501  0.00000000000E+00  0.00000000000E+00  0.65524090127E+03  0.65524090129E+03  0.50400001928E-02 0.  1.
        1   -1    0    0  501    0  0.00000000000E+00  0.00000000000E+00 -0.24300289046E+03  0.24300289051E+03  0.50400001928E-02 0. -1.
    10030    2    1    2    0    0  0.00000000000E+00  0.00000000000E+00  0.41223801081E+03  0.89824379181E+03  0.79806123322E+03 0.  0.
        1    1    3    3  502    0 -0.12601192513E+02  0.10355043804E+03  0.63962282495E+03  0.64807317603E+03  0.50400001928E-02 0.  1.
       -1    1    3    3    0  502  0.12601192513E+02 -0.10355043804E+03 -0.22738481414E+03  0.25017061577E+03  0.50400001928E-02 0. -1.
</event>
<event>
 5   0  0.4385875E-03  0.8020162E+03  0.7818609E-02  0.9557103E-01
        3   -1    0    0  501    0  0.00000000000E+00  0.00000000000E+00  0.41069408631E+03  0.41069409873E+03  0.10100000352E+00 0. -1.
       -3   -1    0    0    0  501  0.00000000000E+00  0.00000000000E+00 -0.39155051261E+03  0.39155052564E+03  0.10100000352E+00 0.  1.
    10030    2    1    2    0    0  0.00000000000E+00  0.00000000000E+00  0.19143573699E+02  0.80224462437E+03  0.80201618495E+03 0.  0.
        3    1    3    3  502    0  0.43270926966E+02 -0.15227265594E+03  0.37811688158E+03  0.40991672472E+03  0.10100000352E+00 0. -1.
       -3    1    3    3    0  502 -0.43270926966E+02  0.15227265594E+03 -0.35897330789E+03  0.39232789965E+03  0.10100000352E+00 0.  1.
</event>
<event>
 5   0  0.1154714E-02  0.7900492E+03  0.7818609E-02  0.9574533E-01
        2   -1    0    0  501    0  0.00000000000E+00  0.00000000000E+00  0.10465518765E+04  0.10465518765E+04  0.25500000920E-02 0. -1.
       -2   -1    0    0    0  501  0.00000000000E+00  0.00000000000E+00 -0.14910338856E+03  0.14910338858E+03  0.25500000920E-02 0.  1.
    10030    2    1    2    0    0  0.00000000000E+00  0.00000000000E+00  0.89744848790E+03  0.11956552651E+04  0.79004919113E+03 0.  0.
        5    1    3    3  502    0 -0.20833708118E+02  0.17480269279E+02 -0.14764252808E+03  0.15019989781E+03  0.46999998093E+01 0.  1.
       -5    1    3    3    0  502  0.20833708118E+02 -0.17480269279E+02  0.10450910160E+04  0.10454553672E+04  0.46999998093E+01 0. -1.
</event>
<event>
 5   0  0.6517392E-03  0.7941924E+03  0.7818609E-02  0.9568462E-01
        1   -1    0    0  501    0  0.00000000000E+00  0.00000000000E+00  0.68102607539E+03  0.68102607541E+03  0.50400001928E-02 0. -1.
       -1   -1    0    0    0  501  0.00000000000E+00  0.00000000000E+00 -0.23154092166E+03  0.23154092171E+03  0.50400001928E-02 0.  1.
    10030    2    1    2    0    0  0.00000000000E+00  0.00000000000E+00  0.44948515374E+03  0.91256699712E+03  0.79419243311E+03 0.  0.
        3    1    3    3  502    0 -0.31980494068E+02 -0.83147541982E+02 -0.21991036145E+03  0.23726955770E+03  0.10100000352E+00 0.  1.
       -3    1    3    3    0  502  0.31980494068E+02  0.83147541982E+02  0.66939551518E+03  0.67529743942E+03  0.10100000352E+00 0. -1.
</event>
<event>
 5   0  0.6596225E-03  0.8105734E+03  0.7818609E-02  0.9544837E-01
       -1   -1    0    0    0  501  0.00000000000E+00  0.00000000000E+00  0.11407109376E+03  0.11407109387E+03  0.50400001928E-02 0.  1.
        1   -1    0    0  501    0  0.00000000000E+00  0.00000000000E+00 -0.14399555326E+04  0.14399555326E+04  0.50400001928E-02 0. -1.
    10030    2    1    2    0    0  0.00000000000E+00  0.00000000000E+00 -0.13258844388E+04  0.15540266264E+04  0.81057338386E+03 0.  0.
        5    1    3    3  502    0  0.13704647214E+03 -0.90334237111E+02  0.47437631544E+02  0.17092228879E+03  0.46999998093E+01 0.  1.
       -5    1    3    3    0  502 -0.13704647214E+03  0.90334237111E+02 -0.13733220703E+04  0.13831043376E+04  0.46999998093E+01 0. -1.
</event>
<event>
 5   0  0.6596225E-03  0.7942034E+03  0.7818609E-02  0.9568446E-01
       -1   -1    0    0    0  501  0.00000000000E+00  0.00000000000E+00  0.36237196707E+03  0.36237196711E+03  0.50400001928E-02 0.  1.
        1   -1    0    0  501    0  0.00000000000E+00  0.00000000000E+00 -0.43515995193E+03  0.43515995196E+03  0.50400001928E-02 0. -1.
    10030    2    1    2    0    0  0.00000000000E+00  0.00000000000E+00 -0.72787984853E+02  0.79753191906E+03  0.79420341927E+03 0.  0.
        5    1    3    3  502    0 -0.11027037061E+03  0.89128349773E+02  0.33605699490E+03  0.36477364377E+03  0.46999998093E+01 0.  1.
       -5    1    3    3    0  502  0.11027037061E+03 -0.89128349773E+02 -0.40884497976E+03  0.43275827530E+03  0.46999998093E+01 0. -1.
</event>
<event>
 5   0  0.1121480E-02  0.8015292E+03  0.7818609E-02  0.9557806E-01
        2   -1    0    0  501    0  0.00000000000E+00  0.00000000000E+00  0.77150002214E+03  0.77150002214E+03  0.25500000920E-02 0.  1.
       -2   -1    0    0    0  501  0.00000000000E+00  0.00000000000E+00 -0.20818178297E+03  0.20818178299E+03  0.25500000920E-02 0. -1.
    10030    2    1    2    0    0  0.00000000000E+00  0.00000000000E+00  0.56331823917E+03  0.97968180513E+03  0.80152916399E+03 0.  0.
        2    1    3    3  502    0 -0.31964071487E+03  0.10341838118E+03  0.14581557755E+02  0.33627097704E+03  0.25500000920E-02 0. -1.
       -2    1    3    3    0  502  0.31964071487E+03 -0.10341838118E+03  0.54873668141E+03  0.64341082809E+03  0.25500000920E-02 0.  1.
</event>
<event>
 5   0  0.6596225E-03  0.7994876E+03  0.7818609E-02  0.9560759E-01
        1   -1    0    0  501    0  0.00000000000E+00  0.00000000000E+00  0.30994748576E+03  0.30994748580E+03  0.50400001928E-02 0. -1.
       -1   -1    0    0    0  501  0.00000000000E+00  0.00000000000E+00 -0.51555540451E+03  0.51555540453E+03  0.50400001928E-02 0.  1.
    10030    2    1    2    0    0  0.00000000000E+00  0.00000000000E+00 -0.20560791875E+03  0.82550289034E+03  0.79948758946E+03 0.  0.
        5    1    3    3  502    0 -0.20531514288E+02 -0.10018811855E+03  0.29618130774E+03  0.31337622633E+03  0.46999998093E+01 0. -1.
       -5    1    3    3    0  502  0.20531514288E+02  0.10018811855E+03 -0.50178922648E+03  0.51212666401E+03  0.46999998093E+01 0.  1.
</event>
<event>
 5   0  0.6557679E-03  0.8015259E+03  0.7818609E-02  0.9557811E-01
        1   -1    0    0  501    0  0.00000000000E+00  0.00000000000E+00  0.13948998175E+04  0.13948998175E+04  0.50400001928E-02 0. -1.
       -1   -1    0    0    0  501  0.00000000000E+00  0.00000000000E+00 -0.11514155620E+03  0.11514155631E+03  0.50400001928E-02 0.  1.
    10030    2    1    2    0    0  0.00000000000E+00  0.00000000000E+00  0.12797582613E+04  0.15100413738E+04  0.80152588435E+03 0.  0.
        1    1    3    3  502    0 -0.33442915502E+03 -0.12182027141E+03  0.29286291544E+03  0.46092485886E+03  0.50400001928E-02 0.  1.
       -1    1    3    3    0  502  0.33442915502E+03  0.12182027141E+03  0.98689534586E+03  0.10491165150E+04  0.50400001928E-02 0. -1.
</event>
<event>
 5   0  0.1121480E-02  0.8083964E+03  0.7818609E-02  0.9547943E-01
       -2   -1    0    0    0  501  0.00000000000E+00  0.00000000000E+00  0.23964065382E+03  0.23964065383E+03  0.25500000920E-02 0.  1.
        2   -1    0    0  501    0  0.00000000000E+00  0.00000000000E+00 -0.68175492161E+03  0.68175492162E+03  0.25500000920E-02 0. -1.
    10030    2    1    2    0    0  0.00000000000E+00  0.00000000000E+00 -0.44211426779E+03  0.92139557545E+03  0.80839642544E+03 0.  0.
        2    1    3    3  502    0 -0.65265940513E+02 -0.70726229861E+02 -0.66850586522E+03  0.67539761209E+03  0.25500000920E-02 0. -1.
       -2    1    3    3    0  502  0.65265940513E+02  0.70726229861E+02  0.22639159743E+03  0.24599796335E+03  0.25500000920E-02 0.  1.
</event>
<event>
 5   0  0.4385875E-03  0.7987169E+03  0.7818609E-02  0.9561876E-01
       -4   -1    0    0    0  501  0.00000000000E+00  0.00000000000E+00  0.45069491921E+03  0.45069670855E+03  0.12699999809E+01 0.  1.
        4   -1    0    0  501    0  0.00000000000E+00  0.00000000000E+00 -0.35386582491E+03  0.35386810388E+03  0.12699999809E+01 0. -1.
    10030    2    1    2    0    0  0.00000000000E+00  0.00000000000E+00  0.96829094296E+02  0.80456481243E+03  0.79871688595E+03 0.  0.
        5    1    3    3  502    0 -0.15171467860E+03  0.22073731898E+03 -0.24993427861E+03  0.36637622919E+03  0.46999998093E+01 0. -1.
       -5    1    3    3    0  502  0.15171467860E+03 -0.22073731898E+03  0.34676337291E+03  0.43818858324E+03  0.46999998093E+01 0.  1.
</event>
<event>
 5   0  0.6600401E-03  0.7832663E+03  0.7818609E-02  0.9584559E-01
        1   -1    0    0  501    0  0.00000000000E+00  0.00000000000E+00  0.32683809213E+03  0.32683809217E+03  0.50400001928E-02 0. -1.
       -1   -1    0    0    0  501  0.00000000000E+00  0.00000000000E+00 -0.46927365874E+03  0.46927365877E+03  0.50400001928E-02 0.  1.
    10030    2    1    2    0    0  0.00000000000E+00  0.00000000000E+00 -0.14243556661E+03  0.79611175093E+03  0.78326625699E+03 0.  0.
        2    1    3    3  502    0  0.30797118514E+03  0.15282168165E+02 -0.31662461373E+03  0.44196260201E+03  0.25500000920E-02 0.  1.
       -2    1    3    3    0  502 -0.30797118514E+03 -0.15282168165E+02  0.17418904712E+03  0.35414914893E+03  0.25500000920E-02 0. -1.
</event>
<event>
 5   0  0.6551489E-03  0.8075929E+03  0.7818609E-02  0.9549091E-01
       -1   -1    0    0    0  501  0.00000000000E+00  0.00000000000E+00  0.15840487776E+03  0.15840487784E+03  0.50400001928E-02 0. -1.
        1   -1    0    0  501    0  0.00000000000E+00  0.00000000000E+00 -0.10293342558E+04  0.10293342558E+04  0.50400001928E-02 0.  1.
    10030    2    1    2    0    0  0.00000000000E+00  0.00000000000E+00 -0.87092937803E+03  0.11877391336E+04  0.80759288509E+03 0.  0.
        4    1    3    3  502    0 -0.20616517478E+03 -0.23556780874E+03 -0.81057976931E+03  0.86892890798E+03  0.12699999809E+01 0.  1.
       -4    1    3    3    0  502  0.20616517478E+03  0.23556780874E+03 -0.60349608722E+02  0.31881022565E+03  0.12699999809E+01 0. -1.
</event>
<event>
 5   0  0.6551489E-03  0.8240954E+03  0.7818609E-02  0.9525780E-01
        1   -1    0    0  501    0  0.00000000000E+00  0.00000000000E+00  0.60869163725E+03  0.60869163727E+03  0.50400001928E-02 0. -1.
       -1   -1    0    0    0  501  0.00000000000E+00  0.00000000000E+00 -0.27893153620E+03  0.27893153625E+03  0.50400001928E-02 0.  1.
    10030    2    1    2    0    0  0.00000000000E+00  0.00000000000E+00  0.32976010104E+03  0.88762317351E+03  0.82409536701E+03 0.  0.
        4    1    3    3  502    0  0.28132063690E+03 -0.24429322512E+03 -0.24642133206E+02  0.37340236771E+03  0.12699999809E+01 0.  1.
       -4    1    3    3    0  502 -0.28132063690E+03  0.24429322512E+03  0.35440223425E+03  0.51422080580E+03  0.12699999809E+01 0. -1.
</event>
<event>
 5   0  0.6596225E-03  0.8026154E+03  0.7818609E-02  0.9556239E-01
       -1   -1    0    0    0  501  0.00000000000E+00  0.00000000000E+00  0.13899853530E+03  0.13899853540E+03  0.50400001928E-02 0.  1.
        1   -1    0    0  501    0  0.00000000000E+00  0.00000000000E+00 -0.11586299715E+04  0.11586299715E+04  0.50400001928E-02 0. -1.
    10030    2    1    2    0    0  0.00000000000E+00  0.00000000000E+00 -0.10196314362E+04  0.12976285069E+04  0.80261539748E+03 0.  0.
        5    1    3    3  502    0 -0.78156322459E+02  0.27793008181E+03 -0.96039975329E+03  0.10028675472E+04  0.46999998093E+01 0. -1.
       -5    1    3    3    0  502  0.78156322459E+02 -0.27793008181E+03 -0.59231682920E+02  0.29476095972E+03  0.46999998093E+01 0.  1.
</event>
<event>
 5   0  0.6517392E-03  0.7993937E+03  0.7818609E-02  0.9560895E-01
        1   -1    0    0  501    0  0.00000000000E+00  0.00000000000E+00  0.86047849522E+03  0.86047849523E+03  0.50400001928E-02 0. -1.
       -1   -1    0    0    0  501  0.00000000000E+00  0.00000000000E+00 -0.18566131342E+03  0.18566131349E+03  0.50400001928E-02 0.  1.
    10030    2    1    2    0    0  0.00000000000E+00  0.00000000000E+00  0.67481718180E+03  0.10461398087E+04  0.79939368934E+03 0.  0.
        3    1    3    3  502    0 -0.12810701384E+03 -0.31717607513E+03  0.60797517076E+03  0.69760009181E+03  0.10100000352E+00 0. -1.
       -3    1    3    3    0  502  0.12810701384E+03  0.31717607513E+03  0.66842011040E+02  0.34853971692E+03  0.10100000352E+00 0.  1.
</event>
<event>
 5   0  0.1154714E-02  0.7927804E+03  0.7818609E-02  0.9570526E-01
       -2   -1    0    0    0  501  0.00000000000E+00  0.00000000000E+00  0.33620899803E+03  0.33620899804E+03  0.25500000920E-02 0. -1.
        2   -1    0    0  501    0  0.00000000000E+00  0.00000000000E+00 -0.46734375814E+03  0.46734375815E+03  0.25500000920E-02 0.  1.
    10030    2    1    2    0    0  0.00000000000E+00  0.00000000000E+00 -0.13113476011E+03  0.80355275619E+03  0.79278036471E+03 0.  0.
        5    1    3    3  502    0 -0.30415781043E+03  0.80532288152E+02 -0.30989397504E+03  0.44164894299E+03  0.46999998093E+01 0.  1.
       -5    1    3    3    0  502  0.30415781043E+03 -0.80532288152E+02  0.17875921493E+03  0.36190381319E+03  0.46999998093E+01 0. -1.
</event>
<event>
 5   0  0.6596225E-03  0.7978604E+03  0.7818609E-02  0.9563119E-01
       -1   -1    0    0    0  501  0.00000000000E+00  0.00000000000E+00  0.29198665688E+03  0.29198665693E+03  0.50400001928E-02 0.  1.
        1   -1    0    0  501    0  0.00000000000E+00  0.00000000000E+00 -0.54504302927E+03  0.54504302929E+03  0.50400001928E-02 0. -1.
    10030    2    1    2    0    0  0.00000000000E+00  0.00000000000E+00 -0.25305637238E+03  0.83702968622E+03  0.79786036874E+03 0.  0.
        5    1    3    3  502    0  0.47464056022E+02  0.38452851194E+03 -0.26957222622E+02  0.38841188828E+03  0.46999998093E+01 0. -1.
       -5    1    3    3    0  502 -0.47464056022E+02 -0.38452851194E+03 -0.22609914976E+03  0.44861779794E+03  0.46999998093E+01 0.  1.
</event>
<event>
 5   0  0.1106332E-02  0.8010422E+03  0.7818609E-02  0.9558510E-01
        2   -1    0    0  501    0  0.00000000000E+00  0.00000000000E+00  0.22627141386E+04  0.22627141386E+04  0.25500000920E-02 0. -1.
       -2   -1    0    0    0  501  0.00000000000E+00  0.00000000000E+00 -0.70895899022E+02  0.70895899068E+02  0.25500000920E-02 0.  1.
    10030    2    1    2    0    0  0.00000000000E+00  0.00000000000E+00  0.21918182396E+04  0.23336100377E+04  0.80104220399E+03 0.  0.
        1    1    3    3  502    0 -0.11842215107E+03  0.16273060230E+03  0.21047075260E+04  0.21143081197E+04  0.50400001928E-02 0. -1.
       -1    1    3    3    0  502  0.11842215107E+03 -0.16273060230E+03  0.87110713532E+02  0.21930191797E+03  0.50400001928E-02 0.  1.
</event>
<event>
 5   0  0.6517392E-03  0.7912837E+03  0.7818609E-02  0.9572720E-01
        1   -1    0    0  501    0  0.00000000000E+00  0.00000000000E+00  0.65495812852E+03  0.65495812854E+03  0.50400001928E-02 0. -1.
       -1   -1    0    0    0  501  0.00000000000E+00  0.00000000000E+00 -0.23899614826E+03  0.23899614831E+03  0.50400001928E-02 0.  1.
    10030    2    1    2    0    0  0.00000000000E+00  0.00000000000E+00  0.41596198026E+03  0.89395427685E+03  0.79128369127E+03 0.  0.
        3    1    3    3  502    0 -0.35415498919E+03  0.10363840287E+03  0.36920646618E+03  0.52199626415E+03  0.10100000352E+00 0. -1.
       -3    1    3    3    0  502  0.35415498919E+03 -0.10363840287E+03  0.46755514080E+02  0.37195801270E+03  0.10100000352E+00 0.  1.
</event>
<event>
 5   0  0.6600401E-03  0.8056642E+03  0.7818609E-02  0.9551854E-01
        1   -1    0    0  501    0  0.00000000000E+00  0.00000000000E+00  0.36338112959E+03  0.36338112963E+03  0.50400001928E-02 0. -1.
       -1   -1    0    0    0  501  0.00000000000E+00  0.00000000000E+00 -0.44656610524E+03  0.44656610527E+03  0.50400001928E-02 0.  1.
    10030    2    1    2    0    0  0.00000000000E+00  0.00000000000E+00 -0.83184975645E+02  0.80994723490E+03  0.80566418758E+03 0.  0.
        2    1    3    3  502    0  0.14944616702E+03 -0.14377336134E+02 -0.41738826619E+03  0.44356941891E+03  0.25500000920E-02 0.  1.
       -2    1    3    3    0  502 -0.14944616702E+03  0.14377336134E+02  0.33420329055E+03  0.36637781599E+03  0.25500000920E-02 0. -1.
</event>
<event>
 5   0  0.4385875E-03  0.8070543E+03  0.7818609E-02  0.9549862E-01
       -3   -1    0    0    0  501  0.00000000000E+00  0.00000000000E+00  0.11122204333E+04  0.11122204379E+04  0.10100000352E+00 0.  1.
        3   -1    0    0  501    0  0.00000000000E+00  0.00000000000E+00 -0.14640454835E+03  0.14640458318E+03  0.10100000352E+00 0. -1.
    10030    2    1    2    0    0  0.00000000000E+00  0.00000000000E+00  0.96581588496E+03  0.12586250211E+04  0.80705428568E+03 0.  0.
        4    1    3    3  502    0 -0.15665219989E+03 -0.32031235573E+03  0.18827394474E+03  0.40322277730E+03  0.12699999809E+01 0.  1.
       -4    1    3    3    0  502  0.15665219989E+03  0.32031235573E+03  0.77754194022E+03  0.85540224378E+03  0.12699999809E+01 0. -1.
</event>
<event>
 5   0  0.1106332E-02  0.7976664E+03  0.7818609E-02  0.9563401E-01
       -2   -1    0    0    0  501  0.00000000000E+00  0.00000000000E+00  0.13455694815E+03  0.13455694817E+03  0.25500000920E-02 0. -1.
        2   -1    0    0  501    0  0.00000000000E+00  0.00000000000E+00 -0.11821607238E+04  0.11821607238E+04  0.25500000920E-02 0.  1.
    10030    2    1    2    0    0  0.00000000000E+00  0.00000000000E+00 -0.10476037756E+04  0.13167176719E+04  0.79766644465E+03 0.  0.
        1    1    3    3  502    0 -0.15333619497E+03  0.28264583593E+03 -0.13433427405E+03  0.34849154145E+03  0.50400001928E-02 0. -1.
       -1    1    3    3    0  502  0.15333619497E+03 -0.28264583593E+03 -0.91326950157E+03  0.96822613049E+03  0.50400001928E-02 0.  1.
</event>
<event>
 5   0  0.1092868E-02  0.7998243E+03  0.7818609E-02  0.9560271E-01
       -2   -1    0    0    0  501  0.00000000000E+00  0.00000000000E+00  0.14200652794E+03  0.14200652797E+03  0.25500000920E-02 0.  1.
        2   -1    0    0  501    0  0.00000000000E+00  0.00000000000E+00 -0.11262138400E+04  0.11262138400E+04  0.25500000920E-02 0. -1.
    10030    2    1    2    0    0  0.00000000000E+00  0.00000000000E+00 -0.98420731204E+03  0.12682203680E+04  0.79982427358E+03 0.  0.
        3    1    3    3  502    0  0.99834487452E+02 -0.29480161998E+03 -0.89026507435E+03  0.94310488963E+03  0.10100000352E+00 0. -1.
       -3    1    3    3    0  502 -0.99834487452E+02  0.29480161998E+03 -0.93942237690E+02  0.32511547833E+03  0.10100000352E+00 0.  1.
</event>
<event>
 5   0  0.1106332E-02  0.7993219E+03  0.7818609E-02  0.9560999E-01
        2   -1    0    0  501    0  0.00000000000E+00  0.00000000000E+00  0.69438119043E+03  0.69438119044E+03  0.25500000920E-02 0.  1.
       -2   -1    0    0    0  501  0.00000000000E+00  0.00000000000E+00 -0.23003053198E+03  0.23003053199E+03  0.25500000920E-02 0. -1.
    10030    2    1    2    0    0  0.00000000000E+00  0.00000000000E+00  0.46435065845E+03  0.92441172243E+03  0.79932189921E+03 0.  0.
        1    1    3    3  502    0  0.10649592074E+03 -0.12151954392E+03  0.65492207085E+03  0.67456007857E+03  0.50400001928E-02 0.  1.
       -1    1    3    3    0  502 -0.10649592074E+03  0.12151954392E+03 -0.19057141240E+03  0.24985164386E+03  0.50400001928E-02 0. -1.
</event>
<event>
 5   0  0.1092868E-02  0.7939582E+03  0.7818609E-02  0.9568804E-01
       -2   -1    0    0    0  501  0.00000000000E+00  0.00000000000E+00  0.88252028007E+03  0.88252028007E+03  0.25500000920E-02 0.  1.
        2   -1    0    0  501    0  0.00000000000E+00  0.00000000000E+00 -0.17857084926E+03  0.17857084928E+03  0.25500000920E-02 0. -1.
    10030    2    1    2    0    0  0.00000000000E+00  0.00000000000E+00  0.70394943081E+03  0.10610911293E+04  0.79395817500E+03 0.  0.
        3    1    3    3  502    0 -0.36786010903E+03  0.14158096010E+03  0.28891775743E+03  0.48871229659E+03  0.10100000352E+00 0.  1.
       -3    1    3    3    0  502  0.36786010903E+03 -0.14158096010E+03  0.41503167338E+03  0.57237883276E+03  0.10100000352E+00 0. -1.
</event>
<event>
 5   0  0.1121480E-02  0.8051319E+03  0.7818609E-02  0.9552618E-01
       -2   -1    0    0    0  501  0.00000000000E+00  0.00000000000E+00  0.18069396403E+03  0.18069396405E+03  0.25500000920E-02 0. -1.
        2   -1    0    0  501    0  0.00000000000E+00  0.00000000000E+00 -0.89687199060E+03  0.89687199061E+03  0.25500000920E-02 0.  1.
    10030    2    1    2    0    0  0.00000000000E+00  0.00000000000E+00 -0.71617802657E+03  0.10775659547E+04  0.80513192763E+03 0.  0.
        2    1    3    3  502    0 -0.20765698291E+03 -0.85607792542E+02 -0.80521188412E+03  0.83595232820E+03  0.25500000920E-02 0.  1.
       -2    1    3    3    0  502  0.20765698291E+03  0.85607792542E+02  0.89033857547E+02  0.24161362646E+03  0.25500000920E-02 0. -1.
</event>
<event>
 5   0  0.1106332E-02  0.7995746E+03  0.7818609E-02  0.9560633E-01
       -2   -1    0    0    0  501  0.00000000000E+00  0.00000000000E+00  0.39805870206E+03  0.39805870207E+03  0.25500000920E-02 0.  1.
        2   -1    0    0  501    0  0.00000000000E+00  0.00000000000E+00 -0.40152343848E+03  0.40152343848E+03  0.25500000920E-02 0. -1.
    10030    2    1    2    0    0  0.00000000000E+00  0.00000000000E+00 -0.34647364110E+01  0.79958214056E+03  0.79957463385E+03 0.  0.
        1    1    3    3  502    0 -0.20597143635E+03 -0.33589382993E+03 -0.69416097323E+02  0.40008435632E+03  0.50400001928E-02 0.  1.
       -1    1    3    3    0  502  0.20597143635E+03  0.33589382993E+03  0.65951360912E+02  0.39949778424E+03  0.50400001928E-02 0. -1.
</event>
<event>
 5   0  0.6596225E-03  0.8123363E+03  0.7818609E-02  0.9542330E-01
        1   -1    0    0  501    0  0.00000000000E+00  0.00000000000E+00  0.56205933612E+03  0.56205933615E+03  0.50400001928E-02 0. -1.
       -1   -1    0    0    0  501  0.00000000000E+00  0.00000000000E+00 -0.29351451468E+03  0.29351451473E+03  0.50400001928E-02 0.  1.
    10030    2    1    2    0    0  0.00000000000E+00  0.00000000000E+00  0.26854482144E+03  0.85557385087E+03  0.81233631777E+03 0.  0.
        5    1    3    3  502    0  0.39694401423E+03  0.48130930797E+02  0.59283401526E+02  0.40424961178E+03  0.46999998093E+01 0.  1.
       -5    1    3    3    0  502 -0.39694401423E+03 -0.48130930797E+02  0.20926141991E+03  0.45132423909E+03  0.46999998093E+01 0. -1.
</event>
<event>
 5   0  0.6517392E-03  0.7989363E+03  0.7818609E-02  0.9561558E-01
       -1   -1    0    0    0  501  0.00000000000E+00  0.00000000000E+00  0.36747422920E+03  0.36747422923E+03  0.50400001928E-02 0. -1.
        1   -1    0    0  501    0  0.00000000000E+00  0.00000000000E+00 -0.43424761247E+03  0.43424761250E+03  0.50400001928E-02 0.  1.
    10030    2    1    2    0    0  0.00000000000E+00  0.00000000000E+00 -0.66773383273E+02  0.80172184173E+03  0.79893630960E+03 0.  0.
        3    1    3    3  502    0  0.22751185616E+03  0.18624071939E+03  0.23797719877E+03  0.37825970918E+03  0.10100000352E+00 0. -1.
       -3    1    3    3    0  502 -0.22751185616E+03 -0.18624071939E+03 -0.30475058204E+03  0.42346213255E+03  0.10100000352E+00 0.  1.
</event>
<event>
 5   0  0.1121480E-02  0.7986677E+03  0.7818609E-02  0.9561948E-01
        2   -1    0    0  501    0  0.00000000000E+00  0.00000000000E+00  0.49455574337E+03  0.49455574338E+03  0.25500000920E-02 0. -1.
       -2   -1    0    0    0  501  0.00000000000E+00  0.00000000000E+00 -0.32244603499E+03  0.32244603500E+03  0.25500000920E-02 0.  1.
    10030    2    1    2    0    0  0.00000000000E+00  0.00000000000E+00  0.17210970838E+03  0.81700177837E+03  0.79866773701E+03 0.  0.
        2    1    3    3  502    0 -0.34435750970E+02  0.33644007466E+03 -0.13116323310E+03  0.36274169667E+03  0.25500000920E-02 0.  1.
       -2    1    3    3    0  502  0.34435750970E+02 -0.33644007466E+03  0.30327294149E+03  0.45426008170E+03  0.25500000920E-02 0. -1.
</event>
<event>
 5   0  0.6517392E-03  0.7994841E+03  0.7818609E-02  0.9560764E-01
       -1   -1    0    0    0  501  0.00000000000E+00  0.00000000000E+00  0.19605007284E+03  0.19605007290E+03  0.50400001928E-02 0. -1.
        1   -1    0    0  501    0  0.00000000000E+00  0.00000000000E+00 -0.81506583490E+03  0.81506583491E+03  0.50400001928E-02 0.  1.
    10030    2    1    2    0    0  0.00000000000E+00  0.00000000000E+00 -0.61901576206E+03  0.10111159078E+04  0.79948412452E+03 0.  0.
        3    1    3    3  502    0  0.14140378904E+03  0.18359527654E+02  0.16279263947E+03  0.21641062237E+03  0.10100000352E+00 0. -1.
       -3    1    3    3    0  502 -0.14140378904E+03 -0.18359527654E+02 -0.78180840153E+03  0.79470528544E+03  0.10100000352E+00 0.  1.
</event>
<event>
 5   0  0.6517392E-03  0.8002650E+03  0.7818609E-02  0.9559634E-01
        1   -1    0    0  501    0  0.00000000000E+00  0.00000000000E+00  0.49660945643E+03  0.49660945646E+03  0.50400001928E-02 0. -1.
       -1   -1    0    0    0  501  0.00000000000E+00  0.00000000000E+00 -0.32239821076E+03  0.32239821080E+03  0.50400001928E-02 0.  1.
    10030    2    1    2    0    0  0.00000000000E+00  0.00000000000E+00  0.17421124567E+03  0.81900766726E+03  0.80026495669E+03 0.  0.
        3    1    3    3  502    0  0.58183607343E+02  0.35068801234E+03  0.27508817482E+03  0.44948963090E+03  0.10100000352E+00 0. -1.
       -3    1    3    3    0  502 -0.58183607343E+02 -0.35068801234E+03 -0.10087692915E+03  0.36951803636E+03  0.10100000352E+00 0.  1.
</event>
<event>
 5   0  0.4385875E-03  0.7969235E+03  0.7818609E-02  0.9564481E-01
        4   -1    0    0  501    0  0.00000000000E+00  0.00000000000E+00  0.14029922572E+03  0.14030497368E+03  0.12699999809E+01 0.  1.
       -4   -1    0    0    0  501  0.00000000000E+00  0.00000000000E+00 -0.11316360681E+04  0.11316367807E+04  0.12699999809E+01 0. -1.
    10030    2    1    2    0    0  0.00000000000E+00  0.00000000000E+00 -0.99133684237E+03  0.12719417544E+04  0.79692351676E+03 0.  0.
        2    1    3    3  502    0  0.31493668272E+03 -0.48134300247E+01 -0.10613865658E+03  0.33237583796E+03  0.25500000920E-02 0.  1.
       -2    1    3    3    0  502 -0.31493668272E+03  0.48134300247E+01 -0.88519818579E+03  0.93956591645E+03  0.25500000920E-02 0. -1.
</event>
<event>
 5   0  0.1092868E-02  0.7934194E+03  0.7818609E-02  0.9569591E-01
       -2   -1    0    0    0  501  0.00000000000E+00  0.00000000000E+00  0.16910529224E+03  0.16910529226E+03  0.25500000920E-02 0.  1.
        2   -1    0    0  501    0  0.00000000000E+00  0.00000000000E+00 -0.93065452001E+03  0.93065452002E+03  0.25500000920E-02 0. -1.
    10030    2    1    2    0    0  0.00000000000E+00  0.00000000000E+00 -0.76154922778E+03  0.10997598123E+04  0.79341944668E+03 0.  0.
        3    1    3    3  502    0  0.18212842615E+03  0.28796868173E+03 -0.66240186816E+03  0.74489795973E+03  0.10100000352E+00 0. -1.
       -3    1    3    3    0  502 -0.18212842615E+03 -0.28796868173E+03 -0.99147359615E+02  0.35486185254E+03  0.10100000352E+00 0.  1.
</event>
<event>
 5   0  0.6596225E-03  0.7820059E+03  0.7818609E-02  0.9586434E-01
       -1   -1    0    0    0  501  0.00000000000E+00  0.00000000000E+00  0.19796349515E+03  0.19796349522E+03  0.50400001928E-02 0.  1.
        1   -1    0    0  501    0  0.00000000000E+00  0.00000000000E+00 -0.77228038953E+03  0.77228038955E+03  0.50400001928E-02 0. -1.
    10030    2    1    2    0    0  0.00000000000E+00  0.00000000000E+00 -0.57431689438E+03  0.97024388476E+03  0.78200594675E+03 0.  0.
        5    1    3    3  502    0 -0.32361767169E+02 -0.37592929695E+03 -0.16007713793E+03  0.40989864645E+03  0.46999998093E+01 0.  1.
       -5    1    3    3    0  502  0.32361767169E+02  0.37592929695E+03 -0.41423975645E+03  0.56034523831E+03  0.46999998093E+01 0. -1.
</event>
<event>
 5   0  0.1121480E-02  0.8122883E+03  0.7818609E-02  0.9542399E-01
       -2   -1    0    0    0  501  0.00000000000E+00  0.00000000000E+00  0.38053545717E+03  0.38053545718E+03  0.25500000920E-02 0. -1.
        2   -1    0    0  501    0  0.00000000000E+00  0.00000000000E+00 -0.43347617985E+03  0.43347617986E+03  0.25500000920E-02 0.  1.
    10030    2    1    2    0    0  0.00000000000E+00  0.00000000000E+00 -0.52940722680E+02  0.81401163703E+03  0.81228826479E+03 0.  0.
        2    1    3    3  502    0 -0.31075644036E+03  0.19874547770E+03  0.14384234255E+03  0.39592922303E+03  0.25500000920E-02 0. -1.
       -2    1    3    3    0  502  0.31075644036E+03 -0.19874547770E+03 -0.19678306523E+03  0.41808241400E+03  0.25500000920E-02 0.  1.
</event>
<event>
 5   0  0.6557679E-03  0.8004182E+03  0.7818609E-02  0.9559412E-01
       -1   -1    0    0    0  501  0.00000000000E+00  0.00000000000E+00  0.19447393963E+03  0.19447393970E+03  0.50400001928E-02 0. -1.
        1   -1    0    0  501    0  0.00000000000E+00  0.00000000000E+00 -0.82359276379E+03  0.82359276380E+03  0.50400001928E-02 0.  1.
    10030    2    1    2    0    0  0.00000000000E+00  0.00000000000E+00 -0.62911882416E+03  0.10180667035E+04  0.80041821435E+03 0.  0.
        1    1    3    3  502    0 -0.21225521796E+03  0.12128460906E+03  0.88470377376E+02  0.25997931004E+03  0.50400001928E-02 0. -1.
       -1    1    3    3    0  502  0.21225521796E+03 -0.12128460906E+03 -0.71758920153E+03  0.75808739346E+03  0.50400001928E-02 0.  1.
</event>
<event>
 5   0  0.4385875E-03  0.7717309E+03  0.7818609E-02  0.9601862E-01
        3   -1    0    0  501    0  0.00000000000E+00  0.00000000000E+00  0.59743822964E+03  0.59743823817E+03  0.10100000352E+00 0. -1.
       -3   -1    0    0    0  501  0.00000000000E+00  0.00000000000E+00 -0.24921760035E+03  0.24921762082E+03  0.10100000352E+00 0.  1.
    10030    2    1    2    0    0  0.00000000000E+00  0.00000000000E+00  0.34822062928E+03  0.84665585899E+03  0.77173087077E+03 0.  0.
        2    1    3    3  502    0  0.28991313205E+02 -0.32258812906E+03 -0.55986604519E+02  0.32869149235E+03  0.25500000920E-02 0.  1.
       -2    1    3    3    0  502 -0.28991313205E+02  0.32258812906E+03  0.40420723380E+03  0.51796436664E+03  0.25500000920E-02 0. -1.
</event>
<event>
 5   0  0.1092868E-02  0.8015938E+03  0.7818609E-02  0.9557713E-01
        2   -1    0    0  501    0  0.00000000000E+00  0.00000000000E+00  0.11306727809E+04  0.11306727809E+04  0.25500000920E-02 0.  1.
       -2   -1    0    0    0  501  0.00000000000E+00  0.00000000000E+00 -0.14207305871E+03  0.14207305873E+03  0.25500000920E-02 0. -1.
    10030    2    1    2    0    0  0.00000000000E+00  0.00000000000E+00  0.98859972220E+03  0.12727458396E+04  0.80159376345E+03 0.  0.
        3    1    3    3  502    0  0.49175626582E+02  0.18116725592E+03 -0.67954980662E+02  0.19964394923E+03  0.10100000352E+00 0. -1.
       -3    1    3    3    0  502 -0.49175626582E+02 -0.18116725592E+03  0.10565547029E+04  0.10731018904E+04  0.10100000352E+00 0.  1.
</event>
<event>
 5   0  0.6600401E-03  0.7914483E+03  0.7818609E-02  0.9572479E-01
        1   -1    0    0  501    0  0.00000000000E+00  0.00000000000E+00  0.52448481909E+03  0.52448481911E+03  0.50400001928E-02 0.  1.
       -1   -1    0    0    0  501  0.00000000000E+00  0.00000000000E+00 -0.29857411134E+03  0.29857411138E+03  0.50400001928E-02 0. -1.
    10030    2    1    2    0    0  0.00000000000E+00  0.00000000000E+00  0.22591070775E+03  0.82305893049E+03  0.79144826438E+03 0.  0.
        2    1    3    3  502    0 -0.80378963118E+02 -0.35914898610E+03  0.26419005023E+03  0.45303990396E+03  0.25500000920E-02 0.  1.
       -2    1    3    3    0  502  0.80378963118E+02  0.35914898610E+03 -0.38279342487E+02  0.37001902653E+03  0.25500000920E-02 0. -1.
</event>
<event>
 5   0  0.6517392E-03  0.7346416E+03  0.7818609E-02  0.9659758E-01
       -1   -1    0    0    0  501  0.00000000000E+00  0.00000000000E+00  0.44961315322E+03  0.44961315325E+03  0.50400001928E-02 0.  1.
        1   -1    0    0  501    0  0.00000000000E+00  0.00000000000E+00 -0.30009035359E+03  0.30009035363E+03  0.50400001928E-02 0. -1.
    10030    2    1    2    0    0  0.00000000000E+00  0.00000000000E+00  0.14952279963E+03  0.74970350688E+03  0.73464160012E+03 0.  0.
        3    1    3    3  502    0  0.12430831408E+03 -0.18007028982E+03 -0.22632432505E+03  0.31480244048E+03  0.10100000352E+00 0. -1.
       -3    1    3    3    0  502 -0.12430831408E+03  0.18007028982E+03  0.37584712468E+03  0.43490106640E+03  0.10100000352E+00 0.  1.
</event>
<event>
 5   0  0.6596225E-03  0.7269301E+03  0.7818609E-02  0.9672255E-01
        1   -1    0    0  501    0  0.00000000000E+00  0.00000000000E+00  0.84698490547E+03  0.84698490549E+03  0.50400001928E-02 0. -1.
       -1   -1    0    0    0  501  0.00000000000E+00  0.00000000000E+00 -0.15597307373E+03  0.15597307382E+03  0.50400001928E-02 0.  1.
    10030    2    1    2    0    0  0.00000000000E+00  0.00000000000E+00  0.69101183174E+03  0.10029579793E+04  0.72693009062E+03 0.  0.
        5    1    3    3  502    0 -0.32618469473E+03 -0.12408951251E+03  0.20554730795E+03  0.40505116713E+03  0.46999998093E+01 0. -1.
       -5    1    3    3    0  502  0.32618469473E+03  0.12408951251E+03  0.48546452378E+03  0.59790681217E+03  0.46999998093E+01 0.  1.
</event>
<event>
 5   0  0.6600401E-03  0.8032474E+03  0.7818609E-02  0.9555329E-01
       -1   -1    0    0    0  501  0.00000000000E+00  0.00000000000E+00  0.13813609653E+03  0.13813609662E+03  0.50400001928E-02 0. -1.
        1   -1    0    0  501    0  0.00000000000E+00  0.00000000000E+00 -0.11677005261E+04  0.11677005261E+04  0.50400001928E-02 0.  1.
    10030    2    1    2    0    0  0.00000000000E+00  0.00000000000E+00 -0.10295644296E+04  0.13058366227E+04  0.80324739067E+03 0.  0.
        2    1    3    3  502    0  0.19194859620E+03 -0.15184534176E+03 -0.10324595919E+04  0.10610721372E+04  0.25500000920E-02 0.  1.
       -2    1    3    3    0  502 -0.19194859620E+03  0.15184534176E+03  0.28951623565E+01  0.24476448551E+03  0.25500000920E-02 0. -1.
</event>
<event>
 5   0  0.4385875E-03  0.7970921E+03  0.7818609E-02  0.9564236E-01
        3   -1    0    0  501    0  0.00000000000E+00  0.00000000000E+00  0.29936026444E+03  0.29936028147E+03  0.10100000352E+00 0.  1.
       -3   -1    0    0    0  501  0.00000000000E+00  0.00000000000E+00 -0.53059467136E+03  0.53059468098E+03  0.10100000352E+00 0. -1.
    10030    2    1    2    0    0  0.00000000000E+00  0.00000000000E+00 -0.23123440693E+03  0.82995496245E+03  0.79709214571E+03 0.  0.
        5    1    3    3  502    0 -0.23624411471E+03 -0.13868767076E+03  0.18574841410E+03  0.33101376874E+03  0.46999998093E+01 0.  1.
       -5    1    3    3    0  502  0.23624411471E+03  0.13868767076E+03 -0.41698282102E+03  0.49894119371E+03  0.46999998093E+01 0. -1.
</event>
<event>
 5   0  0.1119792E-02  0.7872241E+03  0.7818609E-02  0.9578696E-01
       -2   -1    0    0    0  501  0.00000000000E+00  0.00000000000E+00  0.12676112854E+03  0.12676112857E+03  0.25500000920E-02 0. -1.
        2   -1    0    0  501    0  0.00000000000E+00  0.00000000000E+00 -0.12222235398E+04  0.12222235398E+04  0.25500000920E-02 0.  1.
    10030    2    1    2    0    0  0.00000000000E+00  0.00000000000E+00 -0.10954624112E+04  0.13489846683E+04  0.78722407293E+03 0.  0.
        4    1    3    3  502    0  0.13396745842E+03  0.36725156828E+03 -0.46905811076E+03  0.61060471542E+03  0.12699999809E+01 0.  1.
       -4    1    3    3    0  502 -0.13396745842E+03 -0.36725156828E+03 -0.62640430046E+03  0.73837995291E+03  0.12699999809E+01 0. -1.
</event>
<event>
 5   0  0.6551489E-03  0.7968401E+03  0.7818609E-02  0.9564602E-01
        1   -1    0    0  501    0  0.00000000000E+00  0.00000000000E+00  0.94402680803E+03  0.94402680804E+03  0.50400001928E-02 0. -1.
       -1   -1    0    0    0  501  0.00000000000E+00  0.00000000000E+00 -0.16815044108E+03  0.16815044115E+03  0.50400001928E-02 0.  1.
    10030    2    1    2    0    0  0.00000000000E+00  0.00000000000E+00  0.77587636695E+03  0.11121772492E+04  0.79684006979E+03 0.  0.
        4    1    3    3  502    0  0.11740380938E+03  0.28637154359E+03  0.37765659263E+02  0.31180149672E+03  0.12699999809E+01 0.  1.
       -4    1    3    3    0  502 -0.11740380938E+03 -0.28637154359E+03  0.73811070769E+03  0.80037575247E+03  0.12699999809E+01 0. -1.
</event>
<event>
 5   0  0.6517392E-03  0.7976684E+03  0.7818609E-02  0.9563398E-01
       -1   -1    0    0    0  501  0.00000000000E+00  0.00000000000E+00  0.26867510463E+03  0.26867510467E+03  0.50400001928E-02 0. -1.
        1   -1    0    0  501    0  0.00000000000E+00  0.00000000000E+00 -0.59204856406E+03  0.59204856409E+03  0.50400001928E-02 0.  1.
    10030    2    1    2    0    0  0.00000000000E+00  0.00000000000E+00 -0.32337345944E+03  0.86072366876E+03  0.79766837702E+03 0.  0.
        3    1    3    3  502    0  0.32583730854E+03 -0.22631023301E+03 -0.11742693216E+03  0.41373345018E+03  0.10100000352E+00 0.  1.
       -3    1    3    3    0  502 -0.32583730854E+03  0.22631023301E+03 -0.20594652728E+03  0.44699021858E+03  0.10100000352E+00 0. -1.
</event>
<event>
 5   0  0.4385875E-03  0.8007489E+03  0.7818609E-02  0.9558934E-01
       -4   -1    0    0    0  501  0.00000000000E+00  0.00000000000E+00  0.29713637879E+03  0.29713909285E+03  0.12699999809E+01 0. -1.
        4   -1    0    0  501    0  0.00000000000E+00  0.00000000000E+00 -0.53947596353E+03  0.53947745841E+03  0.12699999809E+01 0.  1.
    10030    2    1    2    0    0  0.00000000000E+00  0.00000000000E+00 -0.24233958475E+03  0.83661655125E+03  0.80074888666E+03 0.  0.
        1    1    3    3  502    0  0.23462076989E+03  0.28980913012E+03  0.31181817697E+02  0.37417715503E+03  0.50400001928E-02 0. -1.
       -1    1    3    3    0  502 -0.23462076989E+03 -0.28980913012E+03 -0.27352140244E+03  0.46243939623E+03  0.50400001928E-02 0.  1.
</event>
<event>
 5   0  0.1106332E-02  0.8005288E+03  0.7818609E-02  0.9559252E-01
       -2   -1    0    0    0  501  0.00000000000E+00  0.00000000000E+00  0.49455168651E+03  0.49455168652E+03  0.25500000920E-02 0. -1.
        2   -1    0    0  501    0  0.00000000000E+00  0.00000000000E+00 -0.32395314425E+03  0.32395314426E+03  0.25500000920E-02 0.  1.
    10030    2    1    2    0    0  0.00000000000E+00  0.00000000000E+00  0.17059854227E+03  0.81850483078E+03  0.80052875987E+03 0.  0.
        1    1    3    3  502    0  0.44475504961E+01 -0.20937932116E+03  0.43406307671E+03  0.48194422439E+03  0.50400001928E-02 0. -1.
       -1    1    3    3    0  502 -0.44475504961E+01  0.20937932116E+03 -0.26346453444E+03  0.33656060638E+03  0.50400001928E-02 0.  1.
</event>
<event>
 5   0  0.1092868E-02  0.8007821E+03  0.7818609E-02  0.9558886E-01
        2   -1    0    0  501    0  0.00000000000E+00  0.00000000000E+00  0.11821026819E+04  0.11821026819E+04  0.25500000920E-02 0. -1.
       -2   -1    0    0    0  501  0.00000000000E+00  0.00000000000E+00 -0.13561679214E+03  0.13561679216E+03  0.25500000920E-02 0.  1.
    10030    2    1    2    0    0  0.00000000000E+00  0.00000000000E+00  0.10464858898E+04  0.13177194741E+04  0.80078205203E+03 0.  0.
        3    1    3    3  502    0  0.35595808516E+03 -0.10611075359E+03  0.76923511872E+03  0.85421796310E+03  0.10100000352E+00 0. -1.
       -3    1    3    3    0  502 -0.35595808516E+03  0.10611075359E+03  0.27725077104E+03  0.46350151096E+03  0.10100000352E+00 0.  1.
</event>
<event>
 5   0  0.1092868E-02  0.7919020E+03  0.7818609E-02  0.9571813E-01
       -2   -1    0    0    0  501  0.00000000000E+00  0.00000000000E+00  0.96507020118E+03  0.96507020118E+03  0.25500000920E-02 0. -1.
        2   -1    0    0  501    0  0.00000000000E+00  0.00000000000E+00 -0.16245160366E+03  0.16245160368E+03  0.25500000920E-02 0.  1.
    10030    2    1    2    0    0  0.00000000000E+00  0.00000000000E+00  0.80261859752E+03  0.11275218049E+04  0.79190201878E+03 0.  0.
        3    1    3    3  502    0  0.90281064301E+02 -0.27901589761E+02 -0.14616187760E+03  0.17404733249E+03  0.10100000352E+00 0.  1.
       -3    1    3    3    0  502 -0.90281064301E+02  0.27901589761E+02  0.94878047512E+03  0.95347447237E+03  0.10100000352E+00 0. -1.
</event>
<event>
 5   0  0.6551489E-03  0.8010798E+03  0.7818609E-02  0.9558455E-01
        1   -1    0    0  501    0  0.00000000000E+00  0.00000000000E+00  0.28237221877E+03  0.28237221882E+03  0.50400001928E-02 0.  1.
       -1   -1    0    0    0  501  0.00000000000E+00  0.00000000000E+00 -0.56815868720E+03  0.56815868722E+03  0.50400001928E-02 0. -1.
    10030    2    1    2    0    0  0.00000000000E+00  0.00000000000E+00 -0.28578646842E+03  0.85053090604E+03  0.80107984408E+03 0.  0.
        4    1    3    3  502    0  0.97523960812E+02 -0.19185978458E+03 -0.50154686117E+03  0.54577648055E+03  0.12699999809E+01 0. -1.
       -4    1    3    3    0  502 -0.97523960812E+02  0.19185978458E+03  0.21576039275E+03  0.30475442548E+03  0.12699999809E+01 0.  1.
</event>
<event>
 5   0  0.1106332E-02  0.8116187E+03  0.7818609E-02  0.9543350E-01
       -2   -1    0    0    0  501  0.00000000000E+00  0.00000000000E+00  0.13623034974E+03  0.13623034976E+03  0.25500000920E-02 0. -1.
        2   -1    0    0  501    0  0.00000000000E+00  0.00000000000E+00 -0.12088440014E+04  0.12088440014E+04  0.25500000920E-02 0.  1.
    10030    2    1    2    0    0  0.00000000000E+00  0.00000000000E+00 -0.10726136517E+04  0.13450743512E+04  0.81161873096E+03 0.  0.
        1    1    3    3  502    0 -0.36172658296E+03 -0.10417957702E+03 -0.28506864176E+03  0.47219025363E+03  0.50400001928E-02 0. -1.
       -1    1    3    3    0  502  0.36172658296E+03  0.10417957702E+03 -0.78754500990E+03  0.87288409754E+03  0.50400001928E-02 0.  1.
</event>
<event>
 5   0  0.6600401E-03  0.8200876E+03  0.7818609E-02  0.9531388E-01
        1   -1    0    0  501    0  0.00000000000E+00  0.00000000000E+00  0.11135127115E+04  0.11135127116E+04  0.50400001928E-02 0.  1.
       -1   -1    0    0    0  501  0.00000000000E+00  0.00000000000E+00 -0.15099594974E+03  0.15099594982E+03  0.50400001928E-02 0. -1.
    10030    2    1    2    0    0  0.00000000000E+00  0.00000000000E+00  0.96251676181E+03  0.12645086614E+04  0.82008757944E+03 0.  0.
        2    1    3    3  502    0 -0.95441954794E+02  0.90479635170E+02 -0.11759443042E+03  0.17642046703E+03  0.25500000920E-02 0. -1.
       -2    1    3    3    0  502  0.95441954794E+02 -0.90479635170E+02  0.10801111922E+04  0.10880881944E+04  0.25500000920E-02 0.  1.
</event>
<event>
 5   0  0.6557679E-03  0.7994223E+03  0.7818609E-02  0.9560854E-01
       -1   -1    0    0    0  501  0.00000000000E+00  0.00000000000E+00  0.26793783055E+03  0.26793783060E+03  0.50400001928E-02 0.  1.
        1   -1    0    0  501    0  0.00000000000E+00  0.00000000000E+00 -0.59629133373E+03  0.59629133376E+03  0.50400001928E-02 0. -1.
    10030    2    1    2    0    0  0.00000000000E+00  0.00000000000E+00 -0.32835350318E+03  0.86422916436E+03  0.79942230734E+03 0.  0.
        1    1    3    3  502    0  0.30347228355E+03 -0.20126817230E+03 -0.34235518244E+03  0.49981133944E+03  0.50400001928E-02 0. -1.
       -1    1    3    3    0  502 -0.30347228355E+03  0.20126817230E+03  0.14001679254E+02  0.36441782491E+03  0.50400001928E-02 0.  1.
</event>
<event>
 5   0  0.6596225E-03  0.7991132E+03  0.7818609E-02  0.9561302E-01
        1   -1    0    0  501    0  0.00000000000E+00  0.00000000000E+00  0.76215985656E+03  0.76215985657E+03  0.50400001928E-02 0. -1.
       -1   -1    0    0    0  501  0.00000000000E+00  0.00000000000E+00 -0.20946455687E+03  0.20946455693E+03  0.50400001928E-02 0.  1.
    10030    2    1    2    0    0  0.00000000000E+00  0.00000000000E+00  0.55269529969E+03  0.97162441350E+03  0.79911320013E+03 0.  0.
        5    1    3    3  502    0 -0.38281353921E+03 -0.64160451693E+02  0.16125195516E+03  0.42034159014E+03  0.46999998093E+01 0.  1.
       -5    1    3    3    0  502  0.38281353921E+03  0.64160451693E+02  0.39144334453E+03  0.55128282336E+03  0.46999998093E+01 0. -1.
</event>
<event>
 5   0  0.1121480E-02  0.7972539E+03  0.7818609E-02  0.9564001E-01
        2   -1    0    0  501    0  0.00000000000E+00  0.00000000000E+00  0.18899760312E+04  0.18899760312E+04  0.25500000920E-02 0.  1.
       -2   -1    0    0    0  501  0.00000000000E+00  0.00000000000E+00 -0.84076953707E+02  0.84076953746E+02  0.25500000920E-02 0. -1.
    10030    2    1    2    0    0  0.00000000000E+00  0.00000000000E+00  0.18058990775E+04  0.19740529849E+04  0.79725385498E+03 0.  0.
        2    1    3    3  502    0  0.46255051485E+02  0.18391460313E+03  0.34773942217E+02  0.19280388506E+03  0.25500000920E-02 0. -1.
       -2    1    3    3    0  502 -0.46255051485E+02 -0.18391460313E+03  0.17711251352E+04  0.17812490999E+04  0.25500000920E-02 0.  1.
</event>
<event>
 5   0  0.1106332E-02  0.7956514E+03  0.7818609E-02  0.9566333E-01
        2   -1    0    0  501    0  0.00000000000E+00  0.00000000000E+00  0.10335129016E+04  0.10335129016E+04  0.25500000920E-02 0. -1.
       -2   -1    0    0    0  501  0.00000000000E+00  0.00000000000E+00 -0.15313334472E+03  0.15313334474E+03  0.25500000920E-02 0.  1.
    10030    2    1    2    0    0  0.00000000000E+00  0.00000000000E+00  0.88037955687E+03  0.11866462463E+04  0.79565139966E+03 0.  0.
        1    1    3    3  502    0 -0.28466189677E+03  0.39434157397E+02  0.85047209622E+03  0.89771389357E+03  0.50400001928E-02 0. -1.
       -1    1    3    3    0  502  0.28466189677E+03 -0.39434157397E+02  0.29907460646E+02  0.28893235275E+03  0.50400001928E-02 0.  1.
</event>
<event>
 5   0  0.1154714E-02  0.7686557E+03  0.7818609E-02  0.9606529E-01
        2   -1    0    0  501    0  0.00000000000E+00  0.00000000000E+00  0.15063691724E+04  0.15063691724E+04  0.25500000920E-02 0.  1.
       -2   -1    0    0    0  501  0.00000000000E+00  0.00000000000E+00 -0.98055581693E+02  0.98055581726E+02  0.25500000920E-02 0. -1.
    10030    2    1    2    0    0  0.00000000000E+00  0.00000000000E+00  0.14083135907E+04  0.16044247541E+04  0.76865572390E+03 0.  0.
        5    1    3    3  502    0  0.60829008488E+02 -0.10254582091E+03  0.14667261030E+04  0.14715717329E+04  0.46999998093E+01 0.  1.
       -5    1    3    3    0  502 -0.60829008488E+02  0.10254582091E+03 -0.58412512334E+02  0.13285302125E+03  0.46999998093E+01 0. -1.
</event>
<event>
 5   0  0.6596225E-03  0.7997113E+03  0.7818609E-02  0.9560435E-01
       -1   -1    0    0    0  501  0.00000000000E+00  0.00000000000E+00  0.16610807681E+03  0.16610807688E+03  0.50400001928E-02 0.  1.
        1   -1    0    0  501    0  0.00000000000E+00  0.00000000000E+00 -0.96253322378E+03  0.96253322380E+03  0.50400001928E-02 0. -1.
    10030    2    1    2    0    0  0.00000000000E+00  0.00000000000E+00 -0.79642514698E+03  0.11286413007E+04  0.79971130470E+03 0.  0.
        5    1    3    3  502    0  0.92400444549E+02 -0.32963194400E+03 -0.10669096436E+03  0.35860857844E+03  0.46999998093E+01 0.  1.
       -5    1    3    3    0  502 -0.92400444549E+02  0.32963194400E+03 -0.68973418261E+03  0.77003272224E+03  0.46999998093E+01 0. -1.
</event>
<event>
 5   0  0.4385875E-03  0.8034521E+03  0.7818609E-02  0.9555034E-01
        4   -1    0    0  501    0  0.00000000000E+00  0.00000000000E+00  0.12330660582E+04  0.12330667122E+04  0.12699999809E+01 0.  1.
       -4   -1    0    0    0  501  0.00000000000E+00  0.00000000000E+00 -0.13087635300E+03  0.13088251478E+03  0.12699999809E+01 0. -1.
    10030    2    1    2    0    0  0.00000000000E+00  0.00000000000E+00  0.11021897052E+04  0.13639492270E+04  0.80345214392E+03 0.  0.
        4    1    3    3  502    0  0.29368108727E+03  0.29017323285E+02  0.88385628998E+02  0.30806528267E+03  0.12699999809E+01 0. -1.
       -4    1    3    3    0  502 -0.29368108727E+03 -0.29017323285E+02  0.10138040762E+04  0.10558839443E+04  0.12699999809E+01 0.  1.
</event>
<event>
 5   0  0.1119792E-02  0.8005327E+03  0.7818609E-02  0.9559246E-01
       -2   -1    0    0    0  501  0.00000000000E+00  0.00000000000E+00  0.20482885171E+03  0.20482885172E+03  0.25500000920E-02 0. -1.
        2   -1    0    0  501    0  0.00000000000E+00  0.00000000000E+00 -0.78218059888E+03  0.78218059888E+03  0.25500000920E-02 0.  1.
    10030    2    1    2    0    0  0.00000000000E+00  0.00000000000E+00 -0.57735174717E+03  0.98700945060E+03  0.80053270740E+03 0.  0.
        4    1    3    3  502    0 -0.20388490362E+03 -0.23072781008E+03  0.26646576437E+02  0.30905667637E+03  0.12699999809E+01 0. -1.
       -4    1    3    3    0  502  0.20388490362E+03  0.23072781008E+03 -0.60399832361E+03  0.67795277424E+03  0.12699999809E+01 0.  1.
</event>
<event>
 5   0  0.1106332E-02  0.8011287E+03  0.7818609E-02  0.9558385E-01
        2   -1    0    0  501    0  0.00000000000E+00  0.00000000000E+00  0.24458422014E+03  0.24458422015E+03  0.25500000920E-02 0.  1.
       -2   -1    0    0    0  501  0.00000000000E+00  0.00000000000E+00 -0.65601863822E+03  0.65601863822E+03  0.25500000920E-02 0. -1.
    10030    2    1    2    0    0  0.00000000000E+00  0.00000000000E+00 -0.41143441808E+03  0.90060285837E+03  0.80112872132E+03 0.  0.
        1    1    3    3  502    0 -0.17758459079E+03 -0.30791742283E+03  0.18808884263E+01  0.35546162090E+03  0.50400001928E-02 0. -1.
       -1    1    3    3    0  502  0.17758459079E+03  0.30791742283E+03 -0.41331530651E+03  0.54514123747E+03  0.50400001928E-02 0.  1.
</event>
<event>
 5   0  0.6551489E-03  0.7955795E+03  0.7818609E-02  0.9566438E-01
       -1   -1    0    0    0  501  0.00000000000E+00  0.00000000000E+00  0.30702309947E+03  0.30702309951E+03  0.50400001928E-02 0. -1.
        1   -1    0    0  501    0  0.00000000000E+00  0.00000000000E+00 -0.51539020132E+03  0.51539020135E+03  0.50400001928E-02 0.  1.
    10030    2    1    2    0    0  0.00000000000E+00  0.00000000000E+00 -0.20836710185E+03  0.82241330086E+03  0.79557952984E+03 0.  0.
        4    1    3    3  502    0 -0.30150921985E+02 -0.31309094362E+03  0.14754595168E+03  0.34742832042E+03  0.12699999809E+01 0. -1.
       -4    1    3    3    0  502  0.30150921985E+02  0.31309094362E+03 -0.35591305353E+03  0.47498498044E+03  0.12699999809E+01 0.  1.
</event>
<event>
 5   0  0.6596225E-03  0.7924214E+03  0.7818609E-02  0.9571052E-01
       -1   -1    0    0    0  501  0.00000000000E+00  0.00000000000E+00  0.19594284061E+03  0.19594284068E+03  0.50400001928E-02 0.  1.
        1   -1    0    0  501    0  0.00000000000E+00  0.00000000000E+00 -0.80116683542E+03  0.80116683543E+03  0.50400001928E-02 0. -1.
    10030    2    1    2    0    0  0.00000000000E+00  0.00000000000E+00 -0.60522399480E+03  0.99710967611E+03  0.79242136664E+03 0.  0.
        5    1    3    3  502    0 -0.23965136006E+03  0.31470244585E+03 -0.33047752042E+03  0.51546860748E+03  0.46999998093E+01 0. -1.
       -5    1    3    3    0  502  0.23965136006E+03 -0.31470244585E+03 -0.27474647439E+03  0.48164106863E+03  0.46999998093E+01 0.  1.
</event>
<event>
 5   0  0.1154714E-02  0.8039125E+03  0.7818609E-02  0.9554371E-01
       -2   -1    0    0    0  501  0.00000000000E+00  0.00000000000E+00  0.29393411066E+03  0.29393411067E+03  0.25500000920E-02 0. -1.
        2   -1    0    0  501    0  0.00000000000E+00  0.00000000000E+00 -0.54967709059E+03  0.54967709059E+03  0.25500000920E-02 0.  1.
    10030    2    1    2    0    0  0.00000000000E+00  0.00000000000E+00 -0.25574297993E+03  0.84361120126E+03  0.80391254942E+03 0.  0.
        5    1    3    3  502    0 -0.24303308537E+03  0.31991606307E+03 -0.11566123093E+03  0.41810402812E+03  0.46999998093E+01 0. -1.
       -5    1    3    3    0  502  0.24303308537E+03 -0.31991606307E+03 -0.14008174900E+03  0.42550717314E+03  0.46999998093E+01 0.  1.
</event>
<event>
 5   0  0.1154714E-02  0.7989523E+03  0.7818609E-02  0.9561535E-01
       -2   -1    0    0    0  501  0.00000000000E+00  0.00000000000E+00  0.19542261880E+03  0.19542261881E+03  0.25500000920E-02 0. -1.
        2   -1    0    0  501    0  0.00000000000E+00  0.00000000000E+00 -0.81659523270E+03  0.81659523270E+03  0.25500000920E-02 0.  1.
    10030    2    1    2    0    0  0.00000000000E+00  0.00000000000E+00 -0.62117261390E+03  0.10120178515E+04  0.79895226111E+03 0.  0.
        5    1    3    3  502    0  0.36974023348E+03  0.55638563567E+02 -0.13254841520E+03  0.39672996153E+03  0.46999998093E+01 0. -1.
       -5    1    3    3    0  502 -0.36974023348E+03 -0.55638563567E+02 -0.48862419870E+03  0.61528788998E+03  0.46999998093E+01 0.  1.
</event>
<event>
 5   0  0.1154714E-02  0.8127543E+03  0.7818609E-02  0.9541737E-01
        2   -1    0    0  501    0  0.00000000000E+00  0.00000000000E+00  0.58655508662E+03  0.58655508662E+03  0.25500000920E-02 0. -1.
       -2   -1    0    0    0  501  0.00000000000E+00  0.00000000000E+00 -0.28154624248E+03  0.28154624250E+03  0.25500000920E-02 0.  1.
    10030    2    1    2    0    0  0.00000000000E+00  0.00000000000E+00  0.30500884413E+03  0.86810132912E+03  0.81275428182E+03 0.  0.
        5    1    3    3  502    0  0.26904815747E+03 -0.83460736582E+02 -0.16030008295E+03  0.32414628207E+03  0.46999998093E+01 0.  1.
       -5    1    3    3    0  502 -0.26904815747E+03  0.83460736582E+02  0.46530892708E+03  0.54395504705E+03  0.46999998093E+01 0. -1.
</event>
<event>
 5   0  0.1119792E-02  0.8114854E+03  0.7818609E-02  0.9543540E-01
       -2   -1    0    0    0  501  0.00000000000E+00  0.00000000000E+00  0.69747882464E+02  0.69747882510E+02  0.25500000920E-02 0.  1.
        2   -1    0    0  501    0  0.00000000000E+00  0.00000000000E+00 -0.23603173767E+04  0.23603173767E+04  0.25500000920E-02 0. -1.
    10030    2    1    2    0    0  0.00000000000E+00  0.00000000000E+00 -0.22905694942E+04  0.24300652592E+04  0.81148540104E+03 0.  0.
        4    1    3    3  502    0  0.11299400468E+03  0.31313386506E+02 -0.23084709803E+04  0.23114471772E+04  0.12699999809E+01 0. -1.
       -4    1    3    3    0  502 -0.11299400468E+03 -0.31313386506E+02  0.17901486080E+02  0.11861808198E+03  0.12699999809E+01 0.  1.
</event>
<event>
 5   0  0.1119792E-02  0.7994161E+03  0.7818609E-02  0.9560863E-01
        2   -1    0    0  501    0  0.00000000000E+00  0.00000000000E+00  0.62442264687E+03  0.62442264687E+03  0.25500000920E-02 0. -1.
       -2   -1    0    0    0  501  0.00000000000E+00  0.00000000000E+00 -0.25586282764E+03  0.25586282765E+03  0.25500000920E-02 0.  1.
    10030    2    1    2    0    0  0.00000000000E+00  0.00000000000E+00  0.36855981923E+03  0.88028547452E+03  0.79941614714E+03 0.  0.
        4    1    3    3  502    0  0.74979998542E+02 -0.38823002384E+03  0.24868019207E+03  0.46710598628E+03  0.12699999809E+01 0. -1.
       -4    1    3    3    0  502 -0.74979998542E+02  0.38823002384E+03  0.11987962715E+03  0.41317948824E+03  0.12699999809E+01 0.  1.
</event>
<event>
 5   0  0.6596225E-03  0.7996024E+03  0.7818609E-02  0.9560593E-01
        1   -1    0    0  501    0  0.00000000000E+00  0.00000000000E+00  0.12990723245E+04  0.12990723245E+04  0.50400001928E-02 0. -1.
       -1   -1    0    0    0  501  0.00000000000E+00  0.00000000000E+00 -0.12304241539E+03  0.12304241549E+03  0.50400001928E-02 0.  1.
    10030    2    1    2    0    0  0.00000000000E+00  0.00000000000E+00  0.11760299091E+04  0.14221147400E+04  0.79960239281E+03 0.  0.
        5    1    3    3  502    0 -0.11457966014E+03 -0.38211751779E+03  0.63427755000E+03  0.74931461774E+03  0.46999998093E+01 0.  1.
       -5    1    3    3    0  502  0.11457966014E+03  0.38211751779E+03  0.54175235910E+03  0.67280012226E+03  0.46999998093E+01 0. -1.
</event>
<event>
 5   0  0.1092868E-02  0.8026610E+03  0.7818609E-02  0.9556173E-01
       -2   -1    0    0    0  501  0.00000000000E+00  0.00000000000E+00  0.38919979747E+03  0.38919979748E+03  0.25500000920E-02 0.  1.
        2   -1    0    0  501    0  0.00000000000E+00  0.00000000000E+00 -0.41383926244E+03  0.41383926245E+03  0.25500000920E-02 0. -1.
    10030    2    1    2    0    0  0.00000000000E+00  0.00000000000E+00 -0.24639464969E+02  0.80303905992E+03  0.80266096736E+03 0.  0.
        3    1    3    3  502    0  0.21011858905E+03  0.34776292550E+02 -0.35263718409E+03  0.41196141299E+03  0.10100000352E+00 0. -1.
       -3    1    3    3    0  502 -0.21011858905E+03 -0.34776292550E+02  0.32799771912E+03  0.39107764694E+03  0.10100000352E+00 0.  1.
</event>
<event>
 5   0  0.1121480E-02  0.7912446E+03  0.7818609E-02  0.9572777E-01
       -2   -1    0    0    0  501  0.00000000000E+00  0.00000000000E+00  0.17422199794E+03  0.17422199796E+03  0.25500000920E-02 0. -1.
        2   -1    0    0  501    0  0.00000000000E+00  0.00000000000E+00 -0.89837692816E+03  0.89837692816E+03  0.25500000920E-02 0.  1.
    10030    2    1    2    0    0  0.00000000000E+00  0.00000000000E+00 -0.72415493021E+03  0.10725989261E+04  0.79124464824E+03 0.  0.
        2    1    3    3  502    0 -0.33632573611E+03  0.21799979189E+02 -0.81216912420E+02  0.34667914089E+03  0.25500000920E-02 0. -1.
       -2    1    3    3    0  502  0.33632573611E+03 -0.21799979189E+02 -0.64293801779E+03  0.72591978523E+03  0.25500000920E-02 0.  1.
</event>
<event>
 5   0  0.6557679E-03  0.8020045E+03  0.7818609E-02  0.9557120E-01
        1   -1    0    0  501    0  0.00000000000E+00  0.00000000000E+00  0.36504350717E+03  0.36504350721E+03  0.50400001928E-02 0.  1.
       -1   -1    0    0    0  501  0.00000000000E+00  0.00000000000E+00 -0.44050312081E+03  0.44050312084E+03  0.50400001928E-02 0. -1.
    10030    2    1    2    0    0  0.00000000000E+00  0.00000000000E+00 -0.75459613637E+02  0.80554662805E+03  0.80200449916E+03 0.  0.
        1    1    3    3  502    0  0.26371125426E+03 -0.26815999462E+03  0.10198665649E+03  0.38968536856E+03  0.50400001928E-02 0.  1.
       -1    1    3    3    0  502 -0.26371125426E+03  0.26815999462E+03 -0.17744627013E+03  0.41586125949E+03  0.50400001928E-02 0. -1.
</event>
<event>
 5   0  0.1154714E-02  0.8152284E+03  0.7818609E-02  0.9538233E-01
       -2   -1    0    0    0  501  0.00000000000E+00  0.00000000000E+00  0.29200220172E+03  0.29200220173E+03  0.25500000920E-02 0. -1.
        2   -1    0    0  501    0  0.00000000000E+00  0.00000000000E+00 -0.56900023100E+03  0.56900023101E+03  0.25500000920E-02 0.  1.
    10030    2    1    2    0    0  0.00000000000E+00  0.00000000000E+00 -0.27699802928E+03  0.86100243274E+03  0.81522836123E+03 0.  0.
        5    1    3    3  502    0  0.13917554800E+03  0.33679440488E+03  0.54307953985E+02  0.36847218102E+03  0.46999998093E+01 0. -1.
       -5    1    3    3    0  502 -0.13917554800E+03 -0.33679440488E+03 -0.33130598326E+03  0.49253025172E+03  0.46999998093E+01 0.  1.
</event>
<event>
 5   0  0.1121480E-02  0.8008250E+03  0.7818609E-02  0.9558824E-01
       -2   -1    0    0    0  501  0.00000000000E+00  0.00000000000E+00  0.26056262094E+03  0.26056262095E+03  0.25500000920E-02 0.  1.
        2   -1    0    0  501    0  0.00000000000E+00  0.00000000000E+00 -0.61532303861E+03  0.61532303862E+03  0.25500000920E-02 0. -1.
    10030    2    1    2    0    0  0.00000000000E+00  0.00000000000E+00 -0.35476041767E+03  0.87588565957E+03  0.80082503376E+03 0.  0.
        2    1    3    3  502    0  0.45492763918E+02 -0.74814329028E+02  0.24996343833E+03  0.26485561332E+03  0.25500000920E-02 0.  1.
       -2    1    3    3    0  502 -0.45492763918E+02  0.74814329028E+02 -0.60472385600E+03  0.61103004625E+03  0.25500000920E-02 0. -1.
</event>
<event>
 5   0  0.6557679E-03  0.8011692E+03  0.7818609E-02  0.9558326E-01
        1   -1    0    0  501    0  0.00000000000E+00  0.00000000000E+00  0.59632692498E+03  0.59632692500E+03  0.50400001928E-02 0.  1.
       -1   -1    0    0    0  501  0.00000000000E+00  0.00000000000E+00 -0.26909402620E+03  0.26909402624E+03  0.50400001928E-02 0. -1.
    10030    2    1    2    0    0  0.00000000000E+00  0.00000000000E+00  0.32723289878E+03  0.86542095124E+03  0.80116917864E+03 0.  0.
        1    1    3    3  502    0 -0.24286928577E+03  0.19611570495E+03 -0.10755648797E+03  0.33017458689E+03  0.50400001928E-02 0. -1.
       -1    1    3    3    0  502  0.24286928577E+03 -0.19611570495E+03  0.43478938675E+03  0.53524636435E+03  0.50400001928E-02 0.  1.
</event>
<event>
 5   0  0.1154714E-02  0.7996711E+03  0.7818609E-02  0.9560493E-01
        2   -1    0    0  501    0  0.00000000000E+00  0.00000000000E+00  0.34194294620E+03  0.34194294621E+03  0.25500000920E-02 0.  1.
       -2   -1    0    0    0  501  0.00000000000E+00  0.00000000000E+00 -0.46752968210E+03  0.46752968211E+03  0.25500000920E-02 0. -1.
    10030    2    1    2    0    0  0.00000000000E+00  0.00000000000E+00 -0.12558673590E+03  0.80947262831E+03  0.79967112475E+03 0.  0.
        5    1    3    3  502    0  0.18554864939E+03  0.33584331746E+03  0.50955450214E+02  0.38708859849E+03  0.46999998093E+01 0.  1.
       -5    1    3    3    0  502 -0.18554864939E+03 -0.33584331746E+03 -0.17654218611E+03  0.42238402983E+03  0.46999998093E+01 0. -1.
</event>
<event>
 5   0  0.4385875E-03  0.8071797E+03  0.7818609E-02  0.9549683E-01
        4   -1    0    0  501    0  0.00000000000E+00  0.00000000000E+00  0.12082346350E+04  0.12082353025E+04  0.12699999809E+01 0. -1.
       -4   -1    0    0    0  501  0.00000000000E+00  0.00000000000E+00 -0.13480851061E+03  0.13481449267E+03  0.12699999809E+01 0.  1.
    10030    2    1    2    0    0  0.00000000000E+00  0.00000000000E+00  0.10734261244E+04  0.13430497951E+04  0.80717972452E+03 0.  0.
        2    1    3    3  502    0 -0.11789327525E+03 -0.35203220507E+03  0.80010723198E+03  0.88204142784E+03  0.25500000920E-02 0. -1.
       -2    1    3    3    0  502  0.11789327525E+03  0.35203220507E+03  0.27331889240E+03  0.46100836728E+03  0.25500000920E-02 0.  1.
</event>
<event>
 5   0  0.1092868E-02  0.8000637E+03  0.7818609E-02  0.9559925E-01
       -2   -1    0    0    0  501  0.00000000000E+00  0.00000000000E+00  0.81215471023E+03  0.81215471023E+03  0.25500000920E-02 0.  1.
        2   -1    0    0  501    0  0.00000000000E+00  0.00000000000E+00 -0.19703817315E+03  0.19703817317E+03  0.25500000920E-02 0. -1.
    10030    2    1    2    0    0  0.00000000000E+00  0.00000000000E+00  0.61511653708E+03  0.10091928834E+04  0.80006369854E+03 0.  0.
        3    1    3    3  502    0 -0.22940213543E+03 -0.14572767653E+03 -0.62705714106E+02  0.27891560055E+03  0.10100000352E+00 0. -1.
       -3    1    3    3    0  502  0.22940213543E+03  0.14572767653E+03  0.67782225118E+03  0.73027728285E+03  0.10100000352E+00 0.  1.
</event>
<event>
 5   0  0.4385875E-03  0.7976720E+03  0.7818609E-02  0.9563393E-01
       -4   -1    0    0    0  501  0.00000000000E+00  0.00000000000E+00  0.73660258462E+03  0.73660367944E+03  0.12699999809E+01 0. -1.
        4   -1    0    0  501    0  0.00000000000E+00  0.00000000000E+00 -0.21594802011E+03  0.21595175454E+03  0.12699999809E+01 0.  1.
    10030    2    1    2    0    0  0.00000000000E+00  0.00000000000E+00  0.52065456450E+03  0.95255543398E+03  0.79767203741E+03 0.  0.
        5    1    3    3  502    0 -0.34842994714E+03  0.11911565136E+03  0.44321894855E+03  0.57624395252E+03  0.46999998093E+01 0. -1.
       -5    1    3    3    0  502  0.34842994714E+03 -0.11911565136E+03  0.77435615957E+02  0.37631148146E+03  0.46999998093E+01 0.  1.
</event>
<event>
 5   0  0.6596225E-03  0.8014225E+03  0.7818609E-02  0.9557960E-01
        1   -1    0    0  501    0  0.00000000000E+00  0.00000000000E+00  0.10172805878E+04  0.10172805878E+04  0.50400001928E-02 0. -1.
       -1   -1    0    0    0  501  0.00000000000E+00  0.00000000000E+00 -0.15784190368E+03  0.15784190376E+03  0.50400001928E-02 0.  1.
    10030    2    1    2    0    0  0.00000000000E+00  0.00000000000E+00  0.85943868407E+03  0.11751224915E+04  0.80142249683E+03 0.  0.
        5    1    3    3  502    0 -0.26256797917E+03 -0.10073601795E+03  0.84821190948E+03  0.89363036115E+03  0.46999998093E+01 0. -1.
       -5    1    3    3    0  502  0.26256797917E+03  0.10073601795E+03  0.11226774595E+02  0.28149213038E+03  0.46999998093E+01 0.  1.
</event>
<event>
 5   0  0.1121480E-02  0.8049445E+03  0.7818609E-02  0.9552888E-01
        2   -1    0    0  501    0  0.00000000000E+00  0.00000000000E+00  0.40886541271E+03  0.40886541272E+03  0.25500000920E-02 0.  1.
       -2   -1    0    0    0  501  0.00000000000E+00  0.00000000000E+00 -0.39617903153E+03  0.39617903154E+03  0.25500000920E-02 0. -1.
    10030    2    1    2    0    0  0.00000000000E+00  0.00000000000E+00  0.12686381182E+02  0.80504444425E+03  0.80494447818E+03 0.  0.
        2    1    3    3  502    0  0.52131768293E+02 -0.24650704480E+03  0.32022999487E+03  0.40746864176E+03  0.25500000920E-02 0.  1.
       -2    1    3    3    0  502 -0.52131768293E+02  0.24650704480E+03 -0.30754361368E+03  0.39757580249E+03  0.25500000920E-02 0. -1.
</event>
<event>
 5   0  0.1106332E-02  0.7995692E+03  0.7818609E-02  0.9560641E-01
       -2   -1    0    0    0  501  0.00000000000E+00  0.00000000000E+00  0.10125768310E+03  0.10125768313E+03  0.25500000920E-02 0.  1.
        2   -1    0    0  501    0  0.00000000000E+00  0.00000000000E+00 -0.15784255755E+04  0.15784255755E+04  0.25500000920E-02 0. -1.
    10030    2    1    2    0    0  0.00000000000E+00  0.00000000000E+00 -0.14771678924E+04  0.16796832586E+04  0.79956917584E+03 0.  0.
        1    1    3    3  502    0 -0.16346242103E+02  0.27416946379E+03 -0.12831535602E+03  0.30315165367E+03  0.50400001928E-02 0.  1.
       -1    1    3    3    0  502  0.16346242103E+02 -0.27416946379E+03 -0.13488525364E+04  0.13765316049E+04  0.50400001928E-02 0. -1.
</event>
<event>
 5   0  0.6600401E-03  0.7947943E+03  0.7818609E-02  0.9567583E-01
        1   -1    0    0  501    0  0.00000000000E+00  0.00000000000E+00  0.25381076120E+04  0.25381076120E+04  0.50400001928E-02 0.  1.
       -1   -1    0    0    0  501  0.00000000000E+00  0.00000000000E+00 -0.62221361537E+02  0.62221361741E+02  0.50400001928E-02 0. -1.
    10030    2    1    2    0    0  0.00000000000E+00  0.00000000000E+00  0.24758862505E+04  0.26003289738E+04  0.79479434226E+03 0.  0.
        2    1    3    3  502    0 -0.39304714082E+03  0.11440470484E+02  0.14261035151E+04  0.14793201733E+04  0.25500000920E-02 0. -1.
       -2    1    3    3    0  502  0.39304714082E+03 -0.11440470484E+02  0.10497827354E+04  0.11210088005E+04  0.25500000920E-02 0.  1.
</event>
<event>
 5   0  0.6517392E-03  0.7998959E+03  0.7818609E-02  0.9560168E-01
        1   -1    0    0  501    0  0.00000000000E+00  0.00000000000E+00  0.81712839672E+03  0.81712839674E+03  0.50400001928E-02 0.  1.
       -1   -1    0    0    0  501  0.00000000000E+00  0.00000000000E+00 -0.19575669499E+03  0.19575669505E+03  0.50400001928E-02 0. -1.
    10030    2    1    2    0    0  0.00000000000E+00  0.00000000000E+00  0.62137170174E+03  0.10128850918E+04  0.79989587913E+03 0.  0.
        3    1    3    3  502    0 -0.16785762607E+03  0.22480708494E+03  0.67161519931E+03  0.72786083437E+03  0.10100000352E+00 0.  1.
       -3    1    3    3    0  502  0.16785762607E+03 -0.22480708494E+03 -0.50243497574E+02  0.28502425742E+03  0.10100000352E+00 0. -1.
</event>
<event>
 5   0  0.1121480E-02  0.8024580E+03  0.7818609E-02  0.9556466E-01
        2   -1    0    0  501    0  0.00000000000E+00  0.00000000000E+00  0.15541364979E+04  0.15541364979E+04  0.25500000920E-02 0. -1.
       -2   -1    0    0    0  501  0.00000000000E+00  0.00000000000E+00 -0.10358465415E+03  0.10358465418E+03  0.25500000920E-02 0.  1.
    10030    2    1    2    0    0  0.00000000000E+00  0.00000000000E+00  0.14505518438E+04  0.16577211521E+04  0.80245795321E+03 0.  0.
        2    1    3    3  502    0  0.14575130463E+03 -0.35843145235E+03  0.50598767035E+03  0.63697729268E+03  0.25500000920E-02 0. -1.
       -2    1    3    3    0  502 -0.14575130463E+03  0.35843145235E+03  0.94456417344E+03  0.10207438594E+04  0.25500000920E-02 0.  1.
</event>
<event>
 5   0  0.6557679E-03  0.7949669E+03  0.7818609E-02  0.9567331E-01
       -1   -1    0    0    0  501  0.00000000000E+00  0.00000000000E+00  0.17505091002E+03  0.17505091009E+03  0.50400001928E-02 0. -1.
        1   -1    0    0  501    0  0.00000000000E+00  0.00000000000E+00 -0.90255508297E+03  0.90255508298E+03  0.50400001928E-02 0.  1.
    10030    2    1    2    0    0  0.00000000000E+00  0.00000000000E+00 -0.72750417295E+03  0.10776059931E+04  0.79496688902E+03 0.  0.
        1    1    3    3  502    0 -0.20638698113E+03 -0.33803706196E+03 -0.31821642850E+03  0.50806135125E+03  0.50400001928E-02 0. -1.
       -1    1    3    3    0  502  0.20638698113E+03  0.33803706196E+03 -0.40928774445E+03  0.56954464182E+03  0.50400001928E-02 0.  1.
</event>
<event>
 5   0  0.6557679E-03  0.7956604E+03  0.7818609E-02  0.9566320E-01
        1   -1    0    0  501    0  0.00000000000E+00  0.00000000000E+00  0.13905925155E+04  0.13905925155E+04  0.50400001928E-02 0. -1.
       -1   -1    0    0    0  501  0.00000000000E+00  0.00000000000E+00 -0.11381397760E+03  0.11381397771E+03  0.50400001928E-02 0.  1.
    10030    2    1    2    0    0  0.00000000000E+00  0.00000000000E+00  0.12767785379E+04  0.15044064933E+04  0.79566039365E+03 0.  0.
        1    1    3    3  502    0 -0.79062498690E+02  0.27390890938E+03  0.11630275383E+04  0.11974598215E+04  0.50400001928E-02 0. -1.
       -1    1    3    3    0  502  0.79062498690E+02 -0.27390890938E+03  0.11375099964E+03  0.30694667172E+03  0.50400001928E-02 0.  1.
</event>
<event>
 5   0  0.6600401E-03  0.7973680E+03  0.7818609E-02  0.9563835E-01
       -1   -1    0    0    0  501  0.00000000000E+00  0.00000000000E+00  0.47174778222E+03  0.47174778225E+03  0.50400001928E-02 0.  1.
        1   -1    0    0  501    0  0.00000000000E+00  0.00000000000E+00 -0.33693628119E+03  0.33693628123E+03  0.50400001928E-02 0. -1.
    10030    2    1    2    0    0  0.00000000000E+00  0.00000000000E+00  0.13481150103E+03  0.80868406348E+03  0.79736802903E+03 0.  0.
        2    1    3    3  502    0 -0.11813913033E+03  0.16800835304E+03  0.41396455256E+03  0.46211504151E+03  0.25500000920E-02 0.  1.
       -2    1    3    3    0  502  0.11813913033E+03 -0.16800835304E+03 -0.27915305153E+03  0.34656902197E+03  0.25500000920E-02 0. -1.
</event>
<event>
 5   0  0.1119792E-02  0.7964920E+03  0.7818609E-02  0.9565109E-01
        2   -1    0    0  501    0  0.00000000000E+00  0.00000000000E+00  0.59065546365E+03  0.59065546366E+03  0.25500000920E-02 0.  1.
       -2   -1    0    0    0  501  0.00000000000E+00  0.00000000000E+00 -0.26851503010E+03  0.26851503012E+03  0.25500000920E-02 0. -1.
    10030    2    1    2    0    0  0.00000000000E+00  0.00000000000E+00  0.32214043355E+03  0.85917049378E+03  0.79649198266E+03 0.  0.
        4    1    3    3  502    0 -0.24958842798E+03  0.10365730350E+03  0.47659311932E+03  0.54788852355E+03  0.12699999809E+01 0.  1.
       -4    1    3    3    0  502  0.24958842798E+03 -0.10365730350E+03 -0.15445268577E+03  0.31128197023E+03  0.12699999809E+01 0. -1.
</event>
<event>
 5   0  0.4385875E-03  0.7960040E+03  0.7818609E-02  0.9565819E-01
       -4   -1    0    0    0  501  0.00000000000E+00  0.00000000000E+00  0.15946017870E+03  0.15946523600E+03  0.12699999809E+01 0.  1.
        4   -1    0    0  501    0  0.00000000000E+00  0.00000000000E+00 -0.99336539616E+03  0.99336620799E+03  0.12699999809E+01 0. -1.
    10030    2    1    2    0    0  0.00000000000E+00  0.00000000000E+00 -0.83390521746E+03  0.11528314440E+04  0.79600403677E+03 0.  0.
        2    1    3    3  502    0  0.29685067510E+03  0.25342702532E+03 -0.52969514303E+03  0.65796848331E+03  0.25500000920E-02 0. -1.
       -2    1    3    3    0  502 -0.29685067510E+03 -0.25342702532E+03 -0.30421007442E+03  0.49486296068E+03  0.25500000920E-02 0.  1.
</event>
<event>
 5   0  0.1119792E-02  0.8036978E+03  0.7818609E-02  0.9554680E-01
        2   -1    0    0  501    0  0.00000000000E+00  0.00000000000E+00  0.14917283036E+04  0.14917283036E+04  0.25500000920E-02 0. -1.
       -2   -1    0    0    0  501  0.00000000000E+00  0.00000000000E+00 -0.10825197240E+03  0.10825197243E+03  0.25500000920E-02 0.  1.
    10030    2    1    2    0    0  0.00000000000E+00  0.00000000000E+00  0.13834763312E+04  0.15999802760E+04  0.80369778195E+03 0.  0.
        4    1    3    3  502    0 -0.57232611522E+02 -0.24064419328E+03  0.13222061773E+04  0.13451453407E+04  0.12699999809E+01 0. -1.
       -4    1    3    3    0  502  0.57232611522E+02  0.24064419328E+03  0.61270153905E+02  0.25483493528E+03  0.12699999809E+01 0.  1.
</event>
<event>
 5   0  0.1106332E-02  0.8016129E+03  0.7818609E-02  0.9557685E-01
        2   -1    0    0  501    0  0.00000000000E+00  0.00000000000E+00  0.13327276406E+04  0.13327276406E+04  0.25500000920E-02 0.  1.
       -2   -1    0    0    0  501  0.00000000000E+00  0.00000000000E+00 -0.12053912040E+03  0.12053912043E+03  0.25500000920E-02 0. -1.
    10030    2    1    2    0    0  0.00000000000E+00  0.00000000000E+00  0.12121885202E+04  0.14532667610E+04  0.80161291795E+03 0.  0.
        1    1    3    3  502    0  0.36470323853E+02 -0.29270536420E+02 -0.11557639448E+03  0.12467859403E+03  0.50400001928E-02 0. -1.
       -1    1    3    3    0  502 -0.36470323853E+02  0.29270536420E+02  0.13277649147E+04  0.13285881670E+04  0.50400001928E-02 0.  1.
</event>
<event>
 5   0  0.1154714E-02  0.8026918E+03  0.7818609E-02  0.9556129E-01
       -2   -1    0    0    0  501  0.00000000000E+00  0.00000000000E+00  0.13265410169E+03  0.13265410171E+03  0.25500000920E-02 0.  1.
        2   -1    0    0  501    0  0.00000000000E+00  0.00000000000E+00 -0.12142747063E+04  0.12142747063E+04  0.25500000920E-02 0. -1.
    10030    2    1    2    0    0  0.00000000000E+00  0.00000000000E+00 -0.10816206046E+04  0.13469288080E+04  0.80269177244E+03 0.  0.
        5    1    3    3  502    0  0.36361391446E+03 -0.18150803225E+02 -0.25746963703E+03  0.44593411446E+03  0.46999998093E+01 0.  1.
       -5    1    3    3    0  502 -0.36361391446E+03  0.18150803225E+02 -0.82415096760E+03  0.90099469357E+03  0.46999998093E+01 0. -1.
</event>
<event>
 5   0  0.1092868E-02  0.8034152E+03  0.7818609E-02  0.9555087E-01
       -2   -1    0    0    0  501  0.00000000000E+00  0.00000000000E+00  0.15970089408E+03  0.15970089411E+03  0.25500000920E-02 0.  1.
        2   -1    0    0  501    0  0.00000000000E+00  0.00000000000E+00 -0.10104450781E+04  0.10104450781E+04  0.25500000920E-02 0. -1.
    10030    2    1    2    0    0  0.00000000000E+00  0.00000000000E+00 -0.85074418397E+03  0.11701459722E+04  0.80341516641E+03 0.  0.
        3    1    3    3  502    0 -0.14018957892E+03 -0.22789032887E+03 -0.86178169297E+03  0.90236069095E+03  0.10100000352E+00 0. -1.
       -3    1    3    3    0  502  0.14018957892E+03  0.22789032887E+03  0.11037508996E+02  0.26778528122E+03  0.10100000352E+00 0.  1.
</event>
<event>
 5   0  0.1119792E-02  0.8012959E+03  0.7818609E-02  0.9558143E-01
        2   -1    0    0  501    0  0.00000000000E+00  0.00000000000E+00  0.55923783981E+03  0.55923783982E+03  0.25500000920E-02 0.  1.
       -2   -1    0    0    0  501  0.00000000000E+00  0.00000000000E+00 -0.28703132816E+03  0.28703132817E+03  0.25500000920E-02 0. -1.
    10030    2    1    2    0    0  0.00000000000E+00  0.00000000000E+00  0.27220651166E+03  0.84626916798E+03  0.80129590021E+03 0.  0.
        4    1    3    3  502    0  0.15320088273E+03 -0.34332372413E+03 -0.10144323343E+02  0.37609335306E+03  0.12699999809E+01 0. -1.
       -4    1    3    3    0  502 -0.15320088273E+03  0.34332372413E+03  0.28235083500E+03  0.47017581493E+03  0.12699999809E+01 0.  1.
</event>
<event>
 5   0  0.6517392E-03  0.7990265E+03  0.7818609E-02  0.9561427E-01
        1   -1    0    0  501    0  0.00000000000E+00  0.00000000000E+00  0.37632898365E+03  0.37632898368E+03  0.50400001928E-02 0. -1.
       -1   -1    0    0    0  501  0.00000000000E+00  0.00000000000E+00 -0.42412578998E+03  0.42412579001E+03  0.50400001928E-02 0.  1.
    10030    2    1    2    0    0  0.00000000000E+00  0.00000000000E+00 -0.47796806335E+02  0.80045477370E+03  0.79902647643E+03 0.  0.
        3    1    3    3  502    0 -0.21273558201E+03 -0.30085656896E+03 -0.17857555002E+03  0.40946347847E+03  0.10100000352E+00 0.  1.
       -3    1    3    3    0  502  0.21273558201E+03  0.30085656896E+03  0.13077874368E+03  0.39099129522E+03  0.10100000352E+00 0. -1.
</event>
<event>
 5   0  0.6600401E-03  0.7988774E+03  0.7818609E-02  0.9561643E-01
        1   -1    0    0  501    0  0.00000000000E+00  0.00000000000E+00  0.51715191755E+03  0.51715191758E+03  0.50400001928E-02 0.  1.
       -1   -1    0    0    0  501  0.00000000000E+00  0.00000000000E+00 -0.30851919776E+03  0.30851919780E+03  0.50400001928E-02 0. -1.
    10030    2    1    2    0    0  0.00000000000E+00  0.00000000000E+00  0.20863271979E+03  0.82567111538E+03  0.79887744930E+03 0.  0.
        2    1    3    3  502    0  0.30222263446E+03  0.12981861906E+02  0.37391806235E+03  0.48095921540E+03  0.25500000920E-02 0.  1.
       -2    1    3    3    0  502 -0.30222263446E+03 -0.12981861906E+02 -0.16528534256E+03  0.34471189998E+03  0.25500000920E-02 0. -1.
</event>
<event>
 5   0  0.6517392E-03  0.8171108E+03  0.7818609E-02  0.9535575E-01
       -1   -1    0    0    0  501  0.00000000000E+00  0.00000000000E+00  0.40623081234E+03  0.40623081238E+03  0.50400001928E-02 0. -1.
        1   -1    0    0  501    0  0.00000000000E+00  0.00000000000E+00 -0.41089328668E+03  0.41089328671E+03  0.50400001928E-02 0.  1.
    10030    2    1    2    0    0  0.00000000000E+00  0.00000000000E+00 -0.46624743386E+01  0.81712409909E+03  0.81711079704E+03 0.  0.
        3    1    3    3  502    0  0.20046271057E+03 -0.34941073340E+03 -0.70481774457E+02  0.40895091353E+03  0.10100000352E+00 0. -1.
       -3    1    3    3    0  502 -0.20046271057E+03  0.34941073340E+03  0.65819300118E+02  0.40817318556E+03  0.10100000352E+00 0.  1.
</event>
<event>
 5   0  0.1119792E-02  0.8079860E+03  0.7818609E-02  0.9548529E-01
        2   -1    0    0  501    0  0.00000000000E+00  0.00000000000E+00  0.14262684841E+04  0.14262684841E+04  0.25500000920E-02 0. -1.
       -2   -1    0    0    0  501  0.00000000000E+00  0.00000000000E+00 -0.11443172355E+03  0.11443172358E+03  0.25500000920E-02 0.  1.
    10030    2    1    2    0    0  0.00000000000E+00  0.00000000000E+00  0.13118367606E+04  0.15407002077E+04  0.80798604174E+03 0.  0.
        4    1    3    3  502    0  0.25287580902E+03  0.29729656191E+03  0.85479117886E+03  0.93968132517E+03  0.12699999809E+01 0. -1.
       -4    1    3    3    0  502 -0.25287580902E+03 -0.29729656191E+03  0.45704558172E+03  0.60101888255E+03  0.12699999809E+01 0.  1.
</event>
<event>
 5   0  0.6557679E-03  0.7954418E+03  0.7818609E-02  0.9566638E-01
       -1   -1    0    0    0  501  0.00000000000E+00  0.00000000000E+00  0.21288788291E+03  0.21288788297E+03  0.50400001928E-02 0. -1.
        1   -1    0    0  501    0  0.00000000000E+00  0.00000000000E+00 -0.74302922964E+03  0.74302922966E+03  0.50400001928E-02 0.  1.
    10030    2    1    2    0    0  0.00000000000E+00  0.00000000000E+00 -0.53014134673E+03  0.95591711263E+03  0.79544181353E+03 0.  0.
        1    1    3    3  502    0 -0.36457858902E+03 -0.13283847108E+02 -0.74724533414E+02  0.37239463488E+03  0.50400001928E-02 0. -1.
       -1    1    3    3    0  502  0.36457858902E+03  0.13283847108E+02 -0.45541681332E+03  0.58352247775E+03  0.50400001928E-02 0.  1.
</event>
<event>
 5   0  0.6596225E-03  0.8007898E+03  0.7818609E-02  0.9558875E-01
       -1   -1    0    0    0  501  0.00000000000E+00  0.00000000000E+00  0.64409568494E+03  0.64409568496E+03  0.50400001928E-02 0.  1.
        1   -1    0    0  501    0  0.00000000000E+00  0.00000000000E+00 -0.24890104998E+03  0.24890105003E+03  0.50400001928E-02 0. -1.
    10030    2    1    2    0    0  0.00000000000E+00  0.00000000000E+00  0.39519463497E+03  0.89299673499E+03  0.80078984084E+03 0.  0.
        5    1    3    3  502    0 -0.12468386098E+03 -0.10706128645E+03 -0.20952347859E+03  0.26632754706E+03  0.46999998093E+01 0. -1.
       -5    1    3    3    0  502  0.12468386098E+03  0.10706128645E+03  0.60471811355E+03  0.62666918793E+03  0.46999998093E+01 0.  1.
</event>
<event>
 5   0  0.6557679E-03  0.8036628E+03  0.7818609E-02  0.9554730E-01
        1   -1    0    0  501    0  0.00000000000E+00  0.00000000000E+00  0.61085991023E+03  0.61085991025E+03  0.50400001928E-02 0. -1.
       -1   -1    0    0    0  501  0.00000000000E+00  0.00000000000E+00 -0.26432980082E+03  0.26432980087E+03  0.50400001928E-02 0.  1.
    10030    2    1    2    0    0  0.00000000000E+00  0.00000000000E+00  0.34653010941E+03  0.87518971112E+03  0.80366281096E+03 0.  0.
        1    1    3    3  502    0 -0.13123563739E+03  0.32280473134E+03 -0.44651640067E+02  0.35131105317E+03  0.50400001928E-02 0.  1.
       -1    1    3    3    0  502  0.13123563739E+03 -0.32280473134E+03  0.39118174948E+03  0.52387865794E+03  0.50400001928E-02 0. -1.
</event>
<event>
 5   0  0.6600401E-03  0.8017765E+03  0.7818609E-02  0.9557449E-01
        1   -1    0    0  501    0  0.00000000000E+00  0.00000000000E+00  0.75252791705E+03  0.75252791707E+03  0.50400001928E-02 0. -1.
       -1   -1    0    0    0  501  0.00000000000E+00  0.00000000000E+00 -0.21356204606E+03  0.21356204612E+03  0.50400001928E-02 0.  1.
    10030    2    1    2    0    0  0.00000000000E+00  0.00000000000E+00  0.53896587099E+03  0.96608996319E+03  0.80177653176E+03 0.  0.
        2    1    3    3  502    0 -0.23555321533E+03  0.18915074433E+03 -0.48054075904E+02  0.30589624965E+03  0.25500000920E-02 0.  1.
       -2    1    3    3    0  502  0.23555321533E+03 -0.18915074433E+03  0.58701994689E+03  0.66019371353E+03  0.25500000920E-02 0. -1.
</event>
<event>
 5   0  0.1154714E-02  0.7990697E+03  0.7818609E-02  0.9561365E-01
       -2   -1    0    0    0  501  0.00000000000E+00  0.00000000000E+00  0.15920581155E+03  0.15920581157E+03  0.25500000920E-02 0. -1.
        2   -1    0    0  501    0  0.00000000000E+00  0.00000000000E+00 -0.10026523757E+04  0.10026523757E+04  0.25500000920E-02 0.  1.
    10030    2    1    2    0    0  0.00000000000E+00  0.00000000000E+00 -0.84344656417E+03  0.11618581873E+04  0.79906967204E+03 0.  0.
        5    1    3    3  502    0 -0.16451909839E+03 -0.79544110819E+02 -0.93828133499E+03  0.95592246175E+03  0.46999998093E+01 0.  1.
       -5    1    3    3    0  502  0.16451909839E+03  0.79544110819E+02  0.94834770818E+02  0.20593572554E+03  0.46999998093E+01 0. -1.
</event>
<event>
 5   0  0.1119792E-02  0.7993235E+03  0.7818609E-02  0.9560997E-01
       -2   -1    0    0    0  501  0.00000000000E+00  0.00000000000E+00  0.21817212663E+03  0.21817212665E+03  0.25500000920E-02 0. -1.
        2   -1    0    0  501    0  0.00000000000E+00  0.00000000000E+00 -0.73212603965E+03  0.73212603966E+03  0.25500000920E-02 0.  1.
    10030    2    1    2    0    0  0.00000000000E+00  0.00000000000E+00 -0.51395391302E+03  0.95029816630E+03  0.79932345153E+03 0.  0.
        4    1    3    3  502    0  0.34277944584E+03  0.14096173011E+03 -0.43475269879E+03  0.57129631528E+03  0.12699999809E+01 0.  1.
       -4    1    3    3    0  502 -0.34277944584E+03 -0.14096173011E+03 -0.79201214236E+02  0.37900185103E+03  0.12699999809E+01 0. -1.
</event>
<event>
 5   0  0.6517392E-03  0.7990255E+03  0.7818609E-02  0.9561429E-01
        1   -1    0    0  501    0  0.00000000000E+00  0.00000000000E+00  0.72567836896E+03  0.72567836898E+03  0.50400001928E-02 0. -1.
       -1   -1    0    0    0  501  0.00000000000E+00  0.00000000000E+00 -0.21994652460E+03  0.21994652466E+03  0.50400001928E-02 0.  1.
    10030    2    1    2    0    0  0.00000000000E+00  0.00000000000E+00  0.50573184436E+03  0.94562489364E+03  0.79902549463E+03 0.  0.
        3    1    3    3  502    0 -0.24698286480E+03  0.13652436825E+03  0.58754185797E+03  0.65180126089E+03  0.10100000352E+00 0. -1.
       -3    1    3    3    0  502  0.24698286480E+03 -0.13652436825E+03 -0.81810013614E+02  0.29382363274E+03  0.10100000352E+00 0.  1.
</event>
<event>
 5   0  0.6600401E-03  0.8051620E+03  0.7818609E-02  0.9552575E-01
        1   -1    0    0  501    0  0.00000000000E+00  0.00000000000E+00  0.78635910799E+03  0.78635910800E+03  0.50400001928E-02 0.  1.
       -1   -1    0    0    0  501  0.00000000000E+00  0.00000000000E+00 -0.20610362261E+03  0.20610362268E+03  0.50400001928E-02 0. -1.
    10030    2    1    2    0    0  0.00000000000E+00  0.00000000000E+00  0.58025548537E+03  0.99246273068E+03  0.80516199829E+03 0.  0.
        2    1    3    3  502    0 -0.59379304284E+02 -0.20223499688E+02 -0.20004267106E+03  0.20964723220E+03  0.25500000920E-02 0. -1.
       -2    1    3    3    0  502  0.59379304284E+02  0.20223499688E+02  0.78029815643E+03  0.78281549848E+03  0.25500000920E-02 0.  1.
</event>
<event>
 5   0  0.1119792E-02  0.8021032E+03  0.7818609E-02  0.9556978E-01
        2   -1    0    0  501    0  0.00000000000E+00  0.00000000000E+00  0.13006353275E+04  0.13006353275E+04  0.25500000920E-02 0. -1.
       -2   -1    0    0    0  501  0.00000000000E+00  0.00000000000E+00 -0.12366446100E+03  0.12366446103E+03  0.25500000920E-02 0.  1.
    10030    2    1    2    0    0  0.00000000000E+00  0.00000000000E+00  0.11769708665E+04  0.14242997885E+04  0.80210315235E+03 0.  0.
        4    1    3    3  502    0  0.10641670755E+03  0.37841978805E+03  0.44737873681E+03  0.59554630272E+03  0.12699999809E+01 0.  1.
       -4    1    3    3    0  502 -0.10641670755E+03 -0.37841978805E+03  0.72959212967E+03  0.82875348579E+03  0.12699999809E+01 0. -1.
</event>
<event>
 5   0  0.6557679E-03  0.7999121E+03  0.7818609E-02  0.9560144E-01
        1   -1    0    0  501    0  0.00000000000E+00  0.00000000000E+00  0.14936774389E+03  0.14936774397E+03  0.50400001928E-02 0.  1.
       -1   -1    0    0    0  501  0.00000000000E+00  0.00000000000E+00 -0.10709463788E+04  0.10709463789E+04  0.50400001928E-02 0. -1.
    10030    2    1    2    0    0  0.00000000000E+00  0.00000000000E+00 -0.92157863496E+03  0.12203141228E+04  0.79991210641E+03 0.  0.
        1    1    3    3  502    0  0.86198070156E+02 -0.38374167907E+03 -0.57161117398E+03  0.69384949218E+03  0.50400001928E-02 0.  1.
       -1    1    3    3    0  502 -0.86198070156E+02  0.38374167907E+03 -0.34996746098E+03  0.52646463065E+03  0.50400001928E-02 0. -1.
</event>
<event>
 5   0  0.1106332E-02  0.7947505E+03  0.7818609E-02  0.9567647E-01
        2   -1    0    0  501    0  0.00000000000E+00  0.00000000000E+00  0.29605361708E+03  0.29605361709E+03  0.25500000920E-02 0.  1.
       -2   -1    0    0    0  501  0.00000000000E+00  0.00000000000E+00 -0.53337333217E+03  0.53337333218E+03  0.25500000920E-02 0. -1.
    10030    2    1    2    0    0  0.00000000000E+00  0.00000000000E+00 -0.23731971509E+03  0.82942694927E+03  0.79475053759E+03 0.  0.
        1    1    3    3  502    0  0.25576848541E+03  0.51130672440E+02  0.19421260783E+03  0.32519286718E+03  0.50400001928E-02 0.  1.
       -1    1    3    3    0  502 -0.25576848541E+03 -0.51130672440E+02 -0.43153232292E+03  0.50423408209E+03  0.50400001928E-02 0. -1.
</event>
<event>
 5   0  0.6551489E-03  0.7969832E+03  0.7818609E-02  0.9564394E-01
       -1   -1    0    0    0  501  0.00000000000E+00  0.00000000000E+00  0.10111115058E+04  0.10111115058E+04  0.50400001928E-02 0. -1.
        1   -1    0    0  501    0  0.00000000000E+00  0.00000000000E+00 -0.15705050037E+03  0.15705050045E+03  0.50400001928E-02 0.  1.
    10030    2    1    2    0    0  0.00000000000E+00  0.00000000000E+00  0.85406100545E+03  0.11681620063E+04  0.79698323188E+03 0.  0.
        4    1    3    3  502    0 -0.39219202033E+03 -0.35970638902E+02  0.51601233784E+03  0.64913697582E+03  0.12699999809E+01 0. -1.
       -4    1    3    3    0  502  0.39219202033E+03  0.35970638902E+02  0.33804866761E+03  0.51902503046E+03  0.12699999809E+01 0.  1.
</event>
<event>
 5   0  0.6557679E-03  0.7975025E+03  0.7818609E-02  0.9563639E-01
        1   -1    0    0  501    0  0.00000000000E+00  0.00000000000E+00  0.79500717594E+03  0.79500717595E+03  0.50400001928E-02 0. -1.
       -1   -1    0    0    0  501  0.00000000000E+00  0.00000000000E+00 -0.20000142881E+03  0.20000142887E+03  0.50400001928E-02 0.  1.
    10030    2    1    2    0    0  0.00000000000E+00  0.00000000000E+00  0.59500574713E+03  0.99500860483E+03  0.79750252950E+03 0.  0.
        1    1    3    3  502    0 -0.32785947970E+03  0.22420668242E+03  0.34147448596E+03  0.52379891128E+03  0.50400001928E-02 0.  1.
       -1    1    3    3    0  502  0.32785947970E+03 -0.22420668242E+03  0.25353126116E+03  0.47120969354E+03  0.50400001928E-02 0. -1.
</event>
<event>
 5   0  0.1092868E-02  0.7995269E+03  0.7818609E-02  0.9560702E-01
        2   -1    0    0  501    0  0.00000000000E+00  0.00000000000E+00  0.15446776202E+04  0.15446776202E+04  0.25500000920E-02 0.  1.
       -2   -1    0    0    0  501  0.00000000000E+00  0.00000000000E+00 -0.10345900886E+03  0.10345900889E+03  0.25500000920E-02 0. -1.
    10030    2    1    2    0    0  0.00000000000E+00  0.00000000000E+00  0.14412186113E+04  0.16481366291E+04  0.79952689917E+03 0.  0.
        3    1    3    3  502    0 -0.31906529764E+03 -0.19205939960E+03  0.10201947751E+04  0.10860418346E+04  0.10100000352E+00 0. -1.
       -3    1    3    3    0  502  0.31906529764E+03  0.19205939960E+03  0.42102383623E+03  0.56209479450E+03  0.10100000352E+00 0.  1.
</event>
<event>
 5   0  0.6596225E-03  0.8165475E+03  0.7818609E-02  0.9536369E-01
       -1   -1    0    0    0  501  0.00000000000E+00  0.00000000000E+00  0.10609797182E+03  0.10609797193E+03  0.50400001928E-02 0.  1.
        1   -1    0    0  501    0  0.00000000000E+00  0.00000000000E+00 -0.15710712449E+04  0.15710712449E+04  0.50400001928E-02 0. -1.
    10030    2    1    2    0    0  0.00000000000E+00  0.00000000000E+00 -0.14649732731E+04  0.16771692168E+04  0.81654754367E+03 0.  0.
        5    1    3    3  502    0  0.34407501354E+03  0.90296018003E+02 -0.11439201507E+04  0.11979634331E+04  0.46999998093E+01 0. -1.
       -5    1    3    3    0  502 -0.34407501354E+03 -0.90296018003E+02 -0.32105312240E+03  0.47920578378E+03  0.46999998093E+01 0.  1.
</event>
<event>
 5   0  0.1092868E-02  0.7979622E+03  0.7818609E-02  0.9562971E-01
       -2   -1    0    0    0  501  0.00000000000E+00  0.00000000000E+00  0.50372325411E+03  0.50372325411E+03  0.25500000920E-02 0. -1.
        2   -1    0    0  501    0  0.00000000000E+00  0.00000000000E+00 -0.31601859017E+03  0.31601859018E+03  0.25500000920E-02 0.  1.
    10030    2    1    2    0    0  0.00000000000E+00  0.00000000000E+00  0.18770466393E+03  0.81974184430E+03  0.79796218609E+03 0.  0.
        3    1    3    3  502    0  0.25248764666E+03  0.81152928871E+02  0.40006541070E+03  0.47998765882E+03  0.10100000352E+00 0. -1.
       -3    1    3    3    0  502 -0.25248764666E+03 -0.81152928871E+02 -0.21236074677E+03  0.33975418548E+03  0.10100000352E+00 0.  1.
</event>
<event>
 5   0  0.1119792E-02  0.8112829E+03  0.7818609E-02  0.9543828E-01
       -2   -1    0    0    0  501  0.00000000000E+00  0.00000000000E+00  0.18052393011E+03  0.18052393012E+03  0.25500000920E-02 0.  1.
        2   -1    0    0  501    0  0.00000000000E+00  0.00000000000E+00 -0.91148567767E+03  0.91148567767E+03  0.25500000920E-02 0. -1.
    10030    2    1    2    0    0  0.00000000000E+00  0.00000000000E+00 -0.73096174756E+03  0.10920096078E+04  0.81128287737E+03 0.  0.
        4    1    3    3  502    0  0.34171791362E+03  0.43347522693E+02 -0.77125246045E+02  0.35298733220E+03  0.12699999809E+01 0.  1.
       -4    1    3    3    0  502 -0.34171791362E+03 -0.43347522693E+02 -0.65383650152E+03  0.73902227560E+03  0.12699999809E+01 0. -1.
</event>
<event>
 5   0  0.1092868E-02  0.8103088E+03  0.7818609E-02  0.9545214E-01
       -2   -1    0    0    0  501  0.00000000000E+00  0.00000000000E+00  0.13059381497E+03  0.13059381499E+03  0.25500000920E-02 0. -1.
        2   -1    0    0  501    0  0.00000000000E+00  0.00000000000E+00 -0.12569514961E+04  0.12569514961E+04  0.25500000920E-02 0.  1.
    10030    2    1    2    0    0  0.00000000000E+00  0.00000000000E+00 -0.11263576811E+04  0.13875453111E+04  0.81030880810E+03 0.  0.
        3    1    3    3  502    0 -0.19282502982E+03  0.29830473526E+03 -0.22945247085E+03  0.42286599980E+03  0.10100000352E+00 0. -1.
       -3    1    3    3    0  502  0.19282502982E+03 -0.29830473526E+03 -0.89690521024E+03  0.96467931126E+03  0.10100000352E+00 0.  1.
</event>
<event>
 5   0  0.1106332E-02  0.8135451E+03  0.7818609E-02  0.9540615E-01
        2   -1    0    0  501    0  0.00000000000E+00  0.00000000000E+00  0.99636019537E+03  0.99636019538E+03  0.25500000920E-02 0. -1.
       -2   -1    0    0    0  501  0.00000000000E+00  0.00000000000E+00 -0.16606837095E+03  0.16606837097E+03  0.25500000920E-02 0.  1.
    10030    2    1    2    0    0  0.00000000000E+00  0.00000000000E+00  0.83029182443E+03  0.11624285663E+04  0.81354511746E+03 0.  0.
        1    1    3    3  502    0  0.25915915049E+03 -0.29558206421E+03  0.56453825414E+03  0.68792126175E+03  0.50400001928E-02 0. -1.
       -1    1    3    3    0  502 -0.25915915049E+03  0.29558206421E+03  0.26575357029E+03  0.47450730459E+03  0.50400001928E-02 0.  1.
</event>
<event>
 5   0  0.6600401E-03  0.7919523E+03  0.7818609E-02  0.9571739E-01
        1   -1    0    0  501    0  0.00000000000E+00  0.00000000000E+00  0.93381390979E+02  0.93381391115E+02  0.50400001928E-02 0.  1.
       -1   -1    0    0    0  501  0.00000000000E+00  0.00000000000E+00 -0.16791045908E+04  0.16791045908E+04  0.50400001928E-02 0. -1.
    10030    2    1    2    0    0  0.00000000000E+00  0.00000000000E+00 -0.15857231999E+04  0.17724859820E+04  0.79195232791E+03 0.  0.
        2    1    3    3  502    0  0.19748567013E+03  0.22126332279E+03 -0.20564100208E+03  0.36089648053E+03  0.25500000920E-02 0.  1.
       -2    1    3    3    0  502 -0.19748567013E+03 -0.22126332279E+03 -0.13800821978E+04  0.14115895014E+04  0.25500000920E-02 0. -1.
</event>
<event>
 5   0  0.6551489E-03  0.8000782E+03  0.7818609E-02  0.9559904E-01
        1   -1    0    0  501    0  0.00000000000E+00  0.00000000000E+00  0.21960814784E+03  0.21960814790E+03  0.50400001928E-02 0. -1.
       -1   -1    0    0    0  501  0.00000000000E+00  0.00000000000E+00 -0.72871293381E+03  0.72871293382E+03  0.50400001928E-02 0.  1.
    10030    2    1    2    0    0  0.00000000000E+00  0.00000000000E+00 -0.50910478597E+03  0.94832108172E+03  0.80007824052E+03 0.  0.
        4    1    3    3  502    0 -0.26528142956E+03 -0.82738062445E+02 -0.59563845574E+03  0.65727209487E+03  0.12699999809E+01 0.  1.
       -4    1    3    3    0  502  0.26528142956E+03  0.82738062445E+02  0.86533669769E+02  0.29104898685E+03  0.12699999809E+01 0. -1.
</event>
<event>
 5   0  0.1154714E-02  0.7986267E+03  0.7818609E-02  0.9562007E-01
        2   -1    0    0  501    0  0.00000000000E+00  0.00000000000E+00  0.16123717021E+04  0.16123717021E+04  0.25500000920E-02 0. -1.
       -2   -1    0    0    0  501  0.00000000000E+00  0.00000000000E+00 -0.98892308622E+02  0.98892308655E+02  0.25500000920E-02 0.  1.
    10030    2    1    2    0    0  0.00000000000E+00  0.00000000000E+00  0.15134793935E+04  0.17112640107E+04  0.79862672133E+03 0.  0.
        5    1    3    3  502    0  0.91777370700E+02 -0.37909963925E+03  0.93968467529E+03  0.10174325536E+04  0.46999998093E+01 0. -1.
       -5    1    3    3    0  502 -0.91777370700E+02  0.37909963925E+03  0.57379471816E+03  0.69383145708E+03  0.46999998093E+01 0.  1.
</event>
<event>
 5   0  0.6557679E-03  0.7967598E+03  0.7818609E-02  0.9564719E-01
       -1   -1    0    0    0  501  0.00000000000E+00  0.00000000000E+00  0.13890553990E+03  0.13890553999E+03  0.50400001928E-02 0.  1.
        1   -1    0    0  501    0  0.00000000000E+00  0.00000000000E+00 -0.11425501341E+04  0.11425501341E+04  0.50400001928E-02 0. -1.
    10030    2    1    2    0    0  0.00000000000E+00  0.00000000000E+00 -0.10036445942E+04  0.12814556741E+04  0.79675979642E+03 0.  0.
        1    1    3    3  502    0  0.24309520458E+03 -0.29047349281E+03 -0.70034837816E+03  0.79621478216E+03  0.50400001928E-02 0. -1.
       -1    1    3    3    0  502 -0.24309520458E+03  0.29047349281E+03 -0.30329621603E+03  0.48524089193E+03  0.50400001928E-02 0.  1.
</event>
<event>
 5   0  0.6551489E-03  0.7993353E+03  0.7818609E-02  0.9560980E-01
        1   -1    0    0  501    0  0.00000000000E+00  0.00000000000E+00  0.28009567730E+03  0.28009567734E+03  0.50400001928E-02 0.  1.
       -1   -1    0    0    0  501  0.00000000000E+00  0.00000000000E+00 -0.57028448897E+03  0.57028448899E+03  0.50400001928E-02 0. -1.
    10030    2    1    2    0    0  0.00000000000E+00  0.00000000000E+00 -0.29018881167E+03  0.85038016634E+03  0.79933527439E+03 0.  0.
        4    1    3    3  502    0  0.39430042095E+03 -0.36458765072E+02 -0.87502924081E+02  0.40553722164E+03  0.12699999809E+01 0. -1.
       -4    1    3    3    0  502 -0.39430042095E+03  0.36458765072E+02 -0.20268588759E+03  0.44484294469E+03  0.12699999809E+01 0.  1.
</event>
<event>
 5   0  0.6596225E-03  0.8038426E+03  0.7818609E-02  0.9554472E-01
       -1   -1    0    0    0  501  0.00000000000E+00  0.00000000000E+00  0.55115538406E+03  0.55115538408E+03  0.50400001928E-02 0. -1.
        1   -1    0    0  501    0  0.00000000000E+00  0.00000000000E+00 -0.29309475205E+03  0.29309475209E+03  0.50400001928E-02 0.  1.
    10030    2    1    2    0    0  0.00000000000E+00  0.00000000000E+00  0.25806063201E+03  0.84425013618E+03  0.80384264794E+03 0.  0.
        5    1    3    3  502    0  0.29808052303E+03  0.10158079592E+03 -0.13321719433E+03  0.34196427763E+03  0.46999998093E+01 0.  1.
       -5    1    3    3    0  502 -0.29808052303E+03 -0.10158079592E+03  0.39127782634E+03  0.50228585855E+03  0.46999998093E+01 0. -1.
</event>
<event>
 5   0  0.1119792E-02  0.7985870E+03  0.7818609E-02  0.9562065E-01
       -2   -1    0    0    0  501  0.00000000000E+00  0.00000000000E+00  0.31718721204E+03  0.31718721205E+03  0.25500000920E-02 0. -1.
        2   -1    0    0  501    0  0.00000000000E+00  0.00000000000E+00 -0.50265367285E+03  0.50265367286E+03  0.25500000920E-02 0.  1.
    10030    2    1    2    0    0  0.00000000000E+00  0.00000000000E+00 -0.18546646082E+03  0.81984088491E+03  0.79858704503E+03 0.  0.
        4    1    3    3  502    0 -0.26368753842E+03 -0.28118221346E+03  0.14148852255E+02  0.38574130970E+03  0.12699999809E+01 0.  1.
       -4    1    3    3    0  502  0.26368753842E+03  0.28118221346E+03 -0.19961531307E+03  0.43409957521E+03  0.12699999809E+01 0. -1.
</event>
<event>
 5   0  0.6557679E-03  0.8071586E+03  0.7818609E-02  0.9549713E-01
       -1   -1    0    0    0  501  0.00000000000E+00  0.00000000000E+00  0.17055402181E+03  0.17055402188E+03  0.50400001928E-02 0.  1.
        1   -1    0    0  501    0  0.00000000000E+00  0.00000000000E+00 -0.95498340438E+03  0.95498340440E+03  0.50400001928E-02 0. -1.
    10030    2    1    2    0    0  0.00000000000E+00  0.00000000000E+00 -0.78442938258E+03  0.11255374263E+04  0.80715862239E+03 0.  0.
        1    1    3    3  502    0 -0.24583177359E+02  0.74713585515E+02 -0.94419225384E+03  0.94746264555E+03  0.50400001928E-02 0. -1.
       -1    1    3    3    0  502  0.24583177359E+02 -0.74713585515E+02  0.15976287127E+03  0.17807478072E+03  0.50400001928E-02 0.  1.
</event>
<event>
 5   0  0.1121480E-02  0.7980933E+03  0.7818609E-02  0.9562781E-01
       -2   -1    0    0    0  501  0.00000000000E+00  0.00000000000E+00  0.20896379528E+03  0.20896379529E+03  0.25500000920E-02 0. -1.
        2   -1    0    0  501    0  0.00000000000E+00  0.00000000000E+00 -0.76203732356E+03  0.76203732357E+03  0.25500000920E-02 0.  1.
    10030    2    1    2    0    0  0.00000000000E+00  0.00000000000E+00 -0.55307352828E+03  0.97100111886E+03  0.79809325591E+03 0.  0.
        2    1    3    3  502    0  0.52869288147E+01 -0.71898679588E+02 -0.75404847592E+03  0.75748694760E+03  0.25500000920E-02 0.  1.
       -2    1    3    3    0  502 -0.52869288147E+01  0.71898679588E+02  0.20097494764E+03  0.21351417126E+03  0.25500000920E-02 0. -1.
</event>
<event>
 5   0  0.1154714E-02  0.7985061E+03  0.7818609E-02  0.9562182E-01
        2   -1    0    0  501    0  0.00000000000E+00  0.00000000000E+00  0.10804292190E+04  0.10804292190E+04  0.25500000920E-02 0. -1.
       -2   -1    0    0    0  501  0.00000000000E+00  0.00000000000E+00 -0.14753671873E+03  0.14753671875E+03  0.25500000920E-02 0.  1.
    10030    2    1    2    0    0  0.00000000000E+00  0.00000000000E+00  0.93289250028E+03  0.12279659378E+04  0.79850605960E+03 0.  0.
        5    1    3    3  502    0 -0.26060862461E+03 -0.10749014470E+03  0.31727460214E+02  0.28372470488E+03  0.46999998093E+01 0.  1.
       -5    1    3    3    0  502  0.26060862461E+03  0.10749014470E+03  0.90116504006E+03  0.94424123287E+03  0.46999998093E+01 0. -1.
</event>
<event>
 5   0  0.6517392E-03  0.7992522E+03  0.7818609E-02  0.9561100E-01
        1   -1    0    0  501    0  0.00000000000E+00  0.00000000000E+00  0.82024215564E+03  0.82024215566E+03  0.50400001928E-02 0.  1.
       -1   -1    0    0    0  501  0.00000000000E+00  0.00000000000E+00 -0.19469985520E+03  0.19469985526E+03  0.50400001928E-02 0. -1.
    10030    2    1    2    0    0  0.00000000000E+00  0.00000000000E+00  0.62554230044E+03  0.10149420109E+04  0.79925222295E+03 0.  0.
        3    1    3    3  502    0 -0.74959945517E+01  0.14941837180E+03  0.78333944152E+03  0.79749779348E+03  0.10100000352E+00 0.  1.
       -3    1    3    3    0  502  0.74959945517E+01 -0.14941837180E+03 -0.15779714108E+03  0.21744421744E+03  0.10100000352E+00 0. -1.
</event>
<event>
 5   0  0.4385875E-03  0.8048557E+03  0.7818609E-02  0.9553015E-01
        3   -1    0    0  501    0  0.00000000000E+00  0.00000000000E+00  0.12702339597E+03  0.12702343612E+03  0.10100000352E+00 0.  1.
       -3   -1    0    0    0  501  0.00000000000E+00  0.00000000000E+00 -0.12749475147E+04  0.12749475187E+04  0.10100000352E+00 0. -1.
    10030    2    1    2    0    0  0.00000000000E+00  0.00000000000E+00 -0.11479241188E+04  0.14019709549E+04  0.80485574846E+03 0.  0.
        4    1    3    3  502    0 -0.29449067011E+03  0.12258842330E+03 -0.10013253596E+04  0.10509075911E+04  0.12699999809E+01 0. -1.
       -4    1    3    3    0  502  0.29449067011E+03 -0.12258842330E+03 -0.14659875919E+03  0.35106336381E+03  0.12699999809E+01 0.  1.
</event>
<event>
 5   0  0.6596225E-03  0.7981081E+03  0.7818609E-02  0.9562760E-01
        1   -1    0    0  501    0  0.00000000000E+00  0.00000000000E+00  0.22050944533E+03  0.22050944539E+03  0.50400001928E-02 0.  1.
       -1   -1    0    0    0  501  0.00000000000E+00  0.00000000000E+00 -0.72216462388E+03  0.72216462390E+03  0.50400001928E-02 0. -1.
    10030    2    1    2    0    0  0.00000000000E+00  0.00000000000E+00 -0.50165517855E+03  0.94267406929E+03  0.79810806458E+03 0.  0.
        5    1    3    3  502    0 -0.30088892238E+03 -0.99824817157E+01  0.58504291392E+02  0.30672240815E+03  0.46999998093E+01 0.  1.
       -5    1    3    3    0  502  0.30088892238E+03  0.99824817157E+01 -0.56015946994E+03  0.63595166114E+03  0.46999998093E+01 0. -1.
</event>
<event>
 5   0  0.1121480E-02  0.7972296E+03  0.7818609E-02  0.9564036E-01
        2   -1    0    0  501    0  0.00000000000E+00  0.00000000000E+00  0.75016325303E+03  0.75016325304E+03  0.25500000920E-02 0.  1.
       -2   -1    0    0    0  501  0.00000000000E+00  0.00000000000E+00 -0.21181222462E+03  0.21181222463E+03  0.25500000920E-02 0. -1.
    10030    2    1    2    0    0  0.00000000000E+00  0.00000000000E+00  0.53835102842E+03  0.96197547767E+03  0.79722957161E+03 0.  0.
        2    1    3    3  502    0 -0.68359158533E+01 -0.14691491897E+03 -0.17787580770E+03  0.23080408604E+03  0.25500000920E-02 0. -1.
       -2    1    3    3    0  502  0.68359158533E+01  0.14691491897E+03  0.71622683611E+03  0.73117139163E+03  0.25500000920E-02 0.  1.
</event>
<event>
 5   0  0.6551489E-03  0.7988997E+03  0.7818609E-02  0.9561611E-01
        1   -1    0    0  501    0  0.00000000000E+00  0.00000000000E+00  0.50478252169E+03  0.50478252172E+03  0.50400001928E-02 0.  1.
       -1   -1    0    0    0  501  0.00000000000E+00  0.00000000000E+00 -0.31609689380E+03  0.31609689384E+03  0.50400001928E-02 0. -1.
    10030    2    1    2    0    0  0.00000000000E+00  0.00000000000E+00  0.18868562789E+03  0.82087941556E+03  0.79889971130E+03 0.  0.
        4    1    3    3  502    0  0.31165672057E+03  0.78970911326E+02  0.33791368150E+03  0.46642639865E+03  0.12699999809E+01 0.  1.
       -4    1    3    3    0  502 -0.31165672057E+03 -0.78970911326E+02 -0.14922805361E+03  0.35445301691E+03  0.12699999809E+01 0. -1.
</event>
<event>
 5   0  0.1092868E-02  0.7880650E+03  0.7818609E-02  0.9577455E-01
        2   -1    0    0  501    0  0.00000000000E+00  0.00000000000E+00  0.16248920702E+03  0.16248920704E+03  0.25500000920E-02 0. -1.
       -2   -1    0    0    0  501  0.00000000000E+00  0.00000000000E+00 -0.95551959678E+03  0.95551959678E+03  0.25500000920E-02 0.  1.
    10030    2    1    2    0    0  0.00000000000E+00  0.00000000000E+00 -0.79303038976E+03  0.11180088038E+04  0.78806502672E+03 0.  0.
        3    1    3    3  502    0  0.13209885363E+03  0.17157728802E+03  0.70513099714E+02  0.22773006022E+03  0.10100000352E+00 0. -1.
       -3    1    3    3    0  502 -0.13209885363E+03 -0.17157728802E+03 -0.86354348948E+03  0.89027874360E+03  0.10100000352E+00 0.  1.
</event>
<event>
 5   0  0.1154714E-02  0.7874566E+03  0.7818609E-02  0.9578353E-01
       -2   -1    0    0    0  501  0.00000000000E+00  0.00000000000E+00  0.12015312437E+03  0.12015312440E+03  0.25500000920E-02 0. -1.
        2   -1    0    0  501    0  0.00000000000E+00  0.00000000000E+00 -0.12902035739E+04  0.12902035739E+04  0.25500000920E-02 0.  1.
    10030    2    1    2    0    0  0.00000000000E+00  0.00000000000E+00 -0.11700504495E+04  0.14103566983E+04  0.78745664132E+03 0.  0.
        5    1    3    3  502    0 -0.23219963196E+03 -0.11179096635E+03 -0.11180960187E+04  0.11474208846E+04  0.46999998093E+01 0.  1.
       -5    1    3    3    0  502  0.23219963196E+03  0.11179096635E+03 -0.51954430744E+02  0.26293581368E+03  0.46999998093E+01 0. -1.
</event>
<event>
 5   0  0.1106332E-02  0.7977863E+03  0.7818609E-02  0.9563227E-01
       -2   -1    0    0    0  501  0.00000000000E+00  0.00000000000E+00  0.31454197120E+03  0.31454197121E+03  0.25500000920E-02 0. -1.
        2   -1    0    0  501    0  0.00000000000E+00  0.00000000000E+00 -0.50586487195E+03  0.50586487195E+03  0.25500000920E-02 0.  1.
    10030    2    1    2    0    0  0.00000000000E+00  0.00000000000E+00 -0.19132290075E+03  0.82040684316E+03  0.79778627210E+03 0.  0.
        1    1    3    3  502    0  0.89505893849E+02  0.34108463291E+03 -0.28740387628E+03  0.45491869599E+03  0.50400001928E-02 0.  1.
       -1    1    3    3    0  502 -0.89505893849E+02 -0.34108463291E+03  0.96080975532E+02  0.36548814717E+03  0.50400001928E-02 0. -1.
</event>
<event>
 5   0  0.6551489E-03  0.8107669E+03  0.7818609E-02  0.9544562E-01
       -1   -1    0    0    0  501  0.00000000000E+00  0.00000000000E+00  0.28642121727E+03  0.28642121732E+03  0.50400001928E-02 0. -1.
        1   -1    0    0  501    0  0.00000000000E+00  0.00000000000E+00 -0.57375548931E+03  0.57375548933E+03  0.50400001928E-02 0.  1.
    10030    2    1    2    0    0  0.00000000000E+00  0.00000000000E+00 -0.28733427204E+03  0.86017670665E+03  0.81076691026E+03 0.  0.
        4    1    3    3  502    0  0.17104253553E+03  0.24402296170E+03  0.14791127591E+03  0.33268921419E+03  0.12699999809E+01 0. -1.
       -4    1    3    3    0  502 -0.17104253553E+03 -0.24402296170E+03 -0.43524554795E+03  0.52748749246E+03  0.12699999809E+01 0.  1.
</event>
<event>
 5   0  0.1106332E-02  0.7983382E+03  0.7818609E-02  0.9562426E-01
        2   -1    0    0  501    0  0.00000000000E+00  0.00000000000E+00  0.93190797890E+03  0.93190797890E+03  0.25500000920E-02 0.  1.
       -2   -1    0    0    0  501  0.00000000000E+00  0.00000000000E+00 -0.17097822865E+03  0.17097822867E+03  0.25500000920E-02 0. -1.
    10030    2    1    2    0    0  0.00000000000E+00  0.00000000000E+00  0.76092975025E+03  0.11028862076E+04  0.79833821282E+03 0.  0.
        1    1    3    3  502    0  0.18696483708E+03  0.19044389884E+03  0.79053625620E+03  0.83436940339E+03  0.50400001928E-02 0.  1.
       -1    1    3    3    0  502 -0.18696483708E+03 -0.19044389884E+03 -0.29606505958E+02  0.26851680419E+03  0.50400001928E-02 0. -1.
</event>
<event>
 5   0  0.6551489E-03  0.8006793E+03  0.7818609E-02  0.9559034E-01
       -1   -1    0    0    0  501  0.00000000000E+00  0.00000000000E+00  0.29285940298E+03  0.29285940303E+03  0.50400001928E-02 0. -1.
        1   -1    0    0  501    0  0.00000000000E+00  0.00000000000E+00 -0.54726552411E+03  0.54726552413E+03  0.50400001928E-02 0.  1.
    10030    2    1    2    0    0  0.00000000000E+00  0.00000000000E+00 -0.25440612112E+03  0.84012492716E+03  0.80067934828E+03 0.  0.
        4    1    3    3  502    0 -0.38900290549E+03 -0.94046633951E+02 -0.11659499767E+03  0.41685013640E+03  0.12699999809E+01 0. -1.
       -4    1    3    3    0  502  0.38900290549E+03  0.94046633951E+02 -0.13781112346E+03  0.42327479075E+03  0.12699999809E+01 0.  1.
</event>
<event>
 5   0  0.1119792E-02  0.8009052E+03  0.7818609E-02  0.9558708E-01
        2   -1    0    0  501    0  0.00000000000E+00  0.00000000000E+00  0.10710787898E+04  0.10710787898E+04  0.25500000920E-02 0. -1.
       -2   -1    0    0    0  501  0.00000000000E+00  0.00000000000E+00 -0.14972036052E+03  0.14972036054E+03  0.25500000920E-02 0.  1.
    10030    2    1    2    0    0  0.00000000000E+00  0.00000000000E+00  0.92135842927E+03  0.12207991503E+04  0.80090524425E+03 0.  0.
        4    1    3    3  502    0 -0.16835769143E+02 -0.38572285042E+03  0.62267685272E+03  0.73266202049E+03  0.12699999809E+01 0.  1.
       -4    1    3    3    0  502  0.16835769143E+02  0.38572285042E+03  0.29868157656E+03  0.48813712984E+03  0.12699999809E+01 0. -1.
</event>
<event>
 5   0  0.6557679E-03  0.8009412E+03  0.7818609E-02  0.9558656E-01
        1   -1    0    0  501    0  0.00000000000E+00  0.00000000000E+00  0.10875527996E+04  0.10875527996E+04  0.50400001928E-02 0. -1.
       -1   -1    0    0    0  501  0.00000000000E+00  0.00000000000E+00 -0.14746568078E+03  0.14746568087E+03  0.50400001928E-02 0.  1.
    10030    2    1    2    0    0  0.00000000000E+00  0.00000000000E+00  0.94008711878E+03  0.12350184804E+04  0.80094123138E+03 0.  0.
        1    1    3    3  502    0  0.20158826071E-01 -0.26535005660E+03  0.93254400804E+03  0.96956123061E+03  0.50400001928E-02 0. -1.
       -1    1    3    3    0  502 -0.20158826071E-01  0.26535005660E+03  0.75431107419E+01  0.26545724983E+03  0.50400001928E-02 0.  1.
</event>
<event>
 5   0  0.1154714E-02  0.8077889E+03  0.7818609E-02  0.9548811E-01
        2   -1    0    0  501    0  0.00000000000E+00  0.00000000000E+00  0.15333560101E+04  0.15333560101E+04  0.25500000920E-02 0. -1.
       -2   -1    0    0    0  501  0.00000000000E+00  0.00000000000E+00 -0.10638802018E+03  0.10638802021E+03  0.25500000920E-02 0.  1.
    10030    2    1    2    0    0  0.00000000000E+00  0.00000000000E+00  0.14269679899E+04  0.16397440303E+04  0.80778885898E+03 0.  0.
        5    1    3    3  502    0 -0.20220537442E+02 -0.32208326413E+03  0.22057726457E+03  0.39092572032E+03  0.46999998093E+01 0.  1.
       -5    1    3    3    0  502  0.20220537442E+02  0.32208326413E+03  0.12063907253E+04  0.12488183100E+04  0.46999998093E+01 0. -1.
</event>
<event>
 5   0  0.1154714E-02  0.8021823E+03  0.7818609E-02  0.9556864E-01
        2   -1    0    0  501    0  0.00000000000E+00  0.00000000000E+00  0.68358505223E+03  0.68358505223E+03  0.25500000920E-02 0. -1.
       -2   -1    0    0    0  501  0.00000000000E+00  0.00000000000E+00 -0.23533882129E+03  0.23533882130E+03  0.25500000920E-02 0.  1.
    10030    2    1    2    0    0  0.00000000000E+00  0.00000000000E+00  0.44824623094E+03  0.91892387353E+03  0.80218227467E+03 0.  0.
        5    1    3    3  502    0 -0.32986393710E+02  0.31446976710E+03 -0.58506496699E+02  0.32159669890E+03  0.46999998093E+01 0.  1.
       -5    1    3    3    0  502  0.32986393710E+02 -0.31446976710E+03  0.50675272764E+03  0.59732717463E+03  0.46999998093E+01 0. -1.
</event>
<event>
 5   0  0.1121480E-02  0.7516739E+03  0.7818609E-02  0.9632728E-01
       -2   -1    0    0    0  501  0.00000000000E+00  0.00000000000E+00  0.36618389537E+03  0.36618389538E+03  0.25500000920E-02 0.  1.
        2   -1    0    0  501    0  0.00000000000E+00  0.00000000000E+00 -0.38574445034E+03  0.38574445035E+03  0.25500000920E-02 0. -1.
    10030    2    1    2    0    0  0.00000000000E+00  0.00000000000E+00 -0.19560554965E+02  0.75192834573E+03  0.75167387995E+03 0.  0.
        2    1    3    3  502    0  0.17503660308E+03  0.13683653986E+03  0.29345821161E+03  0.36807577077E+03  0.25500000920E-02 0.  1.
       -2    1    3    3    0  502 -0.17503660308E+03 -0.13683653986E+03 -0.31301876658E+03  0.38385257495E+03  0.25500000920E-02 0. -1.
</event>
<event>
 5   0  0.1121480E-02  0.8013319E+03  0.7818609E-02  0.9558091E-01
       -2   -1    0    0    0  501  0.00000000000E+00  0.00000000000E+00  0.91256727864E+02  0.91256727900E+02  0.25500000920E-02 0. -1.
        2   -1    0    0  501    0  0.00000000000E+00  0.00000000000E+00 -0.17591381950E+04  0.17591381950E+04  0.25500000920E-02 0.  1.
    10030    2    1    2    0    0  0.00000000000E+00  0.00000000000E+00 -0.16678814671E+04  0.18503949229E+04  0.80133188024E+03 0.  0.
        2    1    3    3  502    0 -0.22970193896E+03  0.32229875912E+03 -0.68985047306E+03  0.79531952452E+03  0.25500000920E-02 0. -1.
       -2    1    3    3    0  502  0.22970193896E+03 -0.32229875912E+03 -0.97803099407E+03  0.10550753984E+04  0.25500000920E-02 0.  1.
</event>
<event>
 5   0  0.1106332E-02  0.7227028E+03  0.7818609E-02  0.9679176E-01
       -2   -1    0    0    0  501  0.00000000000E+00  0.00000000000E+00  0.16761133025E+03  0.16761133027E+03  0.25500000920E-02 0.  1.
        2   -1    0    0  501    0  0.00000000000E+00  0.00000000000E+00 -0.77903345230E+03  0.77903345230E+03  0.25500000920E-02 0. -1.
    10030    2    1    2    0    0  0.00000000000E+00  0.00000000000E+00 -0.61142212204E+03  0.94664478258E+03  0.72270279718E+03 0.  0.
        1    1    3    3  502    0 -0.10612229117E+02 -0.35084128452E+03 -0.41818135995E+03  0.54596508695E+03  0.50400001928E-02 0.  1.
       -1    1    3    3    0  502  0.10612229117E+02  0.35084128452E+03 -0.19324076209E+03  0.40067969563E+03  0.50400001928E-02 0. -1.
</event>
<event>
 5   0  0.6517392E-03  0.8060203E+03  0.7818609E-02  0.9551344E-01
        1   -1    0    0  501    0  0.00000000000E+00  0.00000000000E+00  0.15226181946E+04  0.15226181946E+04  0.50400001928E-02 0. -1.
       -1   -1    0    0    0  501  0.00000000000E+00  0.00000000000E+00 -0.10666968175E+03  0.10666968187E+03  0.50400001928E-02 0.  1.
    10030    2    1    2    0    0  0.00000000000E+00  0.00000000000E+00  0.14159485128E+04  0.16292878764E+04  0.80602034305E+03 0.  0.
        3    1    3    3  502    0 -0.11286804833E+03 -0.14856549934E+03  0.14300584762E+04  0.14421782690E+04  0.10100000352E+00 0. -1.
       -3    1    3    3    0  502  0.11286804833E+03  0.14856549934E+03 -0.14109963433E+02  0.18710960744E+03  0.10100000352E+00 0.  1.
</event>
<event>
 5   0  0.6517392E-03  0.7962941E+03  0.7818609E-02  0.9565397E-01
       -1   -1    0    0    0  501  0.00000000000E+00  0.00000000000E+00  0.14325757728E+04  0.14325757728E+04  0.50400001928E-02 0.  1.
        1   -1    0    0  501    0  0.00000000000E+00  0.00000000000E+00 -0.11065457654E+03  0.11065457665E+03  0.50400001928E-02 0. -1.
    10030    2    1    2    0    0  0.00000000000E+00  0.00000000000E+00  0.13219211962E+04  0.15432303494E+04  0.79629408032E+03 0.  0.
        3    1    3    3  502    0 -0.19598679524E+03  0.98118105878E+02  0.13051374769E+04  0.13234129478E+04  0.10100000352E+00 0.  1.
       -3    1    3    3    0  502  0.19598679524E+03 -0.98118105878E+02  0.16783719298E+02  0.21981740159E+03  0.10100000352E+00 0. -1.
</event>
<event>
 5   0  0.4385875E-03  0.7956124E+03  0.7818609E-02  0.9566390E-01
        3   -1    0    0  501    0  0.00000000000E+00  0.00000000000E+00  0.12282095567E+03  0.12282099719E+03  0.10100000352E+00 0.  1.
       -3   -1    0    0    0  501  0.00000000000E+00  0.00000000000E+00 -0.12884586398E+04  0.12884586438E+04  0.10100000352E+00 0. -1.
    10030    2    1    2    0    0  0.00000000000E+00  0.00000000000E+00 -0.11656376842E+04  0.14112796410E+04  0.79561235178E+03 0.  0.
        2    1    3    3  502    0 -0.14702828884E+03  0.16983995494E+03 -0.45500288402E+00  0.22464001212E+03  0.25500000920E-02 0.  1.
       -2    1    3    3    0  502  0.14702828884E+03 -0.16983995494E+03 -0.11651826813E+04  0.11866396289E+04  0.25500000920E-02 0. -1.
</event>
<event>
 5   0  0.1092868E-02  0.7944586E+03  0.7818609E-02  0.9568073E-01
       -2   -1    0    0    0  501  0.00000000000E+00  0.00000000000E+00  0.13739641177E+03  0.13739641179E+03  0.25500000920E-02 0. -1.
        2   -1    0    0  501    0  0.00000000000E+00  0.00000000000E+00 -0.11484369971E+04  0.11484369971E+04  0.25500000920E-02 0.  1.
    10030    2    1    2    0    0  0.00000000000E+00  0.00000000000E+00 -0.10110405853E+04  0.12858334089E+04  0.79445861455E+03 0.  0.
        3    1    3    3  502    0  0.37092700065E+03  0.13834542768E+03 -0.55833447315E+03  0.68444407461E+03  0.10100000352E+00 0.  1.
       -3    1    3    3    0  502 -0.37092700065E+03 -0.13834542768E+03 -0.45270611217E+03  0.60138933426E+03  0.10100000352E+00 0. -1.
</event>
<event>
 5   0  0.6557679E-03  0.7958420E+03  0.7818609E-02  0.9566055E-01
       -1   -1    0    0    0  501  0.00000000000E+00  0.00000000000E+00  0.39979423988E+03  0.39979423992E+03  0.50400001928E-02 0.  1.
        1   -1    0    0  501    0  0.00000000000E+00  0.00000000000E+00 -0.39605653640E+03  0.39605653643E+03  0.50400001928E-02 0. -1.
    10030    2    1    2    0    0  0.00000000000E+00  0.00000000000E+00  0.37377034824E+01  0.79585077635E+03  0.79584199926E+03 0.  0.
        1    1    3    3  502    0 -0.22449699885E+03  0.26343189570E+03  0.19820200223E+03  0.39884746443E+03  0.50400001928E-02 0.  1.
       -1    1    3    3    0  502  0.22449699885E+03 -0.26343189570E+03 -0.19446429875E+03  0.39700331192E+03  0.50400001928E-02 0. -1.
</event>
<event>
 5   0  0.1121480E-02  0.8032988E+03  0.7818609E-02  0.9555254E-01
       -2   -1    0    0    0  501  0.00000000000E+00  0.00000000000E+00  0.11278107563E+03  0.11278107566E+03  0.25500000920E-02 0. -1.
        2   -1    0    0  501    0  0.00000000000E+00  0.00000000000E+00 -0.14304016306E+04  0.14304016306E+04  0.25500000920E-02 0.  1.
    10030    2    1    2    0    0  0.00000000000E+00  0.00000000000E+00 -0.13176205550E+04  0.15431827063E+04  0.80329878503E+03 0.  0.
        2    1    3    3  502    0  0.73823702800E+02  0.12595829510E+03  0.60000876379E+02  0.15784655958E+03  0.25500000920E-02 0. -1.
       -2    1    3    3    0  502 -0.73823702800E+02 -0.12595829510E+03 -0.13776214313E+04  0.13853361467E+04  0.25500000920E-02 0.  1.
</event>
<event>
 5   0  0.6551489E-03  0.8000316E+03  0.7818609E-02  0.9559971E-01
        1   -1    0    0  501    0  0.00000000000E+00  0.00000000000E+00  0.38839486712E+03  0.38839486715E+03  0.50400001928E-02 0.  1.
       -1   -1    0    0    0  501  0.00000000000E+00  0.00000000000E+00 -0.41198439152E+03  0.41198439156E+03  0.50400001928E-02 0. -1.
    10030    2    1    2    0    0  0.00000000000E+00  0.00000000000E+00 -0.23589524408E+02  0.80037925870E+03  0.80003155694E+03 0.  0.
        4    1    3    3  502    0  0.22076653765E+03 -0.40982207491E+02 -0.34298788761E+03  0.40995086221E+03  0.12699999809E+01 0. -1.
       -4    1    3    3    0  502 -0.22076653765E+03  0.40982207491E+02  0.31939836320E+03  0.39042839650E+03  0.12699999809E+01 0.  1.
</event>
<event>
 5   0  0.6557679E-03  0.8091461E+03  0.7818609E-02  0.9546872E-01
       -1   -1    0    0    0  501  0.00000000000E+00  0.00000000000E+00  0.14856802136E+03  0.14856802144E+03  0.50400001928E-02 0.  1.
        1   -1    0    0  501    0  0.00000000000E+00  0.00000000000E+00 -0.11017131060E+04  0.11017131060E+04  0.50400001928E-02 0. -1.
    10030    2    1    2    0    0  0.00000000000E+00  0.00000000000E+00 -0.95314508462E+03  0.12502811274E+04  0.80914605930E+03 0.  0.
        1    1    3    3  502    0 -0.10315328301E+03 -0.17546929893E+03 -0.10168338615E+04  0.10370058710E+04  0.50400001928E-02 0. -1.
       -1    1    3    3    0  502  0.10315328301E+03  0.17546929893E+03  0.63688776880E+02  0.21327525639E+03  0.50400001928E-02 0.  1.
</event>
<event>
 5   0  0.6600401E-03  0.7965554E+03  0.7818609E-02  0.9565016E-01
        1   -1    0    0  501    0  0.00000000000E+00  0.00000000000E+00  0.80411552407E+03  0.80411552409E+03  0.50400001928E-02 0.  1.
       -1   -1    0    0    0  501  0.00000000000E+00  0.00000000000E+00 -0.19726660878E+03  0.19726660884E+03  0.50400001928E-02 0. -1.
    10030    2    1    2    0    0  0.00000000000E+00  0.00000000000E+00  0.60684891530E+03  0.10013821329E+04  0.79655544073E+03 0.  0.
        2    1    3    3  502    0  0.24093005898E+03  0.29790825728E+03  0.16669911381E+03  0.41783395940E+03  0.25500000920E-02 0. -1.
       -2    1    3    3    0  502 -0.24093005898E+03 -0.29790825728E+03  0.44014980148E+03  0.58354817353E+03  0.25500000920E-02 0.  1.
</event>
<event>
 5   0  0.6517392E-03  0.8035901E+03  0.7818609E-02  0.9554835E-01
       -1   -1    0    0    0  501  0.00000000000E+00  0.00000000000E+00  0.19420151305E+03  0.19420151312E+03  0.50400001928E-02 0. -1.
        1   -1    0    0  501    0  0.00000000000E+00  0.00000000000E+00 -0.83129761431E+03  0.83129761433E+03  0.50400001928E-02 0.  1.
    10030    2    1    2    0    0  0.00000000000E+00  0.00000000000E+00 -0.63709610126E+03  0.10254991274E+04  0.80359008092E+03 0.  0.
        3    1    3    3  502    0 -0.23207793921E+03  0.12634065039E+03  0.67720217651E+02  0.27277860599E+03  0.10100000352E+00 0. -1.
       -3    1    3    3    0  502  0.23207793921E+03 -0.12634065039E+03 -0.70481631891E+03  0.75272052145E+03  0.10100000352E+00 0.  1.
</event>
<event>
 5   0  0.1119792E-02  0.7948611E+03  0.7818609E-02  0.9567485E-01
        2   -1    0    0  501    0  0.00000000000E+00  0.00000000000E+00  0.18067463260E+04  0.18067463260E+04  0.25500000920E-02 0.  1.
       -2   -1    0    0    0  501  0.00000000000E+00  0.00000000000E+00 -0.87422929760E+02  0.87422929797E+02  0.25500000920E-02 0. -1.
    10030    2    1    2    0    0  0.00000000000E+00  0.00000000000E+00  0.17193233962E+04  0.18941692558E+04  0.79486113803E+03 0.  0.
        4    1    3    3  502    0 -0.25733531570E+02  0.26750414802E+03  0.16192624424E+03  0.31375532717E+03  0.12699999809E+01 0. -1.
       -4    1    3    3    0  502  0.25733531570E+02 -0.26750414802E+03  0.15573971520E+04  0.15804139286E+04  0.12699999809E+01 0.  1.
</event>
<event>
 5   0  0.1119792E-02  0.7996197E+03  0.7818609E-02  0.9560568E-01
       -2   -1    0    0    0  501  0.00000000000E+00  0.00000000000E+00  0.51039571043E+03  0.51039571044E+03  0.25500000920E-02 0. -1.
        2   -1    0    0  501    0  0.00000000000E+00  0.00000000000E+00 -0.31318428758E+03  0.31318428759E+03  0.25500000920E-02 0.  1.
    10030    2    1    2    0    0  0.00000000000E+00  0.00000000000E+00  0.19721142285E+03  0.82357999804E+03  0.79961970202E+03 0.  0.
        4    1    3    3  502    0 -0.31551547370E+03 -0.19711409165E+03  0.24942546934E+03  0.44790474090E+03  0.12699999809E+01 0.  1.
       -4    1    3    3    0  502  0.31551547370E+03  0.19711409165E+03 -0.52214046489E+02  0.37567525713E+03  0.12699999809E+01 0. -1.
</event>
<event>
 5   0  0.6600401E-03  0.8002930E+03  0.7818609E-02  0.9559593E-01
       -1   -1    0    0    0  501  0.00000000000E+00  0.00000000000E+00  0.43243521052E+03  0.43243521055E+03  0.50400001928E-02 0. -1.
        1   -1    0    0  501    0  0.00000000000E+00  0.00000000000E+00 -0.37026868539E+03  0.37026868543E+03  0.50400001928E-02 0.  1.
    10030    2    1    2    0    0  0.00000000000E+00  0.00000000000E+00  0.62166525126E+02  0.80270389597E+03  0.80029298870E+03 0.  0.
        2    1    3    3  502    0  0.74847267288E+02 -0.13336673663E+03  0.40196525871E+03  0.43007542254E+03  0.25500000920E-02 0. -1.
       -2    1    3    3    0  502 -0.74847267288E+02  0.13336673663E+03 -0.33979873358E+03  0.37262847343E+03  0.25500000920E-02 0.  1.
</event>
<event>
 5   0  0.1119792E-02  0.7968107E+03  0.7818609E-02  0.9564645E-01
       -2   -1    0    0    0  501  0.00000000000E+00  0.00000000000E+00  0.13880812833E+03  0.13880812836E+03  0.25500000920E-02 0.  1.
        2   -1    0    0  501    0  0.00000000000E+00  0.00000000000E+00 -0.11434981461E+04  0.11434981461E+04  0.25500000920E-02 0. -1.
    10030    2    1    2    0    0  0.00000000000E+00  0.00000000000E+00 -0.10046900177E+04  0.12823062744E+04  0.79681073643E+03 0.  0.
        4    1    3    3  502    0 -0.27176589506E+03  0.23549314816E+03 -0.77833617218E+03  0.85739287049E+03  0.12699999809E+01 0.  1.
       -4    1    3    3    0  502  0.27176589506E+03 -0.23549314816E+03 -0.22635384554E+03  0.42491340393E+03  0.12699999809E+01 0. -1.
</event>
<event>
 5   0  0.1106332E-02  0.8053144E+03  0.7818609E-02  0.9552356E-01
       -2   -1    0    0    0  501  0.00000000000E+00  0.00000000000E+00  0.39986056300E+03  0.39986056301E+03  0.25500000920E-02 0. -1.
        2   -1    0    0  501    0  0.00000000000E+00  0.00000000000E+00 -0.40547337304E+03  0.40547337304E+03  0.25500000920E-02 0.  1.
    10030    2    1    2    0    0  0.00000000000E+00  0.00000000000E+00 -0.56128100372E+01  0.80533393605E+03  0.80531437645E+03 0.  0.
        1    1    3    3  502    0 -0.20310649131E+03  0.29390602531E+03 -0.18855216830E+03  0.40396153124E+03  0.50400001928E-02 0.  1.
       -1    1    3    3    0  502  0.20310649131E+03 -0.29390602531E+03  0.18293935826E+03  0.40137240482E+03  0.50400001928E-02 0. -1.
</event>
<event>
 5   0  0.4385875E-03  0.8045479E+03  0.7818609E-02  0.9553457E-01
        3   -1    0    0  501    0  0.00000000000E+00  0.00000000000E+00  0.57947724148E+03  0.57947725028E+03  0.10100000352E+00 0.  1.
       -3   -1    0    0    0  501  0.00000000000E+00  0.00000000000E+00 -0.27925912991E+03  0.27925914817E+03  0.10100000352E+00 0. -1.
    10030    2    1    2    0    0  0.00000000000E+00  0.00000000000E+00  0.30021811157E+03  0.85873639845E+03  0.80454787770E+03 0.  0.
        3    1    3    3  502    0  0.37406150402E+03 -0.21613850789E+02  0.30637746242E+03  0.48400033782E+03  0.10100000352E+00 0.  1.
       -3    1    3    3    0  502 -0.37406150402E+03  0.21613850789E+02 -0.61593508512E+01  0.37473606063E+03  0.10100000352E+00 0. -1.
</event>
<event>
 5   0  0.1119792E-02  0.7980831E+03  0.7818609E-02  0.9562796E-01
       -2   -1    0    0    0  501  0.00000000000E+00  0.00000000000E+00  0.18983865162E+03  0.18983865164E+03  0.25500000920E-02 0.  1.
        2   -1    0    0  501    0  0.00000000000E+00  0.00000000000E+00 -0.83878689706E+03  0.83878689707E+03  0.25500000920E-02 0. -1.
    10030    2    1    2    0    0  0.00000000000E+00  0.00000000000E+00 -0.64894824544E+03  0.10286255487E+04  0.79808313739E+03 0.  0.
        4    1    3    3  502    0 -0.10079055984E+03  0.38448217500E+03 -0.36999297369E+03  0.54303010352E+03  0.12699999809E+01 0. -1.
       -4    1    3    3    0  502  0.10079055984E+03 -0.38448217500E+03 -0.27895527175E+03  0.48559544519E+03  0.12699999809E+01 0.  1.
</event>
<event>
 5   0  0.6517392E-03  0.7713440E+03  0.7818609E-02  0.9602447E-01
        1   -1    0    0  501    0  0.00000000000E+00  0.00000000000E+00  0.41786459913E+03  0.41786459916E+03  0.50400001928E-02 0.  1.
       -1   -1    0    0    0  501  0.00000000000E+00  0.00000000000E+00 -0.35595958818E+03  0.35595958822E+03  0.50400001928E-02 0. -1.
    10030    2    1    2    0    0  0.00000000000E+00  0.00000000000E+00  0.61905010948E+02  0.77382418738E+03  0.77134404943E+03 0.  0.
        3    1    3    3  502    0  0.22215230231E+03 -0.17801282186E+03 -0.23008152556E+03  0.36602968291E+03  0.10100000352E+00 0. -1.
       -3    1    3    3    0  502 -0.22215230231E+03  0.17801282186E+03  0.29198653651E+03  0.40779450446E+03  0.10100000352E+00 0.  1.
</event>
<event>
 5   0  0.1154714E-02  0.7926818E+03  0.7818609E-02  0.9570671E-01
        2   -1    0    0  501    0  0.00000000000E+00  0.00000000000E+00  0.77306415912E+03  0.77306415912E+03  0.25500000920E-02 0. -1.
       -2   -1    0    0    0  501  0.00000000000E+00  0.00000000000E+00 -0.20319929264E+03  0.20319929265E+03  0.25500000920E-02 0.  1.
    10030    2    1    2    0    0  0.00000000000E+00  0.00000000000E+00  0.56986486648E+03  0.97626345178E+03  0.79268175280E+03 0.  0.
        5    1    3    3  502    0  0.27726211982E+03 -0.25212768361E+03  0.44371444351E+03  0.58081602019E+03  0.46999998093E+01 0.  1.
       -5    1    3    3    0  502 -0.27726211982E+03  0.25212768361E+03  0.12615042297E+03  0.39544743158E+03  0.46999998093E+01 0. -1.
</event>
<event>
 5   0  0.6517392E-03  0.7972080E+03  0.7818609E-02  0.9564067E-01
       -1   -1    0    0    0  501  0.00000000000E+00  0.00000000000E+00  0.18860200719E+03  0.18860200726E+03  0.50400001928E-02 0. -1.
        1   -1    0    0  501    0  0.00000000000E+00  0.00000000000E+00 -0.84243611293E+03  0.84243611294E+03  0.50400001928E-02 0.  1.
    10030    2    1    2    0    0  0.00000000000E+00  0.00000000000E+00 -0.65383410574E+03  0.10310381202E+04  0.79720798257E+03 0.  0.
        3    1    3    3  502    0 -0.19991938381E+03  0.27011497849E+03 -0.60416653594E+03  0.69133716447E+03  0.10100000352E+00 0.  1.
       -3    1    3    3    0  502  0.19991938381E+03 -0.27011497849E+03 -0.49667569792E+02  0.33970095572E+03  0.10100000352E+00 0. -1.
</event>
<event>
 5   0  0.6517392E-03  0.8530940E+03  0.7818609E-02  0.9486194E-01
        1   -1    0    0  501    0  0.00000000000E+00  0.00000000000E+00  0.13260760159E+04  0.13260760160E+04  0.50400001928E-02 0.  1.
       -1   -1    0    0    0  501  0.00000000000E+00  0.00000000000E+00 -0.13720356717E+03  0.13720356726E+03  0.50400001928E-02 0. -1.
    10030    2    1    2    0    0  0.00000000000E+00  0.00000000000E+00  0.11888724488E+04  0.14632795832E+04  0.85309403890E+03 0.  0.
        3    1    3    3  502    0  0.40742244248E+03 -0.51784806273E+02  0.39686340702E+03  0.57111757707E+03  0.10100000352E+00 0. -1.
       -3    1    3    3    0  502 -0.40742244248E+03  0.51784806273E+02  0.79200904175E+03  0.89216200615E+03  0.10100000352E+00 0.  1.
</event>
<event>
 5   0  0.1092868E-02  0.8016997E+03  0.7818609E-02  0.9557560E-01
       -2   -1    0    0    0  501  0.00000000000E+00  0.00000000000E+00  0.20370393875E+03  0.20370393877E+03  0.25500000920E-02 0. -1.
        2   -1    0    0  501    0  0.00000000000E+00  0.00000000000E+00 -0.78879481279E+03  0.78879481279E+03  0.25500000920E-02 0.  1.
    10030    2    1    2    0    0  0.00000000000E+00  0.00000000000E+00 -0.58509087404E+03  0.99249875156E+03  0.80169971995E+03 0.  0.
        3    1    3    3  502    0 -0.23178500980E+02  0.91634960935E+02  0.18971032226E+03  0.21195335701E+03  0.10100000352E+00 0. -1.
       -3    1    3    3    0  502  0.23178500980E+02 -0.91634960935E+02 -0.77480119630E+03  0.78054539455E+03  0.10100000352E+00 0.  1.
</event>
<event>
 5   0  0.6557679E-03  0.8014767E+03  0.7818609E-02  0.9557882E-01
       -1   -1    0    0    0  501  0.00000000000E+00  0.00000000000E+00  0.67781899055E+03  0.67781899057E+03  0.50400001928E-02 0. -1.
        1   -1    0    0  501    0  0.00000000000E+00  0.00000000000E+00 -0.23692347638E+03  0.23692347643E+03  0.50400001928E-02 0.  1.
    10030    2    1    2    0    0  0.00000000000E+00  0.00000000000E+00  0.44089551417E+03  0.91474246700E+03  0.80147671614E+03 0.  0.
        1    1    3    3  502    0  0.29388161906E+03 -0.17413893106E+03  0.45958237939E+03  0.57263141443E+03  0.50400001928E-02 0. -1.
       -1    1    3    3    0  502 -0.29388161906E+03  0.17413893106E+03 -0.18686865213E+02  0.34211105256E+03  0.50400001928E-02 0.  1.
</event>
<event>
 5   0  0.6551489E-03  0.7918897E+03  0.7818609E-02  0.9571831E-01
       -1   -1    0    0    0  501  0.00000000000E+00  0.00000000000E+00  0.22895698926E+03  0.22895698932E+03  0.50400001928E-02 0.  1.
        1   -1    0    0  501    0  0.00000000000E+00  0.00000000000E+00 -0.68472394862E+03  0.68472394864E+03  0.50400001928E-02 0. -1.
    10030    2    1    2    0    0  0.00000000000E+00  0.00000000000E+00 -0.45576695935E+03  0.91368093796E+03  0.79188972411E+03 0.  0.
        4    1    3    3  502    0  0.31188018215E+02  0.32193380681E+02 -0.68178483864E+03  0.68325784689E+03  0.12699999809E+01 0. -1.
       -4    1    3    3    0  502 -0.31188018215E+02 -0.32193380681E+02  0.22601787928E+03  0.23042309107E+03  0.12699999809E+01 0.  1.
</event>
<event>
 5   0  0.6596225E-03  0.8058544E+03  0.7818609E-02  0.9551582E-01
       -1   -1    0    0    0  501  0.00000000000E+00  0.00000000000E+00  0.12480146382E+03  0.12480146392E+03  0.50400001928E-02 0. -1.
        1   -1    0    0  501    0  0.00000000000E+00  0.00000000000E+00 -0.13008687290E+04  0.13008687290E+04  0.50400001928E-02 0.  1.
    10030    2    1    2    0    0  0.00000000000E+00  0.00000000000E+00 -0.11760672652E+04  0.14256701929E+04  0.80585438311E+03 0.  0.
        5    1    3    3  502    0  0.14190202270E+03  0.35712778103E+03 -0.37388863982E+03  0.53618209688E+03  0.46999998093E+01 0. -1.
       -5    1    3    3    0  502 -0.14190202270E+03 -0.35712778103E+03 -0.80217862537E+03  0.88948809606E+03  0.46999998093E+01 0.  1.
</event>
<event>
 5   0  0.6551489E-03  0.8029672E+03  0.7818609E-02  0.9555732E-01
       -1   -1    0    0    0  501  0.00000000000E+00  0.00000000000E+00  0.30969001321E+03  0.30969001325E+03  0.50400001928E-02 0.  1.
        1   -1    0    0  501    0  0.00000000000E+00  0.00000000000E+00 -0.52048522724E+03  0.52048522727E+03  0.50400001928E-02 0. -1.
    10030    2    1    2    0    0  0.00000000000E+00  0.00000000000E+00 -0.21079521403E+03  0.83017524052E+03  0.80296718969E+03 0.  0.
        4    1    3    3  502    0  0.24989614816E+03  0.29428084211E+03 -0.21930410441E+03  0.44401036250E+03  0.12699999809E+01 0.  1.
       -4    1    3    3    0  502 -0.24989614816E+03 -0.29428084211E+03  0.85088903777E+01  0.38616487802E+03  0.12699999809E+01 0. -1.
</event>
<event>
 5   0  0.6557679E-03  0.8043646E+03  0.7818609E-02  0.9553721E-01
       -1   -1    0    0    0  501  0.00000000000E+00  0.00000000000E+00  0.12655006158E+03  0.12655006168E+03  0.50400001928E-02 0. -1.
        1   -1    0    0  501    0  0.00000000000E+00  0.00000000000E+00 -0.12781551709E+04  0.12781551709E+04  0.50400001928E-02 0.  1.
    10030    2    1    2    0    0  0.00000000000E+00  0.00000000000E+00 -0.11516051093E+04  0.14047052325E+04  0.80436463289E+03 0.  0.
        1    1    3    3  502    0 -0.28457667820E+03  0.28323107940E+03 -0.53496305172E+03  0.66887158472E+03  0.50400001928E-02 0.  1.
       -1    1    3    3    0  502  0.28457667820E+03 -0.28323107940E+03 -0.61664205756E+03  0.73583364783E+03  0.50400001928E-02 0. -1.
</event>
<event>
 5   0  0.1119792E-02  0.7341420E+03  0.7818609E-02  0.9660563E-01
        2   -1    0    0  501    0  0.00000000000E+00  0.00000000000E+00  0.68356245820E+03  0.68356245820E+03  0.25500000920E-02 0.  1.
       -2   -1    0    0    0  501  0.00000000000E+00  0.00000000000E+00 -0.19711601400E+03  0.19711601402E+03  0.25500000920E-02 0. -1.
    10030    2    1    2    0    0  0.00000000000E+00  0.00000000000E+00  0.48644644420E+03  0.88067847222E+03  0.73414196744E+03 0.  0.
        4    1    3    3  502    0  0.25879467822E+03  0.11568636290E+03  0.52296853393E+03  0.59485773124E+03  0.12699999809E+01 0.  1.
       -4    1    3    3    0  502 -0.25879467822E+03 -0.11568636290E+03 -0.36522089732E+02  0.28582074098E+03  0.12699999809E+01 0. -1.
</event>
<event>
 5   0  0.6551489E-03  0.8017563E+03  0.7818609E-02  0.9557478E-01
       -1   -1    0    0    0  501  0.00000000000E+00  0.00000000000E+00  0.11430197102E+03  0.11430197113E+03  0.50400001928E-02 0.  1.
        1   -1    0    0  501    0  0.00000000000E+00  0.00000000000E+00 -0.14059539394E+04  0.14059539395E+04  0.50400001928E-02 0. -1.
    10030    2    1    2    0    0  0.00000000000E+00  0.00000000000E+00 -0.12916519684E+04  0.15202559106E+04  0.80175633839E+03 0.  0.
        4    1    3    3  502    0  0.52323060575E+02  0.35627307487E+03 -0.31179281997E+03  0.47632403050E+03  0.12699999809E+01 0.  1.
       -4    1    3    3    0  502 -0.52323060575E+02 -0.35627307487E+03 -0.97985914846E+03  0.10439318801E+04  0.12699999809E+01 0. -1.
</event>
<event>
 5   0  0.6551489E-03  0.7984148E+03  0.7818609E-02  0.9562314E-01
       -1   -1    0    0    0  501  0.00000000000E+00  0.00000000000E+00  0.21263223425E+03  0.21263223431E+03  0.50400001928E-02 0. -1.
        1   -1    0    0  501    0  0.00000000000E+00  0.00000000000E+00 -0.74949383277E+03  0.74949383279E+03  0.50400001928E-02 0.  1.
    10030    2    1    2    0    0  0.00000000000E+00  0.00000000000E+00 -0.53686159852E+03  0.96212606709E+03  0.79841480010E+03 0.  0.
        4    1    3    3  502    0 -0.25590596496E+02  0.16486375945E+03  0.16860378771E+03  0.23719989025E+03  0.12699999809E+01 0. -1.
       -4    1    3    3    0  502  0.25590596496E+02 -0.16486375945E+03 -0.70546538622E+03  0.72492617684E+03  0.12699999809E+01 0.  1.
</event>
<event>
 5   0  0.6517392E-03  0.7989104E+03  0.7818609E-02  0.9561596E-01
       -1   -1    0    0    0  501  0.00000000000E+00  0.00000000000E+00  0.31675122234E+03  0.31675122238E+03  0.50400001928E-02 0.  1.
        1   -1    0    0  501    0  0.00000000000E+00  0.00000000000E+00 -0.50375327929E+03  0.50375327932E+03  0.50400001928E-02 0. -1.
    10030    2    1    2    0    0  0.00000000000E+00  0.00000000000E+00 -0.18700205695E+03  0.82050450170E+03  0.79891042552E+03 0.  0.
        3    1    3    3  502    0 -0.15580922302E+03  0.15990181671E+03 -0.43369334161E+03  0.48778584413E+03  0.10100000352E+00 0. -1.
       -3    1    3    3    0  502  0.15580922302E+03 -0.15990181671E+03  0.24669128466E+03  0.33271865757E+03  0.10100000352E+00 0.  1.
</event>
<event>
 5   0  0.6517392E-03  0.7941731E+03  0.7818609E-02  0.9568490E-01
       -1   -1    0    0    0  501  0.00000000000E+00  0.00000000000E+00  0.32597577528E+03  0.32597577532E+03  0.50400001928E-02 0. -1.
        1   -1    0    0  501    0  0.00000000000E+00  0.00000000000E+00 -0.48370998287E+03  0.48370998290E+03  0.50400001928E-02 0.  1.
    10030    2    1    2    0    0  0.00000000000E+00  0.00000000000E+00 -0.15773420759E+03  0.80968575822E+03  0.79417312144E+03 0.  0.
        3    1    3    3  502    0 -0.24019063254E+03  0.24224639776E+03 -0.28606790368E+03  0.44520749421E+03  0.10100000352E+00 0.  1.
       -3    1    3    3    0  502  0.24019063254E+03 -0.24224639776E+03  0.12833369609E+03  0.36447826401E+03  0.10100000352E+00 0. -1.
</event>
<event>
 5   0  0.4385875E-03  0.7539425E+03  0.7818609E-02  0.9629185E-01
        3   -1    0    0  501    0  0.00000000000E+00  0.00000000000E+00  0.27441896948E+03  0.27441898807E+03  0.10100000352E+00 0. -1.
       -3   -1    0    0    0  501  0.00000000000E+00  0.00000000000E+00 -0.51784795006E+03  0.51784795991E+03  0.10100000352E+00 0.  1.
    10030    2    1    2    0    0  0.00000000000E+00  0.00000000000E+00 -0.24342898058E+03  0.79226694798E+03  0.75394247014E+03 0.  0.
        5    1    3    3  502    0  0.32238764667E+03  0.14280340413E+03 -0.26174990360E+03  0.43916023157E+03  0.46999998093E+01 0.  1.
       -5    1    3    3    0  502 -0.32238764667E+03 -0.14280340413E+03  0.18320923019E+02  0.35310671641E+03  0.46999998093E+01 0. -1.
</event>
<event>
 5   0  0.1119792E-02  0.8547579E+03  0.7818609E-02  0.9483973E-01
        2   -1    0    0  501    0  0.00000000000E+00  0.00000000000E+00  0.14146789699E+04  0.14146789699E+04  0.25500000920E-02 0. -1.
       -2   -1    0    0    0  501  0.00000000000E+00  0.00000000000E+00 -0.12911252272E+03  0.12911252274E+03  0.25500000920E-02 0.  1.
    10030    2    1    2    0    0  0.00000000000E+00  0.00000000000E+00  0.12855664472E+04  0.15437914926E+04  0.85475790879E+03 0.  0.
        4    1    3    3  502    0  0.21231922809E+03  0.36824661523E+03  0.72286837829E+03  0.83858531437E+03  0.12699999809E+01 0.  1.
       -4    1    3    3    0  502 -0.21231922809E+03 -0.36824661523E+03  0.56269806888E+03  0.70520617827E+03  0.12699999809E+01 0. -1.
</event>
<event>
 5   0  0.6600401E-03  0.8646933E+03  0.7818609E-02  0.9470826E-01
        1   -1    0    0  501    0  0.00000000000E+00  0.00000000000E+00  0.24909810359E+03  0.24909810364E+03  0.50400001928E-02 0. -1.
       -1   -1    0    0    0  501  0.00000000000E+00  0.00000000000E+00 -0.75040163532E+03  0.75040163534E+03  0.50400001928E-02 0.  1.
    10030    2    1    2    0    0  0.00000000000E+00  0.00000000000E+00 -0.50130353173E+03  0.99949973898E+03  0.86469329666E+03 0.  0.
        2    1    3    3  502    0 -0.38066010061E+03  0.12841772093E+03 -0.65959201399E+02  0.40711649377E+03  0.25500000920E-02 0. -1.
       -2    1    3    3    0  502  0.38066010061E+03 -0.12841772093E+03 -0.43534433033E+03  0.59238324521E+03  0.25500000920E-02 0.  1.
</event>
<event>
 5   0  0.6551489E-03  0.8000288E+03  0.7818609E-02  0.9559975E-01
       -1   -1    0    0    0  501  0.00000000000E+00  0.00000000000E+00  0.57915806231E+03  0.57915806233E+03  0.50400001928E-02 0.  1.
        1   -1    0    0  501    0  0.00000000000E+00  0.00000000000E+00 -0.27628298372E+03  0.27628298377E+03  0.50400001928E-02 0. -1.
    10030    2    1    2    0    0  0.00000000000E+00  0.00000000000E+00  0.30287507859E+03  0.85544104610E+03  0.80002879331E+03 0.  0.
        4    1    3    3  502    0 -0.21883154268E+03 -0.29010676894E+03 -0.27358818271E+02  0.36441638176E+03  0.12699999809E+01 0.  1.
       -4    1    3    3    0  502  0.21883154268E+03  0.29010676894E+03  0.33023389686E+03  0.49102466434E+03  0.12699999809E+01 0. -1.
</event>
<event>
 5   0  0.1119792E-02  0.7932251E+03  0.7818609E-02  0.9569876E-01
       -2   -1    0    0    0  501  0.00000000000E+00  0.00000000000E+00  0.16377480193E+03  0.16377480195E+03  0.25500000920E-02 0.  1.
        2   -1    0    0  501    0  0.00000000000E+00  0.00000000000E+00 -0.96047454588E+03  0.96047454588E+03  0.25500000920E-02 0. -1.
    10030    2    1    2    0    0  0.00000000000E+00  0.00000000000E+00 -0.79669974395E+03  0.11242493478E+04  0.79322513456E+03 0.  0.
        4    1    3    3  502    0  0.25294943549E+03 -0.17394040834E+03 -0.42433958381E+02  0.30990472131E+03  0.12699999809E+01 0.  1.
       -4    1    3    3    0  502 -0.25294943549E+03  0.17394040834E+03 -0.75426578557E+03  0.81434462652E+03  0.12699999809E+01 0. -1.
</event>
<event>
 5   0  0.1154714E-02  0.8086426E+03  0.7818609E-02  0.9547591E-01
       -2   -1    0    0    0  501  0.00000000000E+00  0.00000000000E+00  0.19483698700E+03  0.19483698702E+03  0.25500000920E-02 0.  1.
        2   -1    0    0  501    0  0.00000000000E+00  0.00000000000E+00 -0.83903832446E+03  0.83903832446E+03  0.25500000920E-02 0. -1.
    10030    2    1    2    0    0  0.00000000000E+00  0.00000000000E+00 -0.64420133746E+03  0.10338753115E+04  0.80864256412E+03 0.  0.
        5    1    3    3  502    0  0.69444152564E+02  0.38411277617E+03 -0.18746880744E+03  0.43304937236E+03  0.46999998093E+01 0. -1.
       -5    1    3    3    0  502 -0.69444152564E+02 -0.38411277617E+03 -0.45673253002E+03  0.60082593912E+03  0.46999998093E+01 0.  1.
</event>
<event>
 5   0  0.6551489E-03  0.7984221E+03  0.7818609E-02  0.9562304E-01
       -1   -1    0    0    0  501  0.00000000000E+00  0.00000000000E+00  0.33989879311E+03  0.33989879315E+03  0.50400001928E-02 0.  1.
        1   -1    0    0  501    0  0.00000000000E+00  0.00000000000E+00 -0.46887332048E+03  0.46887332051E+03  0.50400001928E-02 0. -1.
    10030    2    1    2    0    0  0.00000000000E+00  0.00000000000E+00 -0.12897452737E+03  0.80877211366E+03  0.79842213341E+03 0.  0.
        4    1    3    3  502    0  0.23849907054E+03  0.30438843612E+03 -0.16493794281E+03  0.42040488172E+03  0.12699999809E+01 0. -1.
       -4    1    3    3    0  502 -0.23849907054E+03 -0.30438843612E+03  0.35963415437E+02  0.38836723194E+03  0.12699999809E+01 0.  1.
</event>
<event>
 5   0  0.1119792E-02  0.8060283E+03  0.7818609E-02  0.9551332E-01
        2   -1    0    0  501    0  0.00000000000E+00  0.00000000000E+00  0.11190657278E+04  0.11190657278E+04  0.25500000920E-02 0.  1.
       -2   -1    0    0    0  501  0.00000000000E+00  0.00000000000E+00 -0.14513928604E+03  0.14513928607E+03  0.25500000920E-02 0. -1.
    10030    2    1    2    0    0  0.00000000000E+00  0.00000000000E+00  0.97392644179E+03  0.12642050139E+04  0.80602828931E+03 0.  0.
        4    1    3    3  502    0 -0.32849385024E+03  0.10742013333E+03  0.16183291968E+03  0.38162652094E+03  0.12699999809E+01 0. -1.
       -4    1    3    3    0  502  0.32849385024E+03 -0.10742013333E+03  0.81209352212E+03  0.88257849297E+03  0.12699999809E+01 0.  1.
</event>
<event>
 5   0  0.1092868E-02  0.8022580E+03  0.7818609E-02  0.9556755E-01
       -2   -1    0    0    0  501  0.00000000000E+00  0.00000000000E+00  0.15567839299E+03  0.15567839301E+03  0.25500000920E-02 0.  1.
        2   -1    0    0  501    0  0.00000000000E+00  0.00000000000E+00 -0.10335696020E+04  0.10335696020E+04  0.25500000920E-02 0. -1.
    10030    2    1    2    0    0  0.00000000000E+00  0.00000000000E+00 -0.87789120902E+03  0.11892479950E+04  0.80225795028E+03 0.  0.
        3    1    3    3  502    0  0.54423834523E+02  0.99224191358E+02 -0.10094140183E+04  0.10157381870E+04  0.10100000352E+00 0. -1.
       -3    1    3    3    0  502 -0.54423834523E+02 -0.99224191358E+02  0.13152280931E+03  0.17350980803E+03  0.10100000352E+00 0.  1.
</event>
<event>
 5   0  0.6596225E-03  0.8125499E+03  0.7818609E-02  0.9542027E-01
        1   -1    0    0  501    0  0.00000000000E+00  0.00000000000E+00  0.91678295434E+03  0.91678295435E+03  0.50400001928E-02 0.  1.
       -1   -1    0    0    0  501  0.00000000000E+00  0.00000000000E+00 -0.18004190018E+03  0.18004190025E+03  0.50400001928E-02 0. -1.
    10030    2    1    2    0    0  0.00000000000E+00  0.00000000000E+00  0.73674105416E+03  0.10968248546E+04  0.81254992511E+03 0.  0.
        5    1    3    3  502    0  0.32073902970E+03 -0.10423611689E+03  0.62639282668E+02  0.34305169140E+03  0.46999998093E+01 0. -1.
       -5    1    3    3    0  502 -0.32073902970E+03  0.10423611689E+03  0.67410177149E+03  0.75377316320E+03  0.46999998093E+01 0.  1.
</event>
<event>
 5   0  0.1121480E-02  0.7947672E+03  0.7818609E-02  0.9567622E-01
        2   -1    0    0  501    0  0.00000000000E+00  0.00000000000E+00  0.38411962609E+03  0.38411962610E+03  0.25500000920E-02 0. -1.
       -2   -1    0    0    0  501  0.00000000000E+00  0.00000000000E+00 -0.41110561809E+03  0.41110561810E+03  0.25500000920E-02 0.  1.
    10030    2    1    2    0    0  0.00000000000E+00  0.00000000000E+00 -0.26985991999E+02  0.79522524420E+03  0.79476722709E+03 0.  0.
        2    1    3    3  502    0  0.27863766286E+03  0.11757466782E+03  0.24443644958E+03  0.38885977880E+03  0.25500000920E-02 0. -1.
       -2    1    3    3    0  502 -0.27863766286E+03 -0.11757466782E+03 -0.27142244158E+03  0.40636546541E+03  0.25500000920E-02 0.  1.
</event>
<event>
 5   0  0.6596225E-03  0.7935731E+03  0.7818609E-02  0.9569367E-01
        1   -1    0    0  501    0  0.00000000000E+00  0.00000000000E+00  0.18000956242E+03  0.18000956249E+03  0.50400001928E-02 0. -1.
       -1   -1    0    0    0  501  0.00000000000E+00  0.00000000000E+00 -0.87461775715E+03  0.87461775716E+03  0.50400001928E-02 0.  1.
    10030    2    1    2    0    0  0.00000000000E+00  0.00000000000E+00 -0.69460819473E+03  0.10546273197E+04  0.79357308370E+03 0.  0.
        5    1    3    3  502    0 -0.13091811252E+03 -0.25586536384E+03 -0.71079565972E+03  0.76671976397E+03  0.46999998093E+01 0.  1.
       -5    1    3    3    0  502  0.13091811252E+03  0.25586536384E+03  0.16187464987E+02  0.28790755568E+03  0.46999998093E+01 0. -1.
</event>
<event>
 5   0  0.1121480E-02  0.8015688E+03  0.7818609E-02  0.9557749E-01
       -2   -1    0    0    0  501  0.00000000000E+00  0.00000000000E+00  0.59081563219E+03  0.59081563220E+03  0.25500000920E-02 0. -1.
        2   -1    0    0  501    0  0.00000000000E+00  0.00000000000E+00 -0.27187520023E+03  0.27187520024E+03  0.25500000920E-02 0.  1.
    10030    2    1    2    0    0  0.00000000000E+00  0.00000000000E+00  0.31894043196E+03  0.86269083244E+03  0.80156875765E+03 0.  0.
        2    1    3    3  502    0  0.20315566491E+03  0.11792859320E+03 -0.19002006336E+03  0.30213738889E+03  0.25500000920E-02 0.  1.
       -2    1    3    3    0  502 -0.20315566491E+03 -0.11792859320E+03  0.50896049532E+03  0.56055344356E+03  0.25500000920E-02 0. -1.
</event>
<event>
 5   0  0.6517392E-03  0.7998993E+03  0.7818609E-02  0.9560163E-01
        1   -1    0    0  501    0  0.00000000000E+00  0.00000000000E+00  0.10053573449E+04  0.10053573450E+04  0.50400001928E-02 0. -1.
       -1   -1    0    0    0  501  0.00000000000E+00  0.00000000000E+00 -0.15910734379E+03  0.15910734387E+03  0.50400001928E-02 0.  1.
    10030    2    1    2    0    0  0.00000000000E+00  0.00000000000E+00  0.84625000115E+03  0.11644646888E+04  0.79989933558E+03 0.  0.
        3    1    3    3  502    0  0.17000848018E+03  0.14348369769E+03  0.90697610083E+03  0.93386086357E+03  0.10100000352E+00 0. -1.
       -3    1    3    3    0  502 -0.17000848018E+03 -0.14348369769E+03 -0.60726099676E+02  0.23060382525E+03  0.10100000352E+00 0.  1.
</event>
<event>
 5   0  0.1092868E-02  0.8003116E+03  0.7818609E-02  0.9559566E-01
        2   -1    0    0  501    0  0.00000000000E+00  0.00000000000E+00  0.76450526547E+03  0.76450526548E+03  0.25500000920E-02 0. -1.
       -2   -1    0    0    0  501  0.00000000000E+00  0.00000000000E+00 -0.20944872383E+03  0.20944872385E+03  0.25500000920E-02 0.  1.
    10030    2    1    2    0    0  0.00000000000E+00  0.00000000000E+00  0.55505654164E+03  0.97395398932E+03  0.80031156989E+03 0.  0.
        3    1    3    3  502    0 -0.63058708436E+02 -0.13240510226E+03 -0.17556519285E+03  0.22875895383E+03  0.10100000352E+00 0.  1.
       -3    1    3    3    0  502  0.63058708436E+02  0.13240510226E+03  0.73062173449E+03  0.74519503550E+03  0.10100000352E+00 0. -1.
</event>
<event>
 5   0  0.6600401E-03  0.8004995E+03  0.7818609E-02  0.9559294E-01
        1   -1    0    0  501    0  0.00000000000E+00  0.00000000000E+00  0.38602008383E+03  0.38602008386E+03  0.50400001928E-02 0.  1.
       -1   -1    0    0    0  501  0.00000000000E+00  0.00000000000E+00 -0.41500393547E+03  0.41500393550E+03  0.50400001928E-02 0. -1.
    10030    2    1    2    0    0  0.00000000000E+00  0.00000000000E+00 -0.28983851642E+02  0.80102401936E+03  0.80049947904E+03 0.  0.
        2    1    3    3  502    0  0.12832785089E+03 -0.71076768778E+02 -0.38713346093E+03  0.41399548422E+03  0.25500000920E-02 0. -1.
       -2    1    3    3    0  502 -0.12832785089E+03  0.71076768778E+02  0.35814960929E+03  0.38702853514E+03  0.25500000920E-02 0.  1.
</event>
<event>
 5   0  0.6557679E-03  0.8017849E+03  0.7818609E-02  0.9557437E-01
        1   -1    0    0  501    0  0.00000000000E+00  0.00000000000E+00  0.46126944438E+03  0.46126944440E+03  0.50400001928E-02 0.  1.
       -1   -1    0    0    0  501  0.00000000000E+00  0.00000000000E+00 -0.34841835877E+03  0.34841835880E+03  0.50400001928E-02 0. -1.
    10030    2    1    2    0    0  0.00000000000E+00  0.00000000000E+00  0.11285108561E+03  0.80968780321E+03  0.80178486587E+03 0.  0.
        1    1    3    3  502    0  0.16973861962E+03  0.28107780172E+03 -0.17583888818E+03  0.37247180327E+03  0.50400001928E-02 0. -1.
       -1    1    3    3    0  502 -0.16973861962E+03 -0.28107780172E+03  0.28868997379E+03  0.43721599994E+03  0.50400001928E-02 0.  1.
</event>
<event>
 5   0  0.1121480E-02  0.8007399E+03  0.7818609E-02  0.9558947E-01
        2   -1    0    0  501    0  0.00000000000E+00  0.00000000000E+00  0.11621862333E+04  0.11621862333E+04  0.25500000920E-02 0. -1.
       -2   -1    0    0    0  501  0.00000000000E+00  0.00000000000E+00 -0.13792634874E+03  0.13792634876E+03  0.25500000920E-02 0.  1.
    10030    2    1    2    0    0  0.00000000000E+00  0.00000000000E+00  0.10242598845E+04  0.13001125820E+04  0.80073991715E+03 0.  0.
        2    1    3    3  502    0 -0.13443411971E+03 -0.37272824791E+03  0.60536167045E+03  0.72350648331E+03  0.25500000920E-02 0. -1.
       -2    1    3    3    0  502  0.13443411971E+03  0.37272824791E+03  0.41889821408E+03  0.57660609873E+03  0.25500000920E-02 0.  1.
</event>
<event>
 5   0  0.6517392E-03  0.8090590E+03  0.7818609E-02  0.9546996E-01
        1   -1    0    0  501    0  0.00000000000E+00  0.00000000000E+00  0.28869557953E+03  0.28869557957E+03  0.50400001928E-02 0. -1.
       -1   -1    0    0    0  501  0.00000000000E+00  0.00000000000E+00 -0.56683966898E+03  0.56683966901E+03  0.50400001928E-02 0.  1.
    10030    2    1    2    0    0  0.00000000000E+00  0.00000000000E+00 -0.27814408946E+03  0.85553524858E+03  0.80905897626E+03 0.  0.
        3    1    3    3  502    0  0.18805645297E+03 -0.17323492130E+03 -0.47055786420E+03  0.53553737612E+03  0.10100000352E+00 0.  1.
       -3    1    3    3    0  502 -0.18805645297E+03  0.17323492130E+03  0.19241377474E+03  0.31999787246E+03  0.10100000352E+00 0. -1.
</event>
<event>
 5   0  0.1119792E-02  0.8984257E+03  0.7818609E-02  0.9427552E-01
       -2   -1    0    0    0  501  0.00000000000E+00  0.00000000000E+00  0.33086085977E+03  0.33086085978E+03  0.25500000920E-02 0. -1.
        2   -1    0    0  501    0  0.00000000000E+00  0.00000000000E+00 -0.60990045752E+03  0.60990045752E+03  0.25500000920E-02 0.  1.
    10030    2    1    2    0    0  0.00000000000E+00  0.00000000000E+00 -0.27903959775E+03  0.94076131730E+03  0.89842571146E+03 0.  0.
        4    1    3    3  502    0  0.15582467348E+03 -0.57089429824E+02 -0.57662274006E+03  0.60002994019E+03  0.12699999809E+01 0.  1.
       -4    1    3    3    0  502 -0.15582467348E+03  0.57089429824E+02  0.29758314231E+03  0.34073137711E+03  0.12699999809E+01 0. -1.
</event>
<event>
 5   0  0.1092868E-02  0.7972835E+03  0.7818609E-02  0.9563958E-01
       -2   -1    0    0    0  501  0.00000000000E+00  0.00000000000E+00  0.11972183012E+03  0.11972183015E+03  0.25500000920E-02 0.  1.
        2   -1    0    0  501    0  0.00000000000E+00  0.00000000000E+00 -0.13273705050E+04  0.13273705050E+04  0.25500000920E-02 0. -1.
    10030    2    1    2    0    0  0.00000000000E+00  0.00000000000E+00 -0.12076486749E+04  0.14470923352E+04  0.79728345307E+03 0.  0.
        3    1    3    3  502    0  0.42492293386E+02  0.22021445947E+03 -0.56485622578E+01  0.22434776490E+03  0.10100000352E+00 0.  1.
       -3    1    3    3    0  502 -0.42492293386E+02 -0.22021445947E+03 -0.12020001126E+04  0.12227445703E+04  0.10100000352E+00 0. -1.
</event>
<event>
 5   0  0.1154714E-02  0.7978375E+03  0.7818609E-02  0.9563153E-01
       -2   -1    0    0    0  501  0.00000000000E+00  0.00000000000E+00  0.83584764780E+02  0.83584764819E+02  0.25500000920E-02 0. -1.
        2   -1    0    0  501    0  0.00000000000E+00  0.00000000000E+00 -0.19038895829E+04  0.19038895829E+04  0.25500000920E-02 0.  1.
    10030    2    1    2    0    0  0.00000000000E+00  0.00000000000E+00 -0.18203048181E+04  0.19874743477E+04  0.79783748468E+03 0.  0.
        5    1    3    3  502    0 -0.60743061051E+01 -0.19258952807E+03 -0.17801997630E+04  0.17906035043E+04  0.46999998093E+01 0.  1.
       -5    1    3    3    0  502  0.60743061051E+01  0.19258952807E+03 -0.40105055064E+02  0.19687084334E+03  0.46999998093E+01 0. -1.
</event>
<event>
 5   0  0.6551489E-03  0.8013994E+03  0.7818609E-02  0.9557994E-01
       -1   -1    0    0    0  501  0.00000000000E+00  0.00000000000E+00  0.11100247492E+03  0.11100247504E+03  0.50400001928E-02 0.  1.
        1   -1    0    0  501    0  0.00000000000E+00  0.00000000000E+00 -0.14464565469E+04  0.14464565469E+04  0.50400001928E-02 0. -1.
    10030    2    1    2    0    0  0.00000000000E+00  0.00000000000E+00 -0.13354540720E+04  0.15574590220E+04  0.80139941770E+03 0.  0.
        4    1    3    3  502    0  0.17428967561E+03 -0.33470339732E+03 -0.92958776975E+03  0.10032638186E+04  0.12699999809E+01 0.  1.
       -4    1    3    3    0  502 -0.17428967561E+03  0.33470339732E+03 -0.40586630226E+03  0.55419520335E+03  0.12699999809E+01 0. -1.
</event>
<event>
 5   0  0.6557679E-03  0.8008293E+03  0.7818609E-02  0.9558818E-01
        1   -1    0    0  501    0  0.00000000000E+00  0.00000000000E+00  0.17285409118E+04  0.17285409118E+04  0.50400001928E-02 0. -1.
       -1   -1    0    0    0  501  0.00000000000E+00  0.00000000000E+00 -0.92755616084E+02  0.92755616221E+02  0.50400001928E-02 0.  1.
    10030    2    1    2    0    0  0.00000000000E+00  0.00000000000E+00  0.16357852957E+04  0.18212965280E+04  0.80082926352E+03 0.  0.
        1    1    3    3  502    0 -0.32703620989E+03 -0.19823089255E+03  0.54799491863E+03  0.66824142360E+03  0.50400001928E-02 0. -1.
       -1    1    3    3    0  502  0.32703620989E+03  0.19823089255E+03  0.10877903770E+04  0.11530551044E+04  0.50400001928E-02 0.  1.
</event>
<event>
 5   0  0.6596225E-03  0.7995131E+03  0.7818609E-02  0.9560722E-01
        1   -1    0    0  501    0  0.00000000000E+00  0.00000000000E+00  0.13521498501E+04  0.13521498501E+04  0.50400001928E-02 0. -1.
       -1   -1    0    0    0  501  0.00000000000E+00  0.00000000000E+00 -0.11818609391E+03  0.11818609402E+03  0.50400001928E-02 0.  1.
    10030    2    1    2    0    0  0.00000000000E+00  0.00000000000E+00  0.12339637561E+04  0.14703359441E+04  0.79951312495E+03 0.  0.
        5    1    3    3  502    0 -0.33796122928E+03 -0.22906287194E+02  0.10072775012E+04  0.10627194102E+04  0.46999998093E+01 0. -1.
       -5    1    3    3    0  502  0.33796122928E+03  0.22906287194E+02  0.22668625499E+03  0.40761653388E+03  0.46999998093E+01 0.  1.
</event>
<event>
 5   0  0.1119792E-02  0.7994191E+03  0.7818609E-02  0.9560858E-01
       -2   -1    0    0    0  501  0.00000000000E+00  0.00000000000E+00  0.20108633248E+03  0.20108633250E+03  0.25500000920E-02 0.  1.
        2   -1    0    0  501    0  0.00000000000E+00  0.00000000000E+00 -0.79452303815E+03  0.79452303815E+03  0.25500000920E-02 0. -1.
    10030    2    1    2    0    0  0.00000000000E+00  0.00000000000E+00 -0.59343670566E+03  0.99560937065E+03  0.79941909866E+03 0.  0.
        4    1    3    3  502    0 -0.34341538397E+03 -0.20105018526E+03 -0.34349708100E+03  0.52568732199E+03  0.12699999809E+01 0.  1.
       -4    1    3    3    0  502  0.34341538397E+03  0.20105018526E+03 -0.24993962466E+03  0.46992204866E+03  0.12699999809E+01 0. -1.
</event>
<event>
 5   0  0.1106332E-02  0.7967355E+03  0.7818609E-02  0.9564754E-01
        2   -1    0    0  501    0  0.00000000000E+00  0.00000000000E+00  0.13382977007E+04  0.13382977007E+04  0.25500000920E-02 0. -1.
       -2   -1    0    0    0  501  0.00000000000E+00  0.00000000000E+00 -0.11858115012E+03  0.11858115015E+03  0.25500000920E-02 0.  1.
    10030    2    1    2    0    0  0.00000000000E+00  0.00000000000E+00  0.12197165506E+04  0.14568788509E+04  0.79673554102E+03 0.  0.
        1    1    3    3  502    0  0.23617369813E+03  0.32063390420E+03  0.62927585726E+03  0.74469605932E+03  0.50400001928E-02 0. -1.
       -1    1    3    3    0  502 -0.23617369813E+03 -0.32063390420E+03  0.59044069335E+03  0.71218279156E+03  0.50400001928E-02 0.  1.
</event>
<event>
 5   0  0.1154714E-02  0.7718126E+03  0.7818609E-02  0.9601738E-01
       -2   -1    0    0    0  501  0.00000000000E+00  0.00000000000E+00  0.62122499327E+02  0.62122499379E+02  0.25500000920E-02 0. -1.
        2   -1    0    0  501    0  0.00000000000E+00  0.00000000000E+00 -0.23972584966E+04  0.23972584966E+04  0.25500000920E-02 0.  1.
    10030    2    1    2    0    0  0.00000000000E+00  0.00000000000E+00 -0.23351359973E+04  0.24593809960E+04  0.77181264412E+03 0.  0.
        5    1    3    3  502    0  0.17894949140E+03 -0.21407909881E+03 -0.20169290728E+04  0.20361428623E+04  0.46999998093E+01 0.  1.
       -5    1    3    3    0  502 -0.17894949140E+03  0.21407909881E+03 -0.31820692449E+03  0.42323813370E+03  0.46999998093E+01 0. -1.
</event>
<event>
 5   0  0.1119792E-02  0.8107665E+03  0.7818609E-02  0.9544562E-01
        2   -1    0    0  501    0  0.00000000000E+00  0.00000000000E+00  0.25133761952E+03  0.25133761954E+03  0.25500000920E-02 0.  1.
       -2   -1    0    0    0  501  0.00000000000E+00  0.00000000000E+00 -0.65384394136E+03  0.65384394136E+03  0.25500000920E-02 0. -1.
    10030    2    1    2    0    0  0.00000000000E+00  0.00000000000E+00 -0.40250632183E+03  0.90518156090E+03  0.81076650096E+03 0.  0.
        4    1    3    3  502    0 -0.24669542350E+03 -0.29749392378E+03 -0.64640809489E+02  0.39184348127E+03  0.12699999809E+01 0.  1.
       -4    1    3    3    0  502  0.24669542350E+03  0.29749392378E+03 -0.33786551235E+03  0.51333807963E+03  0.12699999809E+01 0. -1.
</event>
<event>
 5   0  0.1121480E-02  0.8065787E+03  0.7818609E-02  0.9550543E-01
       -2   -1    0    0    0  501  0.00000000000E+00  0.00000000000E+00  0.30930728835E+03  0.30930728836E+03  0.25500000920E-02 0. -1.
        2   -1    0    0  501    0  0.00000000000E+00  0.00000000000E+00 -0.52582756446E+03  0.52582756447E+03  0.25500000920E-02 0.  1.
    10030    2    1    2    0    0  0.00000000000E+00  0.00000000000E+00 -0.21652027611E+03  0.83513485282E+03  0.80657869575E+03 0.  0.
        2    1    3    3  502    0  0.14678406572E+03 -0.33231342980E+03  0.73052447472E+02  0.37055962767E+03  0.25500000920E-02 0. -1.
       -2    1    3    3    0  502 -0.14678406572E+03  0.33231342980E+03 -0.28957272359E+03  0.46457522515E+03  0.25500000920E-02 0.  1.
</event>
<event>
 5   0  0.1154714E-02  0.8044593E+03  0.7818609E-02  0.9553585E-01
        2   -1    0    0  501    0  0.00000000000E+00  0.00000000000E+00  0.47869037058E+03  0.47869037058E+03  0.25500000920E-02 0. -1.
       -2   -1    0    0    0  501  0.00000000000E+00  0.00000000000E+00 -0.33798192777E+03  0.33798192778E+03  0.25500000920E-02 0.  1.
    10030    2    1    2    0    0  0.00000000000E+00  0.00000000000E+00  0.14070844281E+03  0.81667229836E+03  0.80445930726E+03 0.  0.
        5    1    3    3  502    0  0.33092005555E+03  0.17621768044E+03  0.21818728886E+03  0.43380702747E+03  0.46999998093E+01 0. -1.
       -5    1    3    3    0  502 -0.33092005555E+03 -0.17621768044E+03 -0.77478846047E+02  0.38286527089E+03  0.46999998093E+01 0.  1.
</event>
<event>
 5   0  0.1154714E-02  0.7927633E+03  0.7818609E-02  0.9570551E-01
       -2   -1    0    0    0  501  0.00000000000E+00  0.00000000000E+00  0.24259775993E+03  0.24259775994E+03  0.25500000920E-02 0.  1.
        2   -1    0    0  501    0  0.00000000000E+00  0.00000000000E+00 -0.64764984443E+03  0.64764984443E+03  0.25500000920E-02 0. -1.
    10030    2    1    2    0    0  0.00000000000E+00  0.00000000000E+00 -0.40505208450E+03  0.89024760438E+03  0.79276327232E+03 0.  0.
        5    1    3    3  502    0 -0.19675428508E+03 -0.19416933709E+03 -0.52150094330E+03  0.59025359298E+03  0.46999998093E+01 0. -1.
       -5    1    3    3    0  502  0.19675428508E+03  0.19416933709E+03  0.11644885880E+03  0.29999401140E+03  0.46999998093E+01 0.  1.
</event>
<event>
 5   0  0.6600401E-03  0.8189727E+03  0.7818609E-02  0.9532954E-01
        1   -1    0    0  501    0  0.00000000000E+00  0.00000000000E+00  0.35510922035E+03  0.35510922038E+03  0.50400001928E-02 0. -1.
       -1   -1    0    0    0  501  0.00000000000E+00  0.00000000000E+00 -0.47219015324E+03  0.47219015326E+03  0.50400001928E-02 0.  1.
    10030    2    1    2    0    0  0.00000000000E+00  0.00000000000E+00 -0.11708093289E+03  0.82729937365E+03  0.81897271554E+03 0.  0.
        2    1    3    3  502    0  0.34699185881E+02  0.34675403580E+03 -0.27575385685E+03  0.44439012637E+03  0.25500000920E-02 0. -1.
       -2    1    3    3    0  502 -0.34699185881E+02 -0.34675403580E+03  0.15867292397E+03  0.38290924727E+03  0.25500000920E-02 0.  1.
</event>
<event>
 5   0  0.6600401E-03  0.8008562E+03  0.7818609E-02  0.9558779E-01
       -1   -1    0    0    0  501  0.00000000000E+00  0.00000000000E+00  0.18246565475E+03  0.18246565482E+03  0.50400001928E-02 0.  1.
        1   -1    0    0  501    0  0.00000000000E+00  0.00000000000E+00 -0.87875523910E+03  0.87875523911E+03  0.50400001928E-02 0. -1.
    10030    2    1    2    0    0  0.00000000000E+00  0.00000000000E+00 -0.69628958435E+03  0.10612208939E+04  0.80085616714E+03 0.  0.
        2    1    3    3  502    0  0.21156381986E+03  0.33213355392E+03 -0.25194247710E+03  0.46749006330E+03  0.25500000920E-02 0. -1.
       -2    1    3    3    0  502 -0.21156381986E+03 -0.33213355392E+03 -0.44434710725E+03  0.59373083063E+03  0.25500000920E-02 0.  1.
</event>
<event>
 5   0  0.4385875E-03  0.7988472E+03  0.7818609E-02  0.9561687E-01
       -4   -1    0    0    0  501  0.00000000000E+00  0.00000000000E+00  0.38313832997E+03  0.38314043482E+03  0.12699999809E+01 0.  1.
        4   -1    0    0  501    0  0.00000000000E+00  0.00000000000E+00 -0.41639684835E+03  0.41639878508E+03  0.12699999809E+01 0. -1.
    10030    2    1    2    0    0  0.00000000000E+00  0.00000000000E+00 -0.33258518378E+02  0.79953921990E+03  0.79884719134E+03 0.  0.
        1    1    3    3  502    0  0.13054781394E+03 -0.68675150457E+02 -0.38813836770E+03  0.41522331404E+03  0.50400001928E-02 0. -1.
       -1    1    3    3    0  502 -0.13054781394E+03  0.68675150457E+02  0.35487984933E+03  0.38431590586E+03  0.50400001928E-02 0.  1.
</event>
<event>
 5   0  0.6517392E-03  0.8004384E+03  0.7818609E-02  0.9559383E-01
        1   -1    0    0  501    0  0.00000000000E+00  0.00000000000E+00  0.13750480723E+04  0.13750480723E+04  0.50400001928E-02 0. -1.
       -1   -1    0    0    0  501  0.00000000000E+00  0.00000000000E+00 -0.11648714162E+03  0.11648714173E+03  0.50400001928E-02 0.  1.
    10030    2    1    2    0    0  0.00000000000E+00  0.00000000000E+00  0.12585609307E+04  0.14915352140E+04  0.80043842890E+03 0.  0.
        3    1    3    3  502    0  0.16959502156E+03  0.32841848995E+03  0.34329756342E+03  0.50445456002E+03  0.10100000352E+00 0.  1.
       -3    1    3    3    0  502 -0.16959502156E+03 -0.32841848995E+03  0.91526336724E+03  0.98708065400E+03  0.10100000352E+00 0. -1.
</event>
<event>
 5   0  0.1092868E-02  0.7988686E+03  0.7818609E-02  0.9561656E-01
        2   -1    0    0  501    0  0.00000000000E+00  0.00000000000E+00  0.37814388827E+03  0.37814388828E+03  0.25500000920E-02 0.  1.
       -2   -1    0    0    0  501  0.00000000000E+00  0.00000000000E+00 -0.42192344781E+03  0.42192344782E+03  0.25500000920E-02 0. -1.
    10030    2    1    2    0    0  0.00000000000E+00  0.00000000000E+00 -0.43779559540E+02  0.80006733609E+03  0.79886863278E+03 0.  0.
        3    1    3    3  502    0  0.28003831313E+03  0.26792150282E+03 -0.11870113212E+03  0.40533117011E+03  0.10100000352E+00 0. -1.
       -3    1    3    3    0  502 -0.28003831313E+03 -0.26792150282E+03  0.74921572583E+02  0.39473616598E+03  0.10100000352E+00 0.  1.
</event>
<event>
 5   0  0.6557679E-03  0.7993768E+03  0.7818609E-02  0.9560920E-01
       -1   -1    0    0    0  501  0.00000000000E+00  0.00000000000E+00  0.55277021663E+03  0.55277021666E+03  0.50400001928E-02 0.  1.
        1   -1    0    0  501    0  0.00000000000E+00  0.00000000000E+00 -0.28900041295E+03  0.28900041300E+03  0.50400001928E-02 0. -1.
    10030    2    1    2    0    0  0.00000000000E+00  0.00000000000E+00  0.26376980368E+03  0.84177062966E+03  0.79937680953E+03 0.  0.
        1    1    3    3  502    0  0.73190250904E+02 -0.21118237932E+03 -0.21704284350E+03  0.31154840090E+03  0.50400001928E-02 0. -1.
       -1    1    3    3    0  502 -0.73190250904E+02  0.21118237932E+03  0.48081264718E+03  0.53022222876E+03  0.50400001928E-02 0.  1.
</event>
<event>
 5   0  0.6600401E-03  0.7870013E+03  0.7818609E-02  0.9579025E-01
       -1   -1    0    0    0  501  0.00000000000E+00  0.00000000000E+00  0.16875791615E+03  0.16875791622E+03  0.50400001928E-02 0.  1.
        1   -1    0    0  501    0  0.00000000000E+00  0.00000000000E+00 -0.91754366365E+03  0.91754366366E+03  0.50400001928E-02 0. -1.
    10030    2    1    2    0    0  0.00000000000E+00  0.00000000000E+00 -0.74878574750E+03  0.10863015799E+04  0.78700128767E+03 0.  0.
        2    1    3    3  502    0  0.14703129720E+03 -0.11432637215E+03  0.10406548708E+03  0.21335029255E+03  0.25500000920E-02 0.  1.
       -2    1    3    3    0  502 -0.14703129720E+03  0.11432637215E+03 -0.85285123458E+03  0.87295128733E+03  0.25500000920E-02 0. -1.
</event>
<event>
 5   0  0.6596225E-03  0.7970405E+03  0.7818609E-02  0.9564311E-01
        1   -1    0    0  501    0  0.00000000000E+00  0.00000000000E+00  0.36178502404E+03  0.36178502407E+03  0.50400001928E-02 0. -1.
       -1   -1    0    0    0  501  0.00000000000E+00  0.00000000000E+00 -0.43898557656E+03  0.43898557659E+03  0.50400001928E-02 0.  1.
    10030    2    1    2    0    0  0.00000000000E+00  0.00000000000E+00 -0.77200552525E+02  0.80077060066E+03  0.79704054450E+03 0.  0.
        5    1    3    3  502    0 -0.20968955795E+03 -0.28274412764E+03  0.14904198891E+03  0.38229511753E+03  0.46999998093E+01 0. -1.
       -5    1    3    3    0  502  0.20968955795E+03  0.28274412764E+03 -0.22624254144E+03  0.41847548313E+03  0.46999998093E+01 0.  1.
</event>
<event>
 5   0  0.1121480E-02  0.7923881E+03  0.7818609E-02  0.9571101E-01
        2   -1    0    0  501    0  0.00000000000E+00  0.00000000000E+00  0.86069190579E+03  0.86069190579E+03  0.25500000920E-02 0.  1.
       -2   -1    0    0    0  501  0.00000000000E+00  0.00000000000E+00 -0.18237620155E+03  0.18237620157E+03  0.25500000920E-02 0. -1.
    10030    2    1    2    0    0  0.00000000000E+00  0.00000000000E+00  0.67831570423E+03  0.10430681074E+04  0.79238808799E+03 0.  0.
        2    1    3    3  502    0 -0.39270820924E+03 -0.39736176008E+02  0.38420390452E+03  0.55082786925E+03  0.25500000920E-02 0. -1.
       -2    1    3    3    0  502  0.39270820924E+03  0.39736176008E+02  0.29411179971E+03  0.49224023812E+03  0.25500000920E-02 0.  1.
</event>
<event>
 5   0  0.1119792E-02  0.7959884E+03  0.7818609E-02  0.9565842E-01
       -2   -1    0    0    0  501  0.00000000000E+00  0.00000000000E+00  0.35937255586E+03  0.35937255587E+03  0.25500000920E-02 0. -1.
        2   -1    0    0  501    0  0.00000000000E+00  0.00000000000E+00 -0.44076653740E+03  0.44076653741E+03  0.25500000920E-02 0.  1.
    10030    2    1    2    0    0  0.00000000000E+00  0.00000000000E+00 -0.81393981538E+02  0.80013909327E+03  0.79598843481E+03 0.  0.
        4    1    3    3  502    0  0.38975549057E+03 -0.55743517560E+02  0.17753460580E+02  0.39412368673E+03  0.12699999809E+01 0.  1.
       -4    1    3    3    0  502 -0.38975549057E+03  0.55743517560E+02 -0.99147442119E+02  0.40601540655E+03  0.12699999809E+01 0. -1.
</event>
<event>
 5   0  0.6517392E-03  0.8076045E+03  0.7818609E-02  0.9549075E-01
        1   -1    0    0  501    0  0.00000000000E+00  0.00000000000E+00  0.14497606035E+04  0.14497606036E+04  0.50400001928E-02 0. -1.
       -1   -1    0    0    0  501  0.00000000000E+00  0.00000000000E+00 -0.11247116099E+03  0.11247116110E+03  0.50400001928E-02 0.  1.
    10030    2    1    2    0    0  0.00000000000E+00  0.00000000000E+00  0.13372894426E+04  0.15622317647E+04  0.80760450304E+03 0.  0.
        3    1    3    3  502    0 -0.29232699448E+02  0.39749946090E+03  0.54334270630E+03  0.67385582940E+03  0.10100000352E+00 0. -1.
       -3    1    3    3    0  502  0.29232699448E+02 -0.39749946090E+03  0.79394673626E+03  0.88837593526E+03  0.10100000352E+00 0.  1.
</event>
<event>
 5   0  0.1121480E-02  0.8087789E+03  0.7818609E-02  0.9547396E-01
       -2   -1    0    0    0  501  0.00000000000E+00  0.00000000000E+00  0.34197057274E+03  0.34197057275E+03  0.25500000920E-02 0. -1.
        2   -1    0    0  501    0  0.00000000000E+00  0.00000000000E+00 -0.47820142832E+03  0.47820142833E+03  0.25500000920E-02 0.  1.
    10030    2    1    2    0    0  0.00000000000E+00  0.00000000000E+00 -0.13623085558E+03  0.82017200108E+03  0.80877887296E+03 0.  0.
        2    1    3    3  502    0  0.61160745410E+02  0.61442911071E+01 -0.47343621178E+03  0.47740992420E+03  0.25500000920E-02 0.  1.
       -2    1    3    3    0  502 -0.61160745410E+02 -0.61442911071E+01  0.33720535620E+03  0.34276207688E+03  0.25500000920E-02 0. -1.
</event>
<event>
 5   0  0.6596225E-03  0.8057766E+03  0.7818609E-02  0.9551693E-01
       -1   -1    0    0    0  501  0.00000000000E+00  0.00000000000E+00  0.11843052735E+03  0.11843052746E+03  0.50400001928E-02 0. -1.
        1   -1    0    0  501    0  0.00000000000E+00  0.00000000000E+00 -0.13705839508E+04  0.13705839508E+04  0.50400001928E-02 0.  1.
    10030    2    1    2    0    0  0.00000000000E+00  0.00000000000E+00 -0.12521534235E+04  0.14890144783E+04  0.80577659476E+03 0.  0.
        5    1    3    3  502    0 -0.23932786998E+03  0.19155507526E+03 -0.14304420174E+03  0.33831185296E+03  0.46999998093E+01 0. -1.
       -5    1    3    3    0  502  0.23932786998E+03 -0.19155507526E+03 -0.11091092217E+04  0.11507026253E+04  0.46999998093E+01 0.  1.
</event>
<event>
 5   0  0.4385875E-03  0.8083676E+03  0.7818609E-02  0.9547984E-01
        3   -1    0    0  501    0  0.00000000000E+00  0.00000000000E+00  0.23641322638E+03  0.23641324795E+03  0.10100000352E+00 0.  1.
       -3   -1    0    0    0  501  0.00000000000E+00  0.00000000000E+00 -0.69101265009E+03  0.69101265747E+03  0.10100000352E+00 0. -1.
    10030    2    1    2    0    0  0.00000000000E+00  0.00000000000E+00 -0.45459942371E+03  0.92742590543E+03  0.80836759832E+03 0.  0.
        2    1    3    3  502    0 -0.16103132845E+03  0.34118229609E+02  0.19621597297E+03  0.25611686862E+03  0.25500000920E-02 0.  1.
       -2    1    3    3    0  502  0.16103132845E+03 -0.34118229609E+02 -0.65081539669E+03  0.67130903681E+03  0.25500000920E-02 0. -1.
</event>
<event>
 5   0  0.6551489E-03  0.7896961E+03  0.7818609E-02  0.9575053E-01
        1   -1    0    0  501    0  0.00000000000E+00  0.00000000000E+00  0.71010487853E+03  0.71010487854E+03  0.50400001928E-02 0.  1.
       -1   -1    0    0    0  501  0.00000000000E+00  0.00000000000E+00 -0.21955202830E+03  0.21955202836E+03  0.50400001928E-02 0. -1.
    10030    2    1    2    0    0  0.00000000000E+00  0.00000000000E+00  0.49055285023E+03  0.92965690690E+03  0.78969605905E+03 0.  0.
        4    1    3    3  502    0  0.31028150419E+03 -0.24414809628E+03  0.23995293727E+03  0.46201940410E+03  0.12699999809E+01 0.  1.
       -4    1    3    3    0  502 -0.31028150419E+03  0.24414809628E+03  0.25059991296E+03  0.46763750281E+03  0.12699999809E+01 0. -1.
</event>
<event>
 5   0  0.6600401E-03  0.8020623E+03  0.7818609E-02  0.9557037E-01
       -1   -1    0    0    0  501  0.00000000000E+00  0.00000000000E+00  0.58511921169E+03  0.58511921171E+03  0.50400001928E-02 0. -1.
        1   -1    0    0  501    0  0.00000000000E+00  0.00000000000E+00 -0.27486022163E+03  0.27486022167E+03  0.50400001928E-02 0.  1.
    10030    2    1    2    0    0  0.00000000000E+00  0.00000000000E+00  0.31025899006E+03  0.85997943339E+03  0.80206233233E+03 0.  0.
        2    1    3    3  502    0 -0.38936787904E+03  0.90764881237E+02  0.18870161676E+03  0.44210169540E+03  0.25500000920E-02 0. -1.
       -2    1    3    3    0  502  0.38936787904E+03 -0.90764881237E+02  0.12155737330E+03  0.41787773799E+03  0.25500000920E-02 0.  1.
</event>
<event>
 5   0  0.6596225E-03  0.7960159E+03  0.7818609E-02  0.9565802E-01
       -1   -1    0    0    0  501  0.00000000000E+00  0.00000000000E+00  0.16298221468E+03  0.16298221476E+03  0.50400001928E-02 0.  1.
        1   -1    0    0  501    0  0.00000000000E+00  0.00000000000E+00 -0.97194867359E+03  0.97194867361E+03  0.50400001928E-02 0. -1.
    10030    2    1    2    0    0  0.00000000000E+00  0.00000000000E+00 -0.80896645891E+03  0.11349308884E+04  0.79601594816E+03 0.  0.
        5    1    3    3  502    0 -0.16660372349E+03 -0.31111130103E+03 -0.14219994021E+03  0.38051275314E+03  0.46999998093E+01 0.  1.
       -5    1    3    3    0  502  0.16660372349E+03  0.31111130103E+03 -0.66676651870E+03  0.75441813523E+03  0.46999998093E+01 0. -1.
</event>
<event>
 5   0  0.6557679E-03  0.8194551E+03  0.7818609E-02  0.9532276E-01
        1   -1    0    0  501    0  0.00000000000E+00  0.00000000000E+00  0.49759134483E+03  0.49759134486E+03  0.50400001928E-02 0.  1.
       -1   -1    0    0    0  501  0.00000000000E+00  0.00000000000E+00 -0.33737856893E+03  0.33737856896E+03  0.50400001928E-02 0. -1.
    10030    2    1    2    0    0  0.00000000000E+00  0.00000000000E+00  0.16021277591E+03  0.83496991382E+03  0.81945507712E+03 0.  0.
        1    1    3    3  502    0  0.71106608747E+02 -0.10578416996E+03 -0.31666336093E+03  0.34135337203E+03  0.50400001928E-02 0. -1.
       -1    1    3    3    0  502 -0.71106608747E+02  0.10578416996E+03  0.47687613683E+03  0.49361654179E+03  0.50400001928E-02 0.  1.
</event>
<event>
 5   0  0.1092868E-02  0.8021797E+03  0.7818609E-02  0.9556867E-01
       -2   -1    0    0    0  501  0.00000000000E+00  0.00000000000E+00  0.28242944066E+03  0.28242944067E+03  0.25500000920E-02 0. -1.
        2   -1    0    0  501    0  0.00000000000E+00  0.00000000000E+00 -0.56960440467E+03  0.56960440467E+03  0.25500000920E-02 0.  1.
    10030    2    1    2    0    0  0.00000000000E+00  0.00000000000E+00 -0.28717496401E+03  0.85203384534E+03  0.80217966420E+03 0.  0.
        3    1    3    3  502    0 -0.32096628864E+03  0.24028176956E+03 -0.13203220623E+03  0.42212225825E+03  0.10100000352E+00 0.  1.
       -3    1    3    3    0  502  0.32096628864E+03 -0.24028176956E+03 -0.15514275778E+03  0.42991158709E+03  0.10100000352E+00 0. -1.
</event>
<event>
 5   0  0.1092868E-02  0.7909152E+03  0.7818609E-02  0.9573261E-01
       -2   -1    0    0    0  501  0.00000000000E+00  0.00000000000E+00  0.52020438598E+03  0.52020438599E+03  0.25500000920E-02 0. -1.
        2   -1    0    0  501    0  0.00000000000E+00  0.00000000000E+00 -0.30062548559E+03  0.30062548560E+03  0.25500000920E-02 0.  1.
    10030    2    1    2    0    0  0.00000000000E+00  0.00000000000E+00  0.21957890039E+03  0.82082987159E+03  0.79091515639E+03 0.  0.
        3    1    3    3  502    0  0.17451019684E+02 -0.29085702290E+03 -0.16768864913E+03  0.33618720842E+03  0.10100000352E+00 0.  1.
       -3    1    3    3    0  502 -0.17451019684E+02  0.29085702290E+03  0.38726754952E+03  0.48464266317E+03  0.10100000352E+00 0. -1.
</event>
<event>
 5   0  0.6596225E-03  0.7102167E+03  0.7818609E-02  0.9699918E-01
       -1   -1    0    0    0  501  0.00000000000E+00  0.00000000000E+00  0.13894592377E+03  0.13894592386E+03  0.50400001928E-02 0. -1.
        1   -1    0    0  501    0  0.00000000000E+00  0.00000000000E+00 -0.90756140314E+03  0.90756140315E+03  0.50400001928E-02 0.  1.
    10030    2    1    2    0    0  0.00000000000E+00  0.00000000000E+00 -0.76861547937E+03  0.10465073270E+04  0.71021674886E+03 0.  0.
        5    1    3    3  502    0  0.65010676983E+02 -0.14498958283E+03  0.83588417233E+02  0.17960367687E+03  0.46999998093E+01 0. -1.
       -5    1    3    3    0  502 -0.65010676983E+02  0.14498958283E+03 -0.85220389660E+03  0.86690365015E+03  0.46999998093E+01 0.  1.
</event>
<event>
 5   0  0.6517392E-03  0.8001069E+03  0.7818609E-02  0.9559862E-01
       -1   -1    0    0    0  501  0.00000000000E+00  0.00000000000E+00  0.16940151534E+03  0.16940151542E+03  0.50400001928E-02 0. -1.
        1   -1    0    0  501    0  0.00000000000E+00  0.00000000000E+00 -0.94475405030E+03  0.94475405031E+03  0.50400001928E-02 0.  1.
    10030    2    1    2    0    0  0.00000000000E+00  0.00000000000E+00 -0.77535253496E+03  0.11141555657E+04  0.80010691235E+03 0.  0.
        3    1    3    3  502    0 -0.26877720169E+03  0.22598472160E+03 -0.65456050921E+03  0.74280532374E+03  0.10100000352E+00 0.  1.
       -3    1    3    3    0  502  0.26877720169E+03 -0.22598472160E+03 -0.12079202574E+03  0.37135024200E+03  0.10100000352E+00 0. -1.
</event>
<event>
 5   0  0.6517392E-03  0.7935940E+03  0.7818609E-02  0.9569336E-01
        1   -1    0    0  501    0  0.00000000000E+00  0.00000000000E+00  0.82760983056E+03  0.82760983058E+03  0.50400001928E-02 0. -1.
       -1   -1    0    0    0  501  0.00000000000E+00  0.00000000000E+00 -0.19024407492E+03  0.19024407499E+03  0.50400001928E-02 0.  1.
    10030    2    1    2    0    0  0.00000000000E+00  0.00000000000E+00  0.63736575564E+03  0.10178539056E+04  0.79359401876E+03 0.  0.
        3    1    3    3  502    0 -0.56028446769E+02 -0.93816386864E+02  0.80793107767E+03  0.81528727315E+03  0.10100000352E+00 0. -1.
       -3    1    3    3    0  502  0.56028446769E+02  0.93816386864E+02 -0.17056532203E+03  0.20256663242E+03  0.10100000352E+00 0.  1.
</event>
<event>
 5   0  0.1121480E-02  0.7943705E+03  0.7818609E-02  0.9568201E-01
        2   -1    0    0  501    0  0.00000000000E+00  0.00000000000E+00  0.82252486297E+03  0.82252486298E+03  0.25500000920E-02 0. -1.
       -2   -1    0    0    0  501  0.00000000000E+00  0.00000000000E+00 -0.19179496749E+03  0.19179496751E+03  0.25500000920E-02 0.  1.
    10030    2    1    2    0    0  0.00000000000E+00  0.00000000000E+00  0.63072989548E+03  0.10143198305E+04  0.79437051649E+03 0.  0.
        2    1    3    3  502    0 -0.31172802912E+03 -0.22541258674E+03  0.18914739017E+03  0.42867462441E+03  0.25500000920E-02 0. -1.
       -2    1    3    3    0  502  0.31172802912E+03  0.22541258674E+03  0.44158250531E+03  0.58564520608E+03  0.25500000920E-02 0.  1.
</event>
<event>
 5   0  0.1121480E-02  0.7968197E+03  0.7818609E-02  0.9564632E-01
       -2   -1    0    0    0  501  0.00000000000E+00  0.00000000000E+00  0.21015254882E+03  0.21015254883E+03  0.25500000920E-02 0.  1.
        2   -1    0    0  501    0  0.00000000000E+00  0.00000000000E+00 -0.75531034543E+03  0.75531034544E+03  0.25500000920E-02 0. -1.
    10030    2    1    2    0    0  0.00000000000E+00  0.00000000000E+00 -0.54515779662E+03  0.96546289427E+03  0.79681966404E+03 0.  0.
        2    1    3    3  502    0  0.19753833372E+03 -0.13620851033E+03 -0.65794356168E+03  0.70033126586E+03  0.25500000920E-02 0. -1.
       -2    1    3    3    0  502 -0.19753833372E+03  0.13620851033E+03  0.11278576506E+03  0.26513162841E+03  0.25500000920E-02 0.  1.
</event>
<event>
 5   0  0.6551489E-03  0.7940224E+03  0.7818609E-02  0.9568710E-01
        1   -1    0    0  501    0  0.00000000000E+00  0.00000000000E+00  0.40023260990E+03  0.40023260993E+03  0.50400001928E-02 0. -1.
       -1   -1    0    0    0  501  0.00000000000E+00  0.00000000000E+00 -0.39381574160E+03  0.39381574163E+03  0.50400001928E-02 0.  1.
    10030    2    1    2    0    0  0.00000000000E+00  0.00000000000E+00  0.64168682958E+01  0.79404835156E+03  0.79402242312E+03 0.  0.
        4    1    3    3  502    0  0.30538232733E+03  0.57542703395E+01  0.25684008200E+03  0.39907382537E+03  0.12699999809E+01 0. -1.
       -4    1    3    3    0  502 -0.30538232733E+03 -0.57542703395E+01 -0.25042321371E+03  0.39497452619E+03  0.12699999809E+01 0.  1.
</event>
<event>
 5   0  0.1106332E-02  0.8010831E+03  0.7818609E-02  0.9558451E-01
        2   -1    0    0  501    0  0.00000000000E+00  0.00000000000E+00  0.37367157587E+03  0.37367157588E+03  0.25500000920E-02 0.  1.
       -2   -1    0    0    0  501  0.00000000000E+00  0.00000000000E+00 -0.42934373048E+03  0.42934373049E+03  0.25500000920E-02 0. -1.
    10030    2    1    2    0    0  0.00000000000E+00  0.00000000000E+00 -0.55672154606E+02  0.80301530637E+03  0.80108313767E+03 0.  0.
        1    1    3    3  502    0 -0.23668170881E+02  0.11268671775E+03 -0.41239541250E+03  0.42816872252E+03  0.50400001928E-02 0. -1.
       -1    1    3    3    0  502  0.23668170881E+02 -0.11268671775E+03  0.35672325790E+03  0.37484658384E+03  0.50400001928E-02 0.  1.
</event>
<event>
 5   0  0.4385875E-03  0.7991348E+03  0.7818609E-02  0.9561270E-01
       -3   -1    0    0    0  501  0.00000000000E+00  0.00000000000E+00  0.30852969131E+03  0.30852970784E+03  0.10100000352E+00 0. -1.
        3   -1    0    0  501    0  0.00000000000E+00  0.00000000000E+00 -0.51746746426E+03  0.51746747412E+03  0.10100000352E+00 0.  1.
    10030    2    1    2    0    0  0.00000000000E+00  0.00000000000E+00 -0.20893777295E+03  0.82599718196E+03  0.79913475187E+03 0.  0.
        2    1    3    3  502    0  0.10474638396E+03 -0.51073347088E+02  0.29057441890E+03  0.31307153282E+03  0.25500000920E-02 0. -1.
       -2    1    3    3    0  502 -0.10474638396E+03  0.51073347088E+02 -0.49951219185E+03  0.51292564914E+03  0.25500000920E-02 0.  1.
</event>
<event>
 5   0  0.1154714E-02  0.8080696E+03  0.7818609E-02  0.9548410E-01
        2   -1    0    0  501    0  0.00000000000E+00  0.00000000000E+00  0.17528026741E+04  0.17528026741E+04  0.25500000920E-02 0.  1.
       -2   -1    0    0    0  501  0.00000000000E+00  0.00000000000E+00 -0.93133191003E+02  0.93133191038E+02  0.25500000920E-02 0. -1.
    10030    2    1    2    0    0  0.00000000000E+00  0.00000000000E+00  0.16596694831E+04  0.18459358652E+04  0.80806956700E+03 0.  0.
        5    1    3    3  502    0  0.57186837856E+02 -0.17047647659E+03  0.16562915903E+04  0.16660301575E+04  0.46999998093E+01 0.  1.
       -5    1    3    3    0  502 -0.57186837856E+02  0.17047647659E+03  0.33778927946E+01  0.17990570767E+03  0.46999998093E+01 0. -1.
</event>
<event>
 5   0  0.1154714E-02  0.7976148E+03  0.7818609E-02  0.9563476E-01
       -2   -1    0    0    0  501  0.00000000000E+00  0.00000000000E+00  0.41443122464E+03  0.41443122464E+03  0.25500000920E-02 0. -1.
        2   -1    0    0  501    0  0.00000000000E+00  0.00000000000E+00 -0.38377259961E+03  0.38377259962E+03  0.25500000920E-02 0.  1.
    10030    2    1    2    0    0  0.00000000000E+00  0.00000000000E+00  0.30658625030E+02  0.79820382426E+03  0.79761481542E+03 0.  0.
        5    1    3    3  502    0  0.39398774410E+03  0.43989724291E+02  0.58533176214E+02  0.40076135176E+03  0.46999998093E+01 0. -1.
       -5    1    3    3    0  502 -0.39398774410E+03 -0.43989724291E+02 -0.27874551184E+02  0.39744247250E+03  0.46999998093E+01 0.  1.
</event>
<event>
 5   0  0.4385875E-03  0.8701425E+03  0.7818609E-02  0.9463694E-01
       -3   -1    0    0    0  501  0.00000000000E+00  0.00000000000E+00  0.22756163618E+03  0.22756165859E+03  0.10100000352E+00 0. -1.
        3   -1    0    0  501    0  0.00000000000E+00  0.00000000000E+00 -0.83180530169E+03  0.83180530782E+03  0.10100000352E+00 0.  1.
    10030    2    1    2    0    0  0.00000000000E+00  0.00000000000E+00 -0.60424366551E+03  0.10593669664E+04  0.87014249535E+03 0.  0.
        3    1    3    3  502    0 -0.67422324064E+01  0.34604687297E+03  0.18820379160E+02  0.34662387809E+03  0.10100000352E+00 0. -1.
       -3    1    3    3    0  502  0.67422324064E+01 -0.34604687297E+03 -0.62306404467E+03  0.71274308833E+03  0.10100000352E+00 0.  1.
</event>
<event>
 5   0  0.1121480E-02  0.7885011E+03  0.7818609E-02  0.9576812E-01
        2   -1    0    0  501    0  0.00000000000E+00  0.00000000000E+00  0.18766835940E+04  0.18766835940E+04  0.25500000920E-02 0. -1.
       -2   -1    0    0    0  501  0.00000000000E+00  0.00000000000E+00 -0.82823504145E+02  0.82823504184E+02  0.25500000920E-02 0.  1.
    10030    2    1    2    0    0  0.00000000000E+00  0.00000000000E+00  0.17938600899E+04  0.19595070982E+04  0.78850113878E+03 0.  0.
        2    1    3    3  502    0  0.15599422101E+03  0.13233517036E+03  0.59384775384E+02  0.21301020130E+03  0.25500000920E-02 0.  1.
       -2    1    3    3    0  502 -0.15599422101E+03 -0.13233517036E+03  0.17344753145E+04  0.17464968969E+04  0.25500000920E-02 0. -1.
</event>
<event>
 5   0  0.6596225E-03  0.8158957E+03  0.7818609E-02  0.9537290E-01
        1   -1    0    0  501    0  0.00000000000E+00  0.00000000000E+00  0.12672011523E+03  0.12672011533E+03  0.50400001928E-02 0.  1.
       -1   -1    0    0    0  501  0.00000000000E+00  0.00000000000E+00 -0.13132993257E+04  0.13132993258E+04  0.50400001928E-02 0. -1.
    10030    2    1    2    0    0  0.00000000000E+00  0.00000000000E+00 -0.11865792105E+04  0.14400194411E+04  0.81589568444E+03 0.  0.
        5    1    3    3  502    0 -0.31533434208E+03  0.11886305139E+03 -0.99898054967E+03  0.10542999577E+04  0.46999998093E+01 0. -1.
       -5    1    3    3    0  502  0.31533434208E+03 -0.11886305139E+03 -0.18759866084E+03  0.38571948334E+03  0.46999998093E+01 0.  1.
</event>
<event>
 5   0  0.1092868E-02  0.8022533E+03  0.7818609E-02  0.9556761E-01
       -2   -1    0    0    0  501  0.00000000000E+00  0.00000000000E+00  0.53485040214E+03  0.53485040214E+03  0.25500000920E-02 0.  1.
        2   -1    0    0  501    0  0.00000000000E+00  0.00000000000E+00 -0.30083665026E+03  0.30083665027E+03  0.25500000920E-02 0. -1.
    10030    2    1    2    0    0  0.00000000000E+00  0.00000000000E+00  0.23401375187E+03  0.83568705242E+03  0.80225333499E+03 0.  0.
        3    1    3    3  502    0  0.17872962947E+03  0.25545358451E+03  0.37991737075E+03  0.49146519011E+03  0.10100000352E+00 0.  1.
       -3    1    3    3    0  502 -0.17872962947E+03 -0.25545358451E+03 -0.14590361888E+03  0.34422186231E+03  0.10100000352E+00 0. -1.
</event>
<event>
 5   0  0.6517392E-03  0.7988898E+03  0.7818609E-02  0.9561625E-01
       -1   -1    0    0    0  501  0.00000000000E+00  0.00000000000E+00  0.25635756450E+03  0.25635756455E+03  0.50400001928E-02 0.  1.
        1   -1    0    0  501    0  0.00000000000E+00  0.00000000000E+00 -0.62239724048E+03  0.62239724051E+03  0.50400001928E-02 0. -1.
    10030    2    1    2    0    0  0.00000000000E+00  0.00000000000E+00 -0.36603967599E+03  0.87875480505E+03  0.79888983158E+03 0.  0.
        3    1    3    3  502    0  0.49050053153E+02 -0.30276435392E+03  0.98460878291E+02  0.32212841613E+03  0.10100000352E+00 0. -1.
       -3    1    3    3    0  502 -0.49050053153E+02  0.30276435392E+03 -0.46450055428E+03  0.55662638893E+03  0.10100000352E+00 0.  1.
</event>
<event>
 5   0  0.1119792E-02  0.8221667E+03  0.7818609E-02  0.9528475E-01
        2   -1    0    0  501    0  0.00000000000E+00  0.00000000000E+00  0.36904428699E+03  0.36904428700E+03  0.25500000920E-02 0.  1.
       -2   -1    0    0    0  501  0.00000000000E+00  0.00000000000E+00 -0.45791119321E+03  0.45791119322E+03  0.25500000920E-02 0. -1.
    10030    2    1    2    0    0  0.00000000000E+00  0.00000000000E+00 -0.88866906218E+02  0.82695548022E+03  0.82216667364E+03 0.  0.
        4    1    3    3  502    0 -0.33508590523E+03 -0.23524752422E+03 -0.81580060659E+02  0.41746961654E+03  0.12699999809E+01 0.  1.
       -4    1    3    3    0  502  0.33508590523E+03  0.23524752422E+03 -0.72868455597E+01  0.40948586368E+03  0.12699999809E+01 0. -1.
</event>
<event>
 5   0  0.6600401E-03  0.7994879E+03  0.7818609E-02  0.9560759E-01
        1   -1    0    0  501    0  0.00000000000E+00  0.00000000000E+00  0.50971571560E+03  0.50971571562E+03  0.50400001928E-02 0.  1.
       -1   -1    0    0    0  501  0.00000000000E+00  0.00000000000E+00 -0.31349869298E+03  0.31349869302E+03  0.50400001928E-02 0. -1.
    10030    2    1    2    0    0  0.00000000000E+00  0.00000000000E+00  0.19621702262E+03  0.82321440864E+03  0.79948786272E+03 0.  0.
        2    1    3    3  502    0 -0.23698719387E+03 -0.11279249188E+03  0.40856964434E+03  0.48560707425E+03  0.25500000920E-02 0.  1.
       -2    1    3    3    0  502  0.23698719387E+03  0.11279249188E+03 -0.21235262172E+03  0.33760733439E+03  0.25500000920E-02 0. -1.
</event>
<event>
 5   0  0.6557679E-03  0.8260829E+03  0.7818609E-02  0.9523012E-01
       -1   -1    0    0    0  501  0.00000000000E+00  0.00000000000E+00  0.96677258555E+02  0.96677258687E+02  0.50400001928E-02 0. -1.
        1   -1    0    0  501    0  0.00000000000E+00  0.00000000000E+00 -0.17646675519E+04  0.17646675519E+04  0.50400001928E-02 0.  1.
    10030    2    1    2    0    0  0.00000000000E+00  0.00000000000E+00 -0.16679902933E+04  0.18613448106E+04  0.82608285615E+03 0.  0.
        1    1    3    3  502    0 -0.21555711465E+03  0.23801346178E+03 -0.24864420526E+03  0.40612709648E+03  0.50400001928E-02 0. -1.
       -1    1    3    3    0  502  0.21555711465E+03 -0.23801346178E+03 -0.14193460881E+04  0.14552177141E+04  0.50400001928E-02 0.  1.
</event>
<event>
 5   0  0.1154714E-02  0.7977787E+03  0.7818609E-02  0.9563238E-01
        2   -1    0    0  501    0  0.00000000000E+00  0.00000000000E+00  0.15990417082E+04  0.15990417082E+04  0.25500000920E-02 0.  1.
       -2   -1    0    0    0  501  0.00000000000E+00  0.00000000000E+00 -0.99505053356E+02  0.99505053388E+02  0.25500000920E-02 0. -1.
    10030    2    1    2    0    0  0.00000000000E+00  0.00000000000E+00  0.14995366548E+04  0.16985467616E+04  0.79777874256E+03 0.  0.
        5    1    3    3  502    0 -0.35084417867E+03  0.79587598339E+02  0.38306412712E+03  0.52553405123E+03  0.46999998093E+01 0. -1.
       -5    1    3    3    0  502  0.35084417867E+03 -0.79587598339E+02  0.11164725277E+04  0.11730127104E+04  0.46999998093E+01 0.  1.
</event>
<event>
 5   0  0.6596225E-03  0.7935495E+03  0.7818609E-02  0.9569401E-01
       -1   -1    0    0    0  501  0.00000000000E+00  0.00000000000E+00  0.45970883510E+03  0.45970883513E+03  0.50400001928E-02 0. -1.
        1   -1    0    0  501    0  0.00000000000E+00  0.00000000000E+00 -0.34245634223E+03  0.34245634227E+03  0.50400001928E-02 0.  1.
    10030    2    1    2    0    0  0.00000000000E+00  0.00000000000E+00  0.11725249287E+03  0.80216517740E+03  0.79354950995E+03 0.  0.
        5    1    3    3  502    0  0.31834929164E+03 -0.10143390253E+03  0.27489536211E+03  0.43269464773E+03  0.46999998093E+01 0. -1.
       -5    1    3    3    0  502 -0.31834929164E+03  0.10143390253E+03 -0.15764286923E+03  0.36947052966E+03  0.46999998093E+01 0.  1.
</event>
<event>
 5   0  0.1092868E-02  0.8001180E+03  0.7818609E-02  0.9559846E-01
        2   -1    0    0  501    0  0.00000000000E+00  0.00000000000E+00  0.44032253311E+03  0.44032253312E+03  0.25500000920E-02 0. -1.
       -2   -1    0    0    0  501  0.00000000000E+00  0.00000000000E+00 -0.36347716916E+03  0.36347716917E+03  0.25500000920E-02 0.  1.
    10030    2    1    2    0    0  0.00000000000E+00  0.00000000000E+00  0.76845363954E+02  0.80379970229E+03  0.80011796096E+03 0.  0.
        3    1    3    3  502    0 -0.31605452538E+03 -0.17711914822E+03 -0.13202098769E+03  0.38560498839E+03  0.10100000352E+00 0.  1.
       -3    1    3    3    0  502  0.31605452538E+03  0.17711914822E+03  0.20886635164E+03  0.41819471390E+03  0.10100000352E+00 0. -1.
</event>
<event>
 5   0  0.1106332E-02  0.7933654E+03  0.7818609E-02  0.9569670E-01
        2   -1    0    0  501    0  0.00000000000E+00  0.00000000000E+00  0.72227238930E+03  0.72227238931E+03  0.25500000920E-02 0.  1.
       -2   -1    0    0    0  501  0.00000000000E+00  0.00000000000E+00 -0.21786403742E+03  0.21786403744E+03  0.25500000920E-02 0. -1.
    10030    2    1    2    0    0  0.00000000000E+00  0.00000000000E+00  0.50440835188E+03  0.94013642674E+03  0.79336543625E+03 0.  0.
        1    1    3    3  502    0 -0.30861346477E+03  0.11880981658E+03  0.51182188471E+03  0.60936006174E+03  0.50400001928E-02 0.  1.
       -1    1    3    3    0  502  0.30861346477E+03 -0.11880981658E+03 -0.74135328289E+01  0.33077636500E+03  0.50400001928E-02 0. -1.
</event>
<event>
 5   0  0.6600401E-03  0.7917922E+03  0.7818609E-02  0.9571974E-01
       -1   -1    0    0    0  501  0.00000000000E+00  0.00000000000E+00  0.70304147555E+03  0.70304147557E+03  0.50400001928E-02 0.  1.
        1   -1    0    0  501    0  0.00000000000E+00  0.00000000000E+00 -0.22293664273E+03  0.22293664278E+03  0.50400001928E-02 0. -1.
    10030    2    1    2    0    0  0.00000000000E+00  0.00000000000E+00  0.48010483283E+03  0.92597811835E+03  0.79179216033E+03 0.  0.
        2    1    3    3  502    0  0.24065736658E+03 -0.31046261631E+03  0.18239497161E+03  0.43309459693E+03  0.25500000920E-02 0.  1.
       -2    1    3    3    0  502 -0.24065736658E+03  0.31046261631E+03  0.29770986122E+03  0.49288352142E+03  0.25500000920E-02 0. -1.
</event>
<event>
 5   0  0.6600401E-03  0.8078902E+03  0.7818609E-02  0.9548666E-01
       -1   -1    0    0    0  501  0.00000000000E+00  0.00000000000E+00  0.24423940655E+03  0.24423940660E+03  0.50400001928E-02 0. -1.
        1   -1    0    0  501    0  0.00000000000E+00  0.00000000000E+00 -0.66808078312E+03  0.66808078314E+03  0.50400001928E-02 0.  1.
    10030    2    1    2    0    0  0.00000000000E+00  0.00000000000E+00 -0.42384137658E+03  0.91232018974E+03  0.80789022529E+03 0.  0.
        2    1    3    3  502    0 -0.29364858946E+03  0.14270513168E+03 -0.48052714356E+03  0.58094800490E+03  0.25500000920E-02 0.  1.
       -2    1    3    3    0  502  0.29364858946E+03 -0.14270513168E+03  0.56685766982E+02  0.33137218484E+03  0.25500000920E-02 0. -1.
</event>
<event>
 5   0  0.1092868E-02  0.7931186E+03  0.7818609E-02  0.9570031E-01
        2   -1    0    0  501    0  0.00000000000E+00  0.00000000000E+00  0.23959964575E+04  0.23959964575E+04  0.25500000920E-02 0. -1.
       -2   -1    0    0    0  501  0.00000000000E+00  0.00000000000E+00 -0.65634185108E+02  0.65634185157E+02  0.25500000920E-02 0.  1.
    10030    2    1    2    0    0  0.00000000000E+00  0.00000000000E+00  0.23303622724E+04  0.24616306426E+04  0.79311859156E+03 0.  0.
        3    1    3    3  502    0  0.23561538908E+03 -0.50443106175E+02  0.21427354926E+04  0.21562408307E+04  0.10100000352E+00 0. -1.
       -3    1    3    3    0  502 -0.23561538908E+03  0.50443106175E+02  0.18762677972E+03  0.30538981188E+03  0.10100000352E+00 0.  1.
</event>
<event>
 5   0  0.1092868E-02  0.8008636E+03  0.7818609E-02  0.9558768E-01
       -2   -1    0    0    0  501  0.00000000000E+00  0.00000000000E+00  0.36619104325E+03  0.36619104326E+03  0.25500000920E-02 0. -1.
        2   -1    0    0  501    0  0.00000000000E+00  0.00000000000E+00 -0.43787424481E+03  0.43787424482E+03  0.25500000920E-02 0.  1.
    10030    2    1    2    0    0  0.00000000000E+00  0.00000000000E+00 -0.71683201561E+02  0.80406528807E+03  0.80086360018E+03 0.  0.
        3    1    3    3  502    0  0.37616258940E+03  0.29402304359E+02 -0.17047776921E+03  0.41403558925E+03  0.10100000352E+00 0.  1.
       -3    1    3    3    0  502 -0.37616258940E+03 -0.29402304359E+02  0.98794567648E+02  0.39002969883E+03  0.10100000352E+00 0. -1.
</event>
<event>
 5   0  0.6551489E-03  0.7954971E+03  0.7818609E-02  0.9566558E-01
       -1   -1    0    0    0  501  0.00000000000E+00  0.00000000000E+00  0.86941991932E+02  0.86941992078E+02  0.50400001928E-02 0.  1.
        1   -1    0    0  501    0  0.00000000000E+00  0.00000000000E+00 -0.18196488381E+04  0.18196488381E+04  0.50400001928E-02 0. -1.
    10030    2    1    2    0    0  0.00000000000E+00  0.00000000000E+00 -0.17327068462E+04  0.19065908302E+04  0.79549706410E+03 0.  0.
        4    1    3    3  502    0  0.12687798734E+03  0.25980954824E+03 -0.21172054662E+03  0.35836605279E+03  0.12699999809E+01 0.  1.
       -4    1    3    3    0  502 -0.12687798734E+03 -0.25980954824E+03 -0.15209862995E+04  0.15482247774E+04  0.12699999809E+01 0. -1.
</event>
<event>
 5   0  0.6551489E-03  0.7973835E+03  0.7818609E-02  0.9563812E-01
       -1   -1    0    0    0  501  0.00000000000E+00  0.00000000000E+00  0.15234772831E+03  0.15234772839E+03  0.50400001928E-02 0.  1.
        1   -1    0    0  501    0  0.00000000000E+00  0.00000000000E+00 -0.10433704909E+04  0.10433704909E+04  0.50400001928E-02 0. -1.
    10030    2    1    2    0    0  0.00000000000E+00  0.00000000000E+00 -0.89102276257E+03  0.11957182193E+04  0.79738353163E+03 0.  0.
        4    1    3    3  502    0  0.24890741662E+03 -0.30981889103E+03 -0.39783448917E+03  0.56233134446E+03  0.12699999809E+01 0. -1.
       -4    1    3    3    0  502 -0.24890741662E+03  0.30981889103E+03 -0.49318827341E+03  0.63338687484E+03  0.12699999809E+01 0.  1.
</event>
<event>
 5   0  0.6557679E-03  0.8190084E+03  0.7818609E-02  0.9532904E-01
       -1   -1    0    0    0  501  0.00000000000E+00  0.00000000000E+00  0.78194720461E+03  0.78194720463E+03  0.50400001928E-02 0. -1.
        1   -1    0    0  501    0  0.00000000000E+00  0.00000000000E+00 -0.21445653013E+03  0.21445653019E+03  0.50400001928E-02 0.  1.
    10030    2    1    2    0    0  0.00000000000E+00  0.00000000000E+00  0.56749067449E+03  0.99640373482E+03  0.81900838648E+03 0.  0.
        1    1    3    3  502    0 -0.24959383971E+02 -0.13120590929E+03  0.75470494837E+03  0.76643168032E+03  0.50400001928E-02 0. -1.
       -1    1    3    3    0  502  0.24959383971E+02  0.13120590929E+03 -0.18721427388E+03  0.22997205450E+03  0.50400001928E-02 0.  1.
</event>
<event>
 5   0  0.6557679E-03  0.8005379E+03  0.7818609E-02  0.9559239E-01
       -1   -1    0    0    0  501  0.00000000000E+00  0.00000000000E+00  0.14642438232E+03  0.14642438240E+03  0.50400001928E-02 0.  1.
        1   -1    0    0  501    0  0.00000000000E+00  0.00000000000E+00 -0.10941841648E+04  0.10941841648E+04  0.50400001928E-02 0. -1.
    10030    2    1    2    0    0  0.00000000000E+00  0.00000000000E+00 -0.94775978246E+03  0.12406085472E+04  0.80053792047E+03 0.  0.
        1    1    3    3  502    0 -0.14891001417E+03 -0.29447183748E+02  0.10008935298E+03  0.18182191165E+03  0.50400001928E-02 0.  1.
       -1    1    3    3    0  502  0.14891001417E+03  0.29447183748E+02 -0.10478491354E+04  0.10587866355E+04  0.50400001928E-02 0. -1.
</event>
<event>
 5   0  0.6600401E-03  0.7991080E+03  0.7818609E-02  0.9561309E-01
        1   -1    0    0  501    0  0.00000000000E+00  0.00000000000E+00  0.42327897657E+03  0.42327897660E+03  0.50400001928E-02 0.  1.
       -1   -1    0    0    0  501  0.00000000000E+00  0.00000000000E+00 -0.37715884638E+03  0.37715884641E+03  0.50400001928E-02 0. -1.
    10030    2    1    2    0    0  0.00000000000E+00  0.00000000000E+00  0.46120130190E+02  0.80043782301E+03  0.79910802905E+03 0.  0.
        2    1    3    3  502    0  0.11081815752E+03  0.20057960095E+03 -0.30479267370E+03  0.38132848609E+03  0.25500000920E-02 0. -1.
       -2    1    3    3    0  502 -0.11081815752E+03 -0.20057960095E+03  0.35091280389E+03  0.41910933692E+03  0.25500000920E-02 0.  1.
</event>
<event>
 5   0  0.6596225E-03  0.8030161E+03  0.7818609E-02  0.9555662E-01
       -1   -1    0    0    0  501  0.00000000000E+00  0.00000000000E+00  0.37586728831E+03  0.37586728834E+03  0.50400001928E-02 0.  1.
        1   -1    0    0  501    0  0.00000000000E+00  0.00000000000E+00 -0.42889795708E+03  0.42889795711E+03  0.50400001928E-02 0. -1.
    10030    2    1    2    0    0  0.00000000000E+00  0.00000000000E+00 -0.53030668768E+02  0.80476524545E+03  0.80301609477E+03 0.  0.
        5    1    3    3  502    0  0.37597672096E+03 -0.42897881481E+01 -0.16756893854E+03  0.41167746616E+03  0.46999998093E+01 0.  1.
       -5    1    3    3    0  502 -0.37597672096E+03  0.42897881481E+01  0.11453826977E+03  0.39308777929E+03  0.46999998093E+01 0. -1.
</event>
<event>
 5   0  0.4385875E-03  0.8037865E+03  0.7818609E-02  0.9554552E-01
        3   -1    0    0  501    0  0.00000000000E+00  0.00000000000E+00  0.80462764944E+03  0.80462765578E+03  0.10100000352E+00 0. -1.
       -3   -1    0    0    0  501  0.00000000000E+00  0.00000000000E+00 -0.20073652502E+03  0.20073655042E+03  0.10100000352E+00 0.  1.
    10030    2    1    2    0    0  0.00000000000E+00  0.00000000000E+00  0.60389112442E+03  0.10053642062E+04  0.80378647473E+03 0.  0.
        3    1    3    3  502    0  0.32107149250E+03  0.12963589711E+03  0.55713576388E+03  0.65596694940E+03  0.10100000352E+00 0. -1.
       -3    1    3    3    0  502 -0.32107149250E+03 -0.12963589711E+03  0.46755360540E+02  0.34939725679E+03  0.10100000352E+00 0.  1.
</event>
<event>
 5   0  0.6600401E-03  0.7973982E+03  0.7818609E-02  0.9563791E-01
        1   -1    0    0  501    0  0.00000000000E+00  0.00000000000E+00  0.47934384083E+03  0.47934384086E+03  0.50400001928E-02 0. -1.
       -1   -1    0    0    0  501  0.00000000000E+00  0.00000000000E+00 -0.33162201412E+03  0.33162201416E+03  0.50400001928E-02 0.  1.
    10030    2    1    2    0    0  0.00000000000E+00  0.00000000000E+00  0.14772182671E+03  0.81096585502E+03  0.79739819408E+03 0.  0.
        2    1    3    3  502    0  0.19927078866E+03  0.12158215731E+03 -0.25485665413E+03  0.34560524063E+03  0.25500000920E-02 0.  1.
       -2    1    3    3    0  502 -0.19927078866E+03 -0.12158215731E+03  0.40257848084E+03  0.46536061440E+03  0.25500000920E-02 0. -1.
</event>
<event>
 5   0  0.1106332E-02  0.7979948E+03  0.7818609E-02  0.9562924E-01
        2   -1    0    0  501    0  0.00000000000E+00  0.00000000000E+00  0.14696179248E+04  0.14696179248E+04  0.25500000920E-02 0.  1.
       -2   -1    0    0    0  501  0.00000000000E+00  0.00000000000E+00 -0.10832673243E+03  0.10832673246E+03  0.25500000920E-02 0. -1.
    10030    2    1    2    0    0  0.00000000000E+00  0.00000000000E+00  0.13612911923E+04  0.15779446572E+04  0.79799475622E+03 0.  0.
        1    1    3    3  502    0 -0.29792070236E+03 -0.63287892030E+02  0.11903238461E+04  0.12286712175E+04  0.50400001928E-02 0.  1.
       -1    1    3    3    0  502  0.29792070236E+03  0.63287892030E+02  0.17096734621E+03  0.34927343968E+03  0.50400001928E-02 0. -1.
</event>
<event>
 5   0  0.1106332E-02  0.7951544E+03  0.7818609E-02  0.9567057E-01
       -2   -1    0    0    0  501  0.00000000000E+00  0.00000000000E+00  0.29511316701E+03  0.29511316702E+03  0.25500000920E-02 0. -1.
        2   -1    0    0  501    0  0.00000000000E+00  0.00000000000E+00 -0.53561701405E+03  0.53561701405E+03  0.25500000920E-02 0.  1.
    10030    2    1    2    0    0  0.00000000000E+00  0.00000000000E+00 -0.24050384704E+03  0.83073018108E+03  0.79515440847E+03 0.  0.
        1    1    3    3  502    0  0.74610876608E+02 -0.39040192017E+03 -0.11049653308E+03  0.41254081741E+03  0.50400001928E-02 0. -1.
       -1    1    3    3    0  502 -0.74610876608E+02  0.39040192017E+03 -0.13000731396E+03  0.41818936367E+03  0.50400001928E-02 0.  1.
</event>
<event>
 5   0  0.1121480E-02  0.8259436E+03  0.7818609E-02  0.9523206E-01
        2   -1    0    0  501    0  0.00000000000E+00  0.00000000000E+00  0.59772414009E+03  0.59772414010E+03  0.25500000920E-02 0. -1.
       -2   -1    0    0    0  501  0.00000000000E+00  0.00000000000E+00 -0.28532511158E+03  0.28532511159E+03  0.25500000920E-02 0.  1.
    10030    2    1    2    0    0  0.00000000000E+00  0.00000000000E+00  0.31239902851E+03  0.88304925168E+03  0.82594359849E+03 0.  0.
        2    1    3    3  502    0  0.19794836055E+03  0.23356357638E+03 -0.14010891728E+03  0.33669868779E+03  0.25500000920E-02 0.  1.
       -2    1    3    3    0  502 -0.19794836055E+03 -0.23356357638E+03  0.45250794579E+03  0.54635056389E+03  0.25500000920E-02 0. -1.
</event>
<event>
 5   0  0.6551489E-03  0.7977236E+03  0.7818609E-02  0.9563318E-01
       -1   -1    0    0    0  501  0.00000000000E+00  0.00000000000E+00  0.36585302225E+03  0.36585302228E+03  0.50400001928E-02 0. -1.
        1   -1    0    0  501    0  0.00000000000E+00  0.00000000000E+00 -0.43484877745E+03  0.43484877748E+03  0.50400001928E-02 0.  1.
    10030    2    1    2    0    0  0.00000000000E+00  0.00000000000E+00 -0.68995755206E+02  0.80070179976E+03  0.79772360997E+03 0.  0.
        4    1    3    3  502    0 -0.33553289153E+03  0.24871853219E+02 -0.24951292391E+03  0.41887855338E+03  0.12699999809E+01 0.  1.
       -4    1    3    3    0  502  0.33553289153E+03 -0.24871853219E+02  0.18051716871E+03  0.38182324638E+03  0.12699999809E+01 0. -1.
</event>
<event>
 5   0  0.6551489E-03  0.7997487E+03  0.7818609E-02  0.9560381E-01
        1   -1    0    0  501    0  0.00000000000E+00  0.00000000000E+00  0.91738789020E+03  0.91738789021E+03  0.50400001928E-02 0.  1.
       -1   -1    0    0    0  501  0.00000000000E+00  0.00000000000E+00 -0.17429868574E+03  0.17429868581E+03  0.50400001928E-02 0. -1.
    10030    2    1    2    0    0  0.00000000000E+00  0.00000000000E+00  0.74308920446E+03  0.10916865760E+04  0.79974871959E+03 0.  0.
        4    1    3    3  502    0 -0.39171695113E+03  0.46112052367E+02  0.28172766323E+03  0.48470669513E+03  0.12699999809E+01 0.  1.
       -4    1    3    3    0  502  0.39171695113E+03 -0.46112052367E+02  0.46136154123E+03  0.60697988089E+03  0.12699999809E+01 0. -1.
</event>
<event>
 5   0  0.6557679E-03  0.8005845E+03  0.7818609E-02  0.9559171E-01
       -1   -1    0    0    0  501  0.00000000000E+00  0.00000000000E+00  0.35557431280E+03  0.35557431283E+03  0.50400001928E-02 0. -1.
        1   -1    0    0  501    0  0.00000000000E+00  0.00000000000E+00 -0.45063404787E+03  0.45063404790E+03  0.50400001928E-02 0.  1.
    10030    2    1    2    0    0  0.00000000000E+00  0.00000000000E+00 -0.95059735077E+02  0.80620836074E+03  0.80058451627E+03 0.  0.
        1    1    3    3  502    0 -0.13946778906E+03 -0.35118879072E+03  0.85492949758E+02  0.38741950828E+03  0.50400001928E-02 0. -1.
       -1    1    3    3    0  502  0.13946778906E+03  0.35118879072E+03 -0.18055268483E+03  0.41878885245E+03  0.50400001928E-02 0.  1.
</event>
<event>
 5   0  0.6600401E-03  0.7990227E+03  0.7818609E-02  0.9561433E-01
        1   -1    0    0  501    0  0.00000000000E+00  0.00000000000E+00  0.47155948925E+03  0.47155948927E+03  0.50400001928E-02 0.  1.
       -1   -1    0    0    0  501  0.00000000000E+00  0.00000000000E+00 -0.33847122757E+03  0.33847122760E+03  0.50400001928E-02 0. -1.
    10030    2    1    2    0    0  0.00000000000E+00  0.00000000000E+00  0.13308826168E+03  0.81003071688E+03  0.79902270111E+03 0.  0.
        2    1    3    3  502    0 -0.23142290066E+03 -0.29752358281E+02 -0.26221911787E+03  0.35099946946E+03  0.25500000920E-02 0. -1.
       -2    1    3    3    0  502  0.23142290066E+03  0.29752358281E+02  0.39530737955E+03  0.45903124742E+03  0.25500000920E-02 0.  1.
</event>
<event>
 5   0  0.4385875E-03  0.8007020E+03  0.7818609E-02  0.9559001E-01
       -4   -1    0    0    0  501  0.00000000000E+00  0.00000000000E+00  0.35037596097E+03  0.35037826263E+03  0.12699999809E+01 0.  1.
        4   -1    0    0  501    0  0.00000000000E+00  0.00000000000E+00 -0.45744946482E+03  0.45745122774E+03  0.12699999809E+01 0. -1.
    10030    2    1    2    0    0  0.00000000000E+00  0.00000000000E+00 -0.10707350385E+03  0.80782949038E+03  0.80070203590E+03 0.  0.
        5    1    3    3  502    0 -0.69329948976E+01 -0.26212341864E+03  0.25164902411E+03  0.36346399320E+03  0.46999998093E+01 0.  1.
       -5    1    3    3    0  502  0.69329948976E+01  0.26212341864E+03 -0.35872252796E+03  0.44436549718E+03  0.46999998093E+01 0. -1.
</event>
<event>
 5   0  0.1092868E-02  0.7994815E+03  0.7818609E-02  0.9560768E-01
        2   -1    0    0  501    0  0.00000000000E+00  0.00000000000E+00  0.90156838277E+03  0.90156838278E+03  0.25500000920E-02 0. -1.
       -2   -1    0    0    0  501  0.00000000000E+00  0.00000000000E+00 -0.17723854856E+03  0.17723854858E+03  0.25500000920E-02 0.  1.
    10030    2    1    2    0    0  0.00000000000E+00  0.00000000000E+00  0.72432983421E+03  0.10788069314E+04  0.79948151099E+03 0.  0.
        3    1    3    3  502    0 -0.13521284020E+03 -0.12087368821E+03 -0.11852565303E+03  0.21665941310E+03  0.10100000352E+00 0.  1.
       -3    1    3    3    0  502  0.13521284020E+03  0.12087368821E+03  0.84285548724E+03  0.86214751826E+03  0.10100000352E+00 0. -1.
</event>
<event>
 5   0  0.1106332E-02  0.8126434E+03  0.7818609E-02  0.9541894E-01
        2   -1    0    0  501    0  0.00000000000E+00  0.00000000000E+00  0.21443181935E+04  0.21443181935E+04  0.25500000920E-02 0.  1.
       -2   -1    0    0    0  501  0.00000000000E+00  0.00000000000E+00 -0.76992930904E+02  0.76992930946E+02  0.25500000920E-02 0. -1.
    10030    2    1    2    0    0  0.00000000000E+00  0.00000000000E+00  0.20673252626E+04  0.22213111244E+04  0.81264344594E+03 0.  0.
        1    1    3    3  502    0  0.18076669549E+03  0.34820616835E+02  0.20237874743E+04  0.20321429120E+04  0.50400001928E-02 0.  1.
       -1    1    3    3    0  502 -0.18076669549E+03 -0.34820616835E+02  0.43537788236E+02  0.18916821241E+03  0.50400001928E-02 0. -1.
</event>
<event>
 5   0  0.1092868E-02  0.8030612E+03  0.7818609E-02  0.9555597E-01
       -2   -1    0    0    0  501  0.00000000000E+00  0.00000000000E+00  0.26136421554E+03  0.26136421555E+03  0.25500000920E-02 0.  1.
        2   -1    0    0  501    0  0.00000000000E+00  0.00000000000E+00 -0.61686652525E+03  0.61686652526E+03  0.25500000920E-02 0. -1.
    10030    2    1    2    0    0  0.00000000000E+00  0.00000000000E+00 -0.35550230971E+03  0.87823074081E+03  0.80306123172E+03 0.  0.
        3    1    3    3  502    0 -0.12327327476E+03 -0.34759750892E+03 -0.41245712254E+01  0.36883241555E+03  0.10100000352E+00 0.  1.
       -3    1    3    3    0  502  0.12327327476E+03  0.34759750892E+03 -0.35137773849E+03  0.50939832526E+03  0.10100000352E+00 0. -1.
</event>
<event>
 5   0  0.6551489E-03  0.7981582E+03  0.7818609E-02  0.9562687E-01
       -1   -1    0    0    0  501  0.00000000000E+00  0.00000000000E+00  0.37620322716E+03  0.37620322719E+03  0.50400001928E-02 0.  1.
        1   -1    0    0  501    0  0.00000000000E+00  0.00000000000E+00 -0.42334596743E+03  0.42334596746E+03  0.50400001928E-02 0. -1.
    10030    2    1    2    0    0  0.00000000000E+00  0.00000000000E+00 -0.47142740267E+02  0.79954919465E+03  0.79815817774E+03 0.  0.
        4    1    3    3  502    0  0.18693515834E+03  0.12963841585E+03 -0.35203247824E+03  0.41914120642E+03  0.12699999809E+01 0. -1.
       -4    1    3    3    0  502 -0.18693515834E+03 -0.12963841585E+03  0.30488973797E+03  0.38040798823E+03  0.12699999809E+01 0.  1.
</event>
<event>
 5   0  0.1121480E-02  0.8021010E+03  0.7818609E-02  0.9556981E-01
       -2   -1    0    0    0  501  0.00000000000E+00  0.00000000000E+00  0.34186357955E+03  0.34186357956E+03  0.25500000920E-02 0. -1.
        2   -1    0    0  501    0  0.00000000000E+00  0.00000000000E+00 -0.47048441256E+03  0.47048441257E+03  0.25500000920E-02 0.  1.
    10030    2    1    2    0    0  0.00000000000E+00  0.00000000000E+00 -0.12862083301E+03  0.81234799213E+03  0.80210095476E+03 0.  0.
        2    1    3    3  502    0 -0.23039472868E+03  0.72641782387E+02  0.25990886275E+03  0.35483964899E+03  0.25500000920E-02 0. -1.
       -2    1    3    3    0  502  0.23039472868E+03 -0.72641782387E+02 -0.38852969575E+03  0.45750834314E+03  0.25500000920E-02 0.  1.
</event>
<event>
 5   0  0.1121480E-02  0.7928776E+03  0.7818609E-02  0.9570384E-01
       -2   -1    0    0    0  501  0.00000000000E+00  0.00000000000E+00  0.30109741379E+03  0.30109741381E+03  0.25500000920E-02 0. -1.
        2   -1    0    0  501    0  0.00000000000E+00  0.00000000000E+00 -0.52196964489E+03  0.52196964490E+03  0.25500000920E-02 0.  1.
    10030    2    1    2    0    0  0.00000000000E+00  0.00000000000E+00 -0.22087223110E+03  0.82306705870E+03  0.79287756978E+03 0.  0.
        2    1    3    3  502    0  0.39129515755E+02  0.38433545430E+03 -0.18059905774E+02  0.38674412813E+03  0.25500000920E-02 0. -1.
       -2    1    3    3    0  502 -0.39129515755E+02 -0.38433545430E+03 -0.20281232532E+03  0.43632293058E+03  0.25500000920E-02 0.  1.
</event>
<event>
 5   0  0.6551489E-03  0.8059665E+03  0.7818609E-02  0.9551421E-01
       -1   -1    0    0    0  501  0.00000000000E+00  0.00000000000E+00  0.23333795252E+03  0.23333795258E+03  0.50400001928E-02 0. -1.
        1   -1    0    0  501    0  0.00000000000E+00  0.00000000000E+00 -0.69596691525E+03  0.69596691527E+03  0.50400001928E-02 0.  1.
    10030    2    1    2    0    0  0.00000000000E+00  0.00000000000E+00 -0.46262896273E+03  0.92930486785E+03  0.80596648829E+03 0.  0.
        4    1    3    3  502    0 -0.20827918175E+03  0.12242494987E+03 -0.60320212784E+03  0.64978650789E+03  0.12699999809E+01 0.  1.
       -4    1    3    3    0  502  0.20827918175E+03 -0.12242494987E+03  0.14057316511E+03  0.27951835995E+03  0.12699999809E+01 0. -1.
</event>
<event>
 5   0  0.6600401E-03  0.7950227E+03  0.7818609E-02  0.9567250E-01
        1   -1    0    0  501    0  0.00000000000E+00  0.00000000000E+00  0.12586943778E+04  0.12586943778E+04  0.50400001928E-02 0.  1.
       -1   -1    0    0    0  501  0.00000000000E+00  0.00000000000E+00 -0.12553903189E+03  0.12553903199E+03  0.50400001928E-02 0. -1.
    10030    2    1    2    0    0  0.00000000000E+00  0.00000000000E+00  0.11331553459E+04  0.13842334098E+04  0.79502270084E+03 0.  0.
        2    1    3    3  502    0 -0.83093806085E+01 -0.36254333188E+03  0.28309738238E+03  0.46005525887E+03  0.25500000920E-02 0. -1.
       -2    1    3    3    0  502  0.83093806085E+01  0.36254333188E+03  0.85005796352E+03  0.92417815093E+03  0.25500000920E-02 0.  1.
</event>
<event>
 5   0  0.6596225E-03  0.7963626E+03  0.7818609E-02  0.9565297E-01
        1   -1    0    0  501    0  0.00000000000E+00  0.00000000000E+00  0.36428627272E+03  0.36428627275E+03  0.50400001928E-02 0.  1.
       -1   -1    0    0    0  501  0.00000000000E+00  0.00000000000E+00 -0.43523009481E+03  0.43523009484E+03  0.50400001928E-02 0. -1.
    10030    2    1    2    0    0  0.00000000000E+00  0.00000000000E+00 -0.70943822095E+02  0.79951636759E+03  0.79636260344E+03 0.  0.
        5    1    3    3  502    0 -0.32450730725E+03 -0.96296049285E+02  0.17499688980E+03  0.38108256717E+03  0.46999998093E+01 0.  1.
       -5    1    3    3    0  502  0.32450730725E+03  0.96296049285E+02 -0.24594071189E+03  0.41843380042E+03  0.46999998093E+01 0. -1.
</event>
<event>
 5   0  0.1119792E-02  0.8157706E+03  0.7818609E-02  0.9537466E-01
       -2   -1    0    0    0  501  0.00000000000E+00  0.00000000000E+00  0.50030850559E+03  0.50030850560E+03  0.25500000920E-02 0.  1.
        2   -1    0    0  501    0  0.00000000000E+00  0.00000000000E+00 -0.33253566837E+03  0.33253566838E+03  0.25500000920E-02 0. -1.
    10030    2    1    2    0    0  0.00000000000E+00  0.00000000000E+00  0.16777283722E+03  0.83284417398E+03  0.81577061312E+03 0.  0.
        4    1    3    3  502    0  0.12786280153E+03  0.36488839397E+03  0.21651443387E+03  0.44313942393E+03  0.12699999809E+01 0.  1.
       -4    1    3    3    0  502 -0.12786280153E+03 -0.36488839397E+03 -0.48741596647E+02  0.38970475005E+03  0.12699999809E+01 0. -1.
</event>
<event>
 5   0  0.6596225E-03  0.7993406E+03  0.7818609E-02  0.9560972E-01
       -1   -1    0    0    0  501  0.00000000000E+00  0.00000000000E+00  0.55368062275E+03  0.55368062277E+03  0.50400001928E-02 0.  1.
        1   -1    0    0  501    0  0.00000000000E+00  0.00000000000E+00 -0.28849910545E+03  0.28849910549E+03  0.50400001928E-02 0. -1.
    10030    2    1    2    0    0  0.00000000000E+00  0.00000000000E+00  0.26518151730E+03  0.84217972826E+03  0.79934063926E+03 0.  0.
        5    1    3    3  502    0  0.15837283862E+02 -0.37655875149E+02  0.55144598954E+03  0.55297699217E+03  0.46999998093E+01 0.  1.
       -5    1    3    3    0  502 -0.15837283862E+02  0.37655875149E+02 -0.28626447224E+03  0.28920273609E+03  0.46999998093E+01 0. -1.
</event>
<event>
 5   0  0.1106332E-02  0.7960992E+03  0.7818609E-02  0.9565681E-01
       -2   -1    0    0    0  501  0.00000000000E+00  0.00000000000E+00  0.81792892920E+03  0.81792892920E+03  0.25500000920E-02 0.  1.
        2   -1    0    0  501    0  0.00000000000E+00  0.00000000000E+00 -0.19371304360E+03  0.19371304361E+03  0.25500000920E-02 0. -1.
    10030    2    1    2    0    0  0.00000000000E+00  0.00000000000E+00  0.62421588560E+03  0.10116419728E+04  0.79609924590E+03 0.  0.
        1    1    3    3  502    0  0.60573050979E+02  0.20187995430E+03 -0.11698170333E+03  0.24105876750E+03  0.50400001928E-02 0. -1.
       -1    1    3    3    0  502 -0.60573050979E+02 -0.20187995430E+03  0.74119758893E+03  0.77058320531E+03  0.50400001928E-02 0.  1.
</event>
<event>
 5   0  0.6596225E-03  0.8011478E+03  0.7818609E-02  0.9558357E-01
       -1   -1    0    0    0  501  0.00000000000E+00  0.00000000000E+00  0.11705934396E+04  0.11705934396E+04  0.50400001928E-02 0. -1.
        1   -1    0    0  501    0  0.00000000000E+00  0.00000000000E+00 -0.13707528799E+03  0.13707528808E+03  0.50400001928E-02 0.  1.
    10030    2    1    2    0    0  0.00000000000E+00  0.00000000000E+00  0.10335181516E+04  0.13076687277E+04  0.80114775894E+03 0.  0.
        5    1    3    3  502    0  0.33524949189E+03 -0.10043239936E+03  0.19875010216E+03  0.40249544315E+03  0.46999998093E+01 0.  1.
       -5    1    3    3    0  502 -0.33524949189E+03  0.10043239936E+03  0.83476804946E+03  0.90517328454E+03  0.46999998093E+01 0. -1.
</event>
<event>
 5   0  0.6557679E-03  0.8025593E+03  0.7818609E-02  0.9556320E-01
       -1   -1    0    0    0  501  0.00000000000E+00  0.00000000000E+00  0.63538359963E+03  0.63538359965E+03  0.50400001928E-02 0.  1.
        1   -1    0    0  501    0  0.00000000000E+00  0.00000000000E+00 -0.25343017545E+03  0.25343017550E+03  0.50400001928E-02 0. -1.
    10030    2    1    2    0    0  0.00000000000E+00  0.00000000000E+00  0.38195342419E+03  0.88881377515E+03  0.80255934899E+03 0.  0.
        1    1    3    3  502    0  0.23354416827E+03 -0.26497838646E+03 -0.19935210167E+02  0.35377088129E+03  0.50400001928E-02 0.  1.
       -1    1    3    3    0  502 -0.23354416827E+03  0.26497838646E+03  0.40188863435E+03  0.53504289386E+03  0.50400001928E-02 0. -1.
</event>
<event>
 5   0  0.6517392E-03  0.7124212E+03  0.7818609E-02  0.9696223E-01
       -1   -1    0    0    0  501  0.00000000000E+00  0.00000000000E+00  0.71995225019E+03  0.71995225021E+03  0.50400001928E-02 0.  1.
        1   -1    0    0  501    0  0.00000000000E+00  0.00000000000E+00 -0.17624225237E+03  0.17624225245E+03  0.50400001928E-02 0. -1.
    10030    2    1    2    0    0  0.00000000000E+00  0.00000000000E+00  0.54370999782E+03  0.89619450265E+03  0.71242124116E+03 0.  0.
        3    1    3    3  502    0 -0.19738809292E+03 -0.26040911171E+03  0.93460036214E+02  0.33986725829E+03  0.10100000352E+00 0. -1.
       -3    1    3    3    0  502  0.19738809292E+03  0.26040911171E+03  0.45024996160E+03  0.55632724436E+03  0.10100000352E+00 0.  1.
</event>
<event>
 5   0  0.6596225E-03  0.8014953E+03  0.7818609E-02  0.9557855E-01
        1   -1    0    0  501    0  0.00000000000E+00  0.00000000000E+00  0.11608139902E+04  0.11608139902E+04  0.50400001928E-02 0. -1.
       -1   -1    0    0    0  501  0.00000000000E+00  0.00000000000E+00 -0.13835006239E+03  0.13835006249E+03  0.50400001928E-02 0.  1.
    10030    2    1    2    0    0  0.00000000000E+00  0.00000000000E+00  0.10224639278E+04  0.12991640527E+04  0.80149532260E+03 0.  0.
        5    1    3    3  502    0 -0.32647337333E+03  0.70578829000E+02  0.87007701787E+03  0.93199911031E+03  0.46999998093E+01 0. -1.
       -5    1    3    3    0  502  0.32647337333E+03 -0.70578829000E+02  0.15238690993E+03  0.36716494238E+03  0.46999998093E+01 0.  1.
</event>
<event>
 5   0  0.1119792E-02  0.8038401E+03  0.7818609E-02  0.9554475E-01
       -2   -1    0    0    0  501  0.00000000000E+00  0.00000000000E+00  0.43877505033E+03  0.43877505034E+03  0.25500000920E-02 0. -1.
        2   -1    0    0  501    0  0.00000000000E+00  0.00000000000E+00 -0.36816066268E+03  0.36816066269E+03  0.25500000920E-02 0.  1.
    10030    2    1    2    0    0  0.00000000000E+00  0.00000000000E+00  0.70614387647E+02  0.80693571302E+03  0.80384006694E+03 0.  0.
        4    1    3    3  502    0 -0.33622174681E+03 -0.21028072231E+03 -0.30328510592E+02  0.39772412129E+03  0.12699999809E+01 0.  1.
       -4    1    3    3    0  502  0.33622174681E+03  0.21028072231E+03  0.10094289824E+03  0.40921159173E+03  0.12699999809E+01 0. -1.
</event>
<event>
 5   0  0.1092868E-02  0.8100507E+03  0.7818609E-02  0.9545582E-01
        2   -1    0    0  501    0  0.00000000000E+00  0.00000000000E+00  0.16091576027E+04  0.16091576027E+04  0.25500000920E-02 0.  1.
       -2   -1    0    0    0  501  0.00000000000E+00  0.00000000000E+00 -0.10194498567E+03  0.10194498570E+03  0.25500000920E-02 0. -1.
    10030    2    1    2    0    0  0.00000000000E+00  0.00000000000E+00  0.15072126170E+04  0.17111025884E+04  0.81005073613E+03 0.  0.
        3    1    3    3  502    0  0.40211241444E+03 -0.10366720827E+01  0.85600731620E+03  0.94575049782E+03  0.10100000352E+00 0.  1.
       -3    1    3    3    0  502 -0.40211241444E+03  0.10366720827E+01  0.65120530082E+03  0.76535209057E+03  0.10100000352E+00 0. -1.
</event>
<event>
 5   0  0.1121480E-02  0.8001273E+03  0.7818609E-02  0.9559833E-01
        2   -1    0    0  501    0  0.00000000000E+00  0.00000000000E+00  0.11605347269E+04  0.11605347269E+04  0.25500000920E-02 0.  1.
       -2   -1    0    0    0  501  0.00000000000E+00  0.00000000000E+00 -0.13791135867E+03  0.13791135870E+03  0.25500000920E-02 0. -1.
    10030    2    1    2    0    0  0.00000000000E+00  0.00000000000E+00  0.10226233682E+04  0.12984460856E+04  0.80012729233E+03 0.  0.
        2    1    3    3  502    0  0.18247275432E+03 -0.25261287508E+03  0.10418190957E+03  0.32857790707E+03  0.25500000920E-02 0. -1.
       -2    1    3    3    0  502 -0.18247275432E+03  0.25261287508E+03  0.91844145862E+03  0.96986817848E+03  0.25500000920E-02 0.  1.
</event>
<event>
 5   0  0.1106332E-02  0.7792120E+03  0.7818609E-02  0.9590604E-01
       -2   -1    0    0    0  501  0.00000000000E+00  0.00000000000E+00  0.10242825949E+03  0.10242825952E+03  0.25500000920E-02 0. -1.
        2   -1    0    0  501    0  0.00000000000E+00  0.00000000000E+00 -0.14819428474E+04  0.14819428474E+04  0.25500000920E-02 0.  1.
    10030    2    1    2    0    0  0.00000000000E+00  0.00000000000E+00 -0.13795145880E+04  0.15843711070E+04  0.77921197770E+03 0.  0.
        1    1    3    3  502    0 -0.24285201756E+03 -0.89122085657E+02 -0.97396898421E+02  0.27641636064E+03  0.50400001928E-02 0. -1.
       -1    1    3    3    0  502  0.24285201756E+03  0.89122085657E+02 -0.12821176895E+04  0.13079547463E+04  0.50400001928E-02 0.  1.
</event>
<event>
 5   0  0.1154714E-02  0.7482790E+03  0.7818609E-02  0.9638054E-01
        2   -1    0    0  501    0  0.00000000000E+00  0.00000000000E+00  0.12096723166E+04  0.12096723166E+04  0.25500000920E-02 0. -1.
       -2   -1    0    0    0  501  0.00000000000E+00  0.00000000000E+00 -0.11571758551E+03  0.11571758554E+03  0.25500000920E-02 0.  1.
    10030    2    1    2    0    0  0.00000000000E+00  0.00000000000E+00  0.10939547311E+04  0.13253899021E+04  0.74827898476E+03 0.  0.
        5    1    3    3  502    0  0.29824598591E+03  0.22584781540E+03  0.54590589820E+03  0.66181057979E+03  0.46999998093E+01 0. -1.
       -5    1    3    3    0  502 -0.29824598591E+03 -0.22584781540E+03  0.54804883290E+03  0.66357932236E+03  0.46999998093E+01 0.  1.
</event>
<event>
 5   0  0.1092868E-02  0.8030622E+03  0.7818609E-02  0.9555595E-01
       -2   -1    0    0    0  501  0.00000000000E+00  0.00000000000E+00  0.95845738040E+02  0.95845738074E+02  0.25500000920E-02 0. -1.
        2   -1    0    0  501    0  0.00000000000E+00  0.00000000000E+00 -0.16821531740E+04  0.16821531740E+04  0.25500000920E-02 0.  1.
    10030    2    1    2    0    0  0.00000000000E+00  0.00000000000E+00 -0.15863074360E+04  0.17779989121E+04  0.80306217067E+03 0.  0.
        3    1    3    3  502    0 -0.22401573397E+03  0.33129219647E+03 -0.71364485865E+03  0.81806268891E+03  0.10100000352E+00 0. -1.
       -3    1    3    3    0  502  0.22401573397E+03 -0.33129219647E+03 -0.87266257732E+03  0.95993622318E+03  0.10100000352E+00 0.  1.
</event>
<event>
 5   0  0.6557679E-03  0.8005870E+03  0.7818609E-02  0.9559168E-01
       -1   -1    0    0    0  501  0.00000000000E+00  0.00000000000E+00  0.24405424584E+03  0.24405424590E+03  0.50400001928E-02 0. -1.
        1   -1    0    0  501    0  0.00000000000E+00  0.00000000000E+00 -0.65655435162E+03  0.65655435164E+03  0.50400001928E-02 0.  1.
    10030    2    1    2    0    0  0.00000000000E+00  0.00000000000E+00 -0.41250010577E+03  0.90060859753E+03  0.80058697759E+03 0.  0.
        1    1    3    3  502    0  0.24424836365E+03  0.12234766065E+03  0.12289431387E+03  0.29954836942E+03  0.50400001928E-02 0. -1.
       -1    1    3    3    0  502 -0.24424836365E+03 -0.12234766065E+03 -0.53539441964E+03  0.60106022811E+03  0.50400001928E-02 0.  1.
</event>
<event>
 5   0  0.6517392E-03  0.7952118E+03  0.7818609E-02  0.9566974E-01
        1   -1    0    0  501    0  0.00000000000E+00  0.00000000000E+00  0.15345931909E+04  0.15345931909E+04  0.50400001928E-02 0. -1.
       -1   -1    0    0    0  501  0.00000000000E+00  0.00000000000E+00 -0.10301782834E+03  0.10301782847E+03  0.50400001928E-02 0.  1.
    10030    2    1    2    0    0  0.00000000000E+00  0.00000000000E+00  0.14315753626E+04  0.16376110194E+04  0.79521181587E+03 0.  0.
        3    1    3    3  502    0  0.23847198113E+02 -0.10573095150E+03 -0.72007819379E+02  0.13012632023E+03  0.10100000352E+00 0.  1.
       -3    1    3    3    0  502 -0.23847198113E+02  0.10573095150E+03  0.15035831820E+04  0.15074846992E+04  0.10100000352E+00 0. -1.
</event>
<event>
 5   0  0.6596225E-03  0.7974127E+03  0.7818609E-02  0.9563770E-01
       -1   -1    0    0    0  501  0.00000000000E+00  0.00000000000E+00  0.10742913350E+03  0.10742913362E+03  0.50400001928E-02 0. -1.
        1   -1    0    0  501    0  0.00000000000E+00  0.00000000000E+00 -0.14797361104E+04  0.14797361104E+04  0.50400001928E-02 0.  1.
    10030    2    1    2    0    0  0.00000000000E+00  0.00000000000E+00 -0.13723069769E+04  0.15871652440E+04  0.79741273692E+03 0.  0.
        5    1    3    3  502    0  0.31117583071E+02 -0.33278632978E+03 -0.25359358287E+03  0.41957936143E+03  0.46999998093E+01 0. -1.
       -5    1    3    3    0  502 -0.31117583071E+02  0.33278632978E+03 -0.11187133940E+04  0.11675858826E+04  0.46999998093E+01 0.  1.
</event>
<event>
 5   0  0.6517392E-03  0.7846590E+03  0.7818609E-02  0.9582492E-01
        1   -1    0    0  501    0  0.00000000000E+00  0.00000000000E+00  0.44231763148E+03  0.44231763151E+03  0.50400001928E-02 0.  1.
       -1   -1    0    0    0  501  0.00000000000E+00  0.00000000000E+00 -0.34799070460E+03  0.34799070464E+03  0.50400001928E-02 0. -1.
    10030    2    1    2    0    0  0.00000000000E+00  0.00000000000E+00  0.94326926874E+02  0.79030833615E+03  0.78465896863E+03 0.  0.
        3    1    3    3  502    0  0.12769627998E+03 -0.27597897318E+03  0.29684274256E+03  0.42495453589E+03  0.10100000352E+00 0.  1.
       -3    1    3    3    0  502 -0.12769627998E+03  0.27597897318E+03 -0.20251581569E+03  0.36535380026E+03  0.10100000352E+00 0. -1.
</event>
<event>
 5   0  0.1121480E-02  0.7560005E+03  0.7818609E-02  0.9625983E-01
       -2   -1    0    0    0  501  0.00000000000E+00  0.00000000000E+00  0.20286075112E+03  0.20286075114E+03  0.25500000920E-02 0. -1.
        2   -1    0    0  501    0  0.00000000000E+00  0.00000000000E+00 -0.70434624275E+03  0.70434624276E+03  0.25500000920E-02 0.  1.
    10030    2    1    2    0    0  0.00000000000E+00  0.00000000000E+00 -0.50148549163E+03  0.90720699389E+03  0.75600054990E+03 0.  0.
        2    1    3    3  502    0 -0.24586909426E+03 -0.27302755020E+02  0.92231228532E+02  0.26401449102E+03  0.25500000920E-02 0. -1.
       -2    1    3    3    0  502  0.24586909426E+03  0.27302755020E+02 -0.59371672016E+03  0.64319250287E+03  0.25500000920E-02 0.  1.
</event>
<event>
 5   0  0.1092868E-02  0.7863219E+03  0.7818609E-02  0.9580029E-01
        2   -1    0    0  501    0  0.00000000000E+00  0.00000000000E+00  0.85030082554E+03  0.85030082555E+03  0.25500000920E-02 0.  1.
       -2   -1    0    0    0  501  0.00000000000E+00  0.00000000000E+00 -0.18178921815E+03  0.18178921817E+03  0.25500000920E-02 0. -1.
    10030    2    1    2    0    0  0.00000000000E+00  0.00000000000E+00  0.66851160739E+03  0.10320900437E+04  0.78632187375E+03 0.  0.
        3    1    3    3  502    0 -0.21754887910E+02  0.21171384715E+03  0.76815270555E+03  0.79709134826E+03  0.10100000352E+00 0. -1.
       -3    1    3    3    0  502  0.21754887910E+02 -0.21171384715E+03 -0.99641098164E+02  0.23499869546E+03  0.10100000352E+00 0.  1.
</event>
<event>
 5   0  0.6517392E-03  0.8015470E+03  0.7818609E-02  0.9557781E-01
        1   -1    0    0  501    0  0.00000000000E+00  0.00000000000E+00  0.62624081751E+03  0.62624081753E+03  0.50400001928E-02 0. -1.
       -1   -1    0    0    0  501  0.00000000000E+00  0.00000000000E+00 -0.25648184218E+03  0.25648184223E+03  0.50400001928E-02 0.  1.
    10030    2    1    2    0    0  0.00000000000E+00  0.00000000000E+00  0.36975897533E+03  0.88272265976E+03  0.80154700063E+03 0.  0.
        3    1    3    3  502    0 -0.24912300146E+03 -0.30317496477E+03  0.95126967064E+02  0.40376537640E+03  0.10100000352E+00 0. -1.
       -3    1    3    3    0  502  0.24912300146E+03  0.30317496477E+03  0.27463200827E+03  0.47895728336E+03  0.10100000352E+00 0.  1.
</event>
<event>
 5   0  0.6600401E-03  0.8033513E+03  0.7818609E-02  0.9555179E-01
        1   -1    0    0  501    0  0.00000000000E+00  0.00000000000E+00  0.41830005160E+03  0.41830005163E+03  0.50400001928E-02 0. -1.
       -1   -1    0    0    0  501  0.00000000000E+00  0.00000000000E+00 -0.38571195212E+03  0.38571195215E+03  0.50400001928E-02 0.  1.
    10030    2    1    2    0    0  0.00000000000E+00  0.00000000000E+00  0.32588099484E+02  0.80401200378E+03  0.80335130423E+03 0.  0.
        2    1    3    3  502    0  0.73141485370E+02 -0.39480521900E+03  0.27370747031E+02  0.40245496100E+03  0.25500000920E-02 0. -1.
       -2    1    3    3    0  502 -0.73141485370E+02  0.39480521900E+03  0.52173524522E+01  0.40155704278E+03  0.25500000920E-02 0.  1.
</event>
<event>
 5   0  0.1121480E-02  0.7936147E+03  0.7818609E-02  0.9569306E-01
       -2   -1    0    0    0  501  0.00000000000E+00  0.00000000000E+00  0.67521031969E+03  0.67521031969E+03  0.25500000920E-02 0. -1.
        2   -1    0    0  501    0  0.00000000000E+00  0.00000000000E+00 -0.23319557084E+03  0.23319557086E+03  0.25500000920E-02 0.  1.
    10030    2    1    2    0    0  0.00000000000E+00  0.00000000000E+00  0.44201474884E+03  0.90840589055E+03  0.79361465699E+03 0.  0.
        2    1    3    3  502    0 -0.19545076488E+02 -0.38983490095E+03  0.30277367739E+03  0.49398902795E+03  0.25500000920E-02 0. -1.
       -2    1    3    3    0  502  0.19545076488E+02  0.38983490095E+03  0.13924107146E+03  0.41441686259E+03  0.25500000920E-02 0.  1.
</event>
<event>
 5   0  0.6600401E-03  0.7975345E+03  0.7818609E-02  0.9563593E-01
        1   -1    0    0  501    0  0.00000000000E+00  0.00000000000E+00  0.17253466414E+04  0.17253466414E+04  0.50400001928E-02 0. -1.
       -1   -1    0    0    0  501  0.00000000000E+00  0.00000000000E+00 -0.92164265762E+02  0.92164265900E+02  0.50400001928E-02 0.  1.
    10030    2    1    2    0    0  0.00000000000E+00  0.00000000000E+00  0.16331823756E+04  0.18175109073E+04  0.79753446702E+03 0.  0.
        2    1    3    3  502    0 -0.40916779665E+02 -0.20626025814E+03  0.15887282580E+04  0.16025838371E+04  0.25500000920E-02 0. -1.
       -2    1    3    3    0  502  0.40916779665E+02  0.20626025814E+03  0.44454117604E+02  0.21492707024E+03  0.25500000920E-02 0.  1.
</event>
<event>
 5   0  0.4385875E-03  0.8006129E+03  0.7818609E-02  0.9559130E-01
       -3   -1    0    0    0  501  0.00000000000E+00  0.00000000000E+00  0.60077315798E+03  0.60077316647E+03  0.10100000352E+00 0.  1.
        3   -1    0    0  501    0  0.00000000000E+00  0.00000000000E+00 -0.26673167423E+03  0.26673169335E+03  0.10100000352E+00 0. -1.
    10030    2    1    2    0    0  0.00000000000E+00  0.00000000000E+00  0.33404148375E+03  0.86750485982E+03  0.80061287084E+03 0.  0.
        2    1    3    3  502    0  0.31314545141E+02 -0.62965130866E+02  0.59402786904E+03  0.59817582503E+03  0.25500000920E-02 0.  1.
       -2    1    3    3    0  502 -0.31314545141E+02  0.62965130866E+02 -0.25998638529E+03  0.26932903480E+03  0.25500000920E-02 0. -1.
</event>
<event>
 5   0  0.1106332E-02  0.8022709E+03  0.7818609E-02  0.9556736E-01
       -2   -1    0    0    0  501  0.00000000000E+00  0.00000000000E+00  0.91497810588E+02  0.91497810624E+02  0.25500000920E-02 0. -1.
        2   -1    0    0  501    0  0.00000000000E+00  0.00000000000E+00 -0.17586175420E+04  0.17586175420E+04  0.25500000920E-02 0.  1.
    10030    2    1    2    0    0  0.00000000000E+00  0.00000000000E+00 -0.16671197314E+04  0.18501153526E+04  0.80227091382E+03 0.  0.
        1    1    3    3  502    0  0.39860396658E+03  0.40508010240E+02 -0.87872841422E+03  0.96575858632E+03  0.50400001928E-02 0.  1.
       -1    1    3    3    0  502 -0.39860396658E+03 -0.40508010240E+02 -0.78839131721E+03  0.88435676633E+03  0.50400001928E-02 0. -1.
</event>
<event>
 5   0  0.6551489E-03  0.7995424E+03  0.7818609E-02  0.9560680E-01
       -1   -1    0    0    0  501  0.00000000000E+00  0.00000000000E+00  0.72068640442E+02  0.72068640619E+02  0.50400001928E-02 0.  1.
        1   -1    0    0  501    0  0.00000000000E+00  0.00000000000E+00 -0.22175668926E+04  0.22175668926E+04  0.50400001928E-02 0. -1.
    10030    2    1    2    0    0  0.00000000000E+00  0.00000000000E+00 -0.21454982521E+04  0.22896355332E+04  0.79954244727E+03 0.  0.
        4    1    3    3  502    0  0.73929893182E+02 -0.43609190323E+02  0.45363975314E+02  0.97092191977E+02  0.12699999809E+01 0.  1.
       -4    1    3    3    0  502 -0.73929893182E+02  0.43609190323E+02 -0.21908622274E+04  0.21925433412E+04  0.12699999809E+01 0. -1.
</event>
<event>
 5   0  0.6557679E-03  0.8176522E+03  0.7818609E-02  0.9534812E-01
       -1   -1    0    0    0  501  0.00000000000E+00  0.00000000000E+00  0.18409831861E+03  0.18409831868E+03  0.50400001928E-02 0.  1.
        1   -1    0    0  501    0  0.00000000000E+00  0.00000000000E+00 -0.90787787579E+03  0.90787787580E+03  0.50400001928E-02 0. -1.
    10030    2    1    2    0    0  0.00000000000E+00  0.00000000000E+00 -0.72377955717E+03  0.10919761945E+04  0.81765222555E+03 0.  0.
        1    1    3    3  502    0 -0.22676771963E+03 -0.54941750135E+02 -0.81022199376E+03  0.84314997110E+03  0.50400001928E-02 0. -1.
       -1    1    3    3    0  502  0.22676771963E+03  0.54941750135E+02  0.86442436585E+02  0.24882622338E+03  0.50400001928E-02 0.  1.
</event>
<event>
 5   0  0.6600401E-03  0.8004691E+03  0.7818609E-02  0.9559338E-01
        1   -1    0    0  501    0  0.00000000000E+00  0.00000000000E+00  0.38954245295E+03  0.38954245299E+03  0.50400001928E-02 0.  1.
       -1   -1    0    0    0  501  0.00000000000E+00  0.00000000000E+00 -0.41122014201E+03  0.41122014204E+03  0.50400001928E-02 0. -1.
    10030    2    1    2    0    0  0.00000000000E+00  0.00000000000E+00 -0.21677689054E+02  0.80076259503E+03  0.80046911957E+03 0.  0.
        2    1    3    3  502    0 -0.50533566248E+02 -0.35434113376E+03  0.16832573644E+03  0.39553107836E+03  0.25500000920E-02 0.  1.
       -2    1    3    3    0  502  0.50533566248E+02  0.35434113376E+03 -0.19000342549E+03  0.40523151667E+03  0.25500000920E-02 0. -1.
</event>
<event>
 5   0  0.1106332E-02  0.8074531E+03  0.7818609E-02  0.9549291E-01
        2   -1    0    0  501    0  0.00000000000E+00  0.00000000000E+00  0.29525318735E+03  0.29525318736E+03  0.25500000920E-02 0.  1.
       -2   -1    0    0    0  501  0.00000000000E+00  0.00000000000E+00 -0.55205207910E+03  0.55205207911E+03  0.25500000920E-02 0. -1.
    10030    2    1    2    0    0  0.00000000000E+00  0.00000000000E+00 -0.25679889175E+03  0.84730526647E+03  0.80745312173E+03 0.  0.
        1    1    3    3  502    0  0.12067980489E+03 -0.38017128682E+03 -0.62856191488E+02  0.40378796845E+03  0.50400001928E-02 0. -1.
       -1    1    3    3    0  502 -0.12067980489E+03  0.38017128682E+03 -0.19394270027E+03  0.44351729802E+03  0.50400001928E-02 0.  1.
</event>
<event>
 5   0  0.1154714E-02  0.7999725E+03  0.7818609E-02  0.9560057E-01
        2   -1    0    0  501    0  0.00000000000E+00  0.00000000000E+00  0.59409538708E+03  0.59409538708E+03  0.25500000920E-02 0. -1.
       -2   -1    0    0    0  501  0.00000000000E+00  0.00000000000E+00 -0.26929849822E+03  0.26929849823E+03  0.25500000920E-02 0.  1.
    10030    2    1    2    0    0  0.00000000000E+00  0.00000000000E+00  0.32479688886E+03  0.86339388532E+03  0.79997248840E+03 0.  0.
        5    1    3    3  502    0  0.15628843299E+03 -0.65972870025E+02  0.55331283123E+03  0.57875355124E+03  0.46999998093E+01 0. -1.
       -5    1    3    3    0  502 -0.15628843299E+03  0.65972870025E+02 -0.22851594238E+03  0.28464033408E+03  0.46999998093E+01 0.  1.
</event>
<event>
 5   0  0.6517392E-03  0.8131300E+03  0.7818609E-02  0.9541204E-01
       -1   -1    0    0    0  501  0.00000000000E+00  0.00000000000E+00  0.13750381968E+03  0.13750381977E+03  0.50400001928E-02 0.  1.
        1   -1    0    0  501    0  0.00000000000E+00  0.00000000000E+00 -0.12021127544E+04  0.12021127544E+04  0.50400001928E-02 0. -1.
    10030    2    1    2    0    0  0.00000000000E+00  0.00000000000E+00 -0.10646089347E+04  0.13396165742E+04  0.81312999080E+03 0.  0.
        3    1    3    3  502    0 -0.12332624521E+03  0.12717967980E+03 -0.11351815051E+04  0.11489217090E+04  0.10100000352E+00 0. -1.
       -3    1    3    3    0  502  0.12332624521E+03 -0.12717967980E+03  0.70572570377E+02  0.19069486517E+03  0.10100000352E+00 0.  1.
</event>
<event>
 5   0  0.1119792E-02  0.7916547E+03  0.7818609E-02  0.9572176E-01
        2   -1    0    0  501    0  0.00000000000E+00  0.00000000000E+00  0.19392028256E+03  0.19392028257E+03  0.25500000920E-02 0.  1.
       -2   -1    0    0    0  501  0.00000000000E+00  0.00000000000E+00 -0.80795713014E+03  0.80795713015E+03  0.25500000920E-02 0. -1.
    10030    2    1    2    0    0  0.00000000000E+00  0.00000000000E+00 -0.61403684759E+03  0.10018774127E+04  0.79165465951E+03 0.  0.
        4    1    3    3  502    0 -0.80276268362E+02  0.17943218508E+03  0.12778080630E+03  0.23445625533E+03  0.12699999809E+01 0.  1.
       -4    1    3    3    0  502  0.80276268362E+02 -0.17943218508E+03 -0.74181765388E+03  0.76742115740E+03  0.12699999809E+01 0. -1.
</event>
<event>
 5   0  0.6551489E-03  0.7994214E+03  0.7818609E-02  0.9560855E-01
        1   -1    0    0  501    0  0.00000000000E+00  0.00000000000E+00  0.10748599105E+04  0.10748599105E+04  0.50400001928E-02 0. -1.
       -1   -1    0    0    0  501  0.00000000000E+00  0.00000000000E+00 -0.14864136060E+03  0.14864136069E+03  0.50400001928E-02 0.  1.
    10030    2    1    2    0    0  0.00000000000E+00  0.00000000000E+00  0.92621854993E+03  0.12235012712E+04  0.79942138979E+03 0.  0.
        4    1    3    3  502    0  0.26081818717E+03  0.29724039157E+03  0.55220720642E+03  0.67919981513E+03  0.12699999809E+01 0. -1.
       -4    1    3    3    0  502 -0.26081818717E+03 -0.29724039157E+03  0.37401134350E+03  0.54430145610E+03  0.12699999809E+01 0.  1.
</event>
<event>
 5   0  0.6596225E-03  0.8036744E+03  0.7818609E-02  0.9554714E-01
       -1   -1    0    0    0  501  0.00000000000E+00  0.00000000000E+00  0.10116910321E+03  0.10116910333E+03  0.50400001928E-02 0. -1.
        1   -1    0    0  501    0  0.00000000000E+00  0.00000000000E+00 -0.15960716857E+04  0.15960716858E+04  0.50400001928E-02 0.  1.
    10030    2    1    2    0    0  0.00000000000E+00  0.00000000000E+00 -0.14949025825E+04  0.16972407891E+04  0.80367441472E+03 0.  0.
        5    1    3    3  502    0 -0.36551452974E+03 -0.15379655498E+03 -0.61063984763E+03  0.72811905983E+03  0.46999998093E+01 0.  1.
       -5    1    3    3    0  502  0.36551452974E+03  0.15379655498E+03 -0.88426273490E+03  0.96912172925E+03  0.46999998093E+01 0. -1.
</event>
<event>
 5   0  0.6600401E-03  0.7986788E+03  0.7818609E-02  0.9561931E-01
       -1   -1    0    0    0  501  0.00000000000E+00  0.00000000000E+00  0.92690058517E+02  0.92690058654E+02  0.50400001928E-02 0.  1.
        1   -1    0    0  501    0  0.00000000000E+00  0.00000000000E+00 -0.17204861164E+04  0.17204861164E+04  0.50400001928E-02 0. -1.
    10030    2    1    2    0    0  0.00000000000E+00  0.00000000000E+00 -0.16277960579E+04  0.18131761751E+04  0.79867880638E+03 0.  0.
        2    1    3    3  502    0  0.27981810825E+03 -0.28491013531E+03 -0.81390914649E+03  0.90659806841E+03  0.25500000920E-02 0. -1.
       -2    1    3    3    0  502 -0.27981810825E+03  0.28491013531E+03 -0.81388691142E+03  0.90657810667E+03  0.25500000920E-02 0.  1.
</event>
<event>
 5   0  0.6600401E-03  0.7864964E+03  0.7818609E-02  0.9579771E-01
        1   -1    0    0  501    0  0.00000000000E+00  0.00000000000E+00  0.12169707821E+04  0.12169707821E+04  0.50400001928E-02 0.  1.
       -1   -1    0    0    0  501  0.00000000000E+00  0.00000000000E+00 -0.12707302803E+03  0.12707302813E+03  0.50400001928E-02 0. -1.
    10030    2    1    2    0    0  0.00000000000E+00  0.00000000000E+00  0.10898977540E+04  0.13440438102E+04  0.78649643961E+03 0.  0.
        2    1    3    3  502    0  0.31375709133E+03  0.15391386812E+02  0.14068020452E+03  0.34419664016E+03  0.25500000920E-02 0. -1.
       -2    1    3    3    0  502 -0.31375709133E+03 -0.15391386812E+02  0.94921754951E+03  0.99984717005E+03  0.25500000920E-02 0.  1.
</event>
<event>
 5   0  0.6596225E-03  0.8041182E+03  0.7818609E-02  0.9554075E-01
       -1   -1    0    0    0  501  0.00000000000E+00  0.00000000000E+00  0.26091195125E+03  0.26091195130E+03  0.50400001928E-02 0.  1.
        1   -1    0    0  501    0  0.00000000000E+00  0.00000000000E+00 -0.61956356328E+03  0.61956356330E+03  0.50400001928E-02 0. -1.
    10030    2    1    2    0    0  0.00000000000E+00  0.00000000000E+00 -0.35865161203E+03  0.88047551460E+03  0.80411824565E+03 0.  0.
        5    1    3    3  502    0 -0.31913784188E+03 -0.69540987804E+02 -0.43598665482E+03  0.54478561314E+03  0.46999998093E+01 0. -1.
       -5    1    3    3    0  502  0.31913784188E+03  0.69540987804E+02  0.77335042784E+02  0.33568990146E+03  0.46999998093E+01 0.  1.
</event>
<event>
 5   0  0.6596225E-03  0.8063464E+03  0.7818609E-02  0.9550876E-01
       -1   -1    0    0    0  501  0.00000000000E+00  0.00000000000E+00  0.22415024593E+03  0.22415024599E+03  0.50400001928E-02 0. -1.
        1   -1    0    0  501    0  0.00000000000E+00  0.00000000000E+00 -0.72517704775E+03  0.72517704777E+03  0.50400001928E-02 0.  1.
    10030    2    1    2    0    0  0.00000000000E+00  0.00000000000E+00 -0.50102680182E+03  0.94932729376E+03  0.80634636140E+03 0.  0.
        5    1    3    3  502    0 -0.22953050484E+03 -0.19192318164E+03  0.67597724826E+02  0.30677402546E+03  0.46999998093E+01 0. -1.
       -5    1    3    3    0  502  0.22953050484E+03  0.19192318164E+03 -0.56862452664E+03  0.64255326830E+03  0.46999998093E+01 0.  1.
</event>
<event>
 5   0  0.6600401E-03  0.8004913E+03  0.7818609E-02  0.9559306E-01
       -1   -1    0    0    0  501  0.00000000000E+00  0.00000000000E+00  0.10945016513E+03  0.10945016525E+03  0.50400001928E-02 0.  1.
        1   -1    0    0  501    0  0.00000000000E+00  0.00000000000E+00 -0.14636484859E+04  0.14636484859E+04  0.50400001928E-02 0. -1.
    10030    2    1    2    0    0  0.00000000000E+00  0.00000000000E+00 -0.13541983208E+04  0.15730986511E+04  0.80049127059E+03 0.  0.
        2    1    3    3  502    0 -0.30351426536E+03  0.22290447420E+03 -0.94358947042E+03  0.10159568901E+04  0.25500000920E-02 0. -1.
       -2    1    3    3    0  502  0.30351426536E+03 -0.22290447420E+03 -0.41060885034E+03  0.55714176102E+03  0.25500000920E-02 0.  1.
</event>
<event>
 5   0  0.6600401E-03  0.8041798E+03  0.7818609E-02  0.9553987E-01
       -1   -1    0    0    0  501  0.00000000000E+00  0.00000000000E+00  0.34756827152E+03  0.34756827156E+03  0.50400001928E-02 0.  1.
        1   -1    0    0  501    0  0.00000000000E+00  0.00000000000E+00 -0.46516408714E+03  0.46516408717E+03  0.50400001928E-02 0. -1.
    10030    2    1    2    0    0  0.00000000000E+00  0.00000000000E+00 -0.11759581562E+03  0.81273235873E+03  0.80417977534E+03 0.  0.
        2    1    3    3  502    0  0.19936828047E+03  0.28160931179E+03  0.14985545494E+03  0.37617572108E+03  0.25500000920E-02 0.  1.
       -2    1    3    3    0  502 -0.19936828047E+03 -0.28160931179E+03 -0.26745127057E+03  0.43655663765E+03  0.25500000920E-02 0. -1.
</event>
<event>
 5   0  0.4385875E-03  0.7994382E+03  0.7818609E-02  0.9560831E-01
       -4   -1    0    0    0  501  0.00000000000E+00  0.00000000000E+00  0.24687221218E+03  0.24687547883E+03  0.12699999809E+01 0. -1.
        4   -1    0    0  501    0  0.00000000000E+00  0.00000000000E+00 -0.64719053571E+03  0.64719178179E+03  0.12699999809E+01 0.  1.
    10030    2    1    2    0    0  0.00000000000E+00  0.00000000000E+00 -0.40031832354E+03  0.89406726062E+03  0.79943824424E+03 0.  0.
        1    1    3    3  502    0 -0.58237303154E+02  0.10044308687E+03 -0.62791897593E+03  0.63856294720E+03  0.50400001928E-02 0.  1.
       -1    1    3    3    0  502  0.58237303154E+02 -0.10044308687E+03  0.22760065239E+03  0.25550431341E+03  0.50400001928E-02 0. -1.
</event>
<event>
 5   0  0.1106332E-02  0.8021239E+03  0.7818609E-02  0.9556948E-01
        2   -1    0    0  501    0  0.00000000000E+00  0.00000000000E+00  0.70020164819E+03  0.70020164820E+03  0.25500000920E-02 0. -1.
       -2   -1    0    0    0  501  0.00000000000E+00  0.00000000000E+00 -0.22972053752E+03  0.22972053754E+03  0.25500000920E-02 0.  1.
    10030    2    1    2    0    0  0.00000000000E+00  0.00000000000E+00  0.47048111067E+03  0.92992218574E+03  0.80212392810E+03 0.  0.
        1    1    3    3  502    0 -0.27186615747E+03 -0.12823167882E+03  0.54305413040E+03  0.62069506169E+03  0.50400001928E-02 0. -1.
       -1    1    3    3    0  502  0.27186615747E+03  0.12823167882E+03 -0.72573019735E+02  0.30922712405E+03  0.50400001928E-02 0.  1.
</event>
<event>
 5   0  0.6596225E-03  0.8004532E+03  0.7818609E-02  0.9559361E-01
        1   -1    0    0  501    0  0.00000000000E+00  0.00000000000E+00  0.68086910737E+03  0.68086910739E+03  0.50400001928E-02 0. -1.
       -1   -1    0    0    0  501  0.00000000000E+00  0.00000000000E+00 -0.23526007939E+03  0.23526007945E+03  0.50400001928E-02 0.  1.
    10030    2    1    2    0    0  0.00000000000E+00  0.00000000000E+00  0.44560902798E+03  0.91612918684E+03  0.80045317237E+03 0.  0.
        5    1    3    3  502    0  0.34319598690E+03 -0.20414206401E+03  0.25312358483E+03  0.47281191495E+03  0.46999998093E+01 0.  1.
       -5    1    3    3    0  502 -0.34319598690E+03  0.20414206401E+03  0.19248544315E+03  0.44331727188E+03  0.46999998093E+01 0. -1.
</event>
<event>
 5   0  0.6600401E-03  0.8132663E+03  0.7818609E-02  0.9541011E-01
       -1   -1    0    0    0  501  0.00000000000E+00  0.00000000000E+00  0.27222746386E+03  0.27222746391E+03  0.50400001928E-02 0.  1.
        1   -1    0    0  501    0  0.00000000000E+00  0.00000000000E+00 -0.60739840136E+03  0.60739840138E+03  0.50400001928E-02 0. -1.
    10030    2    1    2    0    0  0.00000000000E+00  0.00000000000E+00 -0.33517093750E+03  0.87962586528E+03  0.81326631895E+03 0.  0.
        2    1    3    3  502    0  0.70501330057E+01 -0.23398882878E+02 -0.60660342598E+03  0.60709548550E+03  0.25500000920E-02 0. -1.
       -2    1    3    3    0  502 -0.70501330057E+01  0.23398882878E+02  0.27143248848E+03  0.27253037979E+03  0.25500000920E-02 0.  1.
</event>
<event>
 5   0  0.6557679E-03  0.7907700E+03  0.7818609E-02  0.9573474E-01
       -1   -1    0    0    0  501  0.00000000000E+00  0.00000000000E+00  0.34609161129E+03  0.34609161132E+03  0.50400001928E-02 0. -1.
        1   -1    0    0  501    0  0.00000000000E+00  0.00000000000E+00 -0.45169914960E+03  0.45169914963E+03  0.50400001928E-02 0.  1.
    10030    2    1    2    0    0  0.00000000000E+00  0.00000000000E+00 -0.10560753832E+03  0.79779076095E+03  0.79076997042E+03 0.  0.
        1    1    3    3  502    0  0.36937799280E+03 -0.11912648146E+02  0.88968864542E+02  0.38012823052E+03  0.50400001928E-02 0. -1.
       -1    1    3    3    0  502 -0.36937799280E+03  0.11912648146E+02 -0.19457640286E+03  0.41766253044E+03  0.50400001928E-02 0.  1.
</event>
<event>
 5   0  0.1154714E-02  0.8251382E+03  0.7818609E-02  0.9524327E-01
        2   -1    0    0  501    0  0.00000000000E+00  0.00000000000E+00  0.11129110411E+04  0.11129110411E+04  0.25500000920E-02 0. -1.
       -2   -1    0    0    0  501  0.00000000000E+00  0.00000000000E+00 -0.15294418272E+03  0.15294418274E+03  0.25500000920E-02 0.  1.
    10030    2    1    2    0    0  0.00000000000E+00  0.00000000000E+00  0.95996685834E+03  0.12658552238E+04  0.82513821782E+03 0.  0.
        5    1    3    3  502    0 -0.91802669441E+02 -0.11481435374E+03 -0.11135913485E+03  0.18448038609E+03  0.46999998093E+01 0.  1.
       -5    1    3    3    0  502  0.91802669441E+02  0.11481435374E+03  0.10713259932E+04  0.10813748377E+04  0.46999998093E+01 0. -1.
</event>
<event>
 5   0  0.1154714E-02  0.7957787E+03  0.7818609E-02  0.9566147E-01
        2   -1    0    0  501    0  0.00000000000E+00  0.00000000000E+00  0.68667396841E+03  0.68667396842E+03  0.25500000920E-02 0. -1.
       -2   -1    0    0    0  501  0.00000000000E+00  0.00000000000E+00 -0.23055475059E+03  0.23055475060E+03  0.25500000920E-02 0.  1.
    10030    2    1    2    0    0  0.00000000000E+00  0.00000000000E+00  0.45611921782E+03  0.91722871902E+03  0.79577872686E+03 0.  0.
        5    1    3    3  502    0 -0.34436431197E+03 -0.93820147961E+02  0.25431971181E+02  0.35785174958E+03  0.46999998093E+01 0.  1.
       -5    1    3    3    0  502  0.34436431197E+03  0.93820147961E+02  0.43068724664E+03  0.55937696944E+03  0.46999998093E+01 0. -1.
</event>
<event>
 5   0  0.1119792E-02  0.7720970E+03  0.7818609E-02  0.9601308E-01
        2   -1    0    0  501    0  0.00000000000E+00  0.00000000000E+00  0.22482283520E+04  0.22482283520E+04  0.25500000920E-02 0. -1.
       -2   -1    0    0    0  501  0.00000000000E+00  0.00000000000E+00 -0.66289277657E+02  0.66289277706E+02  0.25500000920E-02 0.  1.
    10030    2    1    2    0    0  0.00000000000E+00  0.00000000000E+00  0.21819390743E+04  0.23145176297E+04  0.77209697194E+03 0.  0.
        4    1    3    3  502    0  0.25638617612E+03  0.54940502122E+02  0.24161121230E+03  0.35655283043E+03  0.12699999809E+01 0.  1.
       -4    1    3    3    0  502 -0.25638617612E+03 -0.54940502122E+02  0.19403278620E+04  0.19579647992E+04  0.12699999809E+01 0. -1.
</event>
<event>
 5   0  0.6596225E-03  0.8018749E+03  0.7818609E-02  0.9557307E-01
        1   -1    0    0  501    0  0.00000000000E+00  0.00000000000E+00  0.19363411953E+04  0.19363411953E+04  0.50400001928E-02 0.  1.
       -1   -1    0    0    0  501  0.00000000000E+00  0.00000000000E+00 -0.83017819145E+02  0.83017819298E+02  0.50400001928E-02 0. -1.
    10030    2    1    2    0    0  0.00000000000E+00  0.00000000000E+00  0.18533233762E+04  0.20193590146E+04  0.80187486135E+03 0.  0.
        5    1    3    3  502    0 -0.23347667113E+03  0.70300378818E+02  0.12524465844E+03  0.27415654960E+03  0.46999998093E+01 0. -1.
       -5    1    3    3    0  502  0.23347667113E+03 -0.70300378818E+02  0.17280787177E+04  0.17452024650E+04  0.46999998093E+01 0.  1.
</event>
<event>
 5   0  0.1121480E-02  0.8029209E+03  0.7818609E-02  0.9555799E-01
       -2   -1    0    0    0  501  0.00000000000E+00  0.00000000000E+00  0.41972051796E+03  0.41972051797E+03  0.25500000920E-02 0.  1.
        2   -1    0    0  501    0  0.00000000000E+00  0.00000000000E+00 -0.38399483092E+03  0.38399483093E+03  0.25500000920E-02 0. -1.
    10030    2    1    2    0    0  0.00000000000E+00  0.00000000000E+00  0.35725687035E+02  0.80371534890E+03  0.80292094091E+03 0.  0.
        2    1    3    3  502    0  0.28820790375E+03 -0.23311307576E+03 -0.13644871406E+03  0.39499842208E+03  0.25500000920E-02 0. -1.
       -2    1    3    3    0  502 -0.28820790375E+03  0.23311307576E+03  0.17217440110E+03  0.40871692682E+03  0.25500000920E-02 0.  1.
</event>
<event>
 5   0  0.6600401E-03  0.7942866E+03  0.7818609E-02  0.9568324E-01
        1   -1    0    0  501    0  0.00000000000E+00  0.00000000000E+00  0.11071145448E+04  0.11071145448E+04  0.50400001928E-02 0. -1.
       -1   -1    0    0    0  501  0.00000000000E+00  0.00000000000E+00 -0.14246294544E+03  0.14246294553E+03  0.50400001928E-02 0.  1.
    10030    2    1    2    0    0  0.00000000000E+00  0.00000000000E+00  0.96465159935E+03  0.12495774903E+04  0.79428659576E+03 0.  0.
        2    1    3    3  502    0  0.19438370794E+03 -0.23309744167E+03  0.88527378388E+03  0.93585742272E+03  0.25500000920E-02 0. -1.
       -2    1    3    3    0  502 -0.19438370794E+03  0.23309744167E+03  0.79377815470E+02  0.31372006761E+03  0.25500000920E-02 0.  1.
</event>
<event>
 5   0  0.1121480E-02  0.7953449E+03  0.7818609E-02  0.9566780E-01
        2   -1    0    0  501    0  0.00000000000E+00  0.00000000000E+00  0.80990939997E+03  0.80990939998E+03  0.25500000920E-02 0. -1.
       -2   -1    0    0    0  501  0.00000000000E+00  0.00000000000E+00 -0.19526059796E+03  0.19526059797E+03  0.25500000920E-02 0.  1.
    10030    2    1    2    0    0  0.00000000000E+00  0.00000000000E+00  0.61464880202E+03  0.10051699980E+04  0.79534494087E+03 0.  0.
        2    1    3    3  502    0 -0.10258570292E+03 -0.91249970616E+02 -0.16435689633E+03  0.21415782255E+03  0.25500000920E-02 0.  1.
       -2    1    3    3    0  502  0.10258570292E+03  0.91249970616E+02  0.77900569834E+03  0.79101217540E+03  0.25500000920E-02 0. -1.
</event>
<event>
 5   0  0.6596225E-03  0.8017793E+03  0.7818609E-02  0.9557445E-01
        1   -1    0    0  501    0  0.00000000000E+00  0.00000000000E+00  0.73840294748E+03  0.73840294750E+03  0.50400001928E-02 0. -1.
       -1   -1    0    0    0  501  0.00000000000E+00  0.00000000000E+00 -0.21764879851E+03  0.21764879857E+03  0.50400001928E-02 0.  1.
    10030    2    1    2    0    0  0.00000000000E+00  0.00000000000E+00  0.52075414897E+03  0.95605174607E+03  0.80177930723E+03 0.  0.
        5    1    3    3  502    0  0.13404926803E+03  0.35271260518E+03  0.99004232726E+02  0.39012730769E+03  0.46999998093E+01 0.  1.
       -5    1    3    3    0  502 -0.13404926803E+03 -0.35271260518E+03  0.42174991624E+03  0.56592443838E+03  0.46999998093E+01 0. -1.
</event>
<event>
 5   0  0.1119792E-02  0.7942702E+03  0.7818609E-02  0.9568348E-01
        2   -1    0    0  501    0  0.00000000000E+00  0.00000000000E+00  0.74967659638E+03  0.74967659638E+03  0.25500000920E-02 0. -1.
       -2   -1    0    0    0  501  0.00000000000E+00  0.00000000000E+00 -0.21037911949E+03  0.21037911951E+03  0.25500000920E-02 0.  1.
    10030    2    1    2    0    0  0.00000000000E+00  0.00000000000E+00  0.53929747689E+03  0.96005571589E+03  0.79427023678E+03 0.  0.
        4    1    3    3  502    0  0.35458768232E+03 -0.14775429184E+03  0.39143019218E+03  0.54843683634E+03  0.12699999809E+01 0. -1.
       -4    1    3    3    0  502 -0.35458768232E+03  0.14775429184E+03  0.14786728471E+03  0.41161887955E+03  0.12699999809E+01 0.  1.
</event>
<event>
 5   0  0.6557679E-03  0.8183107E+03  0.7818609E-02  0.9533885E-01
        1   -1    0    0  501    0  0.00000000000E+00  0.00000000000E+00  0.13605783216E+03  0.13605783226E+03  0.50400001928E-02 0.  1.
       -1   -1    0    0    0  501  0.00000000000E+00  0.00000000000E+00 -0.12304188372E+04  0.12304188372E+04  0.50400001928E-02 0. -1.
    10030    2    1    2    0    0  0.00000000000E+00  0.00000000000E+00 -0.10943610051E+04  0.13664766695E+04  0.81831074712E+03 0.  0.
        1    1    3    3  502    0 -0.36298342415E+03  0.18552672085E+03 -0.48859217373E+03  0.63631709282E+03  0.50400001928E-02 0.  1.
       -1    1    3    3    0  502  0.36298342415E+03 -0.18552672085E+03 -0.60576883132E+03  0.73015957666E+03  0.50400001928E-02 0. -1.
</event>
<event>
 5   0  0.6596225E-03  0.7694830E+03  0.7818609E-02  0.9605271E-01
       -1   -1    0    0    0  501  0.00000000000E+00  0.00000000000E+00  0.14900289923E+03  0.14900289932E+03  0.50400001928E-02 0.  1.
        1   -1    0    0  501    0  0.00000000000E+00  0.00000000000E+00 -0.99344383016E+03  0.99344383017E+03  0.50400001928E-02 0. -1.
    10030    2    1    2    0    0  0.00000000000E+00  0.00000000000E+00 -0.84444093092E+03  0.11424467295E+04  0.76948297180E+03 0.  0.
        5    1    3    3  502    0 -0.11075825524E+03 -0.16004765944E+03  0.70468191557E+02  0.20705192685E+03  0.46999998093E+01 0.  1.
       -5    1    3    3    0  502  0.11075825524E+03  0.16004765944E+03 -0.91490912248E+03  0.93539480263E+03  0.46999998093E+01 0. -1.
</event>
<event>
 5   0  0.6551489E-03  0.8080712E+03  0.7818609E-02  0.9548407E-01
       -1   -1    0    0    0  501  0.00000000000E+00  0.00000000000E+00  0.52836707747E+03  0.52836707749E+03  0.50400001928E-02 0. -1.
        1   -1    0    0  501    0  0.00000000000E+00  0.00000000000E+00 -0.30896088650E+03  0.30896088654E+03  0.50400001928E-02 0.  1.
    10030    2    1    2    0    0  0.00000000000E+00  0.00000000000E+00  0.21940619096E+03  0.83732796404E+03  0.80807118667E+03 0.  0.
        4    1    3    3  502    0 -0.27478104598E+03 -0.29038351107E+03  0.17026522779E+03  0.43453316033E+03  0.12699999809E+01 0. -1.
       -4    1    3    3    0  502  0.27478104598E+03  0.29038351107E+03  0.49140963177E+02  0.40279480371E+03  0.12699999809E+01 0.  1.
</event>
<event>
 5   0  0.1121480E-02  0.7989936E+03  0.7818609E-02  0.9561475E-01
       -2   -1    0    0    0  501  0.00000000000E+00  0.00000000000E+00  0.16165130947E+03  0.16165130949E+03  0.25500000920E-02 0. -1.
        2   -1    0    0  501    0  0.00000000000E+00  0.00000000000E+00 -0.98729589556E+03  0.98729589556E+03  0.25500000920E-02 0.  1.
    10030    2    1    2    0    0  0.00000000000E+00  0.00000000000E+00 -0.82564458608E+03  0.11489472051E+04  0.79899355284E+03 0.  0.
        2    1    3    3  502    0  0.19754650894E+03 -0.13143470410E+03 -0.87499329277E+03  0.90659415784E+03  0.25500000920E-02 0.  1.
       -2    1    3    3    0  502 -0.19754650894E+03  0.13143470410E+03  0.49348706684E+02  0.24235304721E+03  0.25500000920E-02 0. -1.
</event>
<event>
 5   0  0.1092868E-02  0.8314382E+03  0.7818609E-02  0.9515594E-01
        2   -1    0    0  501    0  0.00000000000E+00  0.00000000000E+00  0.26463421671E+03  0.26463421672E+03  0.25500000920E-02 0.  1.
       -2   -1    0    0    0  501  0.00000000000E+00  0.00000000000E+00 -0.65306134804E+03  0.65306134804E+03  0.25500000920E-02 0. -1.
    10030    2    1    2    0    0  0.00000000000E+00  0.00000000000E+00 -0.38842713133E+03  0.91769556476E+03  0.83143821974E+03 0.  0.
        3    1    3    3  502    0 -0.38374866147E+03  0.15893118235E+03 -0.17508938586E+03  0.45075321313E+03  0.10100000352E+00 0.  1.
       -3    1    3    3    0  502  0.38374866147E+03 -0.15893118235E+03 -0.21333774547E+03  0.46694235163E+03  0.10100000352E+00 0. -1.
</event>
<event>
 5   0  0.6596225E-03  0.7994173E+03  0.7818609E-02  0.9560861E-01
        1   -1    0    0  501    0  0.00000000000E+00  0.00000000000E+00  0.40519643592E+03  0.40519643595E+03  0.50400001928E-02 0.  1.
       -1   -1    0    0    0  501  0.00000000000E+00  0.00000000000E+00 -0.39429514715E+03  0.39429514718E+03  0.50400001928E-02 0. -1.
    10030    2    1    2    0    0  0.00000000000E+00  0.00000000000E+00  0.10901288767E+02  0.79949158314E+03  0.79941725864E+03 0.  0.
        5    1    3    3  502    0 -0.13355741167E+03 -0.36990622491E+03  0.76708240161E+02  0.40071740859E+03  0.46999998093E+01 0.  1.
       -5    1    3    3    0  502  0.13355741167E+03  0.36990622491E+03 -0.65806951394E+02  0.39877417455E+03  0.46999998093E+01 0. -1.
</event>
<event>
 5   0  0.1154714E-02  0.7966111E+03  0.7818609E-02  0.9564935E-01
       -2   -1    0    0    0  501  0.00000000000E+00  0.00000000000E+00  0.30053094623E+03  0.30053094624E+03  0.25500000920E-02 0. -1.
        2   -1    0    0  501    0  0.00000000000E+00  0.00000000000E+00 -0.52789003808E+03  0.52789003809E+03  0.25500000920E-02 0.  1.
    10030    2    1    2    0    0  0.00000000000E+00  0.00000000000E+00 -0.22735909186E+03  0.82842098433E+03  0.79661105355E+03 0.  0.
        5    1    3    3  502    0 -0.22185958972E+03 -0.29663322997E+03 -0.26585196192E+03  0.45597401936E+03  0.46999998093E+01 0.  1.
       -5    1    3    3    0  502  0.22185958972E+03  0.29663322997E+03  0.38492870069E+02  0.37244696497E+03  0.46999998093E+01 0. -1.
</event>
<event>
 5   0  0.1154714E-02  0.7725750E+03  0.7818609E-02  0.9600585E-01
       -2   -1    0    0    0  501  0.00000000000E+00  0.00000000000E+00  0.66451661368E+02  0.66451661417E+02  0.25500000920E-02 0. -1.
        2   -1    0    0  501    0  0.00000000000E+00  0.00000000000E+00 -0.22455124790E+04  0.22455124790E+04  0.25500000920E-02 0.  1.
    10030    2    1    2    0    0  0.00000000000E+00  0.00000000000E+00 -0.21790608177E+04  0.23119641405E+04  0.77257500584E+03 0.  0.
        5    1    3    3  502    0  0.22226448037E+03 -0.29821453548E+03 -0.77763709524E+03  0.86201795242E+03  0.46999998093E+01 0. -1.
       -5    1    3    3    0  502 -0.22226448037E+03  0.29821453548E+03 -0.14014237224E+04  0.14499461880E+04  0.46999998093E+01 0.  1.
</event>
<event>
 5   0  0.1154714E-02  0.8042375E+03  0.7818609E-02  0.9553904E-01
        2   -1    0    0  501    0  0.00000000000E+00  0.00000000000E+00  0.70986680376E+03  0.70986680376E+03  0.25500000920E-02 0.  1.
       -2   -1    0    0    0  501  0.00000000000E+00  0.00000000000E+00 -0.22778848845E+03  0.22778848846E+03  0.25500000920E-02 0. -1.
    10030    2    1    2    0    0  0.00000000000E+00  0.00000000000E+00  0.48207831531E+03  0.93765529222E+03  0.80423749287E+03 0.  0.
        5    1    3    3  502    0  0.16507216105E+03  0.24969735211E+03  0.55405456192E+03  0.62975879001E+03  0.46999998093E+01 0.  1.
       -5    1    3    3    0  502 -0.16507216105E+03 -0.24969735211E+03 -0.71976246613E+02  0.30789650222E+03  0.46999998093E+01 0. -1.
</event>
<event>
 5   0  0.6551489E-03  0.7870389E+03  0.7818609E-02  0.9578970E-01
       -1   -1    0    0    0  501  0.00000000000E+00  0.00000000000E+00  0.64282519606E+03  0.64282519608E+03  0.50400001928E-02 0. -1.
        1   -1    0    0  501    0  0.00000000000E+00  0.00000000000E+00 -0.24090149839E+03  0.24090149845E+03  0.50400001928E-02 0.  1.
    10030    2    1    2    0    0  0.00000000000E+00  0.00000000000E+00  0.40192369767E+03  0.88372669453E+03  0.78703888841E+03 0.  0.
        4    1    3    3  502    0  0.47837933682E+02  0.26525409550E+03 -0.12098051504E+03  0.29544221262E+03  0.12699999809E+01 0.  1.
       -4    1    3    3    0  502 -0.47837933682E+02 -0.26525409550E+03  0.52290421271E+03  0.58828448190E+03  0.12699999809E+01 0. -1.
</event>
<event>
 5   0  0.1119792E-02  0.8139310E+03  0.7818609E-02  0.9540069E-01
       -2   -1    0    0    0  501  0.00000000000E+00  0.00000000000E+00  0.10502122163E+04  0.10502122163E+04  0.25500000920E-02 0. -1.
        2   -1    0    0  501    0  0.00000000000E+00  0.00000000000E+00 -0.15770232628E+03  0.15770232630E+03  0.25500000920E-02 0.  1.
    10030    2    1    2    0    0  0.00000000000E+00  0.00000000000E+00  0.89250988999E+03  0.12079145426E+04  0.81393097892E+03 0.  0.
        4    1    3    3  502    0  0.26888902836E+03  0.16467729167E+03  0.64420079159E+02  0.32182523124E+03  0.12699999809E+01 0.  1.
       -4    1    3    3    0  502 -0.26888902836E+03 -0.16467729167E+03  0.82808981083E+03  0.88608931134E+03  0.12699999809E+01 0. -1.
</event>
<event>
 5   0  0.6557679E-03  0.7981298E+03  0.7818609E-02  0.9562728E-01
       -1   -1    0    0    0  501  0.00000000000E+00  0.00000000000E+00  0.26507999430E+03  0.26507999434E+03  0.50400001928E-02 0.  1.
        1   -1    0    0  501    0  0.00000000000E+00  0.00000000000E+00 -0.60077254882E+03  0.60077254884E+03  0.50400001928E-02 0. -1.
    10030    2    1    2    0    0  0.00000000000E+00  0.00000000000E+00 -0.33569255452E+03  0.86585254318E+03  0.79812977352E+03 0.  0.
        1    1    3    3  502    0  0.21467709074E+03 -0.20244434529E+03 -0.45931190084E+03  0.54592800671E+03  0.50400001928E-02 0. -1.
       -1    1    3    3    0  502 -0.21467709074E+03  0.20244434529E+03  0.12361934632E+03  0.31992453648E+03  0.50400001928E-02 0.  1.
</event>
<event>
 5   0  0.4385875E-03  0.8015994E+03  0.7818609E-02  0.9557705E-01
        3   -1    0    0  501    0  0.00000000000E+00  0.00000000000E+00  0.20412294735E+03  0.20412297233E+03  0.10100000352E+00 0.  1.
       -3   -1    0    0    0  501  0.00000000000E+00  0.00000000000E+00 -0.78697853531E+03  0.78697854180E+03  0.10100000352E+00 0. -1.
    10030    2    1    2    0    0  0.00000000000E+00  0.00000000000E+00 -0.58285558797E+03  0.99110151413E+03  0.80159938553E+03 0.  0.
        1    1    3    3  502    0  0.40008427625E+03  0.20307162889E+02 -0.27575981849E+03  0.48633659793E+03  0.50400001928E-02 0. -1.
       -1    1    3    3    0  502 -0.40008427625E+03 -0.20307162889E+02 -0.30709576948E+03  0.50476491620E+03  0.50400001928E-02 0.  1.
</event>
<event>
 5   0  0.6557679E-03  0.7358873E+03  0.7818609E-02  0.9657755E-01
       -1   -1    0    0    0  501  0.00000000000E+00  0.00000000000E+00  0.45165814878E+03  0.45165814881E+03  0.50400001928E-02 0. -1.
        1   -1    0    0  501    0  0.00000000000E+00  0.00000000000E+00 -0.29974560745E+03  0.29974560750E+03  0.50400001928E-02 0.  1.
    10030    2    1    2    0    0  0.00000000000E+00  0.00000000000E+00  0.15191254133E+03  0.75140375630E+03  0.73588734517E+03 0.  0.
        1    1    3    3  502    0 -0.27553770316E+03 -0.16217424659E+03 -0.10998511348E+03  0.33810980070E+03  0.50400001928E-02 0.  1.
       -1    1    3    3    0  502  0.27553770316E+03  0.16217424659E+03  0.26189765480E+03  0.41329395560E+03  0.50400001928E-02 0. -1.
</event>
<event>
 5   0  0.6600401E-03  0.7855742E+03  0.7818609E-02  0.9581136E-01
        1   -1    0    0  501    0  0.00000000000E+00  0.00000000000E+00  0.18859467855E+04  0.18859467855E+04  0.50400001928E-02 0.  1.
       -1   -1    0    0    0  501  0.00000000000E+00  0.00000000000E+00 -0.81805965853E+02  0.81805966008E+02  0.50400001928E-02 0. -1.
    10030    2    1    2    0    0  0.00000000000E+00  0.00000000000E+00  0.18041408197E+04  0.19677527515E+04  0.78557418108E+03 0.  0.
        2    1    3    3  502    0  0.77963498744E+01  0.64467930355E+02 -0.68266934336E+02  0.94219273218E+02  0.25500000920E-02 0. -1.
       -2    1    3    3    0  502 -0.77963498744E+01 -0.64467930355E+02  0.18724077540E+04  0.18735334783E+04  0.25500000920E-02 0.  1.
</event>
<event>
 5   0  0.1119792E-02  0.8035726E+03  0.7818609E-02  0.9554860E-01
       -2   -1    0    0    0  501  0.00000000000E+00  0.00000000000E+00  0.93251356112E+02  0.93251356147E+02  0.25500000920E-02 0. -1.
        2   -1    0    0  501    0  0.00000000000E+00  0.00000000000E+00 -0.17311516035E+04  0.17311516035E+04  0.25500000920E-02 0.  1.
    10030    2    1    2    0    0  0.00000000000E+00  0.00000000000E+00 -0.16379002474E+04  0.18244029596E+04  0.80357260953E+03 0.  0.
        4    1    3    3  502    0 -0.13950911860E+03  0.18607157007E+03 -0.75097404964E+02  0.24439037725E+03  0.12699999809E+01 0. -1.
       -4    1    3    3    0  502  0.13950911860E+03 -0.18607157007E+03 -0.15628028424E+04  0.15800125824E+04  0.12699999809E+01 0.  1.
</event>
<event>
 5   0  0.6551489E-03  0.7954903E+03  0.7818609E-02  0.9566568E-01
        1   -1    0    0  501    0  0.00000000000E+00  0.00000000000E+00  0.14008417329E+04  0.14008417329E+04  0.50400001928E-02 0.  1.
       -1   -1    0    0    0  501  0.00000000000E+00  0.00000000000E+00 -0.11293296659E+03  0.11293296671E+03  0.50400001928E-02 0. -1.
    10030    2    1    2    0    0  0.00000000000E+00  0.00000000000E+00  0.12879087663E+04  0.15137746996E+04  0.79549032105E+03 0.  0.
        4    1    3    3  502    0  0.25700008374E+03  0.26588324956E+03  0.36520921662E+03  0.51973294127E+03  0.12699999809E+01 0. -1.
       -4    1    3    3    0  502 -0.25700008374E+03 -0.26588324956E+03  0.92269954970E+03  0.99404175836E+03  0.12699999809E+01 0.  1.
</event>
<event>
 5   0  0.6557679E-03  0.7918863E+03  0.7818609E-02  0.9571836E-01
        1   -1    0    0  501    0  0.00000000000E+00  0.00000000000E+00  0.75560425314E+03  0.75560425316E+03  0.50400001928E-02 0. -1.
       -1   -1    0    0    0  501  0.00000000000E+00  0.00000000000E+00 -0.20747761875E+03  0.20747761882E+03  0.50400001928E-02 0.  1.
    10030    2    1    2    0    0  0.00000000000E+00  0.00000000000E+00  0.54812663439E+03  0.96308187198E+03  0.79188628275E+03 0.  0.
        1    1    3    3  502    0 -0.38094009544E+03 -0.98785398239E+02  0.32703465204E+03  0.51168894348E+03  0.50400001928E-02 0.  1.
       -1    1    3    3    0  502  0.38094009544E+03  0.98785398239E+02  0.22109198234E+03  0.45139292850E+03  0.50400001928E-02 0. -1.
</event>
<event>
 5   0  0.1106332E-02  0.7991904E+03  0.7818609E-02  0.9561190E-01
       -2   -1    0    0    0  501  0.00000000000E+00  0.00000000000E+00  0.19779124067E+03  0.19779124069E+03  0.25500000920E-02 0.  1.
        2   -1    0    0  501    0  0.00000000000E+00  0.00000000000E+00 -0.80729719656E+03  0.80729719657E+03  0.25500000920E-02 0. -1.
    10030    2    1    2    0    0  0.00000000000E+00  0.00000000000E+00 -0.60950595589E+03  0.10050884373E+04  0.79919037560E+03 0.  0.
        1    1    3    3  502    0 -0.38208774678E+03 -0.16723364575E+02 -0.15914099702E+03  0.41424216845E+03  0.50400001928E-02 0.  1.
       -1    1    3    3    0  502  0.38208774678E+03  0.16723364575E+02 -0.45036495886E+03  0.59084626881E+03  0.50400001928E-02 0. -1.
</event>
<event>
 5   0  0.1154714E-02  0.8028540E+03  0.7818609E-02  0.9555895E-01
        2   -1    0    0  501    0  0.00000000000E+00  0.00000000000E+00  0.87608282647E+03  0.87608282647E+03  0.25500000920E-02 0. -1.
       -2   -1    0    0    0  501  0.00000000000E+00  0.00000000000E+00 -0.18393653524E+03  0.18393653526E+03  0.25500000920E-02 0.  1.
    10030    2    1    2    0    0  0.00000000000E+00  0.00000000000E+00  0.69214629123E+03  0.10600193617E+04  0.80285400838E+03 0.  0.
        5    1    3    3  502    0 -0.15434743668E+03  0.20345618482E+03  0.75495287176E+03  0.79699026276E+03  0.46999998093E+01 0. -1.
       -5    1    3    3    0  502  0.15434743668E+03 -0.20345618482E+03 -0.62806580534E+02  0.26302909897E+03  0.46999998093E+01 0.  1.
</event>
<event>
 5   0  0.6551489E-03  0.7683917E+03  0.7818609E-02  0.9606930E-01
        1   -1    0    0  501    0  0.00000000000E+00  0.00000000000E+00  0.32768503921E+03  0.32768503925E+03  0.50400001928E-02 0. -1.
       -1   -1    0    0    0  501  0.00000000000E+00  0.00000000000E+00 -0.45045226780E+03  0.45045226783E+03  0.50400001928E-02 0.  1.
    10030    2    1    2    0    0  0.00000000000E+00  0.00000000000E+00 -0.12276722859E+03  0.77813730708E+03  0.76839174661E+03 0.  0.
        4    1    3    3  502    0 -0.60726379835E+02  0.36465336522E+03  0.44562037977E+02  0.37235353913E+03  0.12699999809E+01 0. -1.
       -4    1    3    3    0  502  0.60726379835E+02 -0.36465336522E+03 -0.16732926656E+03  0.40578376794E+03  0.12699999809E+01 0.  1.
</event>
<event>
 5   0  0.1119792E-02  0.7993410E+03  0.7818609E-02  0.9560972E-01
       -2   -1    0    0    0  501  0.00000000000E+00  0.00000000000E+00  0.16379225506E+03  0.16379225508E+03  0.25500000920E-02 0.  1.
        2   -1    0    0  501    0  0.00000000000E+00  0.00000000000E+00 -0.97523835495E+03  0.97523835495E+03  0.25500000920E-02 0. -1.
    10030    2    1    2    0    0  0.00000000000E+00  0.00000000000E+00 -0.81144609989E+03  0.11390306100E+04  0.79934095201E+03 0.  0.
        4    1    3    3  502    0 -0.29561433783E+03 -0.24473064426E+03 -0.24670115753E+03  0.45622801207E+03  0.12699999809E+01 0. -1.
       -4    1    3    3    0  502  0.29561433783E+03  0.24473064426E+03 -0.56474494236E+03  0.68280259796E+03  0.12699999809E+01 0.  1.
</event>
<event>
 5   0  0.1121480E-02  0.7991024E+03  0.7818609E-02  0.9561317E-01
        2   -1    0    0  501    0  0.00000000000E+00  0.00000000000E+00  0.10954481936E+04  0.10954481936E+04  0.25500000920E-02 0.  1.
       -2   -1    0    0    0  501  0.00000000000E+00  0.00000000000E+00 -0.14573135804E+03  0.14573135806E+03  0.25500000920E-02 0. -1.
    10030    2    1    2    0    0  0.00000000000E+00  0.00000000000E+00  0.94971683560E+03  0.12411795517E+04  0.79910237875E+03 0.  0.
        2    1    3    3  502    0  0.37976643661E+03  0.12048276577E+03  0.42819697869E+03  0.58488571173E+03  0.25500000920E-02 0.  1.
       -2    1    3    3    0  502 -0.37976643661E+03 -0.12048276577E+03  0.52151985691E+03  0.65629383997E+03  0.25500000920E-02 0. -1.
</event>
<event>
 5   0  0.6557679E-03  0.7996669E+03  0.7818609E-02  0.9560499E-01
        1   -1    0    0  501    0  0.00000000000E+00  0.00000000000E+00  0.60531403252E+03  0.60531403254E+03  0.50400001928E-02 0. -1.
       -1   -1    0    0    0  501  0.00000000000E+00  0.00000000000E+00 -0.26410550752E+03  0.26410550757E+03  0.50400001928E-02 0.  1.
    10030    2    1    2    0    0  0.00000000000E+00  0.00000000000E+00  0.34120852500E+03  0.86941954011E+03  0.79966685514E+03 0.  0.
        1    1    3    3  502    0  0.22922054651E+03  0.32471726514E+03  0.12342049992E+03  0.41619224050E+03  0.50400001928E-02 0.  1.
       -1    1    3    3    0  502 -0.22922054651E+03 -0.32471726514E+03  0.21778802508E+03  0.45322729962E+03  0.50400001928E-02 0. -1.
</event>
<event>
 5   0  0.1121480E-02  0.7860863E+03  0.7818609E-02  0.9580378E-01
       -2   -1    0    0    0  501  0.00000000000E+00  0.00000000000E+00  0.33691095623E+03  0.33691095624E+03  0.25500000920E-02 0. -1.
        2   -1    0    0  501    0  0.00000000000E+00  0.00000000000E+00 -0.45852742215E+03  0.45852742215E+03  0.25500000920E-02 0.  1.
    10030    2    1    2    0    0  0.00000000000E+00  0.00000000000E+00 -0.12161646592E+03  0.79543837839E+03  0.78608628600E+03 0.  0.
        2    1    3    3  502    0 -0.19242059270E+03  0.34147973897E+03 -0.31327178958E+02  0.39321176072E+03  0.25500000920E-02 0.  1.
       -2    1    3    3    0  502  0.19242059270E+03 -0.34147973897E+03 -0.90289286962E+02  0.40222661767E+03  0.25500000920E-02 0. -1.
</event>
<event>
 5   0  0.6600401E-03  0.7978415E+03  0.7818609E-02  0.9563147E-01
        1   -1    0    0  501    0  0.00000000000E+00  0.00000000000E+00  0.66210637417E+03  0.66210637419E+03  0.50400001928E-02 0.  1.
       -1   -1    0    0    0  501  0.00000000000E+00  0.00000000000E+00 -0.24035075891E+03  0.24035075896E+03  0.50400001928E-02 0. -1.
    10030    2    1    2    0    0  0.00000000000E+00  0.00000000000E+00  0.42175561527E+03  0.90245713315E+03  0.79784151193E+03 0.  0.
        2    1    3    3  502    0 -0.35375563010E+03  0.11433858796E+03  0.47269467450E+02  0.37476760944E+03  0.25500000920E-02 0. -1.
       -2    1    3    3    0  502  0.35375563010E+03 -0.11433858796E+03  0.37448614782E+03  0.52768952371E+03  0.25500000920E-02 0.  1.
</event>
<event>
 5   0  0.6551489E-03  0.7863241E+03  0.7818609E-02  0.9580026E-01
       -1   -1    0    0    0  501  0.00000000000E+00  0.00000000000E+00  0.87133440315E+02  0.87133440461E+02  0.50400001928E-02 0. -1.
        1   -1    0    0  501    0  0.00000000000E+00  0.00000000000E+00 -0.17740190393E+04  0.17740190393E+04  0.50400001928E-02 0.  1.
    10030    2    1    2    0    0  0.00000000000E+00  0.00000000000E+00 -0.16868855989E+04  0.18611524797E+04  0.78632406098E+03 0.  0.
        4    1    3    3  502    0  0.17747349088E+03  0.34888898475E+03 -0.93055014352E+03  0.10095273875E+04  0.12699999809E+01 0.  1.
       -4    1    3    3    0  502 -0.17747349088E+03 -0.34888898475E+03 -0.75633545543E+03  0.85162509221E+03  0.12699999809E+01 0. -1.
</event>
<event>
 5   0  0.1106332E-02  0.8058428E+03  0.7818609E-02  0.9551598E-01
        2   -1    0    0  501    0  0.00000000000E+00  0.00000000000E+00  0.36134753416E+03  0.36134753416E+03  0.25500000920E-02 0.  1.
       -2   -1    0    0    0  501  0.00000000000E+00  0.00000000000E+00 -0.44927848194E+03  0.44927848195E+03  0.25500000920E-02 0. -1.
    10030    2    1    2    0    0  0.00000000000E+00  0.00000000000E+00 -0.87930947788E+02  0.81062601612E+03  0.80584284226E+03 0.  0.
        1    1    3    3  502    0 -0.19857255353E+03 -0.20902637141E+03 -0.32710121787E+03  0.43602556086E+03  0.50400001928E-02 0. -1.
       -1    1    3    3    0  502  0.19857255353E+03  0.20902637141E+03  0.23917027009E+03  0.37460045526E+03  0.50400001928E-02 0.  1.
</event>
<event>
 5   0  0.1121480E-02  0.7987900E+03  0.7818609E-02  0.9561770E-01
       -2   -1    0    0    0  501  0.00000000000E+00  0.00000000000E+00  0.11807883107E+03  0.11807883110E+03  0.25500000920E-02 0. -1.
        2   -1    0    0  501    0  0.00000000000E+00  0.00000000000E+00 -0.13509310493E+04  0.13509310493E+04  0.25500000920E-02 0.  1.
    10030    2    1    2    0    0  0.00000000000E+00  0.00000000000E+00 -0.12328522182E+04  0.14690098804E+04  0.79878998285E+03 0.  0.
        2    1    3    3  502    0 -0.26799857856E+02  0.17127005602E+03  0.45284019888E+02  0.17917116658E+03  0.25500000920E-02 0. -1.
       -2    1    3    3    0  502  0.26799857856E+02 -0.17127005602E+03 -0.12781362381E+04  0.12898387138E+04  0.25500000920E-02 0.  1.
</event>
<event>
 5   0  0.6557679E-03  0.8112244E+03  0.7818609E-02  0.9543911E-01
        1   -1    0    0  501    0  0.00000000000E+00  0.00000000000E+00  0.53317508154E+03  0.53317508156E+03  0.50400001928E-02 0.  1.
       -1   -1    0    0    0  501  0.00000000000E+00  0.00000000000E+00 -0.30856889128E+03  0.30856889132E+03  0.50400001928E-02 0. -1.
    10030    2    1    2    0    0  0.00000000000E+00  0.00000000000E+00  0.22460619026E+03  0.84174397288E+03  0.81122436796E+03 0.  0.
        1    1    3    3  502    0 -0.95777194615E+02  0.11653892488E+03  0.50298749386E+03  0.52511999679E+03  0.50400001928E-02 0.  1.
       -1    1    3    3    0  502  0.95777194615E+02 -0.11653892488E+03 -0.27838130360E+03  0.31662397610E+03  0.50400001928E-02 0. -1.
</event>
<event>
 5   0  0.6600401E-03  0.7997482E+03  0.7818609E-02  0.9560382E-01
       -1   -1    0    0    0  501  0.00000000000E+00  0.00000000000E+00  0.13698610881E+03  0.13698610890E+03  0.50400001928E-02 0. -1.
        1   -1    0    0  501    0  0.00000000000E+00  0.00000000000E+00 -0.11672665594E+04  0.11672665594E+04  0.50400001928E-02 0.  1.
    10030    2    1    2    0    0  0.00000000000E+00  0.00000000000E+00 -0.10302804506E+04  0.13042526683E+04  0.79974822035E+03 0.  0.
        2    1    3    3  502    0 -0.30866808512E+03  0.23479017559E+03 -0.35621268192E+03  0.52658322048E+03  0.25500000920E-02 0.  1.
       -2    1    3    3    0  502  0.30866808512E+03 -0.23479017559E+03 -0.67406776869E+03  0.77766944785E+03  0.25500000920E-02 0. -1.
</event>
<event>
 5   0  0.1106332E-02  0.8066834E+03  0.7818609E-02  0.9550393E-01
        2   -1    0    0  501    0  0.00000000000E+00  0.00000000000E+00  0.98631108727E+03  0.98631108728E+03  0.25500000920E-02 0. -1.
       -2   -1    0    0    0  501  0.00000000000E+00  0.00000000000E+00 -0.16494242270E+03  0.16494242272E+03  0.25500000920E-02 0.  1.
    10030    2    1    2    0    0  0.00000000000E+00  0.00000000000E+00  0.82136866457E+03  0.11512535100E+04  0.80668343303E+03 0.  0.
        1    1    3    3  502    0 -0.34379550095E+03  0.18438415623E+03  0.26450355077E+03  0.47133320691E+03  0.50400001928E-02 0.  1.
       -1    1    3    3    0  502  0.34379550095E+03 -0.18438415623E+03  0.55686511381E+03  0.67992030308E+03  0.50400001928E-02 0. -1.
</event>
<event>
 5   0  0.6600401E-03  0.8039593E+03  0.7818609E-02  0.9554304E-01
       -1   -1    0    0    0  501  0.00000000000E+00  0.00000000000E+00  0.28010559201E+03  0.28010559206E+03  0.50400001928E-02 0. -1.
        1   -1    0    0  501    0  0.00000000000E+00  0.00000000000E+00 -0.57688110584E+03  0.57688110586E+03  0.50400001928E-02 0.  1.
    10030    2    1    2    0    0  0.00000000000E+00  0.00000000000E+00 -0.29677551382E+03  0.85698669792E+03  0.80395926191E+03 0.  0.
        2    1    3    3  502    0 -0.21520703775E+03 -0.33875895962E+03 -0.12417568203E+03  0.42010867860E+03  0.25500000920E-02 0. -1.
       -2    1    3    3    0  502  0.21520703775E+03  0.33875895962E+03 -0.17259983179E+03  0.43687801932E+03  0.25500000920E-02 0.  1.
</event>
<event>
 5   0  0.6517392E-03  0.7963598E+03  0.7818609E-02  0.9565301E-01
        1   -1    0    0  501    0  0.00000000000E+00  0.00000000000E+00  0.95559099197E+03  0.95559099198E+03  0.50400001928E-02 0.  1.
       -1   -1    0    0    0  501  0.00000000000E+00  0.00000000000E+00 -0.16591535847E+03  0.16591535855E+03  0.50400001928E-02 0. -1.
    10030    2    1    2    0    0  0.00000000000E+00  0.00000000000E+00  0.78967563350E+03  0.11215063505E+04  0.79635977305E+03 0.  0.
        3    1    3    3  502    0  0.74543868478E+01 -0.36156788405E+03  0.62947917950E+03  0.72596897336E+03  0.10100000352E+00 0. -1.
       -3    1    3    3    0  502 -0.74543868478E+01  0.36156788405E+03  0.16019645400E+03  0.39553737717E+03  0.10100000352E+00 0.  1.
</event>
<event>
 5   0  0.1119792E-02  0.7974731E+03  0.7818609E-02  0.9563682E-01
        2   -1    0    0  501    0  0.00000000000E+00  0.00000000000E+00  0.28732531199E+03  0.28732531200E+03  0.25500000920E-02 0.  1.
       -2   -1    0    0    0  501  0.00000000000E+00  0.00000000000E+00 -0.55334787393E+03  0.55334787394E+03  0.25500000920E-02 0. -1.
    10030    2    1    2    0    0  0.00000000000E+00  0.00000000000E+00 -0.26602256195E+03  0.84067318594E+03  0.79747313565E+03 0.  0.
        4    1    3    3  502    0 -0.10040144484E+03  0.82018926657E+01 -0.53971034835E+03  0.54903241633E+03  0.12699999809E+01 0. -1.
       -4    1    3    3    0  502  0.10040144484E+03 -0.82018926657E+01  0.27368778640E+03  0.29164076960E+03  0.12699999809E+01 0.  1.
</event>
<event>
 5   0  0.1119792E-02  0.7883629E+03  0.7818609E-02  0.9577016E-01
        2   -1    0    0  501    0  0.00000000000E+00  0.00000000000E+00  0.31362597334E+03  0.31362597335E+03  0.25500000920E-02 0.  1.
       -2   -1    0    0    0  501  0.00000000000E+00  0.00000000000E+00 -0.49542781933E+03  0.49542781934E+03  0.25500000920E-02 0. -1.
    10030    2    1    2    0    0  0.00000000000E+00  0.00000000000E+00 -0.18180184599E+03  0.80905379269E+03  0.78836294196E+03 0.  0.
        4    1    3    3  502    0 -0.92092921106E+01  0.37253285316E+03 -0.22277197691E+03  0.43415953789E+03  0.12699999809E+01 0. -1.
       -4    1    3    3    0  502  0.92092921106E+01 -0.37253285316E+03  0.40970130920E+02  0.37489425479E+03  0.12699999809E+01 0.  1.
</event>
<event>
 5   0  0.1119792E-02  0.8030324E+03  0.7818609E-02  0.9555638E-01
       -2   -1    0    0    0  501  0.00000000000E+00  0.00000000000E+00  0.38778520546E+03  0.38778520547E+03  0.25500000920E-02 0.  1.
        2   -1    0    0  501    0  0.00000000000E+00  0.00000000000E+00 -0.41573339303E+03  0.41573339304E+03  0.25500000920E-02 0. -1.
    10030    2    1    2    0    0  0.00000000000E+00  0.00000000000E+00 -0.27948187566E+02  0.80351859851E+03  0.80303240094E+03 0.  0.
        4    1    3    3  502    0  0.17565921858E+03 -0.35238768002E+03  0.64689076698E+02  0.39902321692E+03  0.12699999809E+01 0.  1.
       -4    1    3    3    0  502 -0.17565921858E+03  0.35238768002E+03 -0.92637264264E+02  0.40449538159E+03  0.12699999809E+01 0. -1.
</event>
<event>
 5   0  0.1092868E-02  0.8035187E+03  0.7818609E-02  0.9554938E-01
        2   -1    0    0  501    0  0.00000000000E+00  0.00000000000E+00  0.14589690154E+04  0.14589690154E+04  0.25500000920E-02 0. -1.
       -2   -1    0    0    0  501  0.00000000000E+00  0.00000000000E+00 -0.11063331666E+03  0.11063331669E+03  0.25500000920E-02 0.  1.
    10030    2    1    2    0    0  0.00000000000E+00  0.00000000000E+00  0.13483356988E+04  0.15696023321E+04  0.80351871442E+03 0.  0.
        3    1    3    3  502    0 -0.37270555769E+02 -0.13587213424E+03 -0.60793132920E+02  0.15344753631E+03  0.10100000352E+00 0.  1.
       -3    1    3    3    0  502  0.37270555769E+02  0.13587213424E+03  0.14091288317E+04  0.14161547958E+04  0.10100000352E+00 0. -1.
</event>
<event>
 5   0  0.6557679E-03  0.8018458E+03  0.7818609E-02  0.9557349E-01
       -1   -1    0    0    0  501  0.00000000000E+00  0.00000000000E+00  0.22238745083E+03  0.22238745089E+03  0.50400001928E-02 0. -1.
        1   -1    0    0  501    0  0.00000000000E+00  0.00000000000E+00 -0.72278877151E+03  0.72278877153E+03  0.50400001928E-02 0.  1.
    10030    2    1    2    0    0  0.00000000000E+00  0.00000000000E+00 -0.50040132068E+03  0.94517622242E+03  0.80184575181E+03 0.  0.
        1    1    3    3  502    0 -0.35368337496E+03 -0.15229350949E+03 -0.38174580116E+03  0.54223159211E+03  0.50400001928E-02 0.  1.
       -1    1    3    3    0  502  0.35368337496E+03  0.15229350949E+03 -0.11865551952E+03  0.40294463031E+03  0.50400001928E-02 0. -1.
</event>
<event>
 5   0  0.1121480E-02  0.8137899E+03  0.7818609E-02  0.9540269E-01
       -2   -1    0    0    0  501  0.00000000000E+00  0.00000000000E+00  0.55336172016E+03  0.55336172017E+03  0.25500000920E-02 0.  1.
        2   -1    0    0  501    0  0.00000000000E+00  0.00000000000E+00 -0.29919577659E+03  0.29919577660E+03  0.25500000920E-02 0. -1.
    10030    2    1    2    0    0  0.00000000000E+00  0.00000000000E+00  0.25416594357E+03  0.85255749677E+03  0.81378987363E+03 0.  0.
        2    1    3    3  502    0 -0.30144852956E+01  0.38715927414E+03  0.25819314091E+03  0.46536554309E+03  0.25500000920E-02 0.  1.
       -2    1    3    3    0  502  0.30144852956E+01 -0.38715927414E+03 -0.40271973345E+01  0.38719195368E+03  0.25500000920E-02 0. -1.
</event>
<event>
 5   0  0.1106332E-02  0.8024079E+03  0.7818609E-02  0.9556538E-01
       -2   -1    0    0    0  501  0.00000000000E+00  0.00000000000E+00  0.28216436518E+03  0.28216436519E+03  0.25500000920E-02 0.  1.
        2   -1    0    0  501    0  0.00000000000E+00  0.00000000000E+00 -0.57046402596E+03  0.57046402596E+03  0.25500000920E-02 0. -1.
    10030    2    1    2    0    0  0.00000000000E+00  0.00000000000E+00 -0.28829966078E+03  0.85262839116E+03  0.80240792556E+03 0.  0.
        1    1    3    3  502    0 -0.26564004622E+03  0.16758410401E+03 -0.40940436019E+03  0.51600484130E+03  0.50400001928E-02 0. -1.
       -1    1    3    3    0  502  0.26564004622E+03 -0.16758410401E+03  0.12110469941E+03  0.33662354986E+03  0.50400001928E-02 0.  1.
</event>
<event>
 5   0  0.6600401E-03  0.8054436E+03  0.7818609E-02  0.9552171E-01
        1   -1    0    0  501    0  0.00000000000E+00  0.00000000000E+00  0.69656331826E+03  0.69656331828E+03  0.50400001928E-02 0.  1.
       -1   -1    0    0    0  501  0.00000000000E+00  0.00000000000E+00 -0.23283577143E+03  0.23283577149E+03  0.50400001928E-02 0. -1.
    10030    2    1    2    0    0  0.00000000000E+00  0.00000000000E+00  0.46372754683E+03  0.92939908976E+03  0.80544362333E+03 0.  0.
        2    1    3    3  502    0  0.12205644402E+03  0.34450172947E+03  0.42702472769E+03  0.56207591587E+03  0.25500000920E-02 0.  1.
       -2    1    3    3    0  502 -0.12205644402E+03 -0.34450172947E+03  0.36702819135E+02  0.36732317389E+03  0.25500000920E-02 0. -1.
</event>
<event>
 5   0  0.6600401E-03  0.8031827E+03  0.7818609E-02  0.9555422E-01
        1   -1    0    0  501    0  0.00000000000E+00  0.00000000000E+00  0.22684653736E+04  0.22684653736E+04  0.50400001928E-02 0.  1.
       -1   -1    0    0    0  501  0.00000000000E+00  0.00000000000E+00 -0.71094588248E+02  0.71094588426E+02  0.50400001928E-02 0. -1.
    10030    2    1    2    0    0  0.00000000000E+00  0.00000000000E+00  0.21973707854E+04  0.23395599620E+04  0.80318269879E+03 0.  0.
        2    1    3    3  502    0 -0.19995249171E+03 -0.19552646894E+03  0.25917458819E+03  0.38129131405E+03  0.25500000920E-02 0. -1.
       -2    1    3    3    0  502  0.19995249171E+03  0.19552646894E+03  0.19381961972E+04  0.19582686480E+04  0.25500000920E-02 0.  1.
</event>
<event>
 5   0  0.1106332E-02  0.7981062E+03  0.7818609E-02  0.9562762E-01
       -2   -1    0    0    0  501  0.00000000000E+00  0.00000000000E+00  0.43905161698E+03  0.43905161698E+03  0.25500000920E-02 0. -1.
        2   -1    0    0  501    0  0.00000000000E+00  0.00000000000E+00 -0.36269855132E+03  0.36269855133E+03  0.25500000920E-02 0.  1.
    10030    2    1    2    0    0  0.00000000000E+00  0.00000000000E+00  0.76353065654E+02  0.80175016832E+03  0.79810622210E+03 0.  0.
        1    1    3    3  502    0  0.16743805355E+03  0.34946478778E+03  0.13391246876E+03  0.40999230357E+03  0.50400001928E-02 0. -1.
       -1    1    3    3    0  502 -0.16743805355E+03 -0.34946478778E+03 -0.57559403101E+02  0.39175786474E+03  0.50400001928E-02 0.  1.
</event>
<event>
 5   0  0.1119792E-02  0.8063526E+03  0.7818609E-02  0.9550867E-01
       -2   -1    0    0    0  501  0.00000000000E+00  0.00000000000E+00  0.26005311227E+03  0.26005311228E+03  0.25500000920E-02 0. -1.
        2   -1    0    0  501    0  0.00000000000E+00  0.00000000000E+00 -0.62506897239E+03  0.62506897240E+03  0.25500000920E-02 0.  1.
    10030    2    1    2    0    0  0.00000000000E+00  0.00000000000E+00 -0.36501586012E+03  0.88512208468E+03  0.80635260689E+03 0.  0.
        4    1    3    3  502    0 -0.68301467606E+02 -0.16000122817E+03  0.21673009616E+03  0.27791910869E+03  0.12699999809E+01 0. -1.
       -4    1    3    3    0  502  0.68301467606E+02  0.16000122817E+03 -0.58174595629E+03  0.60720297599E+03  0.12699999809E+01 0.  1.
</event>
<event>
 5   0  0.1119792E-02  0.8021625E+03  0.7818609E-02  0.9556892E-01
        2   -1    0    0  501    0  0.00000000000E+00  0.00000000000E+00  0.74833469036E+03  0.74833469037E+03  0.25500000920E-02 0. -1.
       -2   -1    0    0    0  501  0.00000000000E+00  0.00000000000E+00 -0.21496555742E+03  0.21496555743E+03  0.25500000920E-02 0.  1.
    10030    2    1    2    0    0  0.00000000000E+00  0.00000000000E+00  0.53336913294E+03  0.96330024780E+03  0.80216253679E+03 0.  0.
        4    1    3    3  502    0  0.71779128842E+02  0.34392420915E+03  0.34357231565E+02  0.35301294202E+03  0.12699999809E+01 0.  1.
       -4    1    3    3    0  502 -0.71779128842E+02 -0.34392420915E+03  0.49901190138E+03  0.61028730578E+03  0.12699999809E+01 0. -1.
</event>
<event>
 5   0  0.6517392E-03  0.7771158E+03  0.7818609E-02  0.9593745E-01
       -1   -1    0    0    0  501  0.00000000000E+00  0.00000000000E+00  0.50321758923E+03  0.50321758926E+03  0.50400001928E-02 0. -1.
        1   -1    0    0  501    0  0.00000000000E+00  0.00000000000E+00 -0.30002374252E+03  0.30002374256E+03  0.50400001928E-02 0.  1.
    10030    2    1    2    0    0  0.00000000000E+00  0.00000000000E+00  0.20319384671E+03  0.80324133182E+03  0.77711575573E+03 0.  0.
        3    1    3    3  502    0  0.29252928160E+02 -0.36581443029E+03  0.23356571113E+03  0.43500446300E+03  0.10100000352E+00 0. -1.
       -3    1    3    3    0  502 -0.29252928160E+02  0.36581443029E+03 -0.30371864418E+02  0.36823686882E+03  0.10100000352E+00 0.  1.
</event>
<event>
 5   0  0.4385875E-03  0.7915101E+03  0.7818609E-02  0.9572388E-01
       -3   -1    0    0    0  501  0.00000000000E+00  0.00000000000E+00  0.14692511936E+04  0.14692511971E+04  0.10100000352E+00 0. -1.
        3   -1    0    0  501    0  0.00000000000E+00  0.00000000000E+00 -0.10659989866E+03  0.10659994650E+03  0.10100000352E+00 0.  1.
    10030    2    1    2    0    0  0.00000000000E+00  0.00000000000E+00  0.13626512950E+04  0.15758511436E+04  0.79151012319E+03 0.  0.
        4    1    3    3  502    0  0.68215454952E+02 -0.30585267744E+03  0.20010513652E+03  0.37181028382E+03  0.12699999809E+01 0.  1.
       -4    1    3    3    0  502 -0.68215454952E+02  0.30585267744E+03  0.11625461585E+04  0.12040408598E+04  0.12699999809E+01 0. -1.
</event>
<event>
 5   0  0.6517392E-03  0.7846151E+03  0.7818609E-02  0.9582557E-01
        1   -1    0    0  501    0  0.00000000000E+00  0.00000000000E+00  0.13064634106E+04  0.13064634106E+04  0.50400001928E-02 0. -1.
       -1   -1    0    0    0  501  0.00000000000E+00  0.00000000000E+00 -0.11780293779E+03  0.11780293790E+03  0.50400001928E-02 0.  1.
    10030    2    1    2    0    0  0.00000000000E+00  0.00000000000E+00  0.11886604728E+04  0.14242663485E+04  0.78461513615E+03 0.  0.
        3    1    3    3  502    0  0.57817184141E+02  0.24956097285E+03  0.54981203749E+02  0.26200467347E+03  0.10100000352E+00 0.  1.
       -3    1    3    3    0  502 -0.57817184141E+02 -0.24956097285E+03  0.11336792691E+04  0.11622616751E+04  0.10100000352E+00 0. -1.
</event>
<event>
 5   0  0.1121480E-02  0.8047037E+03  0.7818609E-02  0.9553234E-01
       -2   -1    0    0    0  501  0.00000000000E+00  0.00000000000E+00  0.16116926809E+03  0.16116926811E+03  0.25500000920E-02 0.  1.
        2   -1    0    0  501    0  0.00000000000E+00  0.00000000000E+00 -0.10044534162E+04  0.10044534162E+04  0.25500000920E-02 0. -1.
    10030    2    1    2    0    0  0.00000000000E+00  0.00000000000E+00 -0.84328414816E+03  0.11656226844E+04  0.80470372669E+03 0.  0.
        2    1    3    3  502    0  0.65297906473E+02  0.32274529128E+03 -0.75655437806E+03  0.82510779090E+03  0.25500000920E-02 0. -1.
       -2    1    3    3    0  502 -0.65297906473E+02 -0.32274529128E+03 -0.86729770095E+02  0.34051489345E+03  0.25500000920E-02 0.  1.
</event>
<event>
 5   0  0.6600401E-03  0.8012723E+03  0.7818609E-02  0.9558177E-01
       -1   -1    0    0    0  501  0.00000000000E+00  0.00000000000E+00  0.24052737403E+03  0.24052737408E+03  0.50400001928E-02 0.  1.
        1   -1    0    0  501    0  0.00000000000E+00  0.00000000000E+00 -0.66732244468E+03  0.66732244470E+03  0.50400001928E-02 0. -1.
    10030    2    1    2    0    0  0.00000000000E+00  0.00000000000E+00 -0.42679507065E+03  0.90784981878E+03  0.80127227653E+03 0.  0.
        2    1    3    3  502    0 -0.32964826339E+03  0.35408236513E+02  0.41435606639E+02  0.33412367511E+03  0.25500000920E-02 0.  1.
       -2    1    3    3    0  502  0.32964826339E+03 -0.35408236513E+02 -0.46823067729E+03  0.57372614367E+03  0.25500000920E-02 0. -1.
</event>
<event>
 5   0  0.6600401E-03  0.8007620E+03  0.7818609E-02  0.9558915E-01
        1   -1    0    0  501    0  0.00000000000E+00  0.00000000000E+00  0.56312678536E+03  0.56312678538E+03  0.50400001928E-02 0.  1.
       -1   -1    0    0    0  501  0.00000000000E+00  0.00000000000E+00 -0.28466939161E+03  0.28466939165E+03  0.50400001928E-02 0. -1.
    10030    2    1    2    0    0  0.00000000000E+00  0.00000000000E+00  0.27845739376E+03  0.84779617703E+03  0.80076203560E+03 0.  0.
        2    1    3    3  502    0  0.14304387386E+02  0.64972131769E+02  0.55723394757E+03  0.56119129157E+03  0.25500000920E-02 0.  1.
       -2    1    3    3    0  502 -0.14304387386E+02 -0.64972131769E+02 -0.27877655382E+03  0.28660488546E+03  0.25500000920E-02 0. -1.
</event>
<event>
 5   0  0.6557679E-03  0.7987050E+03  0.7818609E-02  0.9561893E-01
       -1   -1    0    0    0  501  0.00000000000E+00  0.00000000000E+00  0.75910692370E+02  0.75910692537E+02  0.50400001928E-02 0. -1.
        1   -1    0    0  501    0  0.00000000000E+00  0.00000000000E+00 -0.21009215916E+04  0.21009215916E+04  0.50400001928E-02 0.  1.
    10030    2    1    2    0    0  0.00000000000E+00  0.00000000000E+00 -0.20250108992E+04  0.21768322841E+04  0.79870498389E+03 0.  0.
        1    1    3    3  502    0  0.29345851077E+03 -0.26554070542E+03 -0.86693851193E+03  0.95300165124E+03  0.50400001928E-02 0.  1.
       -1    1    3    3    0  502 -0.29345851077E+03  0.26554070542E+03 -0.11580723873E+04  0.12238306329E+04  0.50400001928E-02 0. -1.
</event>
<event>
 5   0  0.1121480E-02  0.8014883E+03  0.7818609E-02  0.9557865E-01
        2   -1    0    0  501    0  0.00000000000E+00  0.00000000000E+00  0.13872964969E+04  0.13872964969E+04  0.25500000920E-02 0. -1.
       -2   -1    0    0    0  501  0.00000000000E+00  0.00000000000E+00 -0.11576176269E+03  0.11576176272E+03  0.25500000920E-02 0.  1.
    10030    2    1    2    0    0  0.00000000000E+00  0.00000000000E+00  0.12715347342E+04  0.15030582597E+04  0.80148833526E+03 0.  0.
        2    1    3    3  502    0  0.39828644155E+03 -0.33903824415E+02  0.58225199210E+03  0.70625699369E+03  0.25500000920E-02 0.  1.
       -2    1    3    3    0  502 -0.39828644155E+03  0.33903824415E+02  0.68928274215E+03  0.79680126598E+03  0.25500000920E-02 0. -1.
</event>
<event>
 5   0  0.1119792E-02  0.8005191E+03  0.7818609E-02  0.9559266E-01
        2   -1    0    0  501    0  0.00000000000E+00  0.00000000000E+00  0.54009104335E+03  0.54009104336E+03  0.25500000920E-02 0.  1.
       -2   -1    0    0    0  501  0.00000000000E+00  0.00000000000E+00 -0.29663093637E+03  0.29663093639E+03  0.25500000920E-02 0. -1.
    10030    2    1    2    0    0  0.00000000000E+00  0.00000000000E+00  0.24346010698E+03  0.83672197974E+03  0.80051911139E+03 0.  0.
        4    1    3    3  502    0  0.15830956489E+03  0.31615327808E+03  0.31780722723E+03  0.47541335715E+03  0.12699999809E+01 0.  1.
       -4    1    3    3    0  502 -0.15830956489E+03 -0.31615327808E+03 -0.74347120247E+02  0.36130862260E+03  0.12699999809E+01 0. -1.
</event>
<event>
 5   0  0.6557679E-03  0.8008998E+03  0.7818609E-02  0.9558716E-01
       -1   -1    0    0    0  501  0.00000000000E+00  0.00000000000E+00  0.35883900602E+03  0.35883900606E+03  0.50400001928E-02 0. -1.
        1   -1    0    0  501    0  0.00000000000E+00  0.00000000000E+00 -0.44688603020E+03  0.44688603023E+03  0.50400001928E-02 0.  1.
    10030    2    1    2    0    0  0.00000000000E+00  0.00000000000E+00 -0.88047024179E+02  0.80572503629E+03  0.80089984120E+03 0.  0.
        1    1    3    3  502    0  0.46590264155E+02  0.97847345315E+02  0.34380571429E+03  0.36048179552E+03  0.50400001928E-02 0. -1.
       -1    1    3    3    0  502 -0.46590264155E+02 -0.97847345315E+02 -0.43185273847E+03  0.44524324077E+03  0.50400001928E-02 0.  1.
</event>
<event>
 5   0  0.1106332E-02  0.7992485E+03  0.7818609E-02  0.9561106E-01
       -2   -1    0    0    0  501  0.00000000000E+00  0.00000000000E+00  0.66768766467E+02  0.66768766516E+02  0.25500000920E-02 0.  1.
        2   -1    0    0  501    0  0.00000000000E+00  0.00000000000E+00 -0.23918300582E+04  0.23918300582E+04  0.25500000920E-02 0. -1.
    10030    2    1    2    0    0  0.00000000000E+00  0.00000000000E+00 -0.23250612918E+04  0.24585988248E+04  0.79924850366E+03 0.  0.
        1    1    3    3  502    0 -0.84606372581E+02  0.40976343864E+02 -0.23573331356E+04  0.23592068182E+04  0.50400001928E-02 0. -1.
       -1    1    3    3    0  502  0.84606372581E+02 -0.40976343864E+02  0.32271843793E+02  0.99392006545E+02  0.50400001928E-02 0.  1.
</event>
<event>
 5   0  0.6600401E-03  0.8013718E+03  0.7818609E-02  0.9558034E-01
        1   -1    0    0  501    0  0.00000000000E+00  0.00000000000E+00  0.12253901108E+04  0.12253901108E+04  0.50400001928E-02 0.  1.
       -1   -1    0    0    0  501  0.00000000000E+00  0.00000000000E+00 -0.13101883234E+03  0.13101883243E+03  0.50400001928E-02 0. -1.
    10030    2    1    2    0    0  0.00000000000E+00  0.00000000000E+00  0.10943712785E+04  0.13564089433E+04  0.80137177776E+03 0.  0.
        2    1    3    3  502    0 -0.42354080229E+02 -0.33321947850E+03  0.17743644209E+03  0.37988521945E+03  0.25500000920E-02 0. -1.
       -2    1    3    3    0  502  0.42354080229E+02  0.33321947850E+03  0.91693483640E+03  0.97652372381E+03  0.25500000920E-02 0.  1.
</event>
<event>
 5   0  0.6551489E-03  0.7930032E+03  0.7818609E-02  0.9570200E-01
       -1   -1    0    0    0  501  0.00000000000E+00  0.00000000000E+00  0.36620994320E+03  0.36620994323E+03  0.50400001928E-02 0. -1.
        1   -1    0    0  501    0  0.00000000000E+00  0.00000000000E+00 -0.42929891630E+03  0.42929891633E+03  0.50400001928E-02 0.  1.
    10030    2    1    2    0    0  0.00000000000E+00  0.00000000000E+00 -0.63088973107E+02  0.79550885956E+03  0.79300323273E+03 0.  0.
        4    1    3    3  502    0 -0.29786076085E+03 -0.23465353722E+03  0.84703513056E+02  0.38853521515E+03  0.12699999809E+01 0. -1.
       -4    1    3    3    0  502  0.29786076085E+03  0.23465353722E+03 -0.14779248616E+03  0.40697364442E+03  0.12699999809E+01 0.  1.
</event>
<event>
 5   0  0.6557679E-03  0.8040813E+03  0.7818609E-02  0.9554128E-01
        1   -1    0    0  501    0  0.00000000000E+00  0.00000000000E+00  0.74681352399E+03  0.74681352401E+03  0.50400001928E-02 0. -1.
       -1   -1    0    0    0  501  0.00000000000E+00  0.00000000000E+00 -0.21643510699E+03  0.21643510705E+03  0.50400001928E-02 0.  1.
    10030    2    1    2    0    0  0.00000000000E+00  0.00000000000E+00  0.53037841701E+03  0.96324863106E+03  0.80408125212E+03 0.  0.
        1    1    3    3  502    0 -0.24085601592E+02 -0.33106243481E+03  0.53692630730E+03  0.63124663281E+03  0.50400001928E-02 0. -1.
       -1    1    3    3    0  502  0.24085601592E+02  0.33106243481E+03 -0.65478902898E+01  0.33200199825E+03  0.50400001928E-02 0.  1.
</event>
<event>
 5   0  0.6557679E-03  0.8030406E+03  0.7818609E-02  0.9555626E-01
        1   -1    0    0  501    0  0.00000000000E+00  0.00000000000E+00  0.41025622406E+03  0.41025622409E+03  0.50400001928E-02 0. -1.
       -1   -1    0    0    0  501  0.00000000000E+00  0.00000000000E+00 -0.39297041535E+03  0.39297041538E+03  0.50400001928E-02 0.  1.
    10030    2    1    2    0    0  0.00000000000E+00  0.00000000000E+00  0.17285808705E+02  0.80322663947E+03  0.80304061863E+03 0.  0.
        1    1    3    3  502    0 -0.24312949593E+03  0.21140363379E+03 -0.23102710544E+03  0.39645551030E+03  0.50400001928E-02 0.  1.
       -1    1    3    3    0  502  0.24312949593E+03 -0.21140363379E+03  0.24831291415E+03  0.40677112917E+03  0.50400001928E-02 0. -1.
</event>
<event>
 5   0  0.6557679E-03  0.7987506E+03  0.7818609E-02  0.9561827E-01
        1   -1    0    0  501    0  0.00000000000E+00  0.00000000000E+00  0.48055244386E+03  0.48055244389E+03  0.50400001928E-02 0. -1.
       -1   -1    0    0    0  501  0.00000000000E+00  0.00000000000E+00 -0.33191100032E+03  0.33191100036E+03  0.50400001928E-02 0.  1.
    10030    2    1    2    0    0  0.00000000000E+00  0.00000000000E+00  0.14864144354E+03  0.81246344425E+03  0.79875063036E+03 0.  0.
        1    1    3    3  502    0 -0.39499748007E+03  0.57751466661E+02  0.62182657729E+02  0.40401104454E+03  0.50400001928E-02 0.  1.
       -1    1    3    3    0  502  0.39499748007E+03 -0.57751466661E+02  0.86458785807E+02  0.40845239971E+03  0.50400001928E-02 0. -1.
</event>
<event>
 5   0  0.6600401E-03  0.7992085E+03  0.7818609E-02  0.9561163E-01
       -1   -1    0    0    0  501  0.00000000000E+00  0.00000000000E+00  0.70145751454E+03  0.70145751456E+03  0.50400001928E-02 0. -1.
        1   -1    0    0  501    0  0.00000000000E+00  0.00000000000E+00 -0.22764536971E+03  0.22764536976E+03  0.50400001928E-02 0.  1.
    10030    2    1    2    0    0  0.00000000000E+00  0.00000000000E+00  0.47381214483E+03  0.92910288432E+03  0.79920849662E+03 0.  0.
        2    1    3    3  502    0  0.36619849394E+03  0.15404690025E+03  0.18687989326E+03  0.43903972366E+03  0.25500000920E-02 0.  1.
       -2    1    3    3    0  502 -0.36619849394E+03 -0.15404690025E+03  0.28693225157E+03  0.49006316066E+03  0.25500000920E-02 0. -1.
</event>
<event>
 5   0  0.6551489E-03  0.8027009E+03  0.7818609E-02  0.9556116E-01
        1   -1    0    0  501    0  0.00000000000E+00  0.00000000000E+00  0.72307462205E+03  0.72307462207E+03  0.50400001928E-02 0. -1.
       -1   -1    0    0    0  501  0.00000000000E+00  0.00000000000E+00 -0.22277396418E+03  0.22277396424E+03  0.50400001928E-02 0.  1.
    10030    2    1    2    0    0  0.00000000000E+00  0.00000000000E+00  0.50030065787E+03  0.94584858631E+03  0.80270094054E+03 0.  0.
        4    1    3    3  502    0 -0.18809232937E+02 -0.12622489194E+03 -0.19822658641E+03  0.23575814524E+03  0.12699999809E+01 0.  1.
       -4    1    3    3    0  502  0.18809232937E+02  0.12622489194E+03  0.69852724428E+03  0.71009044106E+03  0.12699999809E+01 0. -1.
</event>
<event>
 5   0  0.1121480E-02  0.8212722E+03  0.7818609E-02  0.9529727E-01
       -2   -1    0    0    0  501  0.00000000000E+00  0.00000000000E+00  0.14791292997E+03  0.14791292999E+03  0.25500000920E-02 0.  1.
        2   -1    0    0  501    0  0.00000000000E+00  0.00000000000E+00 -0.11400085961E+04  0.11400085961E+04  0.25500000920E-02 0. -1.
    10030    2    1    2    0    0  0.00000000000E+00  0.00000000000E+00 -0.99209566610E+03  0.12879215261E+04  0.82127221225E+03 0.  0.
        2    1    3    3  502    0 -0.25543831464E+03  0.11345458067E+03 -0.96781723645E+03  0.10073682930E+04  0.25500000920E-02 0. -1.
       -2    1    3    3    0  502  0.25543831464E+03 -0.11345458067E+03 -0.24278429646E+02  0.28055323312E+03  0.25500000920E-02 0.  1.
</event>
<event>
 5   0  0.6600401E-03  0.8518271E+03  0.7818609E-02  0.9487888E-01
       -1   -1    0    0    0  501  0.00000000000E+00  0.00000000000E+00  0.21427303817E+03  0.21427303823E+03  0.50400001928E-02 0. -1.
        1   -1    0    0  501    0  0.00000000000E+00  0.00000000000E+00 -0.84659448549E+03  0.84659448551E+03  0.50400001928E-02 0.  1.
    10030    2    1    2    0    0  0.00000000000E+00  0.00000000000E+00 -0.63232144732E+03  0.10608675237E+04  0.85182714807E+03 0.  0.
        2    1    3    3  502    0 -0.29025268199E+03 -0.31100172180E+03 -0.34209627377E+03  0.54589243528E+03  0.25500000920E-02 0.  1.
       -2    1    3    3    0  502  0.29025268199E+03  0.31100172180E+03 -0.29022517355E+03  0.51497508846E+03  0.25500000920E-02 0. -1.
</event>
<event>
 5   0  0.6596225E-03  0.8022910E+03  0.7818609E-02  0.9556707E-01
       -1   -1    0    0    0  501  0.00000000000E+00  0.00000000000E+00  0.28670749233E+03  0.28670749237E+03  0.50400001928E-02 0. -1.
        1   -1    0    0  501    0  0.00000000000E+00  0.00000000000E+00 -0.56126095350E+03  0.56126095352E+03  0.50400001928E-02 0.  1.
    10030    2    1    2    0    0  0.00000000000E+00  0.00000000000E+00 -0.27455346117E+03  0.84796844589E+03  0.80229102088E+03 0.  0.
        5    1    3    3  502    0  0.11592266422E+03  0.87091574758E+01 -0.54303704288E+03  0.55536045361E+03  0.46999998093E+01 0.  1.
       -5    1    3    3    0  502 -0.11592266422E+03 -0.87091574758E+01  0.26848358171E+03  0.29260799228E+03  0.46999998093E+01 0. -1.
</event>
<event>
 5   0  0.1106332E-02  0.8030942E+03  0.7818609E-02  0.9555549E-01
        2   -1    0    0  501    0  0.00000000000E+00  0.00000000000E+00  0.31022301307E+03  0.31022301308E+03  0.25500000920E-02 0.  1.
       -2   -1    0    0    0  501  0.00000000000E+00  0.00000000000E+00 -0.51975530877E+03  0.51975530877E+03  0.25500000920E-02 0. -1.
    10030    2    1    2    0    0  0.00000000000E+00  0.00000000000E+00 -0.20953229570E+03  0.82997832185E+03  0.80309416123E+03 0.  0.
        1    1    3    3  502    0 -0.86860525564E+02 -0.12817514705E+03  0.27813129321E+03  0.31832473280E+03  0.50400001928E-02 0.  1.
       -1    1    3    3    0  502  0.86860525564E+02  0.12817514705E+03 -0.48766358891E+03  0.51165358906E+03  0.50400001928E-02 0. -1.
</event>
<event>
 5   0  0.1106332E-02  0.7995109E+03  0.7818609E-02  0.9560725E-01
        2   -1    0    0  501    0  0.00000000000E+00  0.00000000000E+00  0.14487314544E+04  0.14487314544E+04  0.25500000920E-02 0.  1.
       -2   -1    0    0    0  501  0.00000000000E+00  0.00000000000E+00 -0.11030643909E+03  0.11030643912E+03  0.25500000920E-02 0. -1.
    10030    2    1    2    0    0  0.00000000000E+00  0.00000000000E+00  0.13384250153E+04  0.15590378935E+04  0.79951087035E+03 0.  0.
        1    1    3    3  502    0 -0.10102051269E+03 -0.22362413119E+03  0.53832389342E+02  0.25121867407E+03  0.50400001928E-02 0. -1.
       -1    1    3    3    0  502  0.10102051269E+03  0.22362413119E+03  0.12845926260E+04  0.13078192195E+04  0.50400001928E-02 0.  1.
</event>
<event>
 5   0  0.1121480E-02  0.7968813E+03  0.7818609E-02  0.9564542E-01
        2   -1    0    0  501    0  0.00000000000E+00  0.00000000000E+00  0.62528778637E+03  0.62528778638E+03  0.25500000920E-02 0.  1.
       -2   -1    0    0    0  501  0.00000000000E+00  0.00000000000E+00 -0.25389100233E+03  0.25389100234E+03  0.25500000920E-02 0. -1.
    10030    2    1    2    0    0  0.00000000000E+00  0.00000000000E+00  0.37139678404E+03  0.87917878872E+03  0.79688127807E+03 0.  0.
        2    1    3    3  502    0 -0.20953515697E+03  0.11903552577E+03 -0.16437271619E+03  0.29170675042E+03  0.25500000920E-02 0. -1.
       -2    1    3    3    0  502  0.20953515697E+03 -0.11903552577E+03  0.53576950023E+03  0.58747203830E+03  0.25500000920E-02 0.  1.
</event>
<event>
 5   0  0.1154714E-02  0.7998694E+03  0.7818609E-02  0.9560206E-01
        2   -1    0    0  501    0  0.00000000000E+00  0.00000000000E+00  0.11005452198E+04  0.11005452198E+04  0.25500000920E-02 0.  1.
       -2   -1    0    0    0  501  0.00000000000E+00  0.00000000000E+00 -0.14533500948E+03  0.14533500951E+03  0.25500000920E-02 0. -1.
    10030    2    1    2    0    0  0.00000000000E+00  0.00000000000E+00  0.95521021036E+03  0.12458802294E+04  0.79986936428E+03 0.  0.
        5    1    3    3  502    0 -0.13314391885E+03 -0.22961437312E+03  0.11687058982E+02  0.26572305285E+03  0.46999998093E+01 0. -1.
       -5    1    3    3    0  502  0.13314391885E+03  0.22961437312E+03  0.94352315138E+03  0.98015717651E+03  0.46999998093E+01 0.  1.
</event>
<event>
 5   0  0.6551489E-03  0.8088900E+03  0.7818609E-02  0.9547238E-01
       -1   -1    0    0    0  501  0.00000000000E+00  0.00000000000E+00  0.39357621914E+03  0.39357621918E+03  0.50400001928E-02 0. -1.
        1   -1    0    0  501    0  0.00000000000E+00  0.00000000000E+00 -0.41561395854E+03  0.41561395858E+03  0.50400001928E-02 0.  1.
    10030    2    1    2    0    0  0.00000000000E+00  0.00000000000E+00 -0.22037739400E+02  0.80919017775E+03  0.80889003073E+03 0.  0.
        4    1    3    3  502    0 -0.13494836235E+03  0.83296783774E+02  0.36117394296E+03  0.39445867294E+03  0.12699999809E+01 0. -1.
       -4    1    3    3    0  502  0.13494836235E+03 -0.83296783774E+02 -0.38321168236E+03  0.41473150481E+03  0.12699999809E+01 0.  1.
</event>
<event>
 5   0  0.1106332E-02  0.8012878E+03  0.7818609E-02  0.9558155E-01
       -2   -1    0    0    0  501  0.00000000000E+00  0.00000000000E+00  0.47831101266E+03  0.47831101266E+03  0.25500000920E-02 0. -1.
        2   -1    0    0  501    0  0.00000000000E+00  0.00000000000E+00 -0.33558819016E+03  0.33558819017E+03  0.25500000920E-02 0.  1.
    10030    2    1    2    0    0  0.00000000000E+00  0.00000000000E+00  0.14272282250E+03  0.81389920283E+03  0.80128778121E+03 0.  0.
        1    1    3    3  502    0  0.29697351782E+03 -0.26064633556E+03  0.40941466174E+01  0.39515382396E+03  0.50400001928E-02 0.  1.
       -1    1    3    3    0  502 -0.29697351782E+03  0.26064633556E+03  0.13862867588E+03  0.41874537887E+03  0.50400001928E-02 0. -1.
</event>
<event>
 5   0  0.6557679E-03  0.7994972E+03  0.7818609E-02  0.9560745E-01
        1   -1    0    0  501    0  0.00000000000E+00  0.00000000000E+00  0.13497049807E+04  0.13497049807E+04  0.50400001928E-02 0.  1.
       -1   -1    0    0    0  501  0.00000000000E+00  0.00000000000E+00 -0.11839546758E+03  0.11839546769E+03  0.50400001928E-02 0. -1.
    10030    2    1    2    0    0  0.00000000000E+00  0.00000000000E+00  0.12313095131E+04  0.14681004484E+04  0.79949722293E+03 0.  0.
        1    1    3    3  502    0 -0.10158003745E+03 -0.32027050255E+03  0.21795180475E+03  0.40049305616E+03  0.50400001928E-02 0. -1.
       -1    1    3    3    0  502  0.10158003745E+03  0.32027050255E+03  0.10133577084E+04  0.10676073922E+04  0.50400001928E-02 0.  1.
</event>
<event>
 5   0  0.4385875E-03  0.8003492E+03  0.7818609E-02  0.9559512E-01
       -4   -1    0    0    0  501  0.00000000000E+00  0.00000000000E+00  0.15090765091E+04  0.15090770435E+04  0.12699999809E+01 0. -1.
        4   -1    0    0  501    0  0.00000000000E+00  0.00000000000E+00 -0.10611332875E+03  0.10612092837E+03  0.12699999809E+01 0.  1.
    10030    2    1    2    0    0  0.00000000000E+00  0.00000000000E+00  0.14029631803E+04  0.16151979718E+04  0.80034917561E+03 0.  0.
        3    1    3    3  502    0  0.61270878635E+02  0.24943509389E+03  0.82187052839E+02  0.26967889886E+03  0.10100000352E+00 0.  1.
       -3    1    3    3    0  502 -0.61270878635E+02 -0.24943509389E+03  0.13207761275E+04  0.13455190730E+04  0.10100000352E+00 0. -1.
</event>
<event>
 5   0  0.6557679E-03  0.7970406E+03  0.7818609E-02  0.9564311E-01
        1   -1    0    0  501    0  0.00000000000E+00  0.00000000000E+00  0.11042439134E+04  0.11042439134E+04  0.50400001928E-02 0. -1.
       -1   -1    0    0    0  501  0.00000000000E+00  0.00000000000E+00 -0.14382550437E+03  0.14382550445E+03  0.50400001928E-02 0.  1.
    10030    2    1    2    0    0  0.00000000000E+00  0.00000000000E+00  0.96041840899E+03  0.12480694178E+04  0.79704062091E+03 0.  0.
        1    1    3    3  502    0  0.38005929957E+03 -0.98973813005E+02  0.37426556697E+03  0.54250861882E+03  0.50400001928E-02 0. -1.
       -1    1    3    3    0  502 -0.38005929957E+03  0.98973813005E+02  0.58615284203E+03  0.70556079900E+03  0.50400001928E-02 0.  1.
</event>
<event>
 5   0  0.6596225E-03  0.7981843E+03  0.7818609E-02  0.9562649E-01
        1   -1    0    0  501    0  0.00000000000E+00  0.00000000000E+00  0.19574435078E+03  0.19574435085E+03  0.50400001928E-02 0.  1.
       -1   -1    0    0    0  501  0.00000000000E+00  0.00000000000E+00 -0.81368658497E+03  0.81368658498E+03  0.50400001928E-02 0. -1.
    10030    2    1    2    0    0  0.00000000000E+00  0.00000000000E+00 -0.61794223418E+03  0.10094309358E+04  0.79818432045E+03 0.  0.
        5    1    3    3  502    0  0.32679658884E+03  0.22845997734E+02 -0.59717607447E+03  0.68114558209E+03  0.46999998093E+01 0. -1.
       -5    1    3    3    0  502 -0.32679658884E+03 -0.22845997734E+02 -0.20766159715E+02  0.32828535373E+03  0.46999998093E+01 0.  1.
</event>
<event>
 5   0  0.4385875E-03  0.7957719E+03  0.7818609E-02  0.9566157E-01
       -4   -1    0    0    0  501  0.00000000000E+00  0.00000000000E+00  0.12012486400E+04  0.12012493113E+04  0.12699999809E+01 0.  1.
        4   -1    0    0  501    0  0.00000000000E+00  0.00000000000E+00 -0.13178678580E+03  0.13179290502E+03  0.12699999809E+01 0. -1.
    10030    2    1    2    0    0  0.00000000000E+00  0.00000000000E+00  0.10694618542E+04  0.13330422163E+04  0.79577188503E+03 0.  0.
        5    1    3    3  502    0  0.16174784226E+03 -0.28888275120E+03  0.90431277582E+03  0.96302611332E+03  0.46999998093E+01 0.  1.
       -5    1    3    3    0  502 -0.16174784226E+03  0.28888275120E+03  0.16514907837E+03  0.37001610303E+03  0.46999998093E+01 0. -1.
</event>
<event>
 5   0  0.1106332E-02  0.8002466E+03  0.7818609E-02  0.9559660E-01
        2   -1    0    0  501    0  0.00000000000E+00  0.00000000000E+00  0.19147118935E+04  0.19147118935E+04  0.25500000920E-02 0. -1.
       -2   -1    0    0    0  501  0.00000000000E+00  0.00000000000E+00 -0.83615000648E+02  0.83615000686E+02  0.25500000920E-02 0.  1.
    10030    2    1    2    0    0  0.00000000000E+00  0.00000000000E+00  0.18310968929E+04  0.19983268942E+04  0.80024655265E+03 0.  0.
        1    1    3    3  502    0 -0.26083738143E+03  0.27578037359E+03  0.12314901449E+04  0.12886655621E+04  0.50400001928E-02 0. -1.
       -1    1    3    3    0  502  0.26083738143E+03 -0.27578037359E+03  0.59960674799E+03  0.70966133210E+03  0.50400001928E-02 0.  1.
</event>
<event>
 5   0  0.1092868E-02  0.8030313E+03  0.7818609E-02  0.9555640E-01
       -2   -1    0    0    0  501  0.00000000000E+00  0.00000000000E+00  0.44133160321E+03  0.44133160322E+03  0.25500000920E-02 0.  1.
        2   -1    0    0  501    0  0.00000000000E+00  0.00000000000E+00 -0.36529178720E+03  0.36529178721E+03  0.25500000920E-02 0. -1.
    10030    2    1    2    0    0  0.00000000000E+00  0.00000000000E+00  0.76039816010E+02  0.80662339043E+03  0.80303128231E+03 0.  0.
        3    1    3    3  502    0 -0.18630774439E+03 -0.21798731615E+03  0.32032111352E+03  0.42992403002E+03  0.10100000352E+00 0.  1.
       -3    1    3    3    0  502  0.18630774439E+03  0.21798731615E+03 -0.24428129751E+03  0.37669936041E+03  0.10100000352E+00 0. -1.
</event>
<event>
 5   0  0.6557679E-03  0.8424220E+03  0.7818609E-02  0.9500565E-01
       -1   -1    0    0    0  501  0.00000000000E+00  0.00000000000E+00  0.18289349176E+03  0.18289349183E+03  0.50400001928E-02 0. -1.
        1   -1    0    0  501    0  0.00000000000E+00  0.00000000000E+00 -0.97006577061E+03  0.97006577063E+03  0.50400001928E-02 0.  1.
    10030    2    1    2    0    0  0.00000000000E+00  0.00000000000E+00 -0.78717227885E+03  0.11529592625E+04  0.84242202268E+03 0.  0.
        1    1    3    3  502    0 -0.27240376786E+02  0.41687024925E+03 -0.31993592383E+03  0.52619562733E+03  0.50400001928E-02 0. -1.
       -1    1    3    3    0  502  0.27240376786E+02 -0.41687024925E+03 -0.46723635502E+03  0.62676363513E+03  0.50400001928E-02 0.  1.
</event>
<event>
 5   0  0.6600401E-03  0.8159869E+03  0.7818609E-02  0.9537161E-01
        1   -1    0    0  501    0  0.00000000000E+00  0.00000000000E+00  0.28213897657E+03  0.28213897662E+03  0.50400001928E-02 0.  1.
       -1   -1    0    0    0  501  0.00000000000E+00  0.00000000000E+00 -0.58998813022E+03  0.58998813024E+03  0.50400001928E-02 0. -1.
    10030    2    1    2    0    0  0.00000000000E+00  0.00000000000E+00 -0.30784915365E+03  0.87212710686E+03  0.81598688048E+03 0.  0.
        2    1    3    3  502    0 -0.58640948072E+02  0.33983973135E+03  0.79085783952E+02  0.35381402605E+03  0.25500000920E-02 0.  1.
       -2    1    3    3    0  502  0.58640948072E+02 -0.33983973135E+03 -0.38693493760E+03  0.51831308081E+03  0.25500000920E-02 0. -1.
</event>
<event>
 5   0  0.4385875E-03  0.8008928E+03  0.7818609E-02  0.9558726E-01
        3   -1    0    0  501    0  0.00000000000E+00  0.00000000000E+00  0.26325934931E+03  0.26325936868E+03  0.10100000352E+00 0.  1.
       -3   -1    0    0    0  501  0.00000000000E+00  0.00000000000E+00 -0.60912288417E+03  0.60912289254E+03  0.10100000352E+00 0. -1.
    10030    2    1    2    0    0  0.00000000000E+00  0.00000000000E+00 -0.34586353486E+03  0.87238226122E+03  0.80089276744E+03 0.  0.
        4    1    3    3  502    0 -0.20419150674E+03 -0.34424381451E+03 -0.18661136106E+03  0.44161452448E+03  0.12699999809E+01 0. -1.
       -4    1    3    3    0  502  0.20419150674E+03  0.34424381451E+03 -0.15925217380E+03  0.43076773674E+03  0.12699999809E+01 0.  1.
</event>
<event>
 5   0  0.6551489E-03  0.7580569E+03  0.7818609E-02  0.9622794E-01
        1   -1    0    0  501    0  0.00000000000E+00  0.00000000000E+00  0.96390293785E+03  0.96390293786E+03  0.50400001928E-02 0.  1.
       -1   -1    0    0    0  501  0.00000000000E+00  0.00000000000E+00 -0.14904256108E+03  0.14904256117E+03  0.50400001928E-02 0. -1.
    10030    2    1    2    0    0  0.00000000000E+00  0.00000000000E+00  0.81486037677E+03  0.11129454990E+04  0.75805689112E+03 0.  0.
        4    1    3    3  502    0 -0.32742621501E+03 -0.34486025629E+02  0.68312987143E+03  0.75833056537E+03  0.12699999809E+01 0. -1.
       -4    1    3    3    0  502  0.32742621501E+03  0.34486025629E+02  0.13173050534E+03  0.35461493366E+03  0.12699999809E+01 0.  1.
</event>
<event>
 5   0  0.6600401E-03  0.7993899E+03  0.7818609E-02  0.9560901E-01
        1   -1    0    0  501    0  0.00000000000E+00  0.00000000000E+00  0.96160550588E+03  0.96160550589E+03  0.50400001928E-02 0.  1.
       -1   -1    0    0    0  501  0.00000000000E+00  0.00000000000E+00 -0.16613469442E+03  0.16613469449E+03  0.50400001928E-02 0. -1.
    10030    2    1    2    0    0  0.00000000000E+00  0.00000000000E+00  0.79547081146E+03  0.11277402004E+04  0.79938985963E+03 0.  0.
        2    1    3    3  502    0  0.97951702508E+01  0.18797161245E+03 -0.99695474845E+02  0.21299873276E+03  0.25500000920E-02 0. -1.
       -2    1    3    3    0  502 -0.97951702508E+01 -0.18797161245E+03  0.89516628631E+03  0.91474146763E+03  0.25500000920E-02 0.  1.
</event>
<event>
 5   0  0.6517392E-03  0.8054238E+03  0.7818609E-02  0.9552199E-01
       -1   -1    0    0    0  501  0.00000000000E+00  0.00000000000E+00  0.59630308684E+03  0.59630308686E+03  0.50400001928E-02 0. -1.
        1   -1    0    0  501    0  0.00000000000E+00  0.00000000000E+00 -0.27197053939E+03  0.27197053944E+03  0.50400001928E-02 0.  1.
    10030    2    1    2    0    0  0.00000000000E+00  0.00000000000E+00  0.32433254744E+03  0.86827362629E+03  0.80542379452E+03 0.  0.
        3    1    3    3  502    0  0.34140738093E+03  0.13954388590E+03  0.33647916960E+03  0.49924917388E+03  0.10100000352E+00 0. -1.
       -3    1    3    3    0  502 -0.34140738093E+03 -0.13954388590E+03 -0.12146622159E+02  0.36902445241E+03  0.10100000352E+00 0.  1.
</event>
<event>
 5   0  0.1106332E-02  0.7926685E+03  0.7818609E-02  0.9570690E-01
       -2   -1    0    0    0  501  0.00000000000E+00  0.00000000000E+00  0.49089597630E+03  0.49089597630E+03  0.25500000920E-02 0.  1.
        2   -1    0    0  501    0  0.00000000000E+00  0.00000000000E+00 -0.31998800579E+03  0.31998800580E+03  0.25500000920E-02 0. -1.
    10030    2    1    2    0    0  0.00000000000E+00  0.00000000000E+00  0.17090797050E+03  0.81088398211E+03  0.79266846667E+03 0.  0.
        1    1    3    3  502    0  0.64857190183E+02  0.16918251340E+03 -0.27513978225E+03  0.32944055270E+03  0.50400001928E-02 0. -1.
       -1    1    3    3    0  502 -0.64857190183E+02 -0.16918251340E+03  0.44604775276E+03  0.48144342941E+03  0.50400001928E-02 0.  1.
</event>
<event>
 5   0  0.6596225E-03  0.8018151E+03  0.7818609E-02  0.9557394E-01
        1   -1    0    0  501    0  0.00000000000E+00  0.00000000000E+00  0.53418485759E+03  0.53418485762E+03  0.50400001928E-02 0. -1.
       -1   -1    0    0    0  501  0.00000000000E+00  0.00000000000E+00 -0.30088244548E+03  0.30088244552E+03  0.50400001928E-02 0.  1.
    10030    2    1    2    0    0  0.00000000000E+00  0.00000000000E+00  0.23330241211E+03  0.83506730314E+03  0.80181505677E+03 0.  0.
        5    1    3    3  502    0  0.35635536204E+03 -0.18049728397E+03  0.15175887084E+03  0.42734208599E+03  0.46999998093E+01 0.  1.
       -5    1    3    3    0  502 -0.35635536204E+03  0.18049728397E+03  0.81543541269E+02  0.40772521715E+03  0.46999998093E+01 0. -1.
</event>
<event>
 5   0  0.1121480E-02  0.7976651E+03  0.7818609E-02  0.9563403E-01
       -2   -1    0    0    0  501  0.00000000000E+00  0.00000000000E+00  0.87345133025E+02  0.87345133063E+02  0.25500000920E-02 0.  1.
        2   -1    0    0  501    0  0.00000000000E+00  0.00000000000E+00 -0.18211362818E+04  0.18211362818E+04  0.25500000920E-02 0. -1.
    10030    2    1    2    0    0  0.00000000000E+00  0.00000000000E+00 -0.17337911488E+04  0.19084814149E+04  0.79766506963E+03 0.  0.
        2    1    3    3  502    0 -0.31186574068E+03 -0.24433440307E+03 -0.97674232654E+03  0.10540327856E+04  0.25500000920E-02 0.  1.
       -2    1    3    3    0  502  0.31186574068E+03  0.24433440307E+03 -0.75704882223E+03  0.85444862922E+03  0.25500000920E-02 0. -1.
</event>
<event>
 5   0  0.6600401E-03  0.7975893E+03  0.7818609E-02  0.9563513E-01
        1   -1    0    0  501    0  0.00000000000E+00  0.00000000000E+00  0.13075902355E+04  0.13075902355E+04  0.50400001928E-02 0.  1.
       -1   -1    0    0    0  501  0.00000000000E+00  0.00000000000E+00 -0.12162614860E+03  0.12162614871E+03  0.50400001928E-02 0. -1.
    10030    2    1    2    0    0  0.00000000000E+00  0.00000000000E+00  0.11859640869E+04  0.14292163842E+04  0.79758927869E+03 0.  0.
        2    1    3    3  502    0 -0.38696249702E+03 -0.49953008943E+02  0.44519601087E+03  0.59197530802E+03  0.25500000920E-02 0. -1.
       -2    1    3    3    0  502  0.38696249702E+03  0.49953008943E+02  0.74076807599E+03  0.83724107616E+03  0.25500000920E-02 0.  1.
</event>
<event>
 5   0  0.1092868E-02  0.7637863E+03  0.7818609E-02  0.9613967E-01
       -2   -1    0    0    0  501  0.00000000000E+00  0.00000000000E+00  0.16361847910E+03  0.16361847912E+03  0.25500000920E-02 0. -1.
        2   -1    0    0  501    0  0.00000000000E+00  0.00000000000E+00 -0.89135632298E+03  0.89135632299E+03  0.25500000920E-02 0.  1.
    10030    2    1    2    0    0  0.00000000000E+00  0.00000000000E+00 -0.72773784388E+03  0.10549748021E+04  0.76378626832E+03 0.  0.
        3    1    3    3  502    0  0.26745324758E+03 -0.74516997514E+02 -0.16818782256E+01  0.27764520791E+03  0.10100000352E+00 0. -1.
       -3    1    3    3    0  502 -0.26745324758E+03  0.74516997514E+02 -0.72605596565E+03  0.77732959420E+03  0.10100000352E+00 0.  1.
</event>
<event>
 5   0  0.6557679E-03  0.8000848E+03  0.7818609E-02  0.9559894E-01
       -1   -1    0    0    0  501  0.00000000000E+00  0.00000000000E+00  0.96928970384E+03  0.96928970386E+03  0.50400001928E-02 0.  1.
        1   -1    0    0  501    0  0.00000000000E+00  0.00000000000E+00 -0.16510432872E+03  0.16510432880E+03  0.50400001928E-02 0. -1.
    10030    2    1    2    0    0  0.00000000000E+00  0.00000000000E+00  0.80418537512E+03  0.11343940327E+04  0.80008481036E+03 0.  0.
        1    1    3    3  502    0  0.27889624834E+03 -0.31252168424E+02  0.80629986465E+03  0.85374427502E+03  0.50400001928E-02 0.  1.
       -1    1    3    3    0  502 -0.27889624834E+03  0.31252168424E+02 -0.21144895293E+01  0.28064975764E+03  0.50400001928E-02 0. -1.
</event>
<event>
 5   0  0.1092868E-02  0.8013148E+03  0.7818609E-02  0.9558116E-01
       -2   -1    0    0    0  501  0.00000000000E+00  0.00000000000E+00  0.16161037702E+03  0.16161037704E+03  0.25500000920E-02 0. -1.
        2   -1    0    0  501    0  0.00000000000E+00  0.00000000000E+00 -0.99329245785E+03  0.99329245785E+03  0.25500000920E-02 0.  1.
    10030    2    1    2    0    0  0.00000000000E+00  0.00000000000E+00 -0.83168208083E+03  0.11549028349E+04  0.80131484104E+03 0.  0.
        3    1    3    3  502    0 -0.73918016373E+02 -0.36879472127E+03 -0.61478155992E+03  0.72071478145E+03  0.10100000352E+00 0.  1.
       -3    1    3    3    0  502  0.73918016373E+02  0.36879472127E+03 -0.21690052091E+03  0.43418805345E+03  0.10100000352E+00 0. -1.
</event>
<event>
 5   0  0.6517392E-03  0.8106403E+03  0.7818609E-02  0.9544742E-01
        1   -1    0    0  501    0  0.00000000000E+00  0.00000000000E+00  0.28841490840E+03  0.28841490844E+03  0.50400001928E-02 0.  1.
       -1   -1    0    0    0  501  0.00000000000E+00  0.00000000000E+00 -0.56961136256E+03  0.56961136258E+03  0.50400001928E-02 0. -1.
    10030    2    1    2    0    0  0.00000000000E+00  0.00000000000E+00 -0.28119645416E+03  0.85802627102E+03  0.81064026296E+03 0.  0.
        3    1    3    3  502    0  0.92562895903E+02 -0.37748649981E+03 -0.18896831304E+02  0.38912857473E+03  0.10100000352E+00 0.  1.
       -3    1    3    3    0  502 -0.92562895903E+02  0.37748649981E+03 -0.26229962285E+03  0.46889769629E+03  0.10100000352E+00 0. -1.
</event>
<event>
 5   0  0.6596225E-03  0.7990890E+03  0.7818609E-02  0.9561337E-01
        1   -1    0    0  501    0  0.00000000000E+00  0.00000000000E+00  0.52625271405E+03  0.52625271407E+03  0.50400001928E-02 0. -1.
       -1   -1    0    0    0  501  0.00000000000E+00  0.00000000000E+00 -0.30334439515E+03  0.30334439519E+03  0.50400001928E-02 0.  1.
    10030    2    1    2    0    0  0.00000000000E+00  0.00000000000E+00  0.22290831890E+03  0.82959710926E+03  0.79908900947E+03 0.  0.
        5    1    3    3  502    0 -0.30379042312E+03  0.25425366284E+03  0.57707230997E+02  0.40035704160E+03  0.46999998093E+01 0.  1.
       -5    1    3    3    0  502  0.30379042312E+03 -0.25425366284E+03  0.16520108790E+03  0.42924006767E+03  0.46999998093E+01 0. -1.
</event>
<event>
 5   0  0.6517392E-03  0.8031447E+03  0.7818609E-02  0.9555476E-01
       -1   -1    0    0    0  501  0.00000000000E+00  0.00000000000E+00  0.15477720023E+03  0.15477720031E+03  0.50400001928E-02 0. -1.
        1   -1    0    0  501    0  0.00000000000E+00  0.00000000000E+00 -0.10418870059E+04  0.10418870060E+04  0.50400001928E-02 0.  1.
    10030    2    1    2    0    0  0.00000000000E+00  0.00000000000E+00 -0.88710980572E+03  0.11966642063E+04  0.80314470375E+03 0.  0.
        3    1    3    3  502    0 -0.18858242269E+03 -0.22626920993E+03 -0.36873348307E+02  0.29685137616E+03  0.10100000352E+00 0.  1.
       -3    1    3    3    0  502  0.18858242269E+03  0.22626920993E+03 -0.85023645741E+03  0.89981283011E+03  0.10100000352E+00 0. -1.
</event>
<event>
 5   0  0.1154714E-02  0.8069329E+03  0.7818609E-02  0.9550036E-01
        2   -1    0    0  501    0  0.00000000000E+00  0.00000000000E+00  0.32335964272E+03  0.32335964273E+03  0.25500000920E-02 0. -1.
       -2   -1    0    0    0  501  0.00000000000E+00  0.00000000000E+00 -0.50341837808E+03  0.50341837808E+03  0.25500000920E-02 0.  1.
    10030    2    1    2    0    0  0.00000000000E+00  0.00000000000E+00 -0.18005873536E+03  0.82677802081E+03  0.80693292628E+03 0.  0.
        5    1    3    3  502    0  0.71825074311E+02 -0.30780969785E+03 -0.34690910568E+03  0.46933321743E+03  0.46999998093E+01 0.  1.
       -5    1    3    3    0  502 -0.71825074311E+02  0.30780969785E+03  0.16685037032E+03  0.35744480338E+03  0.46999998093E+01 0. -1.
</event>
<event>
 5   0  0.1106332E-02  0.7802009E+03  0.7818609E-02  0.9589126E-01
       -2   -1    0    0    0  501  0.00000000000E+00  0.00000000000E+00  0.15768055443E+03  0.15768055445E+03  0.25500000920E-02 0. -1.
        2   -1    0    0  501    0  0.00000000000E+00  0.00000000000E+00 -0.96510546824E+03  0.96510546824E+03  0.25500000920E-02 0.  1.
    10030    2    1    2    0    0  0.00000000000E+00  0.00000000000E+00 -0.80742491381E+03  0.11227860227E+04  0.78020091087E+03 0.  0.
        1    1    3    3  502    0  0.28786153501E+03 -0.22819311075E+03 -0.59267879305E+03  0.69728366601E+03  0.50400001928E-02 0. -1.
       -1    1    3    3    0  502 -0.28786153501E+03  0.22819311075E+03 -0.21474612076E+03  0.42550235668E+03  0.50400001928E-02 0.  1.
</event>
<event>
 5   0  0.1106332E-02  0.8033547E+03  0.7818609E-02  0.9555174E-01
        2   -1    0    0  501    0  0.00000000000E+00  0.00000000000E+00  0.59769059958E+03  0.59769059959E+03  0.25500000920E-02 0. -1.
       -2   -1    0    0    0  501  0.00000000000E+00  0.00000000000E+00 -0.26994683030E+03  0.26994683031E+03  0.25500000920E-02 0.  1.
    10030    2    1    2    0    0  0.00000000000E+00  0.00000000000E+00  0.32774376929E+03  0.86763742990E+03  0.80335467351E+03 0.  0.
        1    1    3    3  502    0 -0.16038840005E+03 -0.45266398274E+02 -0.23084650825E+03  0.28471669441E+03  0.50400001928E-02 0.  1.
       -1    1    3    3    0  502  0.16038840005E+03  0.45266398274E+02  0.55859027753E+03  0.58292073549E+03  0.50400001928E-02 0. -1.
</event>
<event>
 5   0  0.6600401E-03  0.8268627E+03  0.7818609E-02  0.9521928E-01
       -1   -1    0    0    0  501  0.00000000000E+00  0.00000000000E+00  0.30760948810E+03  0.30760948815E+03  0.50400001928E-02 0.  1.
        1   -1    0    0  501    0  0.00000000000E+00  0.00000000000E+00 -0.55565734539E+03  0.55565734542E+03  0.50400001928E-02 0. -1.
    10030    2    1    2    0    0  0.00000000000E+00  0.00000000000E+00 -0.24804785729E+03  0.86326683356E+03  0.82686267688E+03 0.  0.
        2    1    3    3  502    0  0.24996619045E+03 -0.14332689888E+03 -0.43355592525E+03  0.52057318087E+03  0.25500000920E-02 0. -1.
       -2    1    3    3    0  502 -0.24996619045E+03  0.14332689888E+03  0.18550806796E+03  0.34269365270E+03  0.25500000920E-02 0.  1.
</event>
<event>
 5   0  0.4385875E-03  0.8040373E+03  0.7818609E-02  0.9554192E-01
       -4   -1    0    0    0  501  0.00000000000E+00  0.00000000000E+00  0.35582857595E+03  0.35583084234E+03  0.12699999809E+01 0. -1.
        4   -1    0    0  501    0  0.00000000000E+00  0.00000000000E+00 -0.45420002212E+03  0.45420179766E+03  0.12699999809E+01 0.  1.
    10030    2    1    2    0    0  0.00000000000E+00  0.00000000000E+00 -0.98371446171E+02  0.81003264000E+03  0.80403727304E+03 0.  0.
        4    1    3    3  502    0  0.77774836874E+02 -0.35478464409E+03  0.12442539125E+03  0.38393275430E+03  0.12699999809E+01 0.  1.
       -4    1    3    3    0  502 -0.77774836874E+02  0.35478464409E+03 -0.22279683742E+03  0.42609988571E+03  0.12699999809E+01 0. -1.
</event>
<event>
 5   0  0.1121480E-02  0.7963471E+03  0.7818609E-02  0.9565320E-01
       -2   -1    0    0    0  501  0.00000000000E+00  0.00000000000E+00  0.29767607961E+03  0.29767607962E+03  0.25500000920E-02 0.  1.
        2   -1    0    0  501    0  0.00000000000E+00  0.00000000000E+00 -0.53259968371E+03  0.53259968372E+03  0.25500000920E-02 0. -1.
    10030    2    1    2    0    0  0.00000000000E+00  0.00000000000E+00 -0.23492360411E+03  0.83027576334E+03  0.79634712495E+03 0.  0.
        2    1    3    3  502    0 -0.27794221620E+03 -0.96661405311E+02  0.16219535342E+03  0.33600987411E+03  0.25500000920E-02 0.  1.
       -2    1    3    3    0  502  0.27794221620E+03  0.96661405311E+02 -0.39711895752E+03  0.49426588923E+03  0.25500000920E-02 0. -1.
</event>
<event>
 5   0  0.6596225E-03  0.7921011E+03  0.7818609E-02  0.9571521E-01
       -1   -1    0    0    0  501  0.00000000000E+00  0.00000000000E+00  0.10879009486E+03  0.10879009498E+03  0.50400001928E-02 0. -1.
        1   -1    0    0  501    0  0.00000000000E+00  0.00000000000E+00 -0.14418226836E+04  0.14418226836E+04  0.50400001928E-02 0.  1.
    10030    2    1    2    0    0  0.00000000000E+00  0.00000000000E+00 -0.13330325888E+04  0.15506127786E+04  0.79210107087E+03 0.  0.
        5    1    3    3  502    0 -0.17338807486E+03 -0.35598887814E+03 -0.65376473898E+03  0.76434411739E+03  0.46999998093E+01 0.  1.
       -5    1    3    3    0  502  0.17338807486E+03  0.35598887814E+03 -0.67926784979E+03  0.78626866122E+03  0.46999998093E+01 0. -1.
</event>
<event>
 5   0  0.6551489E-03  0.8049037E+03  0.7818609E-02  0.9552946E-01
        1   -1    0    0  501    0  0.00000000000E+00  0.00000000000E+00  0.63050899312E+03  0.63050899314E+03  0.50400001928E-02 0.  1.
       -1   -1    0    0    0  501  0.00000000000E+00  0.00000000000E+00 -0.25688372977E+03  0.25688372982E+03  0.50400001928E-02 0. -1.
    10030    2    1    2    0    0  0.00000000000E+00  0.00000000000E+00  0.37362526335E+03  0.88739272296E+03  0.80490372552E+03 0.  0.
        4    1    3    3  502    0  0.22697632412E+03  0.81492850377E+02  0.54202191673E+03  0.59325265064E+03  0.12699999809E+01 0.  1.
       -4    1    3    3    0  502 -0.22697632412E+03 -0.81492850377E+02 -0.16839665338E+03  0.29414007232E+03  0.12699999809E+01 0. -1.
</event>
<event>
 5   0  0.6517392E-03  0.7996939E+03  0.7818609E-02  0.9560460E-01
        1   -1    0    0  501    0  0.00000000000E+00  0.00000000000E+00  0.41101842133E+03  0.41101842136E+03  0.50400001928E-02 0.  1.
       -1   -1    0    0    0  501  0.00000000000E+00  0.00000000000E+00 -0.38897912876E+03  0.38897912879E+03  0.50400001928E-02 0. -1.
    10030    2    1    2    0    0  0.00000000000E+00  0.00000000000E+00  0.22039292568E+02  0.79999755015E+03  0.79969391009E+03 0.  0.
        3    1    3    3  502    0  0.31758929068E+03  0.13821566934E+03  0.21087299823E+03  0.40550457505E+03  0.10100000352E+00 0.  1.
       -3    1    3    3    0  502 -0.31758929068E+03 -0.13821566934E+03 -0.18883370566E+03  0.39449297510E+03  0.10100000352E+00 0. -1.
</event>
<event>
 5   0  0.6517392E-03  0.8038804E+03  0.7818609E-02  0.9554417E-01
        1   -1    0    0  501    0  0.00000000000E+00  0.00000000000E+00  0.38707562184E+03  0.38707562187E+03  0.50400001928E-02 0. -1.
       -1   -1    0    0    0  501  0.00000000000E+00  0.00000000000E+00 -0.41737565362E+03  0.41737565365E+03  0.50400001928E-02 0.  1.
    10030    2    1    2    0    0  0.00000000000E+00  0.00000000000E+00 -0.30300031774E+02  0.80445127552E+03  0.80388044059E+03 0.  0.
        3    1    3    3  502    0  0.16373683915E+03  0.36521669708E+03 -0.52094278050E+02  0.40361716059E+03  0.10100000352E+00 0.  1.
       -3    1    3    3    0  502 -0.16373683915E+03 -0.36521669708E+03  0.21794246276E+02  0.40083411493E+03  0.10100000352E+00 0. -1.
</event>
<event>
 5   0  0.1121480E-02  0.8055079E+03  0.7818609E-02  0.9552079E-01
       -2   -1    0    0    0  501  0.00000000000E+00  0.00000000000E+00  0.14051998709E+03  0.14051998712E+03  0.25500000920E-02 0.  1.
        2   -1    0    0  501    0  0.00000000000E+00  0.00000000000E+00 -0.11543606071E+04  0.11543606071E+04  0.25500000920E-02 0. -1.
    10030    2    1    2    0    0  0.00000000000E+00  0.00000000000E+00 -0.10138406200E+04  0.12948805942E+04  0.80550788358E+03 0.  0.
        2    1    3    3  502    0 -0.10165723968E+03  0.64864977416E+02  0.11081824612E+03  0.16377528310E+03  0.25500000920E-02 0.  1.
       -2    1    3    3    0  502  0.10165723968E+03 -0.64864977416E+02 -0.11246588661E+04  0.11311053111E+04  0.25500000920E-02 0. -1.
</event>
<event>
 5   0  0.1121480E-02  0.7977584E+03  0.7818609E-02  0.9563267E-01
       -2   -1    0    0    0  501  0.00000000000E+00  0.00000000000E+00  0.14431503364E+03  0.14431503366E+03  0.25500000920E-02 0. -1.
        2   -1    0    0  501    0  0.00000000000E+00  0.00000000000E+00 -0.11024811770E+04  0.11024811770E+04  0.25500000920E-02 0.  1.
    10030    2    1    2    0    0  0.00000000000E+00  0.00000000000E+00 -0.95816614334E+03  0.12467962106E+04  0.79775837985E+03 0.  0.
        2    1    3    3  502    0  0.19236158210E+03 -0.34766037732E+03 -0.53398184743E+03  0.66558795783E+03  0.25500000920E-02 0.  1.
       -2    1    3    3    0  502 -0.19236158210E+03  0.34766037732E+03 -0.42418429591E+03  0.58120825280E+03  0.25500000920E-02 0. -1.
</event>
<event>
 5   0  0.6551489E-03  0.7998592E+03  0.7818609E-02  0.9560221E-01
        1   -1    0    0  501    0  0.00000000000E+00  0.00000000000E+00  0.91196046426E+03  0.91196046428E+03  0.50400001928E-02 0.  1.
       -1   -1    0    0    0  501  0.00000000000E+00  0.00000000000E+00 -0.17538446762E+03  0.17538446769E+03  0.50400001928E-02 0. -1.
    10030    2    1    2    0    0  0.00000000000E+00  0.00000000000E+00  0.73657599665E+03  0.10873449320E+04  0.79985923901E+03 0.  0.
        4    1    3    3  502    0 -0.59432639428E+02  0.33219748197E+03  0.66002442750E+03  0.74129701433E+03  0.12699999809E+01 0.  1.
       -4    1    3    3    0  502  0.59432639428E+02 -0.33219748197E+03  0.76551569148E+02  0.34604791763E+03  0.12699999809E+01 0. -1.
</event>
<event>
 5   0  0.6557679E-03  0.7997431E+03  0.7818609E-02  0.9560389E-01
        1   -1    0    0  501    0  0.00000000000E+00  0.00000000000E+00  0.53275955117E+03  0.53275955119E+03  0.50400001928E-02 0. -1.
       -1   -1    0    0    0  501  0.00000000000E+00  0.00000000000E+00 -0.30013027255E+03  0.30013027259E+03  0.50400001928E-02 0.  1.
    10030    2    1    2    0    0  0.00000000000E+00  0.00000000000E+00  0.23262927862E+03  0.83288982378E+03  0.79974313207E+03 0.  0.
        1    1    3    3  502    0 -0.46689564143E+02  0.38834605298E+03  0.20285313677E+03  0.44061544161E+03  0.50400001928E-02 0. -1.
       -1    1    3    3    0  502  0.46689564143E+02 -0.38834605298E+03  0.29776141848E+02  0.39227438217E+03  0.50400001928E-02 0.  1.
</event>
<event>
 5   0  0.6557679E-03  0.7968184E+03  0.7818609E-02  0.9564634E-01
       -1   -1    0    0    0  501  0.00000000000E+00  0.00000000000E+00  0.21107474774E+03  0.21107474780E+03  0.50400001928E-02 0. -1.
        1   -1    0    0  501    0  0.00000000000E+00  0.00000000000E+00 -0.75200796993E+03  0.75200796995E+03  0.50400001928E-02 0.  1.
    10030    2    1    2    0    0  0.00000000000E+00  0.00000000000E+00 -0.54093322219E+03  0.96308271775E+03  0.79681840488E+03 0.  0.
        1    1    3    3  502    0  0.16108599471E+02 -0.27069120768E+03  0.82322812977E+02  0.28339065343E+03  0.50400001928E-02 0. -1.
       -1    1    3    3    0  502 -0.16108599471E+02  0.27069120768E+03 -0.62325603517E+03  0.67969206431E+03  0.50400001928E-02 0.  1.
</event>
<event>
 5   0  0.4385875E-03  0.8061842E+03  0.7818609E-02  0.9551109E-01
        3   -1    0    0  501    0  0.00000000000E+00  0.00000000000E+00  0.80787416567E+03  0.80787417198E+03  0.10100000352E+00 0.  1.
       -3   -1    0    0    0  501  0.00000000000E+00  0.00000000000E+00 -0.20112443537E+03  0.20112446073E+03  0.10100000352E+00 0. -1.
    10030    2    1    2    0    0  0.00000000000E+00  0.00000000000E+00  0.60674973030E+03  0.10089986327E+04  0.80618422560E+03 0.  0.
        5    1    3    3  502    0 -0.18893237229E+03  0.41907539926E+02 -0.13913988636E+03  0.23839815683E+03  0.46999998093E+01 0. -1.
       -5    1    3    3    0  502  0.18893237229E+03 -0.41907539926E+02  0.74588961666E+03  0.77060047589E+03  0.46999998093E+01 0.  1.
</event>
<event>
 5   0  0.4385875E-03  0.8057906E+03  0.7818609E-02  0.9551673E-01
       -3   -1    0    0    0  501  0.00000000000E+00  0.00000000000E+00  0.10783595987E+04  0.10783596034E+04  0.10100000352E+00 0.  1.
        3   -1    0    0  501    0  0.00000000000E+00  0.00000000000E+00 -0.15052920475E+03  0.15052923863E+03  0.10100000352E+00 0. -1.
    10030    2    1    2    0    0  0.00000000000E+00  0.00000000000E+00  0.92783039391E+03  0.12288888420E+04  0.80579063420E+03 0.  0.
        4    1    3    3  502    0 -0.26768272712E+03  0.29984252852E+03  0.50605355921E+03  0.64625954692E+03  0.12699999809E+01 0. -1.
       -4    1    3    3    0  502  0.26768272712E+03 -0.29984252852E+03  0.42177683470E+03  0.58262929509E+03  0.12699999809E+01 0.  1.
</event>
<event>
 5   0  0.6596225E-03  0.8015298E+03  0.7818609E-02  0.9557805E-01
        1   -1    0    0  501    0  0.00000000000E+00  0.00000000000E+00  0.14190081284E+04  0.14190081284E+04  0.50400001928E-02 0. -1.
       -1   -1    0    0    0  501  0.00000000000E+00  0.00000000000E+00 -0.11318646323E+03  0.11318646334E+03  0.50400001928E-02 0.  1.
    10030    2    1    2    0    0  0.00000000000E+00  0.00000000000E+00  0.13058216651E+04  0.15321945917E+04  0.80152981588E+03 0.  0.
        5    1    3    3  502    0  0.22432029590E+03 -0.32114397378E+03  0.49141419597E+03  0.62846085721E+03  0.46999998093E+01 0.  1.
       -5    1    3    3    0  502 -0.22432029590E+03  0.32114397378E+03  0.81440746918E+03  0.90373373451E+03  0.46999998093E+01 0. -1.
</event>
<event>
 5   0  0.1106332E-02  0.7996437E+03  0.7818609E-02  0.9560533E-01
       -2   -1    0    0    0  501  0.00000000000E+00  0.00000000000E+00  0.37811632042E+03  0.37811632043E+03  0.25500000920E-02 0. -1.
        2   -1    0    0  501    0  0.00000000000E+00  0.00000000000E+00 -0.42277338591E+03  0.42277338592E+03  0.25500000920E-02 0.  1.
    10030    2    1    2    0    0  0.00000000000E+00  0.00000000000E+00 -0.44657065484E+02  0.80088970635E+03  0.79964371331E+03 0.  0.
        1    1    3    3  502    0  0.40359455582E+02 -0.37431238917E+02  0.37430309383E+03  0.37832894336E+03  0.50400001928E-02 0. -1.
       -1    1    3    3    0  502 -0.40359455582E+02  0.37431238917E+02 -0.41896015932E+03  0.42256076299E+03  0.50400001928E-02 0.  1.
</event>
<event>
 5   0  0.1092868E-02  0.8060518E+03  0.7818609E-02  0.9551298E-01
       -2   -1    0    0    0  501  0.00000000000E+00  0.00000000000E+00  0.24932775917E+03  0.24932775918E+03  0.25500000920E-02 0. -1.
        2   -1    0    0  501    0  0.00000000000E+00  0.00000000000E+00 -0.65147128194E+03  0.65147128195E+03  0.25500000920E-02 0.  1.
    10030    2    1    2    0    0  0.00000000000E+00  0.00000000000E+00 -0.40214352277E+03  0.90079904113E+03  0.80605179709E+03 0.  0.
        3    1    3    3  502    0  0.37726516493E+03  0.12167202376E+03 -0.28240552652E+03  0.48670933589E+03  0.10100000352E+00 0.  1.
       -3    1    3    3    0  502 -0.37726516493E+03 -0.12167202376E+03 -0.11973799625E+03  0.41408970524E+03  0.10100000352E+00 0. -1.
</event>
<event>
 5   0  0.1106332E-02  0.7539042E+03  0.7818609E-02  0.9629245E-01
        2   -1    0    0  501    0  0.00000000000E+00  0.00000000000E+00  0.11508808254E+04  0.11508808254E+04  0.25500000920E-02 0.  1.
       -2   -1    0    0    0  501  0.00000000000E+00  0.00000000000E+00 -0.12346447427E+03  0.12346447429E+03  0.25500000920E-02 0. -1.
    10030    2    1    2    0    0  0.00000000000E+00  0.00000000000E+00  0.10274163511E+04  0.12743452997E+04  0.75390422752E+03 0.  0.
        1    1    3    3  502    0 -0.33386608131E+03  0.20185715079E+02  0.21986874590E+03  0.40027026968E+03  0.50400001928E-02 0. -1.
       -1    1    3    3    0  502  0.33386608131E+03 -0.20185715079E+02  0.80754760523E+03  0.87407503001E+03  0.50400001928E-02 0.  1.
</event>
<event>
 5   0  0.4385875E-03  0.7989252E+03  0.7818609E-02  0.9561574E-01
       -3   -1    0    0    0  501  0.00000000000E+00  0.00000000000E+00  0.27753071860E+03  0.27753073698E+03  0.10100000352E+00 0. -1.
        3   -1    0    0  501    0  0.00000000000E+00  0.00000000000E+00 -0.57496465225E+03  0.57496466112E+03  0.10100000352E+00 0.  1.
    10030    2    1    2    0    0  0.00000000000E+00  0.00000000000E+00 -0.29743393365E+03  0.85249539810E+03  0.79892518980E+03 0.  0.
        3    1    3    3  502    0 -0.20919756076E+03  0.26459765657E+03 -0.37706332225E+03  0.50591728422E+03  0.10100000352E+00 0.  1.
       -3    1    3    3    0  502  0.20919756076E+03 -0.26459765657E+03  0.79629388599E+02  0.34657811388E+03  0.10100000352E+00 0. -1.
</event>
<event>
 5   0  0.1092868E-02  0.7696413E+03  0.7818609E-02  0.9605030E-01
       -2   -1    0    0    0  501  0.00000000000E+00  0.00000000000E+00  0.26260136551E+03  0.26260136552E+03  0.25500000920E-02 0.  1.
        2   -1    0    0  501    0  0.00000000000E+00  0.00000000000E+00 -0.56392297438E+03  0.56392297439E+03  0.25500000920E-02 0. -1.
    10030    2    1    2    0    0  0.00000000000E+00  0.00000000000E+00 -0.30132160888E+03  0.82652433991E+03  0.76964132717E+03 0.  0.
        3    1    3    3  502    0  0.68064679529E+02 -0.37140636370E+03 -0.70934796368E+02  0.38419688069E+03  0.10100000352E+00 0.  1.
       -3    1    3    3    0  502 -0.68064679529E+02  0.37140636370E+03 -0.23038681251E+03  0.44232745921E+03  0.10100000352E+00 0. -1.
</event>
<event>
 5   0  0.1154714E-02  0.7881973E+03  0.7818609E-02  0.9577260E-01
        2   -1    0    0  501    0  0.00000000000E+00  0.00000000000E+00  0.69796878423E+03  0.69796878423E+03  0.25500000920E-02 0. -1.
       -2   -1    0    0    0  501  0.00000000000E+00  0.00000000000E+00 -0.22252247652E+03  0.22252247653E+03  0.25500000920E-02 0.  1.
    10030    2    1    2    0    0  0.00000000000E+00  0.00000000000E+00  0.47544630771E+03  0.92049126076E+03  0.78819729106E+03 0.  0.
        5    1    3    3  502    0 -0.10744137081E+03 -0.16218858537E+03 -0.16249617015E+03  0.25352688358E+03  0.46999998093E+01 0.  1.
       -5    1    3    3    0  502  0.10744137081E+03  0.16218858537E+03  0.63794247786E+03  0.66696437719E+03  0.46999998093E+01 0. -1.
</event>
<event>
 5   0  0.4385875E-03  0.7991399E+03  0.7818609E-02  0.9561263E-01
       -4   -1    0    0    0  501  0.00000000000E+00  0.00000000000E+00  0.12871938067E+03  0.12872564569E+03  0.12699999809E+01 0.  1.
        4   -1    0    0  501    0  0.00000000000E+00  0.00000000000E+00 -0.12403059585E+04  0.12403066087E+04  0.12699999809E+01 0. -1.
    10030    2    1    2    0    0  0.00000000000E+00  0.00000000000E+00 -0.11115865778E+04  0.13690322544E+04  0.79913990863E+03 0.  0.
        4    1    3    3  502    0  0.23213652950E+03  0.20207259563E+03 -0.11925093962E+03  0.33006529920E+03  0.12699999809E+01 0.  1.
       -4    1    3    3    0  502 -0.23213652950E+03 -0.20207259563E+03 -0.99233563823E+03  0.10389669552E+04  0.12699999809E+01 0. -1.
</event>
<event>
 5   0  0.6557679E-03  0.7867283E+03  0.7818609E-02  0.9579429E-01
        1   -1    0    0  501    0  0.00000000000E+00  0.00000000000E+00  0.96275711822E+03  0.96275711823E+03  0.50400001928E-02 0. -1.
       -1   -1    0    0    0  501  0.00000000000E+00  0.00000000000E+00 -0.16072105382E+03  0.16072105390E+03  0.50400001928E-02 0.  1.
    10030    2    1    2    0    0  0.00000000000E+00  0.00000000000E+00  0.80203606440E+03  0.11234781721E+04  0.78672825973E+03 0.  0.
        1    1    3    3  502    0  0.29336015463E+03  0.14901536191E+03  0.93178590187E+02  0.34197661924E+03  0.50400001928E-02 0.  1.
       -1    1    3    3    0  502 -0.29336015463E+03 -0.14901536191E+03  0.70885747421E+03  0.78150155290E+03  0.50400001928E-02 0. -1.
</event>
<event>
 5   0  0.1106332E-02  0.8416367E+03  0.7818609E-02  0.9501631E-01
        2   -1    0    0  501    0  0.00000000000E+00  0.00000000000E+00  0.26922402148E+04  0.26922402148E+04  0.25500000920E-02 0. -1.
       -2   -1    0    0    0  501  0.00000000000E+00  0.00000000000E+00 -0.65777222113E+02  0.65777222162E+02  0.25500000920E-02 0.  1.
    10030    2    1    2    0    0  0.00000000000E+00  0.00000000000E+00  0.26264629927E+04  0.27580174370E+04  0.84163669754E+03 0.  0.
        1    1    3    3  502    0  0.16482051860E+02 -0.35494556391E+03  0.57442160152E+03  0.67543925536E+03  0.50400001928E-02 0. -1.
       -1    1    3    3    0  502 -0.16482051860E+02  0.35494556391E+03  0.20520413912E+04  0.20825781816E+04  0.50400001928E-02 0.  1.
</event>
<event>
 5   0  0.6517392E-03  0.8013167E+03  0.7818609E-02  0.9558113E-01
        1   -1    0    0  501    0  0.00000000000E+00  0.00000000000E+00  0.10021948624E+04  0.10021948624E+04  0.50400001928E-02 0.  1.
       -1   -1    0    0    0  501  0.00000000000E+00  0.00000000000E+00 -0.16017554460E+03  0.16017554468E+03  0.50400001928E-02 0. -1.
    10030    2    1    2    0    0  0.00000000000E+00  0.00000000000E+00  0.84201931777E+03  0.11623704070E+04  0.80131668627E+03 0.  0.
        3    1    3    3  502    0  0.36772296550E+03 -0.38295383858E+02  0.19703599075E+03  0.41893902615E+03  0.10100000352E+00 0. -1.
       -3    1    3    3    0  502 -0.36772296550E+03  0.38295383858E+02  0.64498332702E+03  0.74343138090E+03  0.10100000352E+00 0.  1.
</event>
<event>
 5   0  0.6600401E-03  0.7962297E+03  0.7818609E-02  0.9565491E-01
        1   -1    0    0  501    0  0.00000000000E+00  0.00000000000E+00  0.57181204720E+03  0.57181204722E+03  0.50400001928E-02 0. -1.
       -1   -1    0    0    0  501  0.00000000000E+00  0.00000000000E+00 -0.27718098104E+03  0.27718098109E+03  0.50400001928E-02 0.  1.
    10030    2    1    2    0    0  0.00000000000E+00  0.00000000000E+00  0.29463106616E+03  0.84899302831E+03  0.79622967602E+03 0.  0.
        2    1    3    3  502    0 -0.30542859311E+03  0.18554174084E+03 -0.39762013834E+02  0.35957388787E+03  0.25500000920E-02 0.  1.
       -2    1    3    3    0  502  0.30542859311E+03 -0.18554174084E+03  0.33439307999E+03  0.48941914045E+03  0.25500000920E-02 0. -1.
</event>
<event>
 5   0  0.6551489E-03  0.7999784E+03  0.7818609E-02  0.9560048E-01
       -1   -1    0    0    0  501  0.00000000000E+00  0.00000000000E+00  0.12715175982E+03  0.12715175992E+03  0.50400001928E-02 0.  1.
        1   -1    0    0  501    0  0.00000000000E+00  0.00000000000E+00 -0.12582708556E+04  0.12582708556E+04  0.50400001928E-02 0. -1.
    10030    2    1    2    0    0  0.00000000000E+00  0.00000000000E+00 -0.11311190958E+04  0.13854226155E+04  0.79997838395E+03 0.  0.
        4    1    3    3  502    0 -0.16698606662E+03 -0.19234046436E+03 -0.10996543416E+04  0.11287694559E+04  0.12699999809E+01 0. -1.
       -4    1    3    3    0  502  0.16698606662E+03  0.19234046436E+03 -0.31464754143E+02  0.25665315959E+03  0.12699999809E+01 0.  1.
</event>
<event>
 5   0  0.1119792E-02  0.7754596E+03  0.7818609E-02  0.9596234E-01
       -2   -1    0    0    0  501  0.00000000000E+00  0.00000000000E+00  0.13015309845E+03  0.13015309848E+03  0.25500000920E-02 0.  1.
        2   -1    0    0  501    0  0.00000000000E+00  0.00000000000E+00 -0.11550582648E+04  0.11550582648E+04  0.25500000920E-02 0. -1.
    10030    2    1    2    0    0  0.00000000000E+00  0.00000000000E+00 -0.10249051664E+04  0.12852113633E+04  0.77545963680E+03 0.  0.
        4    1    3    3  502    0  0.21443648946E+03 -0.28685464118E+03 -0.75863640592E+03  0.83892753112E+03  0.12699999809E+01 0. -1.
       -4    1    3    3    0  502 -0.21443648946E+03  0.28685464118E+03 -0.26626876044E+03  0.44628383218E+03  0.12699999809E+01 0.  1.
</event>
<event>
 5   0  0.6596225E-03  0.7977300E+03  0.7818609E-02  0.9563309E-01
        1   -1    0    0  501    0  0.00000000000E+00  0.00000000000E+00  0.14763727735E+03  0.14763727743E+03  0.50400001928E-02 0. -1.
       -1   -1    0    0    0  501  0.00000000000E+00  0.00000000000E+00 -0.10775955289E+04  0.10775955289E+04  0.50400001928E-02 0.  1.
    10030    2    1    2    0    0  0.00000000000E+00  0.00000000000E+00 -0.92995825159E+03  0.12252328064E+04  0.79772995439E+03 0.  0.
        5    1    3    3  502    0 -0.44360399319E+02  0.29750636111E+03 -0.86723608451E+03  0.91793158580E+03  0.46999998093E+01 0.  1.
       -5    1    3    3    0  502  0.44360399319E+02 -0.29750636111E+03 -0.62722167079E+02  0.30730122058E+03  0.46999998093E+01 0. -1.
</event>
<event>
 5   0  0.6517392E-03  0.8051839E+03  0.7818609E-02  0.9552544E-01
       -1   -1    0    0    0  501  0.00000000000E+00  0.00000000000E+00  0.20334496615E+03  0.20334496621E+03  0.50400001928E-02 0.  1.
        1   -1    0    0  501    0  0.00000000000E+00  0.00000000000E+00 -0.79707053311E+03  0.79707053312E+03  0.50400001928E-02 0. -1.
    10030    2    1    2    0    0  0.00000000000E+00  0.00000000000E+00 -0.59372556695E+03  0.10004154993E+04  0.80518390598E+03 0.  0.
        3    1    3    3  502    0 -0.27870636005E+03  0.25729523388E+03 -0.46449104537E+03  0.59969159902E+03  0.10100000352E+00 0. -1.
       -3    1    3    3    0  502  0.27870636005E+03 -0.25729523388E+03 -0.12923452159E+03  0.40072390031E+03  0.10100000352E+00 0.  1.
</event>
<event>
 5   0  0.6596225E-03  0.8164680E+03  0.7818609E-02  0.9536482E-01
        1   -1    0    0  501    0  0.00000000000E+00  0.00000000000E+00  0.39833272605E+03  0.39833272608E+03  0.50400001928E-02 0. -1.
       -1   -1    0    0    0  501  0.00000000000E+00  0.00000000000E+00 -0.41838143178E+03  0.41838143182E+03  0.50400001928E-02 0.  1.
    10030    2    1    2    0    0  0.00000000000E+00  0.00000000000E+00 -0.20048705734E+02  0.81671415790E+03  0.81646804292E+03 0.  0.
        5    1    3    3  502    0  0.38807496008E+03 -0.12291819480E+03 -0.40395801361E+02  0.40910263751E+03  0.46999998093E+01 0. -1.
       -5    1    3    3    0  502 -0.38807496008E+03  0.12291819480E+03  0.20347095628E+02  0.40761152039E+03  0.46999998093E+01 0.  1.
</event>
<event>
 5   0  0.1154714E-02  0.8158990E+03  0.7818609E-02  0.9537285E-01
        2   -1    0    0  501    0  0.00000000000E+00  0.00000000000E+00  0.21059530975E+04  0.21059530975E+04  0.25500000920E-02 0. -1.
       -2   -1    0    0    0  501  0.00000000000E+00  0.00000000000E+00 -0.79024927243E+02  0.79024927284E+02  0.25500000920E-02 0.  1.
    10030    2    1    2    0    0  0.00000000000E+00  0.00000000000E+00  0.20269281703E+04  0.21849780248E+04  0.81589898972E+03 0.  0.
        5    1    3    3  502    0 -0.22153038957E+01 -0.11457840431E+03  0.20618853743E+04  0.20650730023E+04  0.46999998093E+01 0. -1.
       -5    1    3    3    0  502  0.22153038957E+01  0.11457840431E+03 -0.34957204001E+02  0.11990502247E+03  0.46999998093E+01 0.  1.
</event>
<event>
 5   0  0.1106332E-02  0.8028322E+03  0.7818609E-02  0.9555927E-01
       -2   -1    0    0    0  501  0.00000000000E+00  0.00000000000E+00  0.75551752185E+02  0.75551752228E+02  0.25500000920E-02 0.  1.
        2   -1    0    0  501    0  0.00000000000E+00  0.00000000000E+00 -0.21327748398E+04  0.21327748398E+04  0.25500000920E-02 0. -1.
    10030    2    1    2    0    0  0.00000000000E+00  0.00000000000E+00 -0.20572230876E+04  0.22083265920E+04  0.80283217726E+03 0.  0.
        1    1    3    3  502    0  0.23409204176E+02 -0.12260066697E+03 -0.20780416780E+04  0.20817867638E+04  0.50400001928E-02 0. -1.
       -1    1    3    3    0  502 -0.23409204176E+02  0.12260066697E+03  0.20818590440E+02  0.12653982818E+03  0.50400001928E-02 0.  1.
</event>
<event>
 5   0  0.6600401E-03  0.7820120E+03  0.7818609E-02  0.9586425E-01
        1   -1    0    0  501    0  0.00000000000E+00  0.00000000000E+00  0.63460104194E+03  0.63460104196E+03  0.50400001928E-02 0.  1.
       -1   -1    0    0    0  501  0.00000000000E+00  0.00000000000E+00 -0.24091624673E+03  0.24091624678E+03  0.50400001928E-02 0. -1.
    10030    2    1    2    0    0  0.00000000000E+00  0.00000000000E+00  0.39368479521E+03  0.87551728874E+03  0.78201202350E+03 0.  0.
        2    1    3    3  502    0  0.39493794802E+02 -0.25454084625E+03 -0.13249946820E+03  0.28966689717E+03  0.25500000920E-02 0. -1.
       -2    1    3    3    0  502 -0.39493794802E+02  0.25454084625E+03  0.52618426341E+03  0.58585039157E+03  0.25500000920E-02 0.  1.
</event>
<event>
 5   0  0.4385875E-03  0.8039733E+03  0.7818609E-02  0.9554284E-01
        4   -1    0    0  501    0  0.00000000000E+00  0.00000000000E+00  0.25119687574E+03  0.25120008615E+03  0.12699999809E+01 0. -1.
       -4   -1    0    0    0  501  0.00000000000E+00  0.00000000000E+00 -0.64328535401E+03  0.64328660765E+03  0.12699999809E+01 0.  1.
    10030    2    1    2    0    0  0.00000000000E+00  0.00000000000E+00 -0.39208847827E+03  0.89448669380E+03  0.80397330217E+03 0.  0.
        2    1    3    3  502    0  0.14134839898E+03  0.30319009350E+03 -0.44405201149E+03  0.55595484673E+03  0.25500000920E-02 0.  1.
       -2    1    3    3    0  502 -0.14134839898E+03 -0.30319009350E+03  0.51963533220E+02  0.33853184707E+03  0.25500000920E-02 0. -1.
</event>
<event>
 5   0  0.1106332E-02  0.8007543E+03  0.7818609E-02  0.9558926E-01
        2   -1    0    0  501    0  0.00000000000E+00  0.00000000000E+00  0.66297130573E+03  0.66297130573E+03  0.25500000920E-02 0.  1.
       -2   -1    0    0    0  501  0.00000000000E+00  0.00000000000E+00 -0.24179307263E+03  0.24179307264E+03  0.25500000920E-02 0. -1.
    10030    2    1    2    0    0  0.00000000000E+00  0.00000000000E+00  0.42117823310E+03  0.90476437838E+03  0.80075431709E+03 0.  0.
        1    1    3    3  502    0  0.15720630610E+03 -0.36279557410E+03  0.13942022963E+03  0.41925225309E+03  0.50400001928E-02 0.  1.
       -1    1    3    3    0  502 -0.15720630610E+03  0.36279557410E+03  0.28175800346E+03  0.48551212529E+03  0.50400001928E-02 0. -1.
</event>
<event>
 5   0  0.4385875E-03  0.8045122E+03  0.7818609E-02  0.9553509E-01
       -3   -1    0    0    0  501  0.00000000000E+00  0.00000000000E+00  0.83639585460E+03  0.83639586070E+03  0.10100000352E+00 0.  1.
        3   -1    0    0  501    0  0.00000000000E+00  0.00000000000E+00 -0.19346095876E+03  0.19346098513E+03  0.10100000352E+00 0. -1.
    10030    2    1    2    0    0  0.00000000000E+00  0.00000000000E+00  0.64293489584E+03  0.10298568458E+04  0.80451217679E+03 0.  0.
        2    1    3    3  502    0 -0.24663608606E+03 -0.14972137565E+03 -0.37335778604E+02  0.29092921758E+03  0.25500000920E-02 0. -1.
       -2    1    3    3    0  502  0.24663608606E+03  0.14972137565E+03  0.68027067444E+03  0.73892762824E+03  0.25500000920E-02 0.  1.
</event>
<event>
 5   0  0.1106332E-02  0.7914827E+03  0.7818609E-02  0.9572428E-01
        2   -1    0    0  501    0  0.00000000000E+00  0.00000000000E+00  0.16558544660E+04  0.16558544660E+04  0.25500000920E-02 0.  1.
       -2   -1    0    0    0  501  0.00000000000E+00  0.00000000000E+00 -0.94580311471E+02  0.94580311506E+02  0.25500000920E-02 0. -1.
    10030    2    1    2    0    0  0.00000000000E+00  0.00000000000E+00  0.15612741545E+04  0.17504347775E+04  0.79148273810E+03 0.  0.
        1    1    3    3  502    0 -0.18360581320E+03  0.33987405366E+03  0.97070210078E+03  0.10447430476E+04  0.50400001928E-02 0.  1.
       -1    1    3    3    0  502  0.18360581320E+03 -0.33987405366E+03  0.59057205374E+03  0.70569172991E+03  0.50400001928E-02 0. -1.
</event>
<event>
 5   0  0.1092868E-02  0.8019995E+03  0.7818609E-02  0.9557127E-01
        2   -1    0    0  501    0  0.00000000000E+00  0.00000000000E+00  0.33493388825E+03  0.33493388826E+03  0.25500000920E-02 0.  1.
       -2   -1    0    0    0  501  0.00000000000E+00  0.00000000000E+00 -0.48009710780E+03  0.48009710780E+03  0.25500000920E-02 0. -1.
    10030    2    1    2    0    0  0.00000000000E+00  0.00000000000E+00 -0.14516321955E+03  0.81503099607E+03  0.80199947895E+03 0.  0.
        3    1    3    3  502    0 -0.28786914872E+03 -0.71261238451E+02  0.20171892264E+03  0.35866048687E+03  0.10100000352E+00 0. -1.
       -3    1    3    3    0  502  0.28786914872E+03  0.71261238451E+02 -0.34688214219E+03  0.45637050919E+03  0.10100000352E+00 0.  1.
</event>
<event>
 5   0  0.6551489E-03  0.7885606E+03  0.7818609E-02  0.9576724E-01
       -1   -1    0    0    0  501  0.00000000000E+00  0.00000000000E+00  0.20196373929E+03  0.20196373936E+03  0.50400001928E-02 0. -1.
        1   -1    0    0  501    0  0.00000000000E+00  0.00000000000E+00 -0.76972707034E+03  0.76972707036E+03  0.50400001928E-02 0.  1.
    10030    2    1    2    0    0  0.00000000000E+00  0.00000000000E+00 -0.56776333105E+03  0.97169080971E+03  0.78856060617E+03 0.  0.
        4    1    3    3  502    0  0.30278522834E+03 -0.19730982421E+03 -0.89652254109E+02  0.37235628207E+03  0.12699999809E+01 0. -1.
       -4    1    3    3    0  502 -0.30278522834E+03  0.19730982421E+03 -0.47811107694E+03  0.59933452764E+03  0.12699999809E+01 0.  1.
</event>
<event>
 5   0  0.6551489E-03  0.8010613E+03  0.7818609E-02  0.9558482E-01
       -1   -1    0    0    0  501  0.00000000000E+00  0.00000000000E+00  0.13153580154E+03  0.13153580164E+03  0.50400001928E-02 0.  1.
        1   -1    0    0  501    0  0.00000000000E+00  0.00000000000E+00 -0.12196283715E+04  0.12196283716E+04  0.50400001928E-02 0. -1.
    10030    2    1    2    0    0  0.00000000000E+00  0.00000000000E+00 -0.10880925700E+04  0.13511641732E+04  0.80106128482E+03 0.  0.
        4    1    3    3  502    0 -0.57354812595E+02  0.36310309838E+03 -0.27581178874E+03  0.45957283458E+03  0.12699999809E+01 0.  1.
       -4    1    3    3    0  502  0.57354812595E+02 -0.36310309838E+03 -0.81228078126E+03  0.89159133861E+03  0.12699999809E+01 0. -1.
</event>
<event>
 5   0  0.6557679E-03  0.7275793E+03  0.7818609E-02  0.9671197E-01
        1   -1    0    0  501    0  0.00000000000E+00  0.00000000000E+00  0.92681479378E+03  0.92681479380E+03  0.50400001928E-02 0.  1.
       -1   -1    0    0    0  501  0.00000000000E+00  0.00000000000E+00 -0.14279325689E+03  0.14279325698E+03  0.50400001928E-02 0. -1.
    10030    2    1    2    0    0  0.00000000000E+00  0.00000000000E+00  0.78402153689E+03  0.10696080508E+04  0.72757928227E+03 0.  0.
        1    1    3    3  502    0 -0.10054360757E+02  0.34337892934E+03  0.21601237512E+03  0.40579739466E+03  0.50400001928E-02 0. -1.
       -1    1    3    3    0  502  0.10054360757E+02 -0.34337892934E+03  0.56800916177E+03  0.66381065611E+03  0.50400001928E-02 0.  1.
</event>
<event>
 5   0  0.1154714E-02  0.7985037E+03  0.7818609E-02  0.9562185E-01
        2   -1    0    0  501    0  0.00000000000E+00  0.00000000000E+00  0.11421133948E+04  0.11421133948E+04  0.25500000920E-02 0. -1.
       -2   -1    0    0    0  501  0.00000000000E+00  0.00000000000E+00 -0.13956760472E+03  0.13956760474E+03  0.25500000920E-02 0.  1.
    10030    2    1    2    0    0  0.00000000000E+00  0.00000000000E+00  0.10025457901E+04  0.12816809996E+04  0.79850367776E+03 0.  0.
        5    1    3    3  502    0 -0.12829185273E+03 -0.20479822673E+03 -0.87834888710E+01  0.24186846182E+03  0.46999998093E+01 0.  1.
       -5    1    3    3    0  502  0.12829185273E+03  0.20479822673E+03  0.10113292790E+04  0.10398125377E+04  0.46999998093E+01 0. -1.
</event>
<event>
 5   0  0.6557679E-03  0.8063716E+03  0.7818609E-02  0.9550840E-01
        1   -1    0    0  501    0  0.00000000000E+00  0.00000000000E+00  0.24807203479E+03  0.24807203484E+03  0.50400001928E-02 0. -1.
       -1   -1    0    0    0  501  0.00000000000E+00  0.00000000000E+00 -0.65528867525E+03  0.65528867527E+03  0.50400001928E-02 0.  1.
    10030    2    1    2    0    0  0.00000000000E+00  0.00000000000E+00 -0.40721664046E+03  0.90336071010E+03  0.80637161426E+03 0.  0.
        1    1    3    3  502    0  0.98513391822E+02 -0.75725153525E+02 -0.63330425569E+03  0.64537854593E+03  0.50400001928E-02 0.  1.
       -1    1    3    3    0  502 -0.98513391822E+02  0.75725153525E+02  0.22608761523E+03  0.25798216417E+03  0.50400001928E-02 0. -1.
</event>
<event>
 5   0  0.4385875E-03  0.8893299E+03  0.7818609E-02  0.9439019E-01
        3   -1    0    0  501    0  0.00000000000E+00  0.00000000000E+00  0.36039599882E+03  0.36039601297E+03  0.10100000352E+00 0. -1.
       -3   -1    0    0    0  501  0.00000000000E+00  0.00000000000E+00 -0.54863793340E+03  0.54863794269E+03  0.10100000352E+00 0.  1.
    10030    2    1    2    0    0  0.00000000000E+00  0.00000000000E+00 -0.18824193458E+03  0.90903395567E+03  0.88932992001E+03 0.  0.
        4    1    3    3  502    0  0.36021554932E+03 -0.45700080947E+02  0.16823997790E+03  0.40018750909E+03  0.12699999809E+01 0. -1.
       -4    1    3    3    0  502 -0.36021554932E+03  0.45700080947E+02 -0.35648191248E+03  0.50884644658E+03  0.12699999809E+01 0.  1.
</event>
<event>
 5   0  0.1154714E-02  0.7746229E+03  0.7818609E-02  0.9597494E-01
       -2   -1    0    0    0  501  0.00000000000E+00  0.00000000000E+00  0.39971896802E+03  0.39971896803E+03  0.25500000920E-02 0. -1.
        2   -1    0    0  501    0  0.00000000000E+00  0.00000000000E+00 -0.37528904109E+03  0.37528904110E+03  0.25500000920E-02 0.  1.
    10030    2    1    2    0    0  0.00000000000E+00  0.00000000000E+00  0.24429926931E+02  0.77500800914E+03  0.77462287140E+03 0.  0.
        5    1    3    3  502    0 -0.12746583631E+03 -0.28102092804E+03 -0.22192651242E+03  0.38012335936E+03  0.46999998093E+01 0.  1.
       -5    1    3    3    0  502  0.12746583631E+03  0.28102092804E+03  0.24635643935E+03  0.39488464977E+03  0.46999998093E+01 0. -1.
</event>
<event>
 5   0  0.1106332E-02  0.7985579E+03  0.7818609E-02  0.9562107E-01
        2   -1    0    0  501    0  0.00000000000E+00  0.00000000000E+00  0.16136525487E+04  0.16136525487E+04  0.25500000920E-02 0.  1.
       -2   -1    0    0    0  501  0.00000000000E+00  0.00000000000E+00 -0.98796779217E+02  0.98796779250E+02  0.25500000920E-02 0. -1.
    10030    2    1    2    0    0  0.00000000000E+00  0.00000000000E+00  0.15148557694E+04  0.17124493279E+04  0.79855788673E+03 0.  0.
        1    1    3    3  502    0  0.13362200850E+03  0.16500665122E+03  0.32301793885E+02  0.21476834500E+03  0.50400001928E-02 0. -1.
       -1    1    3    3    0  502 -0.13362200850E+03 -0.16500665122E+03  0.14825539756E+04  0.14976809829E+04  0.50400001928E-02 0.  1.
</event>
<event>
 5   0  0.1119792E-02  0.7982882E+03  0.7818609E-02  0.9562498E-01
        2   -1    0    0  501    0  0.00000000000E+00  0.00000000000E+00  0.58506741434E+03  0.58506741435E+03  0.25500000920E-02 0.  1.
       -2   -1    0    0    0  501  0.00000000000E+00  0.00000000000E+00 -0.27230367799E+03  0.27230367800E+03  0.25500000920E-02 0. -1.
    10030    2    1    2    0    0  0.00000000000E+00  0.00000000000E+00  0.31276373635E+03  0.85737109235E+03  0.79828819058E+03 0.  0.
        4    1    3    3  502    0  0.26899336733E+03  0.29434856566E+03  0.17547048282E+03  0.43564895618E+03  0.12699999809E+01 0.  1.
       -4    1    3    3    0  502 -0.26899336733E+03 -0.29434856566E+03  0.13729325353E+03  0.42172213617E+03  0.12699999809E+01 0. -1.
</event>
<event>
 5   0  0.1154714E-02  0.7961328E+03  0.7818609E-02  0.9565632E-01
       -2   -1    0    0    0  501  0.00000000000E+00  0.00000000000E+00  0.36216481358E+03  0.36216481359E+03  0.25500000920E-02 0. -1.
        2   -1    0    0  501    0  0.00000000000E+00  0.00000000000E+00 -0.43752696071E+03  0.43752696072E+03  0.25500000920E-02 0.  1.
    10030    2    1    2    0    0  0.00000000000E+00  0.00000000000E+00 -0.75362147130E+02  0.79969177432E+03  0.79613282855E+03 0.  0.
        5    1    3    3  502    0  0.21516995777E+03 -0.29927371146E+03  0.11323006658E+03  0.38562417335E+03  0.46999998093E+01 0.  1.
       -5    1    3    3    0  502 -0.21516995777E+03  0.29927371146E+03 -0.18859221371E+03  0.41406760096E+03  0.46999998093E+01 0. -1.
</event>
<event>
 5   0  0.6551489E-03  0.7999484E+03  0.7818609E-02  0.9560092E-01
       -1   -1    0    0    0  501  0.00000000000E+00  0.00000000000E+00  0.13260206237E+03  0.13260206246E+03  0.50400001928E-02 0. -1.
        1   -1    0    0  501    0  0.00000000000E+00  0.00000000000E+00 -0.12064621033E+04  0.12064621033E+04  0.50400001928E-02 0.  1.
    10030    2    1    2    0    0  0.00000000000E+00  0.00000000000E+00 -0.10738600409E+04  0.13390641658E+04  0.79994840617E+03 0.  0.
        4    1    3    3  502    0 -0.28170344235E+03 -0.26806204385E+03 -0.69363478703E+03  0.79520118175E+03  0.12699999809E+01 0.  1.
       -4    1    3    3    0  502  0.28170344235E+03  0.26806204385E+03 -0.38022525391E+03  0.54386298402E+03  0.12699999809E+01 0. -1.
</event>
<event>
 5   0  0.1106332E-02  0.7926691E+03  0.7818609E-02  0.9570689E-01
       -2   -1    0    0    0  501  0.00000000000E+00  0.00000000000E+00  0.12880891781E+03  0.12880891784E+03  0.25500000920E-02 0. -1.
        2   -1    0    0  501    0  0.00000000000E+00  0.00000000000E+00 -0.12194891031E+04  0.12194891031E+04  0.25500000920E-02 0.  1.
    10030    2    1    2    0    0  0.00000000000E+00  0.00000000000E+00 -0.10906801853E+04  0.13482980210E+04  0.79266909029E+03 0.  0.
        1    1    3    3  502    0 -0.32323396337E+03 -0.22796291954E+03 -0.58816185842E+03  0.70878886806E+03  0.50400001928E-02 0. -1.
       -1    1    3    3    0  502  0.32323396337E+03  0.22796291954E+03 -0.50251832689E+03  0.63950915290E+03  0.50400001928E-02 0.  1.
</event>
<event>
 5   0  0.6551489E-03  0.7997541E+03  0.7818609E-02  0.9560373E-01
        1   -1    0    0  501    0  0.00000000000E+00  0.00000000000E+00  0.71071178628E+03  0.71071178630E+03  0.50400001928E-02 0.  1.
       -1   -1    0    0    0  501  0.00000000000E+00  0.00000000000E+00 -0.22498804595E+03  0.22498804601E+03  0.50400001928E-02 0. -1.
    10030    2    1    2    0    0  0.00000000000E+00  0.00000000000E+00  0.48572374033E+03  0.93569983231E+03  0.79975410237E+03 0.  0.
        4    1    3    3  502    0  0.16412392589E+03  0.28708974160E+03  0.50589471576E+03  0.60439081654E+03  0.12699999809E+01 0.  1.
       -4    1    3    3    0  502 -0.16412392589E+03 -0.28708974160E+03 -0.20170975430E+02  0.33130901577E+03  0.12699999809E+01 0. -1.
</event>
<event>
 5   0  0.6600401E-03  0.7831337E+03  0.7818609E-02  0.9584756E-01
       -1   -1    0    0    0  501  0.00000000000E+00  0.00000000000E+00  0.41494684299E+03  0.41494684302E+03  0.50400001928E-02 0. -1.
        1   -1    0    0  501    0  0.00000000000E+00  0.00000000000E+00 -0.36950419480E+03  0.36950419484E+03  0.50400001928E-02 0.  1.
    10030    2    1    2    0    0  0.00000000000E+00  0.00000000000E+00  0.45442648183E+02  0.78445103786E+03  0.78313370284E+03 0.  0.
        2    1    3    3  502    0 -0.35462559510E+03  0.95810967844E+01  0.18875142640E+03  0.40184351567E+03  0.25500000920E-02 0. -1.
       -2    1    3    3    0  502  0.35462559510E+03 -0.95810967844E+01 -0.14330877822E+03  0.38260752219E+03  0.25500000920E-02 0.  1.
</event>
<event>
 5   0  0.4385875E-03  0.7941186E+03  0.7818609E-02  0.9568569E-01
        4   -1    0    0  501    0  0.00000000000E+00  0.00000000000E+00  0.14987523930E+03  0.14988062001E+03  0.12699999809E+01 0. -1.
       -4   -1    0    0    0  501  0.00000000000E+00  0.00000000000E+00 -0.10518908986E+04  0.10518916653E+04  0.12699999809E+01 0.  1.
    10030    2    1    2    0    0  0.00000000000E+00  0.00000000000E+00 -0.90201565929E+03  0.12017722853E+04  0.79411861585E+03 0.  0.
        3    1    3    3  502    0  0.12477971011E+02 -0.24299458846E+03 -0.92585463551E+03  0.95729247677E+03  0.10100000352E+00 0.  1.
       -3    1    3    3    0  502 -0.12477971011E+02  0.24299458846E+03  0.23838976217E+02  0.24447980851E+03  0.10100000352E+00 0. -1.
</event>
<event>
 5   0  0.6557679E-03  0.7915626E+03  0.7818609E-02  0.9572311E-01
        1   -1    0    0  501    0  0.00000000000E+00  0.00000000000E+00  0.68755827063E+03  0.68755827064E+03  0.50400001928E-02 0.  1.
       -1   -1    0    0    0  501  0.00000000000E+00  0.00000000000E+00 -0.22782479064E+03  0.22782479070E+03  0.50400001928E-02 0. -1.
    10030    2    1    2    0    0  0.00000000000E+00  0.00000000000E+00  0.45973347998E+03  0.91538306134E+03  0.79156255367E+03 0.  0.
        1    1    3    3  502    0 -0.21719764643E+03 -0.24249794868E+03 -0.30425964051E+02  0.32696454249E+03  0.50400001928E-02 0. -1.
       -1    1    3    3    0  502  0.21719764643E+03  0.24249794868E+03  0.49015944404E+03  0.58841851886E+03  0.50400001928E-02 0.  1.
</event>
<event>
 5   0  0.6551489E-03  0.8032202E+03  0.7818609E-02  0.9555368E-01
       -1   -1    0    0    0  501  0.00000000000E+00  0.00000000000E+00  0.18482297265E+03  0.18482297272E+03  0.50400001928E-02 0.  1.
        1   -1    0    0  501    0  0.00000000000E+00  0.00000000000E+00 -0.87267648790E+03  0.87267648791E+03  0.50400001928E-02 0. -1.
    10030    2    1    2    0    0  0.00000000000E+00  0.00000000000E+00 -0.68785351525E+03  0.10574994606E+04  0.80322017579E+03 0.  0.
        4    1    3    3  502    0 -0.37425527648E+03 -0.14456733750E+03 -0.36756368541E+03  0.54412443685E+03  0.12699999809E+01 0.  1.
       -4    1    3    3    0  502  0.37425527648E+03  0.14456733750E+03 -0.32028982984E+03  0.51337502378E+03  0.12699999809E+01 0. -1.
</event>
<event>
 5   0  0.1119792E-02  0.8009631E+03  0.7818609E-02  0.9558624E-01
       -2   -1    0    0    0  501  0.00000000000E+00  0.00000000000E+00  0.25232357333E+03  0.25232357335E+03  0.25500000920E-02 0.  1.
        2   -1    0    0  501    0  0.00000000000E+00  0.00000000000E+00 -0.63563405763E+03  0.63563405763E+03  0.25500000920E-02 0. -1.
    10030    2    1    2    0    0  0.00000000000E+00  0.00000000000E+00 -0.38331048429E+03  0.88795763098E+03  0.80096306222E+03 0.  0.
        4    1    3    3  502    0 -0.55258208748E+02 -0.18045476353E+03 -0.58324260598E+03  0.61301789668E+03  0.12699999809E+01 0. -1.
       -4    1    3    3    0  502  0.55258208748E+02  0.18045476353E+03  0.19993212169E+03  0.27493973430E+03  0.12699999809E+01 0.  1.
</event>
<event>
 5   0  0.1119792E-02  0.8001665E+03  0.7818609E-02  0.9559776E-01
       -2   -1    0    0    0  501  0.00000000000E+00  0.00000000000E+00  0.32523996241E+03  0.32523996242E+03  0.25500000920E-02 0. -1.
        2   -1    0    0  501    0  0.00000000000E+00  0.00000000000E+00 -0.49214921406E+03  0.49214921407E+03  0.25500000920E-02 0.  1.
    10030    2    1    2    0    0  0.00000000000E+00  0.00000000000E+00 -0.16690925165E+03  0.81738917649E+03  0.80016646241E+03 0.  0.
        4    1    3    3  502    0 -0.25316250073E+03  0.21763073569E+03  0.14176902007E+03  0.36270436563E+03  0.12699999809E+01 0.  1.
       -4    1    3    3    0  502  0.25316250073E+03 -0.21763073569E+03 -0.30867827172E+03  0.45468481086E+03  0.12699999809E+01 0. -1.
</event>
<event>
 5   0  0.6517392E-03  0.7988584E+03  0.7818609E-02  0.9561671E-01
        1   -1    0    0  501    0  0.00000000000E+00  0.00000000000E+00  0.37465493422E+03  0.37465493425E+03  0.50400001928E-02 0. -1.
       -1   -1    0    0    0  501  0.00000000000E+00  0.00000000000E+00 -0.42584168927E+03  0.42584168930E+03  0.50400001928E-02 0.  1.
    10030    2    1    2    0    0  0.00000000000E+00  0.00000000000E+00 -0.51186755046E+02  0.80049662355E+03  0.79885841075E+03 0.  0.
        3    1    3    3  502    0  0.10567699807E+03 -0.38410529363E+03 -0.54621307110E+02  0.40210446641E+03  0.10100000352E+00 0. -1.
       -3    1    3    3    0  502 -0.10567699807E+03  0.38410529363E+03  0.34345520637E+01  0.39839215714E+03  0.10100000352E+00 0.  1.
</event>
<event>
 5   0  0.1121480E-02  0.7987758E+03  0.7818609E-02  0.9561791E-01
       -2   -1    0    0    0  501  0.00000000000E+00  0.00000000000E+00  0.25683905144E+03  0.25683905145E+03  0.25500000920E-02 0. -1.
        2   -1    0    0  501    0  0.00000000000E+00  0.00000000000E+00 -0.62105310769E+03  0.62105310770E+03  0.25500000920E-02 0.  1.
    10030    2    1    2    0    0  0.00000000000E+00  0.00000000000E+00 -0.36421405625E+03  0.87789215915E+03  0.79877579102E+03 0.  0.
        2    1    3    3  502    0  0.15312717997E+03  0.35255141633E+03 -0.62870521680E+02  0.38947803135E+03  0.25500000920E-02 0. -1.
       -2    1    3    3    0  502 -0.15312717997E+03 -0.35255141633E+03 -0.30134353457E+03  0.48841412780E+03  0.25500000920E-02 0.  1.
</event>
<event>
 5   0  0.6596225E-03  0.7990297E+03  0.7818609E-02  0.9561423E-01
       -1   -1    0    0    0  501  0.00000000000E+00  0.00000000000E+00  0.13770089968E+03  0.13770089977E+03  0.50400001928E-02 0. -1.
        1   -1    0    0  501    0  0.00000000000E+00  0.00000000000E+00 -0.11591217567E+04  0.11591217567E+04  0.50400001928E-02 0.  1.
    10030    2    1    2    0    0  0.00000000000E+00  0.00000000000E+00 -0.10214208570E+04  0.12968226565E+04  0.79902968355E+03 0.  0.
        5    1    3    3  502    0 -0.11962205515E+03  0.14314912355E+03 -0.10840417571E+04  0.10999862402E+04  0.46999998093E+01 0.  1.
       -5    1    3    3    0  502  0.11962205515E+03 -0.14314912355E+03  0.62620900018E+02  0.19683641626E+03  0.46999998093E+01 0. -1.
</event>
<event>
 5   0  0.1106332E-02  0.8022558E+03  0.7818609E-02  0.9556758E-01
       -2   -1    0    0    0  501  0.00000000000E+00  0.00000000000E+00  0.13364839522E+03  0.13364839524E+03  0.25500000920E-02 0.  1.
        2   -1    0    0  501    0  0.00000000000E+00  0.00000000000E+00 -0.12039322109E+04  0.12039322109E+04  0.25500000920E-02 0. -1.
    10030    2    1    2    0    0  0.00000000000E+00  0.00000000000E+00 -0.10702838156E+04  0.13375806061E+04  0.80225583937E+03 0.  0.
        1    1    3    3  502    0 -0.59847187751E+02  0.44237376761E+02  0.12203703320E+03  0.14293938884E+03  0.50400001928E-02 0.  1.
       -1    1    3    3    0  502  0.59847187751E+02 -0.44237376761E+02 -0.11923208488E+04  0.11946412173E+04  0.50400001928E-02 0. -1.
</event>
<event>
 5   0  0.1119792E-02  0.7723809E+03  0.7818609E-02  0.9600878E-01
       -2   -1    0    0    0  501  0.00000000000E+00  0.00000000000E+00  0.77972430581E+02  0.77972430623E+02  0.25500000920E-02 0. -1.
        2   -1    0    0  501    0  0.00000000000E+00  0.00000000000E+00 -0.19127666847E+04  0.19127666847E+04  0.25500000920E-02 0.  1.
    10030    2    1    2    0    0  0.00000000000E+00  0.00000000000E+00 -0.18347942541E+04  0.19907391153E+04  0.77238091012E+03 0.  0.
        4    1    3    3  502    0 -0.29597971087E+03  0.13605467847E+03 -0.14520246122E+04  0.14881169148E+04  0.12699999809E+01 0.  1.
       -4    1    3    3    0  502  0.29597971087E+03 -0.13605467847E+03 -0.38276964191E+03  0.50262220051E+03  0.12699999809E+01 0. -1.
</event>
<event>
 5   0  0.6517392E-03  0.8027349E+03  0.7818609E-02  0.9556067E-01
        1   -1    0    0  501    0  0.00000000000E+00  0.00000000000E+00  0.11880285361E+04  0.11880285361E+04  0.50400001928E-02 0. -1.
       -1   -1    0    0    0  501  0.00000000000E+00  0.00000000000E+00 -0.13559929312E+03  0.13559929321E+03  0.50400001928E-02 0.  1.
    10030    2    1    2    0    0  0.00000000000E+00  0.00000000000E+00  0.10524292430E+04  0.13236278293E+04  0.80273489962E+03 0.  0.
        3    1    3    3  502    0  0.22536526072E+02 -0.29163226022E+03  0.97940227031E+03  0.10221477816E+04  0.10100000352E+00 0. -1.
       -3    1    3    3    0  502 -0.22536526072E+02  0.29163226022E+03  0.73026972651E+02  0.30148004767E+03  0.10100000352E+00 0.  1.
</event>
<event>
 5   0  0.1119792E-02  0.8055414E+03  0.7818609E-02  0.9552031E-01
       -2   -1    0    0    0  501  0.00000000000E+00  0.00000000000E+00  0.21079434597E+03  0.21079434598E+03  0.25500000920E-02 0.  1.
        2   -1    0    0  501    0  0.00000000000E+00  0.00000000000E+00 -0.76958542043E+03  0.76958542044E+03  0.25500000920E-02 0. -1.
    10030    2    1    2    0    0  0.00000000000E+00  0.00000000000E+00 -0.55879107447E+03  0.98037976642E+03  0.80554144617E+03 0.  0.
        4    1    3    3  502    0 -0.28649128481E+03  0.16409066847E+03  0.13691021762E+01  0.33016131071E+03  0.12699999809E+01 0.  1.
       -4    1    3    3    0  502  0.28649128481E+03 -0.16409066847E+03 -0.56016017664E+03  0.65021845571E+03  0.12699999809E+01 0. -1.
</event>
<event>
 5   0  0.1154714E-02  0.7995610E+03  0.7818609E-02  0.9560653E-01
       -2   -1    0    0    0  501  0.00000000000E+00  0.00000000000E+00  0.17504513231E+04  0.17504513231E+04  0.25500000920E-02 0.  1.
        2   -1    0    0  501    0  0.00000000000E+00  0.00000000000E+00 -0.91304709448E+02  0.91304709484E+02  0.25500000920E-02 0. -1.
    10030    2    1    2    0    0  0.00000000000E+00  0.00000000000E+00  0.16591466136E+04  0.18417560326E+04  0.79956100328E+03 0.  0.
        5    1    3    3  502    0  0.20094421974E+03  0.27346090516E+03  0.13162681686E+04  0.13593172653E+04  0.46999998093E+01 0.  1.
       -5    1    3    3    0  502 -0.20094421974E+03 -0.27346090516E+03  0.34287844508E+03  0.48243876730E+03  0.46999998093E+01 0. -1.
</event>
<event>
 5   0  0.1106332E-02  0.7971638E+03  0.7818609E-02  0.9564132E-01
        2   -1    0    0  501    0  0.00000000000E+00  0.00000000000E+00  0.43021012862E+03  0.43021012863E+03  0.25500000920E-02 0.  1.
       -2   -1    0    0    0  501  0.00000000000E+00  0.00000000000E+00 -0.36927890176E+03  0.36927890177E+03  0.25500000920E-02 0. -1.
    10030    2    1    2    0    0  0.00000000000E+00  0.00000000000E+00  0.60931226857E+02  0.79948903040E+03  0.79716378199E+03 0.  0.
        1    1    3    3  502    0  0.14592254690E+03 -0.36584062066E+03 -0.30825447099E+02  0.39507335728E+03  0.50400001928E-02 0. -1.
       -1    1    3    3    0  502 -0.14592254690E+03  0.36584062066E+03  0.91756673955E+02  0.40441567311E+03  0.50400001928E-02 0.  1.
</event>
<event>
 5   0  0.6551489E-03  0.8006407E+03  0.7818609E-02  0.9559090E-01
       -1   -1    0    0    0  501  0.00000000000E+00  0.00000000000E+00  0.22974542884E+03  0.22974542889E+03  0.50400001928E-02 0.  1.
        1   -1    0    0  501    0  0.00000000000E+00  0.00000000000E+00 -0.69753900009E+03  0.69753900011E+03  0.50400001928E-02 0. -1.
    10030    2    1    2    0    0  0.00000000000E+00  0.00000000000E+00 -0.46779357126E+03  0.92728442900E+03  0.80064073526E+03 0.  0.
        4    1    3    3  502    0 -0.58317746849E+02  0.38940174062E+03 -0.31757551088E+03  0.50585619815E+03  0.12699999809E+01 0. -1.
       -4    1    3    3    0  502  0.58317746849E+02 -0.38940174062E+03 -0.15021806038E+03  0.42142823085E+03  0.12699999809E+01 0.  1.
</event>
<event>
 5   0  0.1106332E-02  0.7988214E+03  0.7818609E-02  0.9561725E-01
       -2   -1    0    0    0  501  0.00000000000E+00  0.00000000000E+00  0.15375769701E+03  0.15375769703E+03  0.25500000920E-02 0.  1.
        2   -1    0    0  501    0  0.00000000000E+00  0.00000000000E+00 -0.10375345502E+04  0.10375345502E+04  0.25500000920E-02 0. -1.
    10030    2    1    2    0    0  0.00000000000E+00  0.00000000000E+00 -0.88377685315E+03  0.11912922472E+04  0.79882143940E+03 0.  0.
        1    1    3    3  502    0  0.99267640842E+02  0.77040358364E+02 -0.10072898299E+04  0.10150970805E+04  0.50400001928E-02 0. -1.
       -1    1    3    3    0  502 -0.99267640842E+02 -0.77040358364E+02  0.12351297673E+03  0.17619516674E+03  0.50400001928E-02 0.  1.
</event>
<event>
 5   0  0.6600401E-03  0.8011641E+03  0.7818609E-02  0.9558334E-01
        1   -1    0    0  501    0  0.00000000000E+00  0.00000000000E+00  0.36968706484E+03  0.36968706488E+03  0.50400001928E-02 0.  1.
       -1   -1    0    0    0  501  0.00000000000E+00  0.00000000000E+00 -0.43405892090E+03  0.43405892092E+03  0.50400001928E-02 0. -1.
    10030    2    1    2    0    0  0.00000000000E+00  0.00000000000E+00 -0.64371856051E+02  0.80374598580E+03  0.80116407424E+03 0.  0.
        2    1    3    3  502    0 -0.81733989807E+00 -0.38571663200E+03 -0.14064529974E+03  0.41055948240E+03  0.25500000920E-02 0. -1.
       -2    1    3    3    0  502  0.81733989807E+00  0.38571663200E+03  0.76273443685E+02  0.39318650341E+03  0.25500000920E-02 0.  1.
</event>
<event>
 5   0  0.1092868E-02  0.8003031E+03  0.7818609E-02  0.9559579E-01
       -2   -1    0    0    0  501  0.00000000000E+00  0.00000000000E+00  0.27554351530E+03  0.27554351531E+03  0.25500000920E-02 0. -1.
        2   -1    0    0  501    0  0.00000000000E+00  0.00000000000E+00 -0.58111056083E+03  0.58111056083E+03  0.25500000920E-02 0.  1.
    10030    2    1    2    0    0  0.00000000000E+00  0.00000000000E+00 -0.30556704553E+03  0.85665407614E+03  0.80030305938E+03 0.  0.
        3    1    3    3  502    0  0.22550047318E+02  0.68736904276E+02  0.26848581724E+03  0.27806098415E+03  0.10100000352E+00 0. -1.
       -3    1    3    3    0  502 -0.22550047318E+02 -0.68736904276E+02 -0.57405286277E+03  0.57859309199E+03  0.10100000352E+00 0.  1.
</event>
<event>
 5   0  0.6551489E-03  0.7991765E+03  0.7818609E-02  0.9561210E-01
       -1   -1    0    0    0  501  0.00000000000E+00  0.00000000000E+00  0.45484028711E+03  0.45484028714E+03  0.50400001928E-02 0.  1.
        1   -1    0    0  501    0  0.00000000000E+00  0.00000000000E+00 -0.35104802101E+03  0.35104802105E+03  0.50400001928E-02 0. -1.
    10030    2    1    2    0    0  0.00000000000E+00  0.00000000000E+00  0.10379226610E+03  0.80588830819E+03  0.79917653292E+03 0.  0.
        4    1    3    3  502    0 -0.17015945224E+03 -0.28974783386E+03 -0.16616316029E+03  0.37485978065E+03  0.12699999809E+01 0. -1.
       -4    1    3    3    0  502  0.17015945224E+03  0.28974783386E+03  0.26995542639E+03  0.43102852754E+03  0.12699999809E+01 0.  1.
</event>
<event>
 5   0  0.6551489E-03  0.7797266E+03  0.7818609E-02  0.9589835E-01
       -1   -1    0    0    0  501  0.00000000000E+00  0.00000000000E+00  0.13010449809E+03  0.13010449819E+03  0.50400001928E-02 0. -1.
        1   -1    0    0  501    0  0.00000000000E+00  0.00000000000E+00 -0.11682409604E+04  0.11682409604E+04  0.50400001928E-02 0.  1.
    10030    2    1    2    0    0  0.00000000000E+00  0.00000000000E+00 -0.10381364623E+04  0.12983454586E+04  0.77972662870E+03 0.  0.
        4    1    3    3  502    0 -0.29410173889E+03 -0.14566979807E+03 -0.86944346546E+03  0.92932721654E+03  0.12699999809E+01 0.  1.
       -4    1    3    3    0  502  0.29410173889E+03  0.14566979807E+03 -0.16869299686E+03  0.36901824206E+03  0.12699999809E+01 0. -1.
</event>
<event>
 5   0  0.1106332E-02  0.8052653E+03  0.7818609E-02  0.9552427E-01
        2   -1    0    0  501    0  0.00000000000E+00  0.00000000000E+00  0.10191407431E+04  0.10191407431E+04  0.25500000920E-02 0.  1.
       -2   -1    0    0    0  501  0.00000000000E+00  0.00000000000E+00 -0.15906834839E+03  0.15906834841E+03  0.25500000920E-02 0. -1.
    10030    2    1    2    0    0  0.00000000000E+00  0.00000000000E+00  0.86007239471E+03  0.11782090915E+04  0.80526526013E+03 0.  0.
        1    1    3    3  502    0 -0.56036379477E+02 -0.10139987538E+03 -0.13415431997E+03  0.17725516112E+03  0.50400001928E-02 0. -1.
       -1    1    3    3    0  502  0.56036379477E+02  0.10139987538E+03  0.99422671468E+03  0.10009539304E+04  0.50400001928E-02 0.  1.
</event>
<event>
 5   0  0.1119792E-02  0.8009161E+03  0.7818609E-02  0.9558692E-01
       -2   -1    0    0    0  501  0.00000000000E+00  0.00000000000E+00  0.15220664188E+03  0.15220664190E+03  0.25500000920E-02 0.  1.
        2   -1    0    0  501    0  0.00000000000E+00  0.00000000000E+00 -0.10536112797E+04  0.10536112797E+04  0.25500000920E-02 0. -1.
    10030    2    1    2    0    0  0.00000000000E+00  0.00000000000E+00 -0.90140463778E+03  0.12058179216E+04  0.80091606235E+03 0.  0.
        4    1    3    3  502    0 -0.21424704993E+03  0.20714356383E+03 -0.47972285657E+02  0.30184964391E+03  0.12699999809E+01 0.  1.
       -4    1    3    3    0  502  0.21424704993E+03 -0.20714356383E+03 -0.85343235212E+03  0.90396827764E+03  0.12699999809E+01 0. -1.
</event>
<event>
 5   0  0.6596225E-03  0.7965315E+03  0.7818609E-02  0.9565051E-01
       -1   -1    0    0    0  501  0.00000000000E+00  0.00000000000E+00  0.19762010853E+03  0.19762010860E+03  0.50400001928E-02 0. -1.
        1   -1    0    0  501    0  0.00000000000E+00  0.00000000000E+00 -0.80262893469E+03  0.80262893470E+03  0.50400001928E-02 0.  1.
    10030    2    1    2    0    0  0.00000000000E+00  0.00000000000E+00 -0.60500882615E+03  0.10002490433E+04  0.79653152411E+03 0.  0.
        5    1    3    3  502    0  0.25048319921E+01 -0.33021344743E+03 -0.58202315392E+03  0.66919372138E+03  0.46999998093E+01 0. -1.
       -5    1    3    3    0  502 -0.25048319921E+01  0.33021344743E+03 -0.22985672238E+02  0.33105532192E+03  0.46999998093E+01 0.  1.
</event>
<event>
 5   0  0.1106332E-02  0.7982766E+03  0.7818609E-02  0.9562515E-01
        2   -1    0    0  501    0  0.00000000000E+00  0.00000000000E+00  0.20290330604E+03  0.20290330606E+03  0.25500000920E-02 0. -1.
       -2   -1    0    0    0  501  0.00000000000E+00  0.00000000000E+00 -0.78515920484E+03  0.78515920484E+03  0.25500000920E-02 0.  1.
    10030    2    1    2    0    0  0.00000000000E+00  0.00000000000E+00 -0.58225589880E+03  0.98806251090E+03  0.79827663987E+03 0.  0.
        1    1    3    3  502    0 -0.32329387241E+03  0.17790211895E+03 -0.10283081751E+03  0.38306953535E+03  0.50400001928E-02 0. -1.
       -1    1    3    3    0  502  0.32329387241E+03 -0.17790211895E+03 -0.47942508129E+03  0.60499297555E+03  0.50400001928E-02 0.  1.
</event>
<event>
 5   0  0.1092868E-02  0.7976192E+03  0.7818609E-02  0.9563470E-01
       -2   -1    0    0    0  501  0.00000000000E+00  0.00000000000E+00  0.98736585874E+02  0.98736585907E+02  0.25500000920E-02 0.  1.
        2   -1    0    0  501    0  0.00000000000E+00  0.00000000000E+00 -0.16108427253E+04  0.16108427253E+04  0.25500000920E-02 0. -1.
    10030    2    1    2    0    0  0.00000000000E+00  0.00000000000E+00 -0.15121061394E+04  0.17095793112E+04  0.79761923523E+03 0.  0.
        3    1    3    3  502    0  0.16383082075E+03 -0.17713247819E+03 -0.75449501772E+02  0.25280247265E+03  0.10100000352E+00 0.  1.
       -3    1    3    3    0  502 -0.16383082075E+03  0.17713247819E+03 -0.14366566376E+04  0.14567768385E+04  0.10100000352E+00 0. -1.
</event>
<event>
 5   0  0.6557679E-03  0.8036538E+03  0.7818609E-02  0.9554743E-01
       -1   -1    0    0    0  501  0.00000000000E+00  0.00000000000E+00  0.17749367274E+03  0.17749367282E+03  0.50400001928E-02 0. -1.
        1   -1    0    0  501    0  0.00000000000E+00  0.00000000000E+00 -0.90969364461E+03  0.90969364462E+03  0.50400001928E-02 0.  1.
    10030    2    1    2    0    0  0.00000000000E+00  0.00000000000E+00 -0.73219997186E+03  0.10871873174E+04  0.80365382124E+03 0.  0.
        1    1    3    3  502    0  0.11809498873E+03 -0.27987404150E+03 -0.72193916749E+03  0.78324457678E+03  0.50400001928E-02 0. -1.
       -1    1    3    3    0  502 -0.11809498873E+03  0.27987404150E+03 -0.10260804370E+02  0.30394274066E+03  0.50400001928E-02 0.  1.
</event>
<event>
 5   0  0.6551489E-03  0.7991026E+03  0.7818609E-02  0.9561317E-01
       -1   -1    0    0    0  501  0.00000000000E+00  0.00000000000E+00  0.32540860666E+03  0.32540860670E+03  0.50400001928E-02 0.  1.
        1   -1    0    0  501    0  0.00000000000E+00  0.00000000000E+00 -0.49058699791E+03  0.49058699794E+03  0.50400001928E-02 0. -1.
    10030    2    1    2    0    0  0.00000000000E+00  0.00000000000E+00 -0.16517839125E+03  0.81599560464E+03  0.79910257530E+03 0.  0.
        4    1    3    3  502    0  0.32274566093E+02 -0.34147955475E+03  0.12665653019E+03  0.36564111293E+03  0.12699999809E+01 0.  1.
       -4    1    3    3    0  502 -0.32274566093E+02  0.34147955475E+03 -0.29183492144E+03  0.45035449170E+03  0.12699999809E+01 0. -1.
</event>
<event>
 5   0  0.6517392E-03  0.7953515E+03  0.7818609E-02  0.9566770E-01
        1   -1    0    0  501    0  0.00000000000E+00  0.00000000000E+00  0.13953080391E+04  0.13953080391E+04  0.50400001928E-02 0.  1.
       -1   -1    0    0    0  501  0.00000000000E+00  0.00000000000E+00 -0.11334127539E+03  0.11334127550E+03  0.50400001928E-02 0. -1.
    10030    2    1    2    0    0  0.00000000000E+00  0.00000000000E+00  0.12819667637E+04  0.15086493146E+04  0.79535147651E+03 0.  0.
        3    1    3    3  502    0  0.27953331007E+03 -0.18622169007E+03  0.10448289572E+04  0.10974902957E+04  0.10100000352E+00 0.  1.
       -3    1    3    3    0  502 -0.27953331007E+03  0.18622169007E+03  0.23713780649E+03  0.41115901882E+03  0.10100000352E+00 0. -1.
</event>
<event>
 5   0  0.6596225E-03  0.7947837E+03  0.7818609E-02  0.9567598E-01
        1   -1    0    0  501    0  0.00000000000E+00  0.00000000000E+00  0.74858591896E+03  0.74858591897E+03  0.50400001928E-02 0. -1.
       -1   -1    0    0    0  501  0.00000000000E+00  0.00000000000E+00 -0.21095813516E+03  0.21095813522E+03  0.50400001928E-02 0.  1.
    10030    2    1    2    0    0  0.00000000000E+00  0.00000000000E+00  0.53762778380E+03  0.95954405419E+03  0.79478371776E+03 0.  0.
        5    1    3    3  502    0  0.13753125296E+03 -0.64790965125E+02  0.71205243612E+03  0.72811638938E+03  0.46999998093E+01 0. -1.
       -5    1    3    3    0  502 -0.13753125296E+03  0.64790965125E+02 -0.17442465232E+03  0.23142766481E+03  0.46999998093E+01 0.  1.
</event>
<event>
 5   0  0.4385875E-03  0.8020610E+03  0.7818609E-02  0.9557039E-01
       -3   -1    0    0    0  501  0.00000000000E+00  0.00000000000E+00  0.23700890539E+03  0.23700892691E+03  0.10100000352E+00 0.  1.
        3   -1    0    0  501    0  0.00000000000E+00  0.00000000000E+00 -0.67856282591E+03  0.67856283343E+03  0.10100000352E+00 0. -1.
    10030    2    1    2    0    0  0.00000000000E+00  0.00000000000E+00 -0.44155392053E+03  0.91557176034E+03  0.80206096003E+03 0.  0.
        1    1    3    3  502    0  0.22306631995E+03 -0.30129001530E+03 -0.58170137463E+02  0.37936528746E+03  0.50400001928E-02 0. -1.
       -1    1    3    3    0  502 -0.22306631995E+03  0.30129001530E+03 -0.38338378306E+03  0.53620647288E+03  0.50400001928E-02 0.  1.
</event>
<event>
 5   0  0.6517392E-03  0.8326973E+03  0.7818609E-02  0.9513859E-01
       -1   -1    0    0    0  501  0.00000000000E+00  0.00000000000E+00  0.69779623506E+03  0.69779623508E+03  0.50400001928E-02 0. -1.
        1   -1    0    0  501    0  0.00000000000E+00  0.00000000000E+00 -0.24841952898E+03  0.24841952903E+03  0.50400001928E-02 0.  1.
    10030    2    1    2    0    0  0.00000000000E+00  0.00000000000E+00  0.44937670608E+03  0.94621576410E+03  0.83269733293E+03 0.  0.
        3    1    3    3  502    0  0.25796047949E+03  0.89755913662E+02  0.58176692783E+03  0.64269160686E+03  0.10100000352E+00 0. -1.
       -3    1    3    3    0  502 -0.25796047949E+03 -0.89755913662E+02 -0.13239022175E+03  0.30352415724E+03  0.10100000352E+00 0.  1.
</event>
<event>
 5   0  0.1119792E-02  0.8014243E+03  0.7818609E-02  0.9557958E-01
       -2   -1    0    0    0  501  0.00000000000E+00  0.00000000000E+00  0.15219669235E+03  0.15219669237E+03  0.25500000920E-02 0.  1.
        2   -1    0    0  501    0  0.00000000000E+00  0.00000000000E+00 -0.10550178938E+04  0.10550178938E+04  0.25500000920E-02 0. -1.
    10030    2    1    2    0    0  0.00000000000E+00  0.00000000000E+00 -0.90282120141E+03  0.12072145861E+04  0.80142431662E+03 0.  0.
        4    1    3    3  502    0 -0.18394929311E+03 -0.35258586442E+03 -0.52542809295E+03  0.65896162861E+03  0.12699999809E+01 0. -1.
       -4    1    3    3    0  502  0.18394929311E+03  0.35258586442E+03 -0.37739310846E+03  0.54825295753E+03  0.12699999809E+01 0.  1.
</event>
<event>
 5   0  0.1106332E-02  0.8039081E+03  0.7818609E-02  0.9554377E-01
       -2   -1    0    0    0  501  0.00000000000E+00  0.00000000000E+00  0.25936133907E+03  0.25936133908E+03  0.25500000920E-02 0.  1.
        2   -1    0    0  501    0  0.00000000000E+00  0.00000000000E+00 -0.62294199753E+03  0.62294199754E+03  0.25500000920E-02 0. -1.
    10030    2    1    2    0    0  0.00000000000E+00  0.00000000000E+00 -0.36358065847E+03  0.88230333661E+03  0.80390813069E+03 0.  0.
        1    1    3    3  502    0  0.30029180372E+03 -0.34256764315E+02  0.10903812507E+03  0.32130671643E+03  0.50400001928E-02 0.  1.
       -1    1    3    3    0  502 -0.30029180372E+03  0.34256764315E+02 -0.47261878354E+03  0.56099662018E+03  0.50400001928E-02 0. -1.
</event>
<event>
 5   0  0.6600401E-03  0.7929068E+03  0.7818609E-02  0.9570341E-01
        1   -1    0    0  501    0  0.00000000000E+00  0.00000000000E+00  0.13502499680E+04  0.13502499680E+04  0.50400001928E-02 0. -1.
       -1   -1    0    0    0  501  0.00000000000E+00  0.00000000000E+00 -0.11640460000E+03  0.11640460011E+03  0.50400001928E-02 0.  1.
    10030    2    1    2    0    0  0.00000000000E+00  0.00000000000E+00  0.12338453680E+04  0.14666545681E+04  0.79290682308E+03 0.  0.
        2    1    3    3  502    0 -0.77236205287E+02  0.21056401534E+03  0.12216213592E+04  0.12420392028E+04  0.25500000920E-02 0. -1.
       -2    1    3    3    0  502  0.77236205287E+02 -0.21056401534E+03  0.12224008823E+02  0.22461536538E+03  0.25500000920E-02 0.  1.
</event>
<event>
 5   0  0.1154714E-02  0.7688678E+03  0.7818609E-02  0.9606206E-01
        2   -1    0    0  501    0  0.00000000000E+00  0.00000000000E+00  0.85467797987E+03  0.85467797988E+03  0.25500000920E-02 0.  1.
       -2   -1    0    0    0  501  0.00000000000E+00  0.00000000000E+00 -0.17291823540E+03  0.17291823542E+03  0.25500000920E-02 0. -1.
    10030    2    1    2    0    0  0.00000000000E+00  0.00000000000E+00  0.68175974447E+03  0.10275962153E+04  0.76886776010E+03 0.  0.
        5    1    3    3  502    0 -0.20454264432E+03  0.20920642204E+03  0.67410241580E+03  0.73487493994E+03  0.46999998093E+01 0.  1.
       -5    1    3    3    0  502  0.20454264432E+03 -0.20920642204E+03  0.76573286706E+01  0.29272127536E+03  0.46999998093E+01 0. -1.
</event>
<event>
 5   0  0.6600401E-03  0.7913493E+03  0.7818609E-02  0.9572624E-01
       -1   -1    0    0    0  501  0.00000000000E+00  0.00000000000E+00  0.90470331998E+03  0.90470331999E+03  0.50400001928E-02 0. -1.
        1   -1    0    0  501    0  0.00000000000E+00  0.00000000000E+00 -0.17304948855E+03  0.17304948862E+03  0.50400001928E-02 0.  1.
    10030    2    1    2    0    0  0.00000000000E+00  0.00000000000E+00  0.73165383143E+03  0.10777528086E+04  0.79134934600E+03 0.  0.
        2    1    3    3  502    0 -0.39336375534E+03 -0.36812187085E+02  0.39529806664E+03  0.55888347858E+03  0.25500000920E-02 0.  1.
       -2    1    3    3    0  502  0.39336375534E+03  0.36812187085E+02  0.33635576479E+03  0.51886933003E+03  0.25500000920E-02 0. -1.
</event>
<event>
 5   0  0.1121480E-02  0.7989660E+03  0.7818609E-02  0.9561515E-01
       -2   -1    0    0    0  501  0.00000000000E+00  0.00000000000E+00  0.27858643515E+03  0.27858643516E+03  0.25500000920E-02 0. -1.
        2   -1    0    0  501    0  0.00000000000E+00  0.00000000000E+00 -0.57284436364E+03  0.57284436365E+03  0.25500000920E-02 0.  1.
    10030    2    1    2    0    0  0.00000000000E+00  0.00000000000E+00 -0.29425792849E+03  0.85143079881E+03  0.79896600471E+03 0.  0.
        2    1    3    3  502    0 -0.27882771494E+03  0.10303789384E+03 -0.43153393544E+03  0.52400690800E+03  0.25500000920E-02 0.  1.
       -2    1    3    3    0  502  0.27882771494E+03 -0.10303789384E+03  0.13727600695E+03  0.32742389081E+03  0.25500000920E-02 0. -1.
</event>
<event>
 5   0  0.1092868E-02  0.7859684E+03  0.7818609E-02  0.9580552E-01
       -2   -1    0    0    0  501  0.00000000000E+00  0.00000000000E+00  0.59840220201E+02  0.59840220256E+02  0.25500000920E-02 0. -1.
        2   -1    0    0  501    0  0.00000000000E+00  0.00000000000E+00 -0.25808158498E+04  0.25808158498E+04  0.25500000920E-02 0.  1.
    10030    2    1    2    0    0  0.00000000000E+00  0.00000000000E+00 -0.25209756296E+04  0.26406560701E+04  0.78596841877E+03 0.  0.
        3    1    3    3  502    0  0.11703161586E+03  0.82072681199E+02 -0.24903771574E+04  0.24944760413E+04  0.10100000352E+00 0.  1.
       -3    1    3    3    0  502 -0.11703161586E+03 -0.82072681199E+02 -0.30598472166E+02  0.14618002877E+03  0.10100000352E+00 0. -1.
</event>
<event>
 5   0  0.4385875E-03  0.8057295E+03  0.7818609E-02  0.9551761E-01
        3   -1    0    0  501    0  0.00000000000E+00  0.00000000000E+00  0.94280961888E+03  0.94280962429E+03  0.10100000352E+00 0. -1.
       -3   -1    0    0    0  501  0.00000000000E+00  0.00000000000E+00 -0.17214502549E+03  0.17214505512E+03  0.10100000352E+00 0.  1.
    10030    2    1    2    0    0  0.00000000000E+00  0.00000000000E+00  0.77066459339E+03  0.11149546794E+04  0.80572949657E+03 0.  0.
        2    1    3    3  502    0 -0.27295440264E+03 -0.21150380847E+03  0.67248654389E+03  0.75596039489E+03  0.25500000920E-02 0.  1.
       -2    1    3    3    0  502  0.27295440264E+03  0.21150380847E+03  0.98178049501E+02  0.35899428453E+03  0.25500000920E-02 0. -1.
</event>
<event>
 5   0  0.1106332E-02  0.7983605E+03  0.7818609E-02  0.9562393E-01
        2   -1    0    0  501    0  0.00000000000E+00  0.00000000000E+00  0.87065469919E+03  0.87065469919E+03  0.25500000920E-02 0. -1.
       -2   -1    0    0    0  501  0.00000000000E+00  0.00000000000E+00 -0.18301732080E+03  0.18301732081E+03  0.25500000920E-02 0.  1.
    10030    2    1    2    0    0  0.00000000000E+00  0.00000000000E+00  0.68763737839E+03  0.10536720200E+04  0.79836054611E+03 0.  0.
        1    1    3    3  502    0  0.10997984115E+03  0.36144671907E+03  0.17374638680E+03  0.41584504703E+03  0.50400001928E-02 0.  1.
       -1    1    3    3    0  502 -0.10997984115E+03 -0.36144671907E+03  0.51389099159E+03  0.63782697297E+03  0.50400001928E-02 0. -1.
</event>
<event>
 5   0  0.1119792E-02  0.8038877E+03  0.7818609E-02  0.9554407E-01
        2   -1    0    0  501    0  0.00000000000E+00  0.00000000000E+00  0.27616931922E+03  0.27616931923E+03  0.25500000920E-02 0.  1.
       -2   -1    0    0    0  501  0.00000000000E+00  0.00000000000E+00 -0.58499924657E+03  0.58499924658E+03  0.25500000920E-02 0. -1.
    10030    2    1    2    0    0  0.00000000000E+00  0.00000000000E+00 -0.30882992735E+03  0.86116856580E+03  0.80388766299E+03 0.  0.
        4    1    3    3  502    0  0.30854274859E+03 -0.24223684444E+03 -0.24829451191E+03  0.46425111099E+03  0.12699999809E+01 0. -1.
       -4    1    3    3    0  502 -0.30854274859E+03  0.24223684444E+03 -0.60535415449E+02  0.39691745481E+03  0.12699999809E+01 0.  1.
</event>
<event>
 5   0  0.6596225E-03  0.7952657E+03  0.7818609E-02  0.9566895E-01
       -1   -1    0    0    0  501  0.00000000000E+00  0.00000000000E+00  0.13757172302E+03  0.13757172311E+03  0.50400001928E-02 0.  1.
        1   -1    0    0  501    0  0.00000000000E+00  0.00000000000E+00 -0.11493050335E+04  0.11493050335E+04  0.50400001928E-02 0. -1.
    10030    2    1    2    0    0  0.00000000000E+00  0.00000000000E+00 -0.10117333105E+04  0.12868767566E+04  0.79526567587E+03 0.  0.
        5    1    3    3  502    0  0.15653632309E+03 -0.24791126129E+02 -0.10959374308E+04  0.11073478056E+04  0.46999998093E+01 0. -1.
       -5    1    3    3    0  502 -0.15653632309E+03  0.24791126129E+02  0.84204120301E+02  0.17952895103E+03  0.46999998093E+01 0.  1.
</event>
<event>
 5   0  0.6600401E-03  0.7873257E+03  0.7818609E-02  0.9578546E-01
        1   -1    0    0  501    0  0.00000000000E+00  0.00000000000E+00  0.71772119325E+03  0.71772119327E+03  0.50400001928E-02 0.  1.
       -1   -1    0    0    0  501  0.00000000000E+00  0.00000000000E+00 -0.21592008737E+03  0.21592008743E+03  0.50400001928E-02 0. -1.
    10030    2    1    2    0    0  0.00000000000E+00  0.00000000000E+00  0.50180110589E+03  0.93364128069E+03  0.78732565762E+03 0.  0.
        2    1    3    3  502    0  0.97902304572E+02  0.29771673147E+03  0.53339489740E+03  0.61865194578E+03  0.25500000920E-02 0.  1.
       -2    1    3    3    0  502 -0.97902304572E+02 -0.29771673147E+03 -0.31593791518E+02  0.31498933491E+03  0.25500000920E-02 0. -1.
</event>
<event>
 5   0  0.6596225E-03  0.7939051E+03  0.7818609E-02  0.9568881E-01
       -1   -1    0    0    0  501  0.00000000000E+00  0.00000000000E+00  0.76704667919E+02  0.76704668084E+02  0.50400001928E-02 0. -1.
        1   -1    0    0  501    0  0.00000000000E+00  0.00000000000E+00 -0.20542599973E+04  0.20542599973E+04  0.50400001928E-02 0.  1.
    10030    2    1    2    0    0  0.00000000000E+00  0.00000000000E+00 -0.19775553294E+04  0.21309646654E+04  0.79390511044E+03 0.  0.
        5    1    3    3  502    0 -0.31786820395E+02 -0.12889582468E+03 -0.19928265348E+04  0.19972491641E+04  0.46999998093E+01 0.  1.
       -5    1    3    3    0  502  0.31786820395E+02  0.12889582468E+03  0.15271205453E+02  0.13371550129E+03  0.46999998093E+01 0. -1.
</event>
<event>
 5   0  0.1092868E-02  0.7959514E+03  0.7818609E-02  0.9565896E-01
       -2   -1    0    0    0  501  0.00000000000E+00  0.00000000000E+00  0.33534125067E+03  0.33534125068E+03  0.25500000920E-02 0.  1.
        2   -1    0    0  501    0  0.00000000000E+00  0.00000000000E+00 -0.47230894847E+03  0.47230894848E+03  0.25500000920E-02 0. -1.
    10030    2    1    2    0    0  0.00000000000E+00  0.00000000000E+00 -0.13696769781E+03  0.80765019915E+03  0.79595143944E+03 0.  0.
        3    1    3    3  502    0 -0.21702123645E+02  0.22490116939E+03  0.26394879201E+03  0.34744854751E+03  0.10100000352E+00 0.  1.
       -3    1    3    3    0  502  0.21702123645E+02 -0.22490116939E+03 -0.40091648981E+03  0.46020165164E+03  0.10100000352E+00 0. -1.
</event>
<event>
 5   0  0.1121480E-02  0.8002528E+03  0.7818609E-02  0.9559651E-01
       -2   -1    0    0    0  501  0.00000000000E+00  0.00000000000E+00  0.10692834182E+03  0.10692834185E+03  0.25500000920E-02 0.  1.
        2   -1    0    0  501    0  0.00000000000E+00  0.00000000000E+00 -0.14972751941E+04  0.14972751942E+04  0.25500000920E-02 0. -1.
    10030    2    1    2    0    0  0.00000000000E+00  0.00000000000E+00 -0.13903468523E+04  0.16042035360E+04  0.80025284450E+03 0.  0.
        2    1    3    3  502    0  0.21470124168E+03  0.30920038669E+03 -0.42325599987E+03  0.56643370639E+03  0.25500000920E-02 0.  1.
       -2    1    3    3    0  502 -0.21470124168E+03 -0.30920038669E+03 -0.96709085246E+03  0.10377698296E+04  0.25500000920E-02 0. -1.
</event>
<event>
 5   0  0.1154714E-02  0.8013630E+03  0.7818609E-02  0.9558046E-01
       -2   -1    0    0    0  501  0.00000000000E+00  0.00000000000E+00  0.11176301887E+03  0.11176301890E+03  0.25500000920E-02 0.  1.
        2   -1    0    0  501    0  0.00000000000E+00  0.00000000000E+00 -0.14364829774E+04  0.14364829774E+04  0.25500000920E-02 0. -1.
    10030    2    1    2    0    0  0.00000000000E+00  0.00000000000E+00 -0.13247199585E+04  0.15482459963E+04  0.80136302418E+03 0.  0.
        5    1    3    3  502    0 -0.37605949627E+02 -0.25313925210E+03 -0.66779037289E+02  0.26452829380E+03  0.46999998093E+01 0.  1.
       -5    1    3    3    0  502  0.37605949627E+02  0.25313925210E+03 -0.12579409212E+04  0.12837177025E+04  0.46999998093E+01 0. -1.
</event>
<event>
 5   0  0.6551489E-03  0.7985009E+03  0.7818609E-02  0.9562189E-01
       -1   -1    0    0    0  501  0.00000000000E+00  0.00000000000E+00  0.28112950990E+03  0.28112950995E+03  0.50400001928E-02 0.  1.
        1   -1    0    0  501    0  0.00000000000E+00  0.00000000000E+00 -0.56700178076E+03  0.56700178079E+03  0.50400001928E-02 0. -1.
    10030    2    1    2    0    0  0.00000000000E+00  0.00000000000E+00 -0.28587227086E+03  0.84813129073E+03  0.79850092741E+03 0.  0.
        4    1    3    3  502    0 -0.10566491818E+03  0.99013690499E+02 -0.53812400793E+03  0.55726819993E+03  0.12699999809E+01 0. -1.
       -4    1    3    3    0  502  0.10566491818E+03 -0.99013690499E+02  0.25225173707E+03  0.29086309081E+03  0.12699999809E+01 0.  1.
</event>
<event>
 5   0  0.6557679E-03  0.8066544E+03  0.7818609E-02  0.9550435E-01
        1   -1    0    0  501    0  0.00000000000E+00  0.00000000000E+00  0.50312333685E+03  0.50312333688E+03  0.50400001928E-02 0.  1.
       -1   -1    0    0    0  501  0.00000000000E+00  0.00000000000E+00 -0.32332597898E+03  0.32332597902E+03  0.50400001928E-02 0. -1.
    10030    2    1    2    0    0  0.00000000000E+00  0.00000000000E+00  0.17979735787E+03  0.82644931590E+03  0.80665443769E+03 0.  0.
        1    1    3    3  502    0  0.34830999062E+03 -0.20240179419E+03  0.11004096815E+03  0.41760669362E+03  0.50400001928E-02 0. -1.
       -1    1    3    3    0  502 -0.34830999062E+03  0.20240179419E+03  0.69756389719E+02  0.40884262228E+03  0.50400001928E-02 0.  1.
</event>
<event>
 5   0  0.1121480E-02  0.7990966E+03  0.7818609E-02  0.9561326E-01
       -2   -1    0    0    0  501  0.00000000000E+00  0.00000000000E+00  0.10179848646E+03  0.10179848649E+03  0.25500000920E-02 0.  1.
        2   -1    0    0  501    0  0.00000000000E+00  0.00000000000E+00 -0.15681848178E+04  0.15681848178E+04  0.25500000920E-02 0. -1.
    10030    2    1    2    0    0  0.00000000000E+00  0.00000000000E+00 -0.14663863314E+04  0.16699833043E+04  0.79909659233E+03 0.  0.
        2    1    3    3  502    0  0.90708493945E+02  0.38844454636E+03 -0.78092412489E+03  0.87690346408E+03  0.25500000920E-02 0.  1.
       -2    1    3    3    0  502 -0.90708493945E+02 -0.38844454636E+03 -0.68546220647E+03  0.79307984023E+03  0.25500000920E-02 0. -1.
</event>
<event>
 5   0  0.6596225E-03  0.8052703E+03  0.7818609E-02  0.9552420E-01
        1   -1    0    0  501    0  0.00000000000E+00  0.00000000000E+00  0.54320777211E+03  0.54320777214E+03  0.50400001928E-02 0. -1.
       -1   -1    0    0    0  501  0.00000000000E+00  0.00000000000E+00 -0.29844028147E+03  0.29844028151E+03  0.50400001928E-02 0.  1.
    10030    2    1    2    0    0  0.00000000000E+00  0.00000000000E+00  0.24476749065E+03  0.84164805365E+03  0.80527034077E+03 0.  0.
        5    1    3    3  502    0 -0.39857378990E+03  0.55792095152E+02  0.13379322945E+03  0.42414212491E+03  0.46999998093E+01 0. -1.
       -5    1    3    3    0  502  0.39857378990E+03 -0.55792095152E+02  0.11097426119E+03  0.41750592873E+03  0.46999998093E+01 0.  1.
</event>
<event>
 5   0  0.6551489E-03  0.8064262E+03  0.7818609E-02  0.9550762E-01
        1   -1    0    0  501    0  0.00000000000E+00  0.00000000000E+00  0.18125006725E+03  0.18125006732E+03  0.50400001928E-02 0. -1.
       -1   -1    0    0    0  501  0.00000000000E+00  0.00000000000E+00 -0.89699725101E+03  0.89699725102E+03  0.50400001928E-02 0.  1.
    10030    2    1    2    0    0  0.00000000000E+00  0.00000000000E+00 -0.71574718376E+03  0.10782473183E+04  0.80642622010E+03 0.  0.
        4    1    3    3  502    0  0.31328337243E+03 -0.24233094572E+03 -0.45889478349E+03  0.60618214582E+03  0.12699999809E+01 0. -1.
       -4    1    3    3    0  502 -0.31328337243E+03  0.24233094572E+03 -0.25685240026E+03  0.47206517253E+03  0.12699999809E+01 0.  1.
</event>
<event>
 5   0  0.1119792E-02  0.8083152E+03  0.7818609E-02  0.9548059E-01
       -2   -1    0    0    0  501  0.00000000000E+00  0.00000000000E+00  0.27338045730E+03  0.27338045731E+03  0.25500000920E-02 0. -1.
        2   -1    0    0  501    0  0.00000000000E+00  0.00000000000E+00 -0.59749467576E+03  0.59749467577E+03  0.25500000920E-02 0.  1.
    10030    2    1    2    0    0  0.00000000000E+00  0.00000000000E+00 -0.32411421846E+03  0.87087513308E+03  0.80831520510E+03 0.  0.
        4    1    3    3  502    0 -0.37523298825E+03  0.69753416682E+01 -0.32364237892E+03  0.49557487143E+03  0.12699999809E+01 0.  1.
       -4    1    3    3    0  502  0.37523298825E+03 -0.69753416682E+01 -0.47183954564E+00  0.37530026165E+03  0.12699999809E+01 0. -1.
</event>
<event>
 5   0  0.6596225E-03  0.8111121E+03  0.7818609E-02  0.9544071E-01
        1   -1    0    0  501    0  0.00000000000E+00  0.00000000000E+00  0.35588420231E+03  0.35588420235E+03  0.50400001928E-02 0. -1.
       -1   -1    0    0    0  501  0.00000000000E+00  0.00000000000E+00 -0.46216080550E+03  0.46216080553E+03  0.50400001928E-02 0.  1.
    10030    2    1    2    0    0  0.00000000000E+00  0.00000000000E+00 -0.10627660319E+03  0.81804500788E+03  0.81111214917E+03 0.  0.
        5    1    3    3  502    0  0.39405876405E+02 -0.79710329466E+02 -0.45218045713E+03  0.46086420508E+03  0.46999998093E+01 0.  1.
       -5    1    3    3    0  502 -0.39405876405E+02  0.79710329466E+02  0.34590385394E+03  0.35718080280E+03  0.46999998093E+01 0. -1.
</event>
<event>
 5   0  0.1154714E-02  0.7949118E+03  0.7818609E-02  0.9567411E-01
        2   -1    0    0  501    0  0.00000000000E+00  0.00000000000E+00  0.12488297252E+04  0.12488297252E+04  0.25500000920E-02 0.  1.
       -2   -1    0    0    0  501  0.00000000000E+00  0.00000000000E+00 -0.12649537544E+03  0.12649537547E+03  0.25500000920E-02 0. -1.
    10030    2    1    2    0    0  0.00000000000E+00  0.00000000000E+00  0.11223343498E+04  0.13753251007E+04  0.79491178121E+03 0.  0.
        5    1    3    3  502    0 -0.33688155212E+03  0.20907794443E+03  0.60843344077E+03  0.72623419697E+03  0.46999998093E+01 0.  1.
       -5    1    3    3    0  502  0.33688155212E+03 -0.20907794443E+03  0.51390090900E+03  0.64909090371E+03  0.46999998093E+01 0. -1.
</event>
<event>
 5   0  0.1106332E-02  0.7806071E+03  0.7818609E-02  0.9588520E-01
       -2   -1    0    0    0  501  0.00000000000E+00  0.00000000000E+00  0.26315397491E+03  0.26315397492E+03  0.25500000920E-02 0.  1.
        2   -1    0    0  501    0  0.00000000000E+00  0.00000000000E+00 -0.57888873023E+03  0.57888873023E+03  0.25500000920E-02 0. -1.
    10030    2    1    2    0    0  0.00000000000E+00  0.00000000000E+00 -0.31573475532E+03  0.84204270515E+03  0.78060712371E+03 0.  0.
        1    1    3    3  502    0  0.26003204018E+03  0.35525684479E+02 -0.46949499789E+03  0.53787014163E+03  0.50400001928E-02 0. -1.
       -1    1    3    3    0  502 -0.26003204018E+03 -0.35525684479E+02  0.15376024258E+03  0.30417256353E+03  0.50400001928E-02 0.  1.
</event>
<event>
 5   0  0.6557679E-03  0.8050019E+03  0.7818609E-02  0.9552805E-01
        1   -1    0    0  501    0  0.00000000000E+00  0.00000000000E+00  0.15872771471E+04  0.15872771471E+04  0.50400001928E-02 0. -1.
       -1   -1    0    0    0  501  0.00000000000E+00  0.00000000000E+00 -0.10206599266E+03  0.10206599279E+03  0.50400001928E-02 0.  1.
    10030    2    1    2    0    0  0.00000000000E+00  0.00000000000E+00  0.14852111545E+04  0.16893431399E+04  0.80500190748E+03 0.  0.
        1    1    3    3  502    0  0.20973444793E+02  0.16012476410E+03  0.15163083196E+04  0.15248838466E+04  0.50400001928E-02 0. -1.
       -1    1    3    3    0  502 -0.20973444793E+02 -0.16012476410E+03 -0.31097165121E+02  0.16445929335E+03  0.50400001928E-02 0.  1.
</event>
<event>
 5   0  0.4385875E-03  0.8010278E+03  0.7818609E-02  0.9558531E-01
       -3   -1    0    0    0  501  0.00000000000E+00  0.00000000000E+00  0.73307959622E+03  0.73307960317E+03  0.10100000352E+00 0. -1.
        3   -1    0    0  501    0  0.00000000000E+00  0.00000000000E+00 -0.21881850295E+03  0.21881852626E+03  0.10100000352E+00 0.  1.
    10030    2    1    2    0    0  0.00000000000E+00  0.00000000000E+00  0.51426109326E+03  0.95189812944E+03  0.80102782522E+03 0.  0.
        1    1    3    3  502    0  0.18285588483E+03 -0.35604104749E+03  0.27434688819E+03  0.48525015940E+03  0.50400001928E-02 0.  1.
       -1    1    3    3    0  502 -0.18285588483E+03  0.35604104749E+03  0.23991420507E+03  0.46664797003E+03  0.50400001928E-02 0. -1.
</event>
<event>
 5   0  0.6600401E-03  0.8235370E+03  0.7818609E-02  0.9526560E-01
       -1   -1    0    0    0  501  0.00000000000E+00  0.00000000000E+00  0.42891285536E+03  0.42891285539E+03  0.50400001928E-02 0. -1.
        1   -1    0    0  501    0  0.00000000000E+00  0.00000000000E+00 -0.39530941783E+03  0.39530941786E+03  0.50400001928E-02 0.  1.
    10030    2    1    2    0    0  0.00000000000E+00  0.00000000000E+00  0.33603437527E+02  0.82422227325E+03  0.82353698442E+03 0.  0.
        2    1    3    3  502    0  0.55958240311E+02 -0.30363385527E+03  0.28947741460E+03  0.42322809015E+03  0.25500000920E-02 0. -1.
       -2    1    3    3    0  502 -0.55958240311E+02  0.30363385527E+03 -0.25587397707E+03  0.40099418309E+03  0.25500000920E-02 0.  1.
</event>
<event>
 5   0  0.6551489E-03  0.8003199E+03  0.7818609E-02  0.9559554E-01
       -1   -1    0    0    0  501  0.00000000000E+00  0.00000000000E+00  0.33523114477E+03  0.33523114481E+03  0.50400001928E-02 0. -1.
        1   -1    0    0  501    0  0.00000000000E+00  0.00000000000E+00 -0.47766444655E+03  0.47766444658E+03  0.50400001928E-02 0.  1.
    10030    2    1    2    0    0  0.00000000000E+00  0.00000000000E+00 -0.14243330178E+03  0.81289559139E+03  0.80031993418E+03 0.  0.
        4    1    3    3  502    0  0.16920798285E+03  0.26208988755E+03 -0.32576164710E+03  0.45104846108E+03  0.12699999809E+01 0.  1.
       -4    1    3    3    0  502 -0.16920798285E+03 -0.26208988755E+03  0.18332834532E+03  0.36184713031E+03  0.12699999809E+01 0. -1.
</event>
<event>
 5   0  0.6551489E-03  0.7942709E+03  0.7818609E-02  0.9568347E-01
       -1   -1    0    0    0  501  0.00000000000E+00  0.00000000000E+00  0.82048929085E+02  0.82048929240E+02  0.50400001928E-02 0.  1.
        1   -1    0    0  501    0  0.00000000000E+00  0.00000000000E+00 -0.19222256942E+04  0.19222256942E+04  0.50400001928E-02 0. -1.
    10030    2    1    2    0    0  0.00000000000E+00  0.00000000000E+00 -0.18401767651E+04  0.20042746235E+04  0.79427088536E+03 0.  0.
        4    1    3    3  502    0  0.11881157904E+03 -0.27325472337E+03 -0.25757500677E+03  0.39386651568E+03  0.12699999809E+01 0.  1.
       -4    1    3    3    0  502 -0.11881157904E+03  0.27325472337E+03 -0.15826017584E+04  0.16104081078E+04  0.12699999809E+01 0. -1.
</event>
<event>
 5   0  0.6557679E-03  0.7870525E+03  0.7818609E-02  0.9578949E-01
       -1   -1    0    0    0  501  0.00000000000E+00  0.00000000000E+00  0.12890359276E+03  0.12890359286E+03  0.50400001928E-02 0. -1.
        1   -1    0    0  501    0  0.00000000000E+00  0.00000000000E+00 -0.12013855375E+04  0.12013855375E+04  0.50400001928E-02 0.  1.
    10030    2    1    2    0    0  0.00000000000E+00  0.00000000000E+00 -0.10724819448E+04  0.13302891304E+04  0.78705250688E+03 0.  0.
        1    1    3    3  502    0 -0.16857510397E+02 -0.22073645054E+03 -0.10861568923E+04  0.11084879571E+04  0.50400001928E-02 0.  1.
       -1    1    3    3    0  502  0.16857510397E+02  0.22073645054E+03  0.13674947570E+02  0.22180117328E+03  0.50400001928E-02 0. -1.
</event>
<event>
 5   0  0.1154714E-02  0.8007826E+03  0.7818609E-02  0.9558885E-01
        2   -1    0    0  501    0  0.00000000000E+00  0.00000000000E+00  0.12442547322E+04  0.12442547322E+04  0.25500000920E-02 0.  1.
       -2   -1    0    0    0  501  0.00000000000E+00  0.00000000000E+00 -0.12884273618E+03  0.12884273620E+03  0.25500000920E-02 0. -1.
    10030    2    1    2    0    0  0.00000000000E+00  0.00000000000E+00  0.11154119960E+04  0.13730974684E+04  0.80078257776E+03 0.  0.
        5    1    3    3  502    0  0.58447326828E+02 -0.21226914317E+03  0.11310830528E+04  0.11523216745E+04  0.46999998093E+01 0.  1.
       -5    1    3    3    0  502 -0.58447326828E+02  0.21226914317E+03 -0.15671056797E+02  0.22077579390E+03  0.46999998093E+01 0. -1.
</event>
<event>
 5   0  0.1121480E-02  0.8059238E+03  0.7818609E-02  0.9551482E-01
       -2   -1    0    0    0  501  0.00000000000E+00  0.00000000000E+00  0.21155638630E+03  0.21155638631E+03  0.25500000920E-02 0.  1.
        2   -1    0    0  501    0  0.00000000000E+00  0.00000000000E+00 -0.76754137426E+03  0.76754137426E+03  0.25500000920E-02 0. -1.
    10030    2    1    2    0    0  0.00000000000E+00  0.00000000000E+00 -0.55598498796E+03  0.97909776057E+03  0.80592376682E+03 0.  0.
        2    1    3    3  502    0  0.28912811670E+03 -0.27970053908E+03 -0.30650510329E+03  0.50573989142E+03  0.25500000920E-02 0. -1.
       -2    1    3    3    0  502 -0.28912811670E+03  0.27970053908E+03 -0.24947988467E+03  0.47335786915E+03  0.25500000920E-02 0.  1.
</event>
<event>
 5   0  0.6600401E-03  0.8059064E+03  0.7818609E-02  0.9551507E-01
       -1   -1    0    0    0  501  0.00000000000E+00  0.00000000000E+00  0.38153086316E+03  0.38153086319E+03  0.50400001928E-02 0.  1.
        1   -1    0    0  501    0  0.00000000000E+00  0.00000000000E+00 -0.42557832788E+03  0.42557832791E+03  0.50400001928E-02 0. -1.
    10030    2    1    2    0    0  0.00000000000E+00  0.00000000000E+00 -0.44047464718E+02  0.80710919110E+03  0.80590636380E+03 0.  0.
        2    1    3    3  502    0 -0.28903420647E+03  0.27834389734E+03  0.14843832550E+02  0.40154257192E+03  0.25500000920E-02 0.  1.
       -2    1    3    3    0  502  0.28903420647E+03 -0.27834389734E+03 -0.58891297268E+02  0.40556661918E+03  0.25500000920E-02 0. -1.
</event>
<event>
 5   0  0.6551489E-03  0.8018850E+03  0.7818609E-02  0.9557293E-01
        1   -1    0    0  501    0  0.00000000000E+00  0.00000000000E+00  0.80543705507E+03  0.80543705508E+03  0.50400001928E-02 0.  1.
       -1   -1    0    0    0  501  0.00000000000E+00  0.00000000000E+00 -0.19958717109E+03  0.19958717115E+03  0.50400001928E-02 0. -1.
    10030    2    1    2    0    0  0.00000000000E+00  0.00000000000E+00  0.60584988398E+03  0.10050242262E+04  0.80188503753E+03 0.  0.
        4    1    3    3  502    0  0.28604199592E+02 -0.33119716689E+03  0.58385905612E+03  0.67186514562E+03  0.12699999809E+01 0. -1.
       -4    1    3    3    0  502 -0.28604199592E+02  0.33119716689E+03  0.21990827861E+02  0.33315908062E+03  0.12699999809E+01 0.  1.
</event>
<event>
 5   0  0.6517392E-03  0.8028801E+03  0.7818609E-02  0.9555858E-01
       -1   -1    0    0    0  501  0.00000000000E+00  0.00000000000E+00  0.24847077972E+03  0.24847077977E+03  0.50400001928E-02 0. -1.
        1   -1    0    0  501    0  0.00000000000E+00  0.00000000000E+00 -0.64858369489E+03  0.64858369491E+03  0.50400001928E-02 0.  1.
    10030    2    1    2    0    0  0.00000000000E+00  0.00000000000E+00 -0.40011291517E+03  0.89705447468E+03  0.80288005683E+03 0.  0.
        3    1    3    3  502    0  0.29586225042E+03 -0.17599527048E+03 -0.43078622612E+03  0.55143956085E+03  0.10100000352E+00 0.  1.
       -3    1    3    3    0  502 -0.29586225042E+03  0.17599527048E+03  0.30673310955E+02  0.34561491383E+03  0.10100000352E+00 0. -1.
</event>
<event>
 5   0  0.6557679E-03  0.8046828E+03  0.7818609E-02  0.9553264E-01
       -1   -1    0    0    0  501  0.00000000000E+00  0.00000000000E+00  0.46747556978E+03  0.46747556980E+03  0.50400001928E-02 0.  1.
        1   -1    0    0  501    0  0.00000000000E+00  0.00000000000E+00 -0.34628251388E+03  0.34628251391E+03  0.50400001928E-02 0. -1.
    10030    2    1    2    0    0  0.00000000000E+00  0.00000000000E+00  0.12119305590E+03  0.81375808371E+03  0.80468283318E+03 0.  0.
        1    1    3    3  502    0 -0.17510631789E+03  0.26625182507E+03  0.30898082436E+03  0.44387093481E+03  0.50400001928E-02 0. -1.
       -1    1    3    3    0  502  0.17510631789E+03 -0.26625182507E+03 -0.18778776846E+03  0.36988714891E+03  0.50400001928E-02 0.  1.
</event>
<event>
 5   0  0.6551489E-03  0.7969552E+03  0.7818609E-02  0.9564435E-01
        1   -1    0    0  501    0  0.00000000000E+00  0.00000000000E+00  0.21100798880E+03  0.21100798886E+03  0.50400001928E-02 0. -1.
       -1   -1    0    0    0  501  0.00000000000E+00  0.00000000000E+00 -0.75250414927E+03  0.75250414929E+03  0.50400001928E-02 0.  1.
    10030    2    1    2    0    0  0.00000000000E+00  0.00000000000E+00 -0.54149616047E+03  0.96351213815E+03  0.79695517350E+03 0.  0.
        4    1    3    3  502    0 -0.33248466970E+01 -0.84037145895E+02 -0.74164912350E+03  0.74640359846E+03  0.12699999809E+01 0.  1.
       -4    1    3    3    0  502  0.33248466970E+01  0.84037145895E+02  0.20015296304E+03  0.21710853969E+03  0.12699999809E+01 0. -1.
</event>
<event>
 5   0  0.6551489E-03  0.7982758E+03  0.7818609E-02  0.9562516E-01
        1   -1    0    0  501    0  0.00000000000E+00  0.00000000000E+00  0.45952587445E+03  0.45952587448E+03  0.50400001928E-02 0. -1.
       -1   -1    0    0    0  501  0.00000000000E+00  0.00000000000E+00 -0.34668572875E+03  0.34668572879E+03  0.50400001928E-02 0.  1.
    10030    2    1    2    0    0  0.00000000000E+00  0.00000000000E+00  0.11284014570E+03  0.80621160327E+03  0.79827579868E+03 0.  0.
        4    1    3    3  502    0 -0.12089463203E+03 -0.29437518140E+03 -0.18688393954E+03  0.36905213620E+03  0.12699999809E+01 0.  1.
       -4    1    3    3    0  502  0.12089463203E+03  0.29437518140E+03  0.29972408523E+03  0.43715946707E+03  0.12699999809E+01 0. -1.
</event>
<event>
 5   0  0.6517392E-03  0.7986230E+03  0.7818609E-02  0.9562012E-01
        1   -1    0    0  501    0  0.00000000000E+00  0.00000000000E+00  0.60145845005E+03  0.60145845007E+03  0.50400001928E-02 0. -1.
       -1   -1    0    0    0  501  0.00000000000E+00  0.00000000000E+00 -0.26510502365E+03  0.26510502370E+03  0.50400001928E-02 0.  1.
    10030    2    1    2    0    0  0.00000000000E+00  0.00000000000E+00  0.33635342640E+03  0.86656347377E+03  0.79862295649E+03 0.  0.
        3    1    3    3  502    0  0.16936963007E+01 -0.85744998180E+02  0.59134727553E+03  0.59753383486E+03  0.10100000352E+00 0. -1.
       -3    1    3    3    0  502 -0.16936963007E+01  0.85744998180E+02 -0.25499384913E+03  0.26902963892E+03  0.10100000352E+00 0.  1.
</event>
<event>
 5   0  0.1121480E-02  0.7985854E+03  0.7818609E-02  0.9562067E-01
       -2   -1    0    0    0  501  0.00000000000E+00  0.00000000000E+00  0.12931548999E+03  0.12931549002E+03  0.25500000920E-02 0.  1.
        2   -1    0    0  501    0  0.00000000000E+00  0.00000000000E+00 -0.12329124592E+04  0.12329124592E+04  0.25500000920E-02 0. -1.
    10030    2    1    2    0    0  0.00000000000E+00  0.00000000000E+00 -0.11035969692E+04  0.13622279492E+04  0.79858544638E+03 0.  0.
        2    1    3    3  502    0 -0.31313849402E+03 -0.31498834864E+01 -0.12922420260E+03  0.33876914374E+03  0.25500000920E-02 0.  1.
       -2    1    3    3    0  502  0.31313849402E+03  0.31498834864E+01 -0.97437276658E+03  0.10234588055E+04  0.25500000920E-02 0. -1.
</event>
<event>
 5   0  0.6596225E-03  0.8045729E+03  0.7818609E-02  0.9553421E-01
       -1   -1    0    0    0  501  0.00000000000E+00  0.00000000000E+00  0.25982500608E+03  0.25982500612E+03  0.50400001928E-02 0.  1.
        1   -1    0    0  501    0  0.00000000000E+00  0.00000000000E+00 -0.62285924176E+03  0.62285924178E+03  0.50400001928E-02 0. -1.
    10030    2    1    2    0    0  0.00000000000E+00  0.00000000000E+00 -0.36303423568E+03  0.88268424790E+03  0.80457294586E+03 0.  0.
        5    1    3    3  502    0 -0.57013670427E+02 -0.27631988063E+03 -0.49607447592E+03  0.57071464911E+03  0.46999998093E+01 0. -1.
       -5    1    3    3    0  502  0.57013670427E+02  0.27631988063E+03  0.13304024024E+03  0.31196959879E+03  0.46999998093E+01 0.  1.
</event>
<event>
 5   0  0.1106332E-02  0.8021070E+03  0.7818609E-02  0.9556972E-01
       -2   -1    0    0    0  501  0.00000000000E+00  0.00000000000E+00  0.75312031342E+02  0.75312031385E+02  0.25500000920E-02 0. -1.
        2   -1    0    0  501    0  0.00000000000E+00  0.00000000000E+00 -0.21357000268E+04  0.21357000268E+04  0.25500000920E-02 0.  1.
    10030    2    1    2    0    0  0.00000000000E+00  0.00000000000E+00 -0.20603879955E+04  0.22110120582E+04  0.80210699387E+03 0.  0.
        1    1    3    3  502    0  0.37954175202E+02  0.33664530359E+03 -0.43851848256E+03  0.55413810501E+03  0.50400001928E-02 0. -1.
       -1    1    3    3    0  502 -0.37954175202E+02 -0.33664530359E+03 -0.16218695129E+04  0.16568739532E+04  0.50400001928E-02 0.  1.
</event>
<event>
 5   0  0.6517392E-03  0.7632975E+03  0.7818609E-02  0.9614717E-01
        1   -1    0    0  501    0  0.00000000000E+00  0.00000000000E+00  0.77172969337E+03  0.77172969339E+03  0.50400001928E-02 0.  1.
       -1   -1    0    0    0  501  0.00000000000E+00  0.00000000000E+00 -0.18873935263E+03  0.18873935270E+03  0.50400001928E-02 0. -1.
    10030    2    1    2    0    0  0.00000000000E+00  0.00000000000E+00  0.58299034074E+03  0.96046904608E+03  0.76329748531E+03 0.  0.
        3    1    3    3  502    0  0.30942268066E+03  0.22319784995E+03  0.27916130075E+03  0.47274804872E+03  0.10100000352E+00 0. -1.
       -3    1    3    3    0  502 -0.30942268066E+03 -0.22319784995E+03  0.30382903999E+03  0.48772099736E+03  0.10100000352E+00 0.  1.
</event>
<event>
 5   0  0.1106332E-02  0.7971016E+03  0.7818609E-02  0.9564222E-01
        2   -1    0    0  501    0  0.00000000000E+00  0.00000000000E+00  0.52678029701E+03  0.52678029702E+03  0.25500000920E-02 0.  1.
       -2   -1    0    0    0  501  0.00000000000E+00  0.00000000000E+00 -0.30153511290E+03  0.30153511291E+03  0.25500000920E-02 0. -1.
    10030    2    1    2    0    0  0.00000000000E+00  0.00000000000E+00  0.22524518411E+03  0.82831540993E+03  0.79710164055E+03 0.  0.
        1    1    3    3  502    0  0.16115496930E+03 -0.27168198692E+03  0.36516332931E+03  0.48283152677E+03  0.50400001928E-02 0.  1.
       -1    1    3    3    0  502 -0.16115496930E+03  0.27168198692E+03 -0.13991814519E+03  0.34548388316E+03  0.50400001928E-02 0. -1.
</event>
<event>
 5   0  0.6557679E-03  0.8007473E+03  0.7818609E-02  0.9558936E-01
        1   -1    0    0  501    0  0.00000000000E+00  0.00000000000E+00  0.68281142515E+03  0.68281142517E+03  0.50400001928E-02 0. -1.
       -1   -1    0    0    0  501  0.00000000000E+00  0.00000000000E+00 -0.23476329770E+03  0.23476329775E+03  0.50400001928E-02 0.  1.
    10030    2    1    2    0    0  0.00000000000E+00  0.00000000000E+00  0.44804812745E+03  0.91757472292E+03  0.80074730573E+03 0.  0.
        1    1    3    3  502    0  0.15655543050E+03 -0.31388958731E+03  0.28248307988E+01  0.35077664622E+03  0.50400001928E-02 0.  1.
       -1    1    3    3    0  502 -0.15655543050E+03  0.31388958731E+03  0.44522329665E+03  0.56679807670E+03  0.50400001928E-02 0. -1.
</event>
<event>
 5   0  0.1154714E-02  0.7837447E+03  0.7818609E-02  0.9583849E-01
        2   -1    0    0  501    0  0.00000000000E+00  0.00000000000E+00  0.48940262587E+03  0.48940262588E+03  0.25500000920E-02 0.  1.
       -2   -1    0    0    0  501  0.00000000000E+00  0.00000000000E+00 -0.31377830426E+03  0.31377830427E+03  0.25500000920E-02 0. -1.
    10030    2    1    2    0    0  0.00000000000E+00  0.00000000000E+00  0.17562432161E+03  0.80318093015E+03  0.78374466774E+03 0.  0.
        5    1    3    3  502    0  0.18185628757E+03  0.30543639277E+03  0.25676030382E+03  0.43853282998E+03  0.46999998093E+01 0.  1.
       -5    1    3    3    0  502 -0.18185628757E+03 -0.30543639277E+03 -0.81135982211E+02  0.36464810017E+03  0.46999998093E+01 0. -1.
</event>
<event>
 5   0  0.6600401E-03  0.8002189E+03  0.7818609E-02  0.9559700E-01
        1   -1    0    0  501    0  0.00000000000E+00  0.00000000000E+00  0.23564269402E+03  0.23564269408E+03  0.50400001928E-02 0. -1.
       -1   -1    0    0    0  501  0.00000000000E+00  0.00000000000E+00 -0.67936566461E+03  0.67936566463E+03  0.50400001928E-02 0.  1.
    10030    2    1    2    0    0  0.00000000000E+00  0.00000000000E+00 -0.44372297059E+03  0.91500835870E+03  0.80021885873E+03 0.  0.
        2    1    3    3  502    0 -0.68475250397E+02 -0.36991570416E+03 -0.66079314020E+02  0.38195937460E+03  0.25500000920E-02 0. -1.
       -2    1    3    3    0  502  0.68475250397E+02  0.36991570416E+03 -0.37764365657E+03  0.53304898410E+03  0.25500000920E-02 0.  1.
</event>
<event>
 5   0  0.1092868E-02  0.8018823E+03  0.7818609E-02  0.9557297E-01
        2   -1    0    0  501    0  0.00000000000E+00  0.00000000000E+00  0.52459986805E+03  0.52459986805E+03  0.25500000920E-02 0.  1.
       -2   -1    0    0    0  501  0.00000000000E+00  0.00000000000E+00 -0.30643123988E+03  0.30643123989E+03  0.25500000920E-02 0. -1.
    10030    2    1    2    0    0  0.00000000000E+00  0.00000000000E+00  0.21816862817E+03  0.83103110795E+03  0.80188225573E+03 0.  0.
        3    1    3    3  502    0  0.53203656658E+02  0.37119944560E+03  0.25613701561E+03  0.45412095136E+03  0.10100000352E+00 0.  1.
       -3    1    3    3    0  502 -0.53203656658E+02 -0.37119944560E+03 -0.37968387448E+02  0.37691015659E+03  0.10100000352E+00 0. -1.
</event>
<event>
 5   0  0.1121480E-02  0.7949408E+03  0.7818609E-02  0.9567369E-01
       -2   -1    0    0    0  501  0.00000000000E+00  0.00000000000E+00  0.20537872092E+03  0.20537872094E+03  0.25500000920E-02 0. -1.
        2   -1    0    0  501    0  0.00000000000E+00  0.00000000000E+00 -0.76922624515E+03  0.76922624515E+03  0.25500000920E-02 0.  1.
    10030    2    1    2    0    0  0.00000000000E+00  0.00000000000E+00 -0.56384752422E+03  0.97460496609E+03  0.79494075839E+03 0.  0.
        2    1    3    3  502    0 -0.22651824843E+03  0.15359835942E+03  0.71455770464E+02  0.28285844522E+03  0.25500000920E-02 0. -1.
       -2    1    3    3    0  502  0.22651824843E+03 -0.15359835942E+03 -0.63530329469E+03  0.69174652087E+03  0.25500000920E-02 0.  1.
</event>
<event>
 5   0  0.4385875E-03  0.7998123E+03  0.7818609E-02  0.9560289E-01
        4   -1    0    0  501    0  0.00000000000E+00  0.00000000000E+00  0.12979363989E+04  0.12979370202E+04  0.12699999809E+01 0.  1.
       -4   -1    0    0    0  501  0.00000000000E+00  0.00000000000E+00 -0.12321085608E+03  0.12321740119E+03  0.12699999809E+01 0. -1.
    10030    2    1    2    0    0  0.00000000000E+00  0.00000000000E+00  0.11747255428E+04  0.14211544214E+04  0.79981234584E+03 0.  0.
        3    1    3    3  502    0 -0.26249477789E+03  0.29352671359E+03  0.71127880109E+03  0.81300613964E+03  0.10100000352E+00 0.  1.
       -3    1    3    3    0  502  0.26249477789E+03 -0.29352671359E+03  0.46344674175E+03  0.60814828180E+03  0.10100000352E+00 0. -1.
</event>
<event>
 5   0  0.1154714E-02  0.8029311E+03  0.7818609E-02  0.9555784E-01
        2   -1    0    0  501    0  0.00000000000E+00  0.00000000000E+00  0.56685553189E+03  0.56685553189E+03  0.25500000920E-02 0.  1.
       -2   -1    0    0    0  501  0.00000000000E+00  0.00000000000E+00 -0.28433095945E+03  0.28433095946E+03  0.25500000920E-02 0. -1.
    10030    2    1    2    0    0  0.00000000000E+00  0.00000000000E+00  0.28252457244E+03  0.85118649135E+03  0.80293107364E+03 0.  0.
        5    1    3    3  502    0  0.36827877169E+02  0.19450339071E+03  0.51148529053E+03  0.54847712255E+03  0.46999998093E+01 0.  1.
       -5    1    3    3    0  502 -0.36827877169E+02 -0.19450339071E+03 -0.22896071808E+03  0.30270936880E+03  0.46999998093E+01 0. -1.
</event>
<event>
 5   0  0.1154714E-02  0.8062511E+03  0.7818609E-02  0.9551013E-01
       -2   -1    0    0    0  501  0.00000000000E+00  0.00000000000E+00  0.27845920708E+03  0.27845920709E+03  0.25500000920E-02 0.  1.
        2   -1    0    0  501    0  0.00000000000E+00  0.00000000000E+00 -0.58360511636E+03  0.58360511636E+03  0.25500000920E-02 0. -1.
    10030    2    1    2    0    0  0.00000000000E+00  0.00000000000E+00 -0.30514590928E+03  0.86206432346E+03  0.80625112206E+03 0.  0.
        5    1    3    3  502    0  0.27301356968E+03 -0.18168173567E+03 -0.40319967152E+03  0.51974679163E+03  0.46999998093E+01 0. -1.
       -5    1    3    3    0  502 -0.27301356968E+03  0.18168173567E+03  0.98053762239E+02  0.34231753182E+03  0.46999998093E+01 0.  1.
</event>
<event>
 5   0  0.1092868E-02  0.7662280E+03  0.7818609E-02  0.9610230E-01
        2   -1    0    0  501    0  0.00000000000E+00  0.00000000000E+00  0.17497775001E+03  0.17497775003E+03  0.25500000920E-02 0.  1.
       -2   -1    0    0    0  501  0.00000000000E+00  0.00000000000E+00 -0.83882858629E+03  0.83882858629E+03  0.25500000920E-02 0. -1.
    10030    2    1    2    0    0  0.00000000000E+00  0.00000000000E+00 -0.66385083628E+03  0.10138063363E+04  0.76622800442E+03 0.  0.
        3    1    3    3  502    0  0.28283585766E+03 -0.21535642098E+03 -0.52091219385E+03  0.63065365640E+03  0.10100000352E+00 0. -1.
       -3    1    3    3    0  502 -0.28283585766E+03  0.21535642098E+03 -0.14293864242E+03  0.38315267992E+03  0.10100000352E+00 0.  1.
</event>
<event>
 5   0  0.1106332E-02  0.7981930E+03  0.7818609E-02  0.9562636E-01
        2   -1    0    0  501    0  0.00000000000E+00  0.00000000000E+00  0.31554755562E+03  0.31554755563E+03  0.25500000920E-02 0.  1.
       -2   -1    0    0    0  501  0.00000000000E+00  0.00000000000E+00 -0.50476708550E+03  0.50476708551E+03  0.25500000920E-02 0. -1.
    10030    2    1    2    0    0  0.00000000000E+00  0.00000000000E+00 -0.18921952988E+03  0.82031464114E+03  0.79819300922E+03 0.  0.
        1    1    3    3  502    0 -0.18332931136E+03  0.33560285755E+03 -0.21196337229E+03  0.43722692691E+03  0.50400001928E-02 0. -1.
       -1    1    3    3    0  502  0.18332931136E+03 -0.33560285755E+03  0.22743842411E+02  0.38308771422E+03  0.50400001928E-02 0.  1.
</event>
<event>
 5   0  0.6596225E-03  0.8011368E+03  0.7818609E-02  0.9558373E-01
       -1   -1    0    0    0  501  0.00000000000E+00  0.00000000000E+00  0.44826072733E+03  0.44826072736E+03  0.50400001928E-02 0.  1.
        1   -1    0    0  501    0  0.00000000000E+00  0.00000000000E+00 -0.35795028532E+03  0.35795028535E+03  0.50400001928E-02 0. -1.
    10030    2    1    2    0    0  0.00000000000E+00  0.00000000000E+00  0.90310442017E+02  0.80621101271E+03  0.80113683044E+03 0.  0.
        5    1    3    3  502    0  0.20439994063E+03 -0.14933658793E+03  0.35752778002E+03  0.43809697067E+03  0.46999998093E+01 0.  1.
       -5    1    3    3    0  502 -0.20439994063E+03  0.14933658793E+03 -0.26721733800E+03  0.36811404205E+03  0.46999998093E+01 0. -1.
</event>
<event>
 5   0  0.6557679E-03  0.7879882E+03  0.7818609E-02  0.9577568E-01
        1   -1    0    0  501    0  0.00000000000E+00  0.00000000000E+00  0.22008267629E+03  0.22008267634E+03  0.50400001928E-02 0.  1.
       -1   -1    0    0    0  501  0.00000000000E+00  0.00000000000E+00 -0.70533201069E+03  0.70533201071E+03  0.50400001928E-02 0. -1.
    10030    2    1    2    0    0  0.00000000000E+00  0.00000000000E+00 -0.48524933441E+03  0.92541468706E+03  0.78798821468E+03 0.  0.
        1    1    3    3  502    0  0.35433179463E+02  0.33416050929E+03 -0.10499253935E+01  0.33603550191E+03  0.50400001928E-02 0.  1.
       -1    1    3    3    0  502 -0.35433179463E+02 -0.33416050929E+03 -0.48419940901E+03  0.58937918515E+03  0.50400001928E-02 0. -1.
</event>
<event>
 5   0  0.4385875E-03  0.8062623E+03  0.7818609E-02  0.9550997E-01
       -3   -1    0    0    0  501  0.00000000000E+00  0.00000000000E+00  0.27150816540E+03  0.27150818419E+03  0.10100000352E+00 0. -1.
        3   -1    0    0  501    0  0.00000000000E+00  0.00000000000E+00 -0.59856289179E+03  0.59856290031E+03  0.10100000352E+00 0.  1.
    10030    2    1    2    0    0  0.00000000000E+00  0.00000000000E+00 -0.32705472639E+03  0.87007108449E+03  0.80626230100E+03 0.  0.
        4    1    3    3  502    0 -0.39699002903E+03  0.61329610651E+02 -0.20013408334E+03  0.44879579822E+03  0.12699999809E+01 0. -1.
       -4    1    3    3    0  502  0.39699002903E+03 -0.61329610651E+02 -0.12692064305E+03  0.42127528627E+03  0.12699999809E+01 0.  1.
</event>
<event>
 5   0  0.1121480E-02  0.7997673E+03  0.7818609E-02  0.9560354E-01
       -2   -1    0    0    0  501  0.00000000000E+00  0.00000000000E+00  0.11326533105E+03  0.11326533108E+03  0.25500000920E-02 0. -1.
        2   -1    0    0  501    0  0.00000000000E+00  0.00000000000E+00 -0.14117904971E+04  0.14117904971E+04  0.25500000920E-02 0.  1.
    10030    2    1    2    0    0  0.00000000000E+00  0.00000000000E+00 -0.12985251660E+04  0.15250558282E+04  0.79976726127E+03 0.  0.
        2    1    3    3  502    0  0.27584074332E+03 -0.14686252133E+03 -0.11250275980E+04  0.11676231464E+04  0.25500000920E-02 0.  1.
       -2    1    3    3    0  502 -0.27584074332E+03  0.14686252133E+03 -0.17349756805E+03  0.35743268174E+03  0.25500000920E-02 0. -1.
</event>
<event>
 5   0  0.6600401E-03  0.8000851E+03  0.7818609E-02  0.9559894E-01
       -1   -1    0    0    0  501  0.00000000000E+00  0.00000000000E+00  0.14536185067E+04  0.14536185067E+04  0.50400001928E-02 0.  1.
        1   -1    0    0  501    0  0.00000000000E+00  0.00000000000E+00 -0.11009356782E+03  0.11009356794E+03  0.50400001928E-02 0. -1.
    10030    2    1    2    0    0  0.00000000000E+00  0.00000000000E+00  0.13435249389E+04  0.15637120747E+04  0.80008511486E+03 0.  0.
        2    1    3    3  502    0 -0.25293776842E+03  0.18767869980E+03  0.18971360043E+03  0.36768472806E+03  0.25500000920E-02 0. -1.
       -2    1    3    3    0  502  0.25293776842E+03 -0.18767869980E+03  0.11538113384E+04  0.11960273466E+04  0.25500000920E-02 0.  1.
</event>
<event>
 5   0  0.1106332E-02  0.8007938E+03  0.7818609E-02  0.9558869E-01
        2   -1    0    0  501    0  0.00000000000E+00  0.00000000000E+00  0.72546581289E+03  0.72546581289E+03  0.25500000920E-02 0. -1.
       -2   -1    0    0    0  501  0.00000000000E+00  0.00000000000E+00 -0.22098585980E+03  0.22098585981E+03  0.25500000920E-02 0.  1.
    10030    2    1    2    0    0  0.00000000000E+00  0.00000000000E+00  0.50447995309E+03  0.94645167270E+03  0.80079382221E+03 0.  0.
        1    1    3    3  502    0 -0.32040586588E+03  0.30234916005E+02  0.53377746898E+03  0.62329162954E+03  0.50400001928E-02 0. -1.
       -1    1    3    3    0  502  0.32040586588E+03 -0.30234916005E+02 -0.29297515889E+02  0.32316004317E+03  0.50400001928E-02 0.  1.
</event>
<event>
 5   0  0.1154714E-02  0.7930335E+03  0.7818609E-02  0.9570156E-01
       -2   -1    0    0    0  501  0.00000000000E+00  0.00000000000E+00  0.24858210740E+03  0.24858210742E+03  0.25500000920E-02 0.  1.
        2   -1    0    0  501    0  0.00000000000E+00  0.00000000000E+00 -0.63248935788E+03  0.63248935788E+03  0.25500000920E-02 0. -1.
    10030    2    1    2    0    0  0.00000000000E+00  0.00000000000E+00 -0.38390725047E+03  0.88107146530E+03  0.79303351127E+03 0.  0.
        5    1    3    3  502    0 -0.21594707993E+03  0.26300035451E+03  0.34107372444E+02  0.34203469218E+03  0.46999998093E+01 0.  1.
       -5    1    3    3    0  502  0.21594707993E+03 -0.26300035451E+03 -0.41801462292E+03  0.53903677312E+03  0.46999998093E+01 0. -1.
</event>
<event>
 5   0  0.4385875E-03  0.7971931E+03  0.7818609E-02  0.9564089E-01
        3   -1    0    0  501    0  0.00000000000E+00  0.00000000000E+00  0.11942106543E+04  0.11942106586E+04  0.10100000352E+00 0. -1.
       -3   -1    0    0    0  501  0.00000000000E+00  0.00000000000E+00 -0.13304115570E+03  0.13304119403E+03  0.10100000352E+00 0.  1.
    10030    2    1    2    0    0  0.00000000000E+00  0.00000000000E+00  0.10611694986E+04  0.13272518526E+04  0.79719306034E+03 0.  0.
        4    1    3    3  502    0 -0.34437117821E+03 -0.71252100004E+02  0.84298974940E+03  0.91340117179E+03  0.12699999809E+01 0. -1.
       -4    1    3    3    0  502  0.34437117821E+03  0.71252100004E+02  0.21817974919E+03  0.41385068079E+03  0.12699999809E+01 0.  1.
</event>
<event>
 5   0  0.6517392E-03  0.7904737E+03  0.7818609E-02  0.9573909E-01
        1   -1    0    0  501    0  0.00000000000E+00  0.00000000000E+00  0.11697179087E+04  0.11697179087E+04  0.50400001928E-02 0.  1.
       -1   -1    0    0    0  501  0.00000000000E+00  0.00000000000E+00 -0.13354685978E+03  0.13354685987E+03  0.50400001928E-02 0. -1.
    10030    2    1    2    0    0  0.00000000000E+00  0.00000000000E+00  0.10361710489E+04  0.13032647685E+04  0.79047366458E+03 0.  0.
        3    1    3    3  502    0 -0.30198818386E+03 -0.18401114717E+03  0.80909716912E+03  0.88300351344E+03  0.10100000352E+00 0.  1.
       -3    1    3    3    0  502  0.30198818386E+03  0.18401114717E+03  0.22707387976E+03  0.42026125511E+03  0.10100000352E+00 0. -1.
</event>
<event>
 5   0  0.6596225E-03  0.7955216E+03  0.7818609E-02  0.9566522E-01
        1   -1    0    0  501    0  0.00000000000E+00  0.00000000000E+00  0.15254769586E+04  0.15254769586E+04  0.50400001928E-02 0.  1.
       -1   -1    0    0    0  501  0.00000000000E+00  0.00000000000E+00 -0.10371421374E+03  0.10371421387E+03  0.50400001928E-02 0. -1.
    10030    2    1    2    0    0  0.00000000000E+00  0.00000000000E+00  0.14217627448E+04  0.16291911724E+04  0.79552157343E+03 0.  0.
        5    1    3    3  502    0  0.31776734401E+03 -0.20375114421E+03  0.96749688743E+03  0.10385388442E+04  0.46999998093E+01 0.  1.
       -5    1    3    3    0  502 -0.31776734401E+03  0.20375114421E+03  0.45426585740E+03  0.59065232827E+03  0.46999998093E+01 0. -1.
</event>
<event>
 5   0  0.1106332E-02  0.7973973E+03  0.7818609E-02  0.9563792E-01
       -2   -1    0    0    0  501  0.00000000000E+00  0.00000000000E+00  0.27636704292E+03  0.27636704293E+03  0.25500000920E-02 0. -1.
        2   -1    0    0  501    0  0.00000000000E+00  0.00000000000E+00 -0.57517934446E+03  0.57517934447E+03  0.25500000920E-02 0.  1.
    10030    2    1    2    0    0  0.00000000000E+00  0.00000000000E+00 -0.29881230155E+03  0.85154638740E+03  0.79739730269E+03 0.  0.
        1    1    3    3  502    0  0.72862462183E+02 -0.28845341941E+03 -0.43284713383E+03  0.52523419048E+03  0.50400001928E-02 0.  1.
       -1    1    3    3    0  502 -0.72862462183E+02  0.28845341941E+03  0.13403483228E+03  0.32631219692E+03  0.50400001928E-02 0. -1.
</event>
<event>
 5   0  0.1119792E-02  0.7995088E+03  0.7818609E-02  0.9560728E-01
        2   -1    0    0  501    0  0.00000000000E+00  0.00000000000E+00  0.22649268730E+03  0.22649268731E+03  0.25500000920E-02 0. -1.
       -2   -1    0    0    0  501  0.00000000000E+00  0.00000000000E+00 -0.70555729764E+03  0.70555729764E+03  0.25500000920E-02 0.  1.
    10030    2    1    2    0    0  0.00000000000E+00  0.00000000000E+00 -0.47906461034E+03  0.93204998496E+03  0.79950877017E+03 0.  0.
        4    1    3    3  502    0 -0.23123285986E+03  0.35446734640E+02  0.13836125602E+03  0.27179138423E+03  0.12699999809E+01 0. -1.
       -4    1    3    3    0  502  0.23123285986E+03 -0.35446734640E+02 -0.61742586636E+03  0.66025860072E+03  0.12699999809E+01 0.  1.
</event>
<event>
 5   0  0.4385875E-03  0.7887461E+03  0.7818609E-02  0.9576451E-01
        4   -1    0    0  501    0  0.00000000000E+00  0.00000000000E+00  0.51854945982E+03  0.51855101502E+03  0.12699999809E+01 0.  1.
       -4   -1    0    0    0  501  0.00000000000E+00  0.00000000000E+00 -0.29992969856E+03  0.29993238735E+03  0.12699999809E+01 0. -1.
    10030    2    1    2    0    0  0.00000000000E+00  0.00000000000E+00  0.21861976126E+03  0.81848340237E+03  0.78874614417E+03 0.  0.
        1    1    3    3  502    0 -0.10266105705E+03 -0.17310738621E+03 -0.24262969597E+03  0.31523741718E+03  0.50400001928E-02 0. -1.
       -1    1    3    3    0  502  0.10266105705E+03  0.17310738621E+03  0.46124945723E+03  0.50324598519E+03  0.50400001928E-02 0.  1.
</event>
<event>
 5   0  0.6551489E-03  0.7713425E+03  0.7818609E-02  0.9602450E-01
        1   -1    0    0  501    0  0.00000000000E+00  0.00000000000E+00  0.11408671427E+04  0.11408671427E+04  0.50400001928E-02 0. -1.
       -1   -1    0    0    0  501  0.00000000000E+00  0.00000000000E+00 -0.13037654703E+03  0.13037654712E+03  0.50400001928E-02 0.  1.
    10030    2    1    2    0    0  0.00000000000E+00  0.00000000000E+00  0.10104905956E+04  0.12712436898E+04  0.77134251469E+03 0.  0.
        4    1    3    3  502    0 -0.25196002656E+03  0.11110508492E+03  0.60222183964E+02  0.28188032783E+03  0.12699999809E+01 0.  1.
       -4    1    3    3    0  502  0.25196002656E+03 -0.11110508492E+03  0.95026841167E+03  0.98936336196E+03  0.12699999809E+01 0. -1.
</event>
<event>
 5   0  0.1092868E-02  0.7961203E+03  0.7818609E-02  0.9565650E-01
        2   -1    0    0  501    0  0.00000000000E+00  0.00000000000E+00  0.29979219009E+04  0.29979219009E+04  0.25500000920E-02 0.  1.
       -2   -1    0    0    0  501  0.00000000000E+00  0.00000000000E+00 -0.52853903023E+02  0.52853903085E+02  0.25500000920E-02 0. -1.
    10030    2    1    2    0    0  0.00000000000E+00  0.00000000000E+00  0.29450679979E+04  0.30507758040E+04  0.79612027614E+03 0.  0.
        3    1    3    3  502    0 -0.12855632198E+03 -0.35120191244E+03  0.19949084776E+04  0.20296623747E+04  0.10100000352E+00 0. -1.
       -3    1    3    3    0  502  0.12855632198E+03  0.35120191244E+03  0.95015952034E+03  0.10211134293E+04  0.10100000352E+00 0.  1.
</event>
<event>
 5   0  0.6557679E-03  0.7749298E+03  0.7818609E-02  0.9597031E-01
       -1   -1    0    0    0  501  0.00000000000E+00  0.00000000000E+00  0.95368725190E+02  0.95368725323E+02  0.50400001928E-02 0. -1.
        1   -1    0    0  501    0  0.00000000000E+00  0.00000000000E+00 -0.15741959909E+04  0.15741959909E+04  0.50400001928E-02 0.  1.
    10030    2    1    2    0    0  0.00000000000E+00  0.00000000000E+00 -0.14788272657E+04  0.16695647162E+04  0.77492984191E+03 0.  0.
        1    1    3    3  502    0  0.25361594522E+03  0.82925639721E+01 -0.13702703247E+04  0.13935675718E+04  0.50400001928E-02 0.  1.
       -1    1    3    3    0  502 -0.25361594522E+03 -0.82925639721E+01 -0.10855694100E+03  0.27599714446E+03  0.50400001928E-02 0. -1.
</event>
<event>
 5   0  0.1154714E-02  0.8034821E+03  0.7818609E-02  0.9554991E-01
       -2   -1    0    0    0  501  0.00000000000E+00  0.00000000000E+00  0.11029291918E+03  0.11029291920E+03  0.25500000920E-02 0.  1.
        2   -1    0    0  501    0  0.00000000000E+00  0.00000000000E+00 -0.14633383418E+04  0.14633383418E+04  0.25500000920E-02 0. -1.
    10030    2    1    2    0    0  0.00000000000E+00  0.00000000000E+00 -0.13530454227E+04  0.15736312610E+04  0.80348206573E+03 0.  0.
        5    1    3    3  502    0 -0.20429657822E+03  0.28174000605E+03 -0.10694928933E+04  0.11247006987E+04  0.46999998093E+01 0. -1.
       -5    1    3    3    0  502  0.20429657822E+03 -0.28174000605E+03 -0.28355252935E+03  0.44893056231E+03  0.46999998093E+01 0.  1.
</event>
<event>
 5   0  0.6600401E-03  0.8022428E+03  0.7818609E-02  0.9556776E-01
        1   -1    0    0  501    0  0.00000000000E+00  0.00000000000E+00  0.24858532242E+03  0.24858532247E+03  0.50400001928E-02 0.  1.
       -1   -1    0    0    0  501  0.00000000000E+00  0.00000000000E+00 -0.64725616130E+03  0.64725616132E+03  0.50400001928E-02 0. -1.
    10030    2    1    2    0    0  0.00000000000E+00  0.00000000000E+00 -0.39867083888E+03  0.89584148379E+03  0.80224281007E+03 0.  0.
        2    1    3    3  502    0 -0.28822597749E+03  0.12627553819E+03 -0.47711209238E+03  0.57153799029E+03  0.25500000920E-02 0. -1.
       -2    1    3    3    0  502  0.28822597749E+03 -0.12627553819E+03  0.78441253494E+02  0.32430349351E+03  0.25500000920E-02 0.  1.
</event>
<event>
 5   0  0.1106332E-02  0.7997300E+03  0.7818609E-02  0.9560408E-01
       -2   -1    0    0    0  501  0.00000000000E+00  0.00000000000E+00  0.61073483810E+02  0.61073483863E+02  0.25500000920E-02 0. -1.
        2   -1    0    0  501    0  0.00000000000E+00  0.00000000000E+00 -0.26180267600E+04  0.26180267600E+04  0.25500000920E-02 0.  1.
    10030    2    1    2    0    0  0.00000000000E+00  0.00000000000E+00 -0.25569532762E+04  0.26791002439E+04  0.79972999197E+03 0.  0.
        1    1    3    3  502    0 -0.39940773962E+03 -0.82054322637E+00 -0.12144924684E+04  0.12784831526E+04  0.50400001928E-02 0. -1.
       -1    1    3    3    0  502  0.39940773962E+03  0.82054322637E+00 -0.13424608079E+04  0.14006170913E+04  0.50400001928E-02 0.  1.
</event>
<event>
 5   0  0.1121480E-02  0.8047672E+03  0.7818609E-02  0.9553142E-01
       -2   -1    0    0    0  501  0.00000000000E+00  0.00000000000E+00  0.14045205859E+03  0.14045205861E+03  0.25500000920E-02 0. -1.
        2   -1    0    0  501    0  0.00000000000E+00  0.00000000000E+00 -0.11527957989E+04  0.11527957989E+04  0.25500000920E-02 0.  1.
    10030    2    1    2    0    0  0.00000000000E+00  0.00000000000E+00 -0.10123437403E+04  0.12932478575E+04  0.80476715414E+03 0.  0.
        2    1    3    3  502    0 -0.34319686162E+03 -0.15893922429E+03 -0.28544234940E+03  0.47383868319E+03  0.25500000920E-02 0. -1.
       -2    1    3    3    0  502  0.34319686162E+03  0.15893922429E+03 -0.72690139087E+03  0.81940917428E+03  0.25500000920E-02 0.  1.
</event>
<event>
 5   0  0.6596225E-03  0.8011392E+03  0.7818609E-02  0.9558370E-01
       -1   -1    0    0    0  501  0.00000000000E+00  0.00000000000E+00  0.65010048160E+03  0.65010048162E+03  0.50400001928E-02 0.  1.
        1   -1    0    0  501    0  0.00000000000E+00  0.00000000000E+00 -0.24681725313E+03  0.24681725318E+03  0.50400001928E-02 0. -1.
    10030    2    1    2    0    0  0.00000000000E+00  0.00000000000E+00  0.40328322847E+03  0.89691773480E+03  0.80113922674E+03 0.  0.
        5    1    3    3  502    0  0.35843901926E+03  0.11589575525E+03  0.49268991532E+02  0.37994720704E+03  0.46999998093E+01 0.  1.
       -5    1    3    3    0  502 -0.35843901926E+03 -0.11589575525E+03  0.35401423694E+03  0.51697052776E+03  0.46999998093E+01 0. -1.
</event>
<event>
 5   0  0.6551489E-03  0.7927232E+03  0.7818609E-02  0.9570610E-01
        1   -1    0    0  501    0  0.00000000000E+00  0.00000000000E+00  0.82699419856E+03  0.82699419857E+03  0.50400001928E-02 0. -1.
       -1   -1    0    0    0  501  0.00000000000E+00  0.00000000000E+00 -0.18996811037E+03  0.18996811044E+03  0.50400001928E-02 0.  1.
    10030    2    1    2    0    0  0.00000000000E+00  0.00000000000E+00  0.63702608818E+03  0.10169623090E+04  0.79272321836E+03 0.  0.
        4    1    3    3  502    0 -0.26660639521E+03 -0.29304835190E+03  0.33393985478E+03  0.51814452234E+03  0.12699999809E+01 0.  1.
       -4    1    3    3    0  502  0.26660639521E+03  0.29304835190E+03  0.30308623340E+03  0.49881778667E+03  0.12699999809E+01 0. -1.
</event>
<event>
 5   0  0.4385875E-03  0.7968955E+03  0.7818609E-02  0.9564522E-01
        3   -1    0    0  501    0  0.00000000000E+00  0.00000000000E+00  0.16647984939E+04  0.16647984970E+04  0.10100000352E+00 0. -1.
       -3   -1    0    0    0  501  0.00000000000E+00  0.00000000000E+00 -0.95363231060E+02  0.95363284545E+02  0.10100000352E+00 0.  1.
    10030    2    1    2    0    0  0.00000000000E+00  0.00000000000E+00  0.15694352629E+04  0.17601617815E+04  0.79689550937E+03 0.  0.
        2    1    3    3  502    0 -0.23054124052E+03 -0.32173149394E+03  0.68349419849E+03  0.78982576379E+03  0.25500000920E-02 0. -1.
       -2    1    3    3    0  502  0.23054124052E+03  0.32173149394E+03  0.88594106438E+03  0.97033601775E+03  0.25500000920E-02 0.  1.
</event>
<event>
 5   0  0.1119792E-02  0.8036309E+03  0.7818609E-02  0.9554776E-01
       -2   -1    0    0    0  501  0.00000000000E+00  0.00000000000E+00  0.14776569220E+03  0.14776569222E+03  0.25500000920E-02 0.  1.
        2   -1    0    0  501    0  0.00000000000E+00  0.00000000000E+00 -0.10926463221E+04  0.10926463221E+04  0.25500000920E-02 0. -1.
    10030    2    1    2    0    0  0.00000000000E+00  0.00000000000E+00 -0.94488062990E+03  0.12404120143E+04  0.80363086087E+03 0.  0.
        4    1    3    3  502    0 -0.26339633359E+03  0.11753579520E+03 -0.90424176385E+03  0.94912963924E+03  0.12699999809E+01 0. -1.
       -4    1    3    3    0  502  0.26339633359E+03 -0.11753579520E+03 -0.40638866054E+02  0.29128237509E+03  0.12699999809E+01 0.  1.
</event>
<event>
 5   0  0.1154714E-02  0.7982944E+03  0.7818609E-02  0.9562489E-01
       -2   -1    0    0    0  501  0.00000000000E+00  0.00000000000E+00  0.26659585021E+03  0.26659585022E+03  0.25500000920E-02 0.  1.
        2   -1    0    0  501    0  0.00000000000E+00  0.00000000000E+00 -0.59760304891E+03  0.59760304892E+03  0.25500000920E-02 0. -1.
    10030    2    1    2    0    0  0.00000000000E+00  0.00000000000E+00 -0.33100719871E+03  0.86419889914E+03  0.79829441416E+03 0.  0.
        5    1    3    3  502    0  0.18104843583E+03 -0.10056568819E+03 -0.53485124390E+03  0.57356772648E+03  0.46999998093E+01 0. -1.
       -5    1    3    3    0  502 -0.18104843583E+03  0.10056568819E+03  0.20384404520E+03  0.29063117266E+03  0.46999998093E+01 0.  1.
</event>
<event>
 5   0  0.6551489E-03  0.7784989E+03  0.7818609E-02  0.9591671E-01
       -1   -1    0    0    0  501  0.00000000000E+00  0.00000000000E+00  0.14139077664E+03  0.14139077673E+03  0.50400001928E-02 0. -1.
        1   -1    0    0  501    0  0.00000000000E+00  0.00000000000E+00 -0.10716054462E+04  0.10716054462E+04  0.50400001928E-02 0.  1.
    10030    2    1    2    0    0  0.00000000000E+00  0.00000000000E+00 -0.93021466955E+03  0.12129962229E+04  0.77849887950E+03 0.  0.
        4    1    3    3  502    0 -0.25977590238E+03 -0.10615074178E+03 -0.44812732525E+02  0.28418531513E+03  0.12699999809E+01 0. -1.
       -4    1    3    3    0  502  0.25977590238E+03  0.10615074178E+03 -0.88540193703E+03  0.92881090779E+03  0.12699999809E+01 0.  1.
</event>
<event>
 5   0  0.1119792E-02  0.8037235E+03  0.7818609E-02  0.9554643E-01
       -2   -1    0    0    0  501  0.00000000000E+00  0.00000000000E+00  0.45290868447E+03  0.45290868448E+03  0.25500000920E-02 0.  1.
        2   -1    0    0  501    0  0.00000000000E+00  0.00000000000E+00 -0.35656829374E+03  0.35656829375E+03  0.25500000920E-02 0. -1.
    10030    2    1    2    0    0  0.00000000000E+00  0.00000000000E+00  0.96340390731E+02  0.80947697823E+03  0.80372352672E+03 0.  0.
        4    1    3    3  502    0 -0.43004087884E+02 -0.60281454479E+02 -0.34963581160E+03  0.35739336729E+03  0.12699999809E+01 0. -1.
       -4    1    3    3    0  502  0.43004087884E+02  0.60281454479E+02  0.44597620233E+03  0.45208361094E+03  0.12699999809E+01 0.  1.
</event>
<event>
 5   0  0.4385875E-03  0.8030976E+03  0.7818609E-02  0.9555544E-01
       -3   -1    0    0    0  501  0.00000000000E+00  0.00000000000E+00  0.46594295196E+03  0.46594296291E+03  0.10100000352E+00 0.  1.
        3   -1    0    0  501    0  0.00000000000E+00  0.00000000000E+00 -0.34605399613E+03  0.34605401087E+03  0.10100000352E+00 0. -1.
    10030    2    1    2    0    0  0.00000000000E+00  0.00000000000E+00  0.11988895583E+03  0.81199697377E+03  0.80309758042E+03 0.  0.
        2    1    3    3  502    0  0.23371780712E+02  0.37756604301E+03 -0.76229350942E+02  0.38589282310E+03  0.25500000920E-02 0. -1.
       -2    1    3    3    0  502 -0.23371780712E+02 -0.37756604301E+03  0.19611830678E+03  0.42610415068E+03  0.25500000920E-02 0.  1.
</event>
<event>
 5   0  0.6517392E-03  0.7683179E+03  0.7818609E-02  0.9607043E-01
       -1   -1    0    0    0  501  0.00000000000E+00  0.00000000000E+00  0.10392354026E+03  0.10392354038E+03  0.50400001928E-02 0. -1.
        1   -1    0    0  501    0  0.00000000000E+00  0.00000000000E+00 -0.14200641377E+04  0.14200641377E+04  0.50400001928E-02 0.  1.
    10030    2    1    2    0    0  0.00000000000E+00  0.00000000000E+00 -0.13161405975E+04  0.15239876781E+04  0.76831788392E+03 0.  0.
        3    1    3    3  502    0  0.86221687754E+02 -0.14713243412E+03  0.24727742700E+02  0.17231832192E+03  0.10100000352E+00 0. -1.
       -3    1    3    3    0  502 -0.86221687754E+02  0.14713243412E+03 -0.13408683402E+04  0.13516693562E+04  0.10100000352E+00 0.  1.
</event>
<event>
 5   0  0.6600401E-03  0.7982953E+03  0.7818609E-02  0.9562488E-01
        1   -1    0    0  501    0  0.00000000000E+00  0.00000000000E+00  0.61423681182E+03  0.61423681184E+03  0.50400001928E-02 0.  1.
       -1   -1    0    0    0  501  0.00000000000E+00  0.00000000000E+00 -0.25937690989E+03  0.25937690994E+03  0.50400001928E-02 0. -1.
    10030    2    1    2    0    0  0.00000000000E+00  0.00000000000E+00  0.35485990193E+03  0.87361372177E+03  0.79829529929E+03 0.  0.
        2    1    3    3  502    0  0.31193708255E+03 -0.19175928970E+03  0.35129883406E+03  0.50743200477E+03  0.25500000920E-02 0.  1.
       -2    1    3    3    0  502 -0.31193708255E+03  0.19175928970E+03  0.35610678708E+01  0.36618171700E+03  0.25500000920E-02 0. -1.
</event>
<event>
 5   0  0.6600401E-03  0.7998195E+03  0.7818609E-02  0.9560278E-01
       -1   -1    0    0    0  501  0.00000000000E+00  0.00000000000E+00  0.45576034406E+03  0.45576034408E+03  0.50400001928E-02 0. -1.
        1   -1    0    0  501    0  0.00000000000E+00  0.00000000000E+00 -0.35090330975E+03  0.35090330979E+03  0.50400001928E-02 0.  1.
    10030    2    1    2    0    0  0.00000000000E+00  0.00000000000E+00  0.10485703431E+03  0.80666365387E+03  0.79981951266E+03 0.  0.
        2    1    3    3  502    0 -0.19858445312E+03  0.27302564829E+03 -0.16376299416E+03  0.37522940704E+03  0.25500000920E-02 0.  1.
       -2    1    3    3    0  502  0.19858445312E+03 -0.27302564829E+03  0.26862002847E+03  0.43143424683E+03  0.25500000920E-02 0. -1.
</event>
<event>
 5   0  0.6557679E-03  0.7978061E+03  0.7818609E-02  0.9563198E-01
        1   -1    0    0  501    0  0.00000000000E+00  0.00000000000E+00  0.17680079230E+04  0.17680079230E+04  0.50400001928E-02 0.  1.
       -1   -1    0    0    0  501  0.00000000000E+00  0.00000000000E+00 -0.90001659082E+02  0.90001659223E+02  0.50400001928E-02 0. -1.
    10030    2    1    2    0    0  0.00000000000E+00  0.00000000000E+00  0.16780062639E+04  0.18580095822E+04  0.79780610796E+03 0.  0.
        1    1    3    3  502    0  0.49714014289E+02 -0.49451182149E+02 -0.75535963800E+02  0.10306592301E+03  0.50400001928E-02 0. -1.
       -1    1    3    3    0  502 -0.49714014289E+02  0.49451182149E+02  0.17535422277E+04  0.17549436592E+04  0.50400001928E-02 0.  1.
</event>
<event>
 5   0  0.6596225E-03  0.7908126E+03  0.7818609E-02  0.9573411E-01
        1   -1    0    0  501    0  0.00000000000E+00  0.00000000000E+00  0.19690739869E+03  0.19690739875E+03  0.50400001928E-02 0. -1.
       -1   -1    0    0    0  501  0.00000000000E+00  0.00000000000E+00 -0.79400850475E+03  0.79400850477E+03  0.50400001928E-02 0.  1.
    10030    2    1    2    0    0  0.00000000000E+00  0.00000000000E+00 -0.59710110606E+03  0.99091590352E+03  0.79081261812E+03 0.  0.
        5    1    3    3  502    0 -0.26231941550E+03  0.27467042459E+03 -0.43620625278E+03  0.57840582885E+03  0.46999998093E+01 0.  1.
       -5    1    3    3    0  502  0.26231941550E+03 -0.27467042459E+03 -0.16089485328E+03  0.41251007466E+03  0.46999998093E+01 0. -1.
</event>
<event>
 5   0  0.6600401E-03  0.7996880E+03  0.7818609E-02  0.9560469E-01
       -1   -1    0    0    0  501  0.00000000000E+00  0.00000000000E+00  0.65499627239E+03  0.65499627241E+03  0.50400001928E-02 0. -1.
        1   -1    0    0  501    0  0.00000000000E+00  0.00000000000E+00 -0.24408568623E+03  0.24408568628E+03  0.50400001928E-02 0.  1.
    10030    2    1    2    0    0  0.00000000000E+00  0.00000000000E+00  0.41091058616E+03  0.89908195869E+03  0.79968797579E+03 0.  0.
        2    1    3    3  502    0 -0.29370360689E+03 -0.14430049972E+02 -0.99153243306E+02  0.31032466984E+03  0.25500000920E-02 0.  1.
       -2    1    3    3    0  502  0.29370360689E+03  0.14430049972E+02  0.51006382946E+03  0.58875728885E+03  0.25500000920E-02 0. -1.
</event>
<event>
 5   0  0.1119792E-02  0.8085922E+03  0.7818609E-02  0.9547663E-01
       -2   -1    0    0    0  501  0.00000000000E+00  0.00000000000E+00  0.82808571282E+02  0.82808571321E+02  0.25500000920E-02 0. -1.
        2   -1    0    0  501    0  0.00000000000E+00  0.00000000000E+00 -0.19738938995E+04  0.19738938995E+04  0.25500000920E-02 0.  1.
    10030    2    1    2    0    0  0.00000000000E+00  0.00000000000E+00 -0.18910853282E+04  0.20567024708E+04  0.80859219319E+03 0.  0.
        4    1    3    3  502    0 -0.81394538726E+02 -0.39582399309E+03 -0.97690346366E+03  0.10571866886E+04  0.12699999809E+01 0.  1.
       -4    1    3    3    0  502  0.81394538726E+02  0.39582399309E+03 -0.91418186455E+03  0.99951578217E+03  0.12699999809E+01 0. -1.
</event>
<event>
 5   0  0.1119792E-02  0.7899597E+03  0.7818609E-02  0.9574665E-01
        2   -1    0    0  501    0  0.00000000000E+00  0.00000000000E+00  0.18026361286E+04  0.18026361286E+04  0.25500000920E-02 0. -1.
       -2   -1    0    0    0  501  0.00000000000E+00  0.00000000000E+00 -0.86544962163E+02  0.86544962201E+02  0.25500000920E-02 0.  1.
    10030    2    1    2    0    0  0.00000000000E+00  0.00000000000E+00  0.17160911664E+04  0.18891810908E+04  0.78995968399E+03 0.  0.
        4    1    3    3  502    0  0.27807876028E+03 -0.18754214625E+03  0.35921706793E+03  0.49146553117E+03  0.12699999809E+01 0.  1.
       -4    1    3    3    0  502 -0.27807876028E+03  0.18754214625E+03  0.13568740985E+04  0.13977155596E+04  0.12699999809E+01 0. -1.
</event>
<event>
 5   0  0.1106332E-02  0.8069463E+03  0.7818609E-02  0.9550017E-01
       -2   -1    0    0    0  501  0.00000000000E+00  0.00000000000E+00  0.24313875104E+03  0.24313875105E+03  0.25500000920E-02 0. -1.
        2   -1    0    0  501    0  0.00000000000E+00  0.00000000000E+00 -0.66953774775E+03  0.66953774776E+03  0.25500000920E-02 0.  1.
    10030    2    1    2    0    0  0.00000000000E+00  0.00000000000E+00 -0.42639899672E+03  0.91267649881E+03  0.80694627273E+03 0.  0.
        1    1    3    3  502    0  0.79043280370E+02  0.36583652322E+03 -0.38362952092E+03  0.53596250918E+03  0.50400001928E-02 0.  1.
       -1    1    3    3    0  502 -0.79043280370E+02 -0.36583652322E+03 -0.42769475797E+02  0.37671398963E+03  0.50400001928E-02 0. -1.
</event>
<event>
 5   0  0.6551489E-03  0.8003758E+03  0.7818609E-02  0.9559473E-01
        1   -1    0    0  501    0  0.00000000000E+00  0.00000000000E+00  0.15187537016E+04  0.15187537016E+04  0.50400001928E-02 0. -1.
       -1   -1    0    0    0  501  0.00000000000E+00  0.00000000000E+00 -0.10544854602E+03  0.10544854614E+03  0.50400001928E-02 0.  1.
    10030    2    1    2    0    0  0.00000000000E+00  0.00000000000E+00  0.14133051556E+04  0.16242022477E+04  0.80037583597E+03 0.  0.
        4    1    3    3  502    0  0.14019673491E+03  0.16257952347E+03  0.13920078165E+04  0.14084653351E+04  0.12699999809E+01 0. -1.
       -4    1    3    3    0  502 -0.14019673491E+03 -0.16257952347E+03  0.21297339028E+02  0.21573691265E+03  0.12699999809E+01 0.  1.
</event>
<event>
 5   0  0.6551489E-03  0.7969069E+03  0.7818609E-02  0.9564505E-01
        1   -1    0    0  501    0  0.00000000000E+00  0.00000000000E+00  0.55482927399E+03  0.55482927401E+03  0.50400001928E-02 0. -1.
       -1   -1    0    0    0  501  0.00000000000E+00  0.00000000000E+00 -0.28615138947E+03  0.28615138951E+03  0.50400001928E-02 0.  1.
    10030    2    1    2    0    0  0.00000000000E+00  0.00000000000E+00  0.26867788452E+03  0.84098066353E+03  0.79690693986E+03 0.  0.
        4    1    3    3  502    0 -0.15985152461E+02  0.38369697757E+03  0.24644333318E+03  0.45630562682E+03  0.12699999809E+01 0.  1.
       -4    1    3    3    0  502  0.15985152461E+02 -0.38369697757E+03  0.22234551335E+02  0.38467503671E+03  0.12699999809E+01 0. -1.
</event>
<event>
 5   0  0.1154714E-02  0.7865936E+03  0.7818609E-02  0.9579628E-01
       -2   -1    0    0    0  501  0.00000000000E+00  0.00000000000E+00  0.77185756405E+03  0.77185756406E+03  0.25500000920E-02 0.  1.
        2   -1    0    0  501    0  0.00000000000E+00  0.00000000000E+00 -0.20040274915E+03  0.20040274916E+03  0.25500000920E-02 0. -1.
    10030    2    1    2    0    0  0.00000000000E+00  0.00000000000E+00  0.57145481490E+03  0.97226031322E+03  0.78659361248E+03 0.  0.
        5    1    3    3  502    0 -0.28158837884E+02 -0.28582516725E+03 -0.46331039155E+02  0.29095979373E+03  0.46999998093E+01 0. -1.
       -5    1    3    3    0  502  0.28158837884E+02  0.28582516725E+03  0.61778585406E+03  0.68130051949E+03  0.46999998093E+01 0.  1.
</event>
<event>
 5   0  0.6596225E-03  0.7990375E+03  0.7818609E-02  0.9561411E-01
       -1   -1    0    0    0  501  0.00000000000E+00  0.00000000000E+00  0.18031188946E+03  0.18031188953E+03  0.50400001928E-02 0. -1.
        1   -1    0    0  501    0  0.00000000000E+00  0.00000000000E+00 -0.88521738601E+03  0.88521738603E+03  0.50400001928E-02 0.  1.
    10030    2    1    2    0    0  0.00000000000E+00  0.00000000000E+00 -0.70490549656E+03  0.10655292756E+04  0.79903746971E+03 0.  0.
        5    1    3    3  502    0  0.25684111935E+03  0.35814550894E+02  0.52776174558E+02  0.26468369282E+03  0.46999998093E+01 0. -1.
       -5    1    3    3    0  502 -0.25684111935E+03 -0.35814550894E+02 -0.75768167111E+03  0.80084558273E+03  0.46999998093E+01 0.  1.
</event>
<event>
 5   0  0.6596225E-03  0.7985452E+03  0.7818609E-02  0.9562125E-01
       -1   -1    0    0    0  501  0.00000000000E+00  0.00000000000E+00  0.22516669157E+03  0.22516669162E+03  0.50400001928E-02 0. -1.
        1   -1    0    0  501    0  0.00000000000E+00  0.00000000000E+00 -0.70800259953E+03  0.70800259955E+03  0.50400001928E-02 0.  1.
    10030    2    1    2    0    0  0.00000000000E+00  0.00000000000E+00 -0.48283590796E+03  0.93316929117E+03  0.79854518467E+03 0.  0.
        5    1    3    3  502    0  0.20572500018E+03 -0.21686916589E+03 -0.55068857704E+03  0.62660594451E+03  0.46999998093E+01 0.  1.
       -5    1    3    3    0  502 -0.20572500018E+03  0.21686916589E+03  0.67852669082E+02  0.30656334666E+03  0.46999998093E+01 0. -1.
</event>
<event>
 5   0  0.1121480E-02  0.7936089E+03  0.7818609E-02  0.9569314E-01
        2   -1    0    0  501    0  0.00000000000E+00  0.00000000000E+00  0.21086300264E+03  0.21086300265E+03  0.25500000920E-02 0.  1.
       -2   -1    0    0    0  501  0.00000000000E+00  0.00000000000E+00 -0.74671122041E+03  0.74671122042E+03  0.25500000920E-02 0. -1.
    10030    2    1    2    0    0  0.00000000000E+00  0.00000000000E+00 -0.53584821778E+03  0.95757422307E+03  0.79360889624E+03 0.  0.
        2    1    3    3  502    0 -0.39018623840E+03  0.42475771476E+02 -0.33832504660E+03  0.51818271774E+03  0.25500000920E-02 0. -1.
       -2    1    3    3    0  502  0.39018623840E+03 -0.42475771476E+02 -0.19752317117E+03  0.43939150533E+03  0.25500000920E-02 0.  1.
</event>
<event>
 5   0  0.6517392E-03  0.8021386E+03  0.7818609E-02  0.9556927E-01
        1   -1    0    0  501    0  0.00000000000E+00  0.00000000000E+00  0.44097867348E+03  0.44097867351E+03  0.50400001928E-02 0.  1.
       -1   -1    0    0    0  501  0.00000000000E+00  0.00000000000E+00 -0.36477175341E+03  0.36477175344E+03  0.50400001928E-02 0. -1.
    10030    2    1    2    0    0  0.00000000000E+00  0.00000000000E+00  0.76206920068E+02  0.80575042695E+03  0.80213855154E+03 0.  0.
        3    1    3    3  502    0 -0.37606667302E+03  0.13405277011E+03  0.76488955095E+02  0.40650566809E+03  0.10100000352E+00 0.  1.
       -3    1    3    3    0  502  0.37606667302E+03 -0.13405277011E+03 -0.28203502673E+00  0.39924475886E+03  0.10100000352E+00 0. -1.
</event>
<event>
 5   0  0.1092868E-02  0.8157074E+03  0.7818609E-02  0.9537556E-01
       -2   -1    0    0    0  501  0.00000000000E+00  0.00000000000E+00  0.24093816895E+03  0.24093816897E+03  0.25500000920E-02 0. -1.
        2   -1    0    0  501    0  0.00000000000E+00  0.00000000000E+00 -0.69040386491E+03  0.69040386491E+03  0.25500000920E-02 0.  1.
    10030    2    1    2    0    0  0.00000000000E+00  0.00000000000E+00 -0.44946569595E+03  0.93134203388E+03  0.81570740602E+03 0.  0.
        3    1    3    3  502    0  0.37307396408E+03  0.11918670414E+02 -0.37058646792E+02  0.37509944132E+03  0.10100000352E+00 0. -1.
       -3    1    3    3    0  502 -0.37307396408E+03 -0.11918670414E+02 -0.41240704916E+03  0.55624259256E+03  0.10100000352E+00 0.  1.
</event>
<event>
 5   0  0.4385875E-03  0.7952020E+03  0.7818609E-02  0.9566988E-01
       -3   -1    0    0    0  501  0.00000000000E+00  0.00000000000E+00  0.50628880535E+03  0.50628881542E+03  0.10100000352E+00 0.  1.
        3   -1    0    0  501    0  0.00000000000E+00  0.00000000000E+00 -0.31224581915E+03  0.31224583549E+03  0.10100000352E+00 0. -1.
    10030    2    1    2    0    0  0.00000000000E+00  0.00000000000E+00  0.19404298620E+03  0.81853465091E+03  0.79520204618E+03 0.  0.
        2    1    3    3  502    0 -0.10284103685E+03  0.23023089576E+03 -0.21941367408E+03  0.33425275557E+03  0.25500000920E-02 0.  1.
       -2    1    3    3    0  502  0.10284103685E+03 -0.23023089576E+03  0.41345666028E+03  0.48428189534E+03  0.25500000920E-02 0. -1.
</event>
<event>
 5   0  0.1119792E-02  0.8005942E+03  0.7818609E-02  0.9559157E-01
        2   -1    0    0  501    0  0.00000000000E+00  0.00000000000E+00  0.34645162082E+03  0.34645162083E+03  0.25500000920E-02 0.  1.
       -2   -1    0    0    0  501  0.00000000000E+00  0.00000000000E+00 -0.46251126866E+03  0.46251126867E+03  0.25500000920E-02 0. -1.
    10030    2    1    2    0    0  0.00000000000E+00  0.00000000000E+00 -0.11605964784E+03  0.80896288950E+03  0.80059422601E+03 0.  0.
        4    1    3    3  502    0 -0.33198635593E+03  0.21757782303E+03 -0.11035057415E+03  0.41198775675E+03  0.12699999809E+01 0.  1.
       -4    1    3    3    0  502  0.33198635593E+03 -0.21757782303E+03 -0.57090736866E+01  0.39697513275E+03  0.12699999809E+01 0. -1.
</event>
<event>
 5   0  0.1119792E-02  0.7969906E+03  0.7818609E-02  0.9564383E-01
       -2   -1    0    0    0  501  0.00000000000E+00  0.00000000000E+00  0.18707106499E+03  0.18707106500E+03  0.25500000920E-02 0.  1.
        2   -1    0    0  501    0  0.00000000000E+00  0.00000000000E+00 -0.84886730955E+03  0.84886730956E+03  0.25500000920E-02 0. -1.
    10030    2    1    2    0    0  0.00000000000E+00  0.00000000000E+00 -0.66179624457E+03  0.10359383746E+04  0.79699061887E+03 0.  0.
        4    1    3    3  502    0 -0.61372683826E+02  0.93606988743E+02 -0.82801145235E+03  0.83554380662E+03  0.12699999809E+01 0. -1.
       -4    1    3    3    0  502  0.61372683826E+02 -0.93606988743E+02  0.16621520778E+03  0.20039456794E+03  0.12699999809E+01 0.  1.
</event>
<event>
 5   0  0.6600401E-03  0.7982970E+03  0.7818609E-02  0.9562485E-01
       -1   -1    0    0    0  501  0.00000000000E+00  0.00000000000E+00  0.25566940662E+03  0.25566940667E+03  0.50400001928E-02 0.  1.
        1   -1    0    0  501    0  0.00000000000E+00  0.00000000000E+00 -0.62314653632E+03  0.62314653634E+03  0.50400001928E-02 0. -1.
    10030    2    1    2    0    0  0.00000000000E+00  0.00000000000E+00 -0.36747712969E+03  0.87881594301E+03  0.79829695029E+03 0.  0.
        2    1    3    3  502    0  0.14785785675E+01  0.35507604798E+03  0.16964028295E+02  0.35548412666E+03  0.25500000920E-02 0.  1.
       -2    1    3    3    0  502 -0.14785785675E+01 -0.35507604798E+03 -0.38444115799E+03  0.52333181635E+03  0.25500000920E-02 0. -1.
</event>
<event>
 5   0  0.1106332E-02  0.8057641E+03  0.7818609E-02  0.9551711E-01
        2   -1    0    0  501    0  0.00000000000E+00  0.00000000000E+00  0.19102907842E+03  0.19102907844E+03  0.25500000920E-02 0.  1.
       -2   -1    0    0    0  501  0.00000000000E+00  0.00000000000E+00 -0.84968197212E+03  0.84968197212E+03  0.25500000920E-02 0. -1.
    10030    2    1    2    0    0  0.00000000000E+00  0.00000000000E+00 -0.65865289370E+03  0.10407110506E+04  0.80576414439E+03 0.  0.
        1    1    3    3  502    0  0.29808243217E+03 -0.25962969444E+03 -0.42981498179E+03  0.58395345122E+03  0.50400001928E-02 0. -1.
       -1    1    3    3    0  502 -0.29808243217E+03  0.25962969444E+03 -0.22883791191E+03  0.45675759934E+03  0.50400001928E-02 0.  1.
</event>
<event>
 5   0  0.6557679E-03  0.8014437E+03  0.7818609E-02  0.9557930E-01
       -1   -1    0    0    0  501  0.00000000000E+00  0.00000000000E+00  0.53495854916E+03  0.53495854919E+03  0.50400001928E-02 0. -1.
        1   -1    0    0  501    0  0.00000000000E+00  0.00000000000E+00 -0.30016902500E+03  0.30016902504E+03  0.50400001928E-02 0.  1.
    10030    2    1    2    0    0  0.00000000000E+00  0.00000000000E+00  0.23478952417E+03  0.83512757423E+03  0.80144366276E+03 0.  0.
        1    1    3    3  502    0 -0.25641854252E+03 -0.21283154501E+03 -0.11451289431E+03  0.35236478043E+03  0.50400001928E-02 0.  1.
       -1    1    3    3    0  502  0.25641854252E+03  0.21283154501E+03  0.34930241848E+03  0.48276279380E+03  0.50400001928E-02 0. -1.
</event>
<event>
 5   0  0.6596225E-03  0.8064497E+03  0.7818609E-02  0.9550728E-01
       -1   -1    0    0    0  501  0.00000000000E+00  0.00000000000E+00  0.69133582390E+03  0.69133582392E+03  0.50400001928E-02 0. -1.
        1   -1    0    0  501    0  0.00000000000E+00  0.00000000000E+00 -0.23518279894E+03  0.23518279900E+03  0.50400001928E-02 0.  1.
    10030    2    1    2    0    0  0.00000000000E+00  0.00000000000E+00  0.45615302495E+03  0.92651862291E+03  0.80644973583E+03 0.  0.
        5    1    3    3  502    0  0.44879381409E+00 -0.24305897405E+03 -0.14151905263E+03  0.28129628248E+03  0.46999998093E+01 0.  1.
       -5    1    3    3    0  502 -0.44879381409E+00  0.24305897405E+03  0.59767207758E+03  0.64522234044E+03  0.46999998093E+01 0. -1.
</event>
<event>
 5   0  0.1106332E-02  0.7970870E+03  0.7818609E-02  0.9564243E-01
       -2   -1    0    0    0  501  0.00000000000E+00  0.00000000000E+00  0.30981825275E+03  0.30981825276E+03  0.25500000920E-02 0. -1.
        2   -1    0    0  501    0  0.00000000000E+00  0.00000000000E+00 -0.51267771493E+03  0.51267771494E+03  0.25500000920E-02 0.  1.
    10030    2    1    2    0    0  0.00000000000E+00  0.00000000000E+00 -0.20285946218E+03  0.82249596770E+03  0.79708698112E+03 0.  0.
        1    1    3    3  502    0  0.10315443139E+03 -0.96156647097E+02 -0.48607225903E+03  0.50611577581E+03  0.50400001928E-02 0.  1.
       -1    1    3    3    0  502 -0.10315443139E+03  0.96156647097E+02  0.28321279685E+03  0.31638019189E+03  0.50400001928E-02 0. -1.
</event>
<event>
 5   0  0.6596225E-03  0.8076840E+03  0.7818609E-02  0.9548961E-01
       -1   -1    0    0    0  501  0.00000000000E+00  0.00000000000E+00  0.20059923623E+03  0.20059923629E+03  0.50400001928E-02 0.  1.
        1   -1    0    0  501    0  0.00000000000E+00  0.00000000000E+00 -0.81300596304E+03  0.81300596305E+03  0.50400001928E-02 0. -1.
    10030    2    1    2    0    0  0.00000000000E+00  0.00000000000E+00 -0.61240672680E+03  0.10136051993E+04  0.80768403544E+03 0.  0.
        5    1    3    3  502    0  0.72168621099E+02 -0.17244027265E+03  0.14299662988E+03  0.23540196189E+03  0.46999998093E+01 0.  1.
       -5    1    3    3    0  502 -0.72168621099E+02  0.17244027265E+03 -0.75540335669E+03  0.77820323746E+03  0.46999998093E+01 0. -1.
</event>
<event>
 5   0  0.6517392E-03  0.8145979E+03  0.7818609E-02  0.9539124E-01
        1   -1    0    0  501    0  0.00000000000E+00  0.00000000000E+00  0.47935492510E+03  0.47935492513E+03  0.50400001928E-02 0.  1.
       -1   -1    0    0    0  501  0.00000000000E+00  0.00000000000E+00 -0.34607434704E+03  0.34607434707E+03  0.50400001928E-02 0. -1.
    10030    2    1    2    0    0  0.00000000000E+00  0.00000000000E+00  0.13328057806E+03  0.82542927220E+03  0.81459791979E+03 0.  0.
        3    1    3    3  502    0  0.28879174482E+03  0.15665442725E+03  0.31057162977E+03  0.45210179039E+03  0.10100000352E+00 0.  1.
       -3    1    3    3    0  502 -0.28879174482E+03 -0.15665442725E+03 -0.17729105171E+03  0.37332748181E+03  0.10100000352E+00 0. -1.
</event>
<event>
 5   0  0.6551489E-03  0.8022957E+03  0.7818609E-02  0.9556700E-01
        1   -1    0    0  501    0  0.00000000000E+00  0.00000000000E+00  0.28676721495E+03  0.28676721499E+03  0.50400001928E-02 0.  1.
       -1   -1    0    0    0  501  0.00000000000E+00  0.00000000000E+00 -0.56115062695E+03  0.56115062697E+03  0.50400001928E-02 0. -1.
    10030    2    1    2    0    0  0.00000000000E+00  0.00000000000E+00 -0.27438341200E+03  0.84791784196E+03  0.80229571228E+03 0.  0.
        4    1    3    3  502    0  0.39631206695E+03  0.51382000037E+02 -0.10035842091E+03  0.41203979163E+03  0.12699999809E+01 0.  1.
       -4    1    3    3    0  502 -0.39631206695E+03 -0.51382000037E+02 -0.17402499109E+03  0.43587805033E+03  0.12699999809E+01 0. -1.
</event>
<event>
 5   0  0.1154714E-02  0.7985978E+03  0.7818609E-02  0.9562049E-01
       -2   -1    0    0    0  501  0.00000000000E+00  0.00000000000E+00  0.18636857755E+03  0.18636857757E+03  0.25500000920E-02 0. -1.
        2   -1    0    0  501    0  0.00000000000E+00  0.00000000000E+00 -0.85550686103E+03  0.85550686103E+03  0.25500000920E-02 0.  1.
    10030    2    1    2    0    0  0.00000000000E+00  0.00000000000E+00 -0.66913828348E+03  0.10418754386E+04  0.79859776304E+03 0.  0.
        5    1    3    3  502    0  0.11653043233E+03 -0.61864031315E+02 -0.82621084408E+03  0.83669166896E+03  0.46999998093E+01 0.  1.
       -5    1    3    3    0  502 -0.11653043233E+03  0.61864031315E+02  0.15707256060E+03  0.20518376964E+03  0.46999998093E+01 0. -1.
</event>
<event>
 5   0  0.1106332E-02  0.8084359E+03  0.7818609E-02  0.9547886E-01
       -2   -1    0    0    0  501  0.00000000000E+00  0.00000000000E+00  0.54196469622E+03  0.54196469623E+03  0.25500000920E-02 0. -1.
        2   -1    0    0  501    0  0.00000000000E+00  0.00000000000E+00 -0.30148114653E+03  0.30148114654E+03  0.25500000920E-02 0.  1.
    10030    2    1    2    0    0  0.00000000000E+00  0.00000000000E+00  0.24048354969E+03  0.84344584276E+03  0.80843586759E+03 0.  0.
        1    1    3    3  502    0 -0.83460314857E+02  0.29727183929E+03  0.39241458312E+03  0.49932491993E+03  0.50400001928E-02 0. -1.
       -1    1    3    3    0  502  0.83460314857E+02 -0.29727183929E+03 -0.15193103343E+03  0.34412092284E+03  0.50400001928E-02 0.  1.
</event>
<event>
 5   0  0.6600401E-03  0.7988988E+03  0.7818609E-02  0.9561612E-01
        1   -1    0    0  501    0  0.00000000000E+00  0.00000000000E+00  0.49233219151E+03  0.49233219153E+03  0.50400001928E-02 0. -1.
       -1   -1    0    0    0  501  0.00000000000E+00  0.00000000000E+00 -0.32408974940E+03  0.32408974944E+03  0.50400001928E-02 0.  1.
    10030    2    1    2    0    0  0.00000000000E+00  0.00000000000E+00  0.16824244211E+03  0.81642194097E+03  0.79889878356E+03 0.  0.
        2    1    3    3  502    0 -0.37632324383E+02 -0.29233657084E+03  0.35963237955E+03  0.46498635562E+03  0.25500000920E-02 0. -1.
       -2    1    3    3    0  502  0.37632324383E+02  0.29233657084E+03 -0.19138993744E+03  0.35143558535E+03  0.25500000920E-02 0.  1.
</event>
<event>
 5   0  0.6596225E-03  0.8012431E+03  0.7818609E-02  0.9558220E-01
        1   -1    0    0  501    0  0.00000000000E+00  0.00000000000E+00  0.51469737138E+03  0.51469737141E+03  0.50400001928E-02 0.  1.
       -1   -1    0    0    0  501  0.00000000000E+00  0.00000000000E+00 -0.31182908843E+03  0.31182908847E+03  0.50400001928E-02 0. -1.
    10030    2    1    2    0    0  0.00000000000E+00  0.00000000000E+00  0.20286828296E+03  0.82652645987E+03  0.80124306464E+03 0.  0.
        5    1    3    3  502    0 -0.29413071124E+03 -0.24879703484E+03 -0.11861818393E+02  0.38545509800E+03  0.46999998093E+01 0. -1.
       -5    1    3    3    0  502  0.29413071124E+03  0.24879703484E+03  0.21473010135E+03  0.44107136187E+03  0.46999998093E+01 0.  1.
</event>
<event>
 5   0  0.1092868E-02  0.7986932E+03  0.7818609E-02  0.9561911E-01
       -2   -1    0    0    0  501  0.00000000000E+00  0.00000000000E+00  0.27711043003E+03  0.27711043004E+03  0.25500000920E-02 0. -1.
        2   -1    0    0  501    0  0.00000000000E+00  0.00000000000E+00 -0.57550231566E+03  0.57550231567E+03  0.25500000920E-02 0.  1.
    10030    2    1    2    0    0  0.00000000000E+00  0.00000000000E+00 -0.29839188563E+03  0.85261274571E+03  0.79869316808E+03 0.  0.
        3    1    3    3  502    0 -0.18984453449E+03  0.34844935976E+03 -0.19717193080E+03  0.44309669835E+03  0.10100000352E+00 0.  1.
       -3    1    3    3    0  502  0.18984453449E+03 -0.34844935976E+03 -0.10121995483E+03  0.40951604736E+03  0.10100000352E+00 0. -1.
</event>
<event>
 5   0  0.1106332E-02  0.8149153E+03  0.7818609E-02  0.9538675E-01
       -2   -1    0    0    0  501  0.00000000000E+00  0.00000000000E+00  0.71246651160E+03  0.71246651161E+03  0.25500000920E-02 0. -1.
        2   -1    0    0  501    0  0.00000000000E+00  0.00000000000E+00 -0.23302389716E+03  0.23302389717E+03  0.25500000920E-02 0.  1.
    10030    2    1    2    0    0  0.00000000000E+00  0.00000000000E+00  0.47944261444E+03  0.94549040878E+03  0.81491526710E+03 0.  0.
        1    1    3    3  502    0  0.43938991610E+02  0.23086884576E+03  0.62590706776E+03  0.66857364324E+03  0.50400001928E-02 0. -1.
       -1    1    3    3    0  502 -0.43938991610E+02 -0.23086884576E+03 -0.14646445332E+03  0.27691676554E+03  0.50400001928E-02 0.  1.
</event>
<event>
 5   0  0.4385875E-03  0.8032195E+03  0.7818609E-02  0.9555369E-01
       -3   -1    0    0    0  501  0.00000000000E+00  0.00000000000E+00  0.46544574881E+03  0.46544575977E+03  0.10100000352E+00 0. -1.
        3   -1    0    0  501    0  0.00000000000E+00  0.00000000000E+00 -0.34652888341E+03  0.34652889813E+03  0.10100000352E+00 0.  1.
    10030    2    1    2    0    0  0.00000000000E+00  0.00000000000E+00  0.11891686540E+03  0.81197465790E+03  0.80321953674E+03 0.  0.
        1    1    3    3  502    0  0.11963110675E+03  0.37561135232E+03  0.13707367800E+03  0.41735438529E+03  0.50400001928E-02 0.  1.
       -1    1    3    3    0  502 -0.11963110675E+03 -0.37561135232E+03 -0.18156812604E+02  0.39462027262E+03  0.50400001928E-02 0. -1.
</event>
<event>
 5   0  0.6596225E-03  0.8052958E+03  0.7818609E-02  0.9552383E-01
        1   -1    0    0  501    0  0.00000000000E+00  0.00000000000E+00  0.22773127182E+04  0.22773127182E+04  0.50400001928E-02 0.  1.
       -1   -1    0    0    0  501  0.00000000000E+00  0.00000000000E+00 -0.71191501685E+02  0.71191501864E+02  0.50400001928E-02 0. -1.
    10030    2    1    2    0    0  0.00000000000E+00  0.00000000000E+00  0.22061212165E+04  0.23485042201E+04  0.80529575296E+03 0.  0.
        5    1    3    3  502    0  0.30903045898E+03  0.25449520620E+03  0.12280069447E+04  0.12916233122E+04  0.46999998093E+01 0. -1.
       -5    1    3    3    0  502 -0.30903045898E+03 -0.25449520620E+03  0.97811427188E+03  0.10568809079E+04  0.46999998093E+01 0.  1.
</event>
<event>
 5   0  0.6600401E-03  0.8007711E+03  0.7818609E-02  0.9558902E-01
       -1   -1    0    0    0  501  0.00000000000E+00  0.00000000000E+00  0.19028716953E+03  0.19028716959E+03  0.50400001928E-02 0.  1.
        1   -1    0    0  501    0  0.00000000000E+00  0.00000000000E+00 -0.84245614311E+03  0.84245614312E+03  0.50400001928E-02 0. -1.
    10030    2    1    2    0    0  0.00000000000E+00  0.00000000000E+00 -0.65216897358E+03  0.10327433127E+04  0.80077111577E+03 0.  0.
        2    1    3    3  502    0  0.14747169604E+03  0.33017478464E+03 -0.10440360831E+03  0.37638199077E+03  0.25500000920E-02 0.  1.
       -2    1    3    3    0  502 -0.14747169604E+03 -0.33017478464E+03 -0.54776536527E+03  0.65636132194E+03  0.25500000920E-02 0. -1.
</event>
<event>
 5   0  0.6596225E-03  0.8008704E+03  0.7818609E-02  0.9558758E-01
        1   -1    0    0  501    0  0.00000000000E+00  0.00000000000E+00  0.95310667452E+03  0.95310667453E+03  0.50400001928E-02 0.  1.
       -1   -1    0    0    0  501  0.00000000000E+00  0.00000000000E+00 -0.16823758567E+03  0.16823758575E+03  0.50400001928E-02 0. -1.
    10030    2    1    2    0    0  0.00000000000E+00  0.00000000000E+00  0.78486908885E+03  0.11213442603E+04  0.80087044111E+03 0.  0.
        5    1    3    3  502    0 -0.31516822328E+03  0.17441985390E+03  0.14761527586E+03  0.38931433838E+03  0.46999998093E+01 0. -1.
       -5    1    3    3    0  502  0.31516822328E+03 -0.17441985390E+03  0.63725381298E+03  0.73202992190E+03  0.46999998093E+01 0.  1.
</event>
<event>
 5   0  0.6600401E-03  0.8043445E+03  0.7818609E-02  0.9553750E-01
        1   -1    0    0  501    0  0.00000000000E+00  0.00000000000E+00  0.35084652689E+03  0.35084652693E+03  0.50400001928E-02 0.  1.
       -1   -1    0    0    0  501  0.00000000000E+00  0.00000000000E+00 -0.46100644212E+03  0.46100644215E+03  0.50400001928E-02 0. -1.
    10030    2    1    2    0    0  0.00000000000E+00  0.00000000000E+00 -0.11015991524E+03  0.81185296908E+03  0.80434447625E+03 0.  0.
        2    1    3    3  502    0  0.22376701510E+03  0.65320441464E+02 -0.38586485525E+03  0.45081051856E+03  0.25500000920E-02 0. -1.
       -2    1    3    3    0  502 -0.22376701510E+03 -0.65320441464E+02  0.27570494001E+03  0.36104245052E+03  0.25500000920E-02 0.  1.
</event>
<event>
 5   0  0.6596225E-03  0.7986253E+03  0.7818609E-02  0.9562009E-01
       -1   -1    0    0    0  501  0.00000000000E+00  0.00000000000E+00  0.40591755974E+03  0.40591755977E+03  0.50400001928E-02 0.  1.
        1   -1    0    0  501    0  0.00000000000E+00  0.00000000000E+00 -0.39281521177E+03  0.39281521180E+03  0.50400001928E-02 0. -1.
    10030    2    1    2    0    0  0.00000000000E+00  0.00000000000E+00  0.13102347974E+02  0.79873277157E+03  0.79862529941E+03 0.  0.
        5    1    3    3  502    0 -0.29155463162E+03  0.25046935107E+03  0.11468372935E+03  0.40114018350E+03  0.46999998093E+01 0.  1.
       -5    1    3    3    0  502  0.29155463162E+03 -0.25046935107E+03 -0.10158138138E+03  0.39759258807E+03  0.46999998093E+01 0. -1.
</event>
<event>
 5   0  0.4385875E-03  0.7936799E+03  0.7818609E-02  0.9569211E-01
       -4   -1    0    0    0  501  0.00000000000E+00  0.00000000000E+00  0.45826896727E+03  0.45827072704E+03  0.12699999809E+01 0.  1.
        4   -1    0    0  501    0  0.00000000000E+00  0.00000000000E+00 -0.34364162285E+03  0.34364396962E+03  0.12699999809E+01 0. -1.
    10030    2    1    2    0    0  0.00000000000E+00  0.00000000000E+00  0.11462734442E+03  0.80191469666E+03  0.79367988045E+03 0.  0.
        3    1    3    3  502    0 -0.33396603687E+03 -0.18121140419E+02  0.27311870919E+03  0.43180496642E+03  0.10100000352E+00 0.  1.
       -3    1    3    3    0  502  0.33396603687E+03  0.18121140419E+02 -0.15849136477E+03  0.37010973024E+03  0.10100000352E+00 0. -1.
</event>
<event>
 5   0  0.1092868E-02  0.8029865E+03  0.7818609E-02  0.9555704E-01
        2   -1    0    0  501    0  0.00000000000E+00  0.00000000000E+00  0.71424743250E+03  0.71424743250E+03  0.25500000920E-02 0. -1.
       -2   -1    0    0    0  501  0.00000000000E+00  0.00000000000E+00 -0.22568765822E+03  0.22568765824E+03  0.25500000920E-02 0.  1.
    10030    2    1    2    0    0  0.00000000000E+00  0.00000000000E+00  0.48855977428E+03  0.93993509074E+03  0.80298650161E+03 0.  0.
        3    1    3    3  502    0  0.32552910898E+03  0.83969318605E+02 -0.12646359168E+02  0.33642233556E+03  0.10100000352E+00 0.  1.
       -3    1    3    3    0  502 -0.32552910898E+03 -0.83969318605E+02  0.50120613344E+03  0.60351275518E+03  0.10100000352E+00 0. -1.
</event>
<event>
 5   0  0.1121480E-02  0.8015689E+03  0.7818609E-02  0.9557749E-01
       -2   -1    0    0    0  501  0.00000000000E+00  0.00000000000E+00  0.12870743110E+03  0.12870743113E+03  0.25500000920E-02 0.  1.
        2   -1    0    0  501    0  0.00000000000E+00  0.00000000000E+00 -0.12480100164E+04  0.12480100164E+04  0.25500000920E-02 0. -1.
    10030    2    1    2    0    0  0.00000000000E+00  0.00000000000E+00 -0.11193025853E+04  0.13767174475E+04  0.80156886969E+03 0.  0.
        2    1    3    3  502    0  0.18114873444E+03 -0.15409934590E+03 -0.11137151822E+04  0.11388252629E+04  0.25500000920E-02 0. -1.
       -2    1    3    3    0  502 -0.18114873444E+03  0.15409934590E+03 -0.55874030489E+01  0.23789218456E+03  0.25500000920E-02 0.  1.
</event>
<event>
 5   0  0.1106332E-02  0.8108411E+03  0.7818609E-02  0.9544456E-01
       -2   -1    0    0    0  501  0.00000000000E+00  0.00000000000E+00  0.60152296546E+03  0.60152296547E+03  0.25500000920E-02 0. -1.
        2   -1    0    0  501    0  0.00000000000E+00  0.00000000000E+00 -0.27324942800E+03  0.27324942801E+03  0.25500000920E-02 0.  1.
    10030    2    1    2    0    0  0.00000000000E+00  0.00000000000E+00  0.32827353747E+03  0.87477239347E+03  0.81084106025E+03 0.  0.
        1    1    3    3  502    0  0.57846166897E+02 -0.30235098054E+02 -0.26754371593E+03  0.27539059558E+03  0.50400001928E-02 0.  1.
       -1    1    3    3    0  502 -0.57846166897E+02  0.30235098054E+02  0.59581725339E+03  0.59938179789E+03  0.50400001928E-02 0. -1.
</event>
<event>
 5   0  0.6600401E-03  0.7975493E+03  0.7818609E-02  0.9563571E-01
       -1   -1    0    0    0  501  0.00000000000E+00  0.00000000000E+00  0.23384375008E+03  0.23384375013E+03  0.50400001928E-02 0. -1.
        1   -1    0    0  501    0  0.00000000000E+00  0.00000000000E+00 -0.68003196543E+03  0.68003196544E+03  0.50400001928E-02 0.  1.
    10030    2    1    2    0    0  0.00000000000E+00  0.00000000000E+00 -0.44618821535E+03  0.91387571558E+03  0.79754930883E+03 0.  0.
        2    1    3    3  502    0 -0.22425675496E+03  0.24164698299E+03 -0.48017671207E+03  0.58245517541E+03  0.25500000920E-02 0. -1.
       -2    1    3    3    0  502  0.22425675496E+03 -0.24164698299E+03  0.33988496729E+02  0.33142054017E+03  0.25500000920E-02 0.  1.
</event>
<event>
 5   0  0.1119792E-02  0.8085467E+03  0.7818609E-02  0.9547728E-01
        2   -1    0    0  501    0  0.00000000000E+00  0.00000000000E+00  0.84512195167E+03  0.84512195167E+03  0.25500000920E-02 0. -1.
       -2   -1    0    0    0  501  0.00000000000E+00  0.00000000000E+00 -0.19338860234E+03  0.19338860235E+03  0.25500000920E-02 0.  1.
    10030    2    1    2    0    0  0.00000000000E+00  0.00000000000E+00  0.65173334933E+03  0.10385105540E+04  0.80854672851E+03 0.  0.
        4    1    3    3  502    0  0.33827610681E+03  0.19278351305E+03  0.18611219540E+03  0.43155019351E+03  0.12699999809E+01 0.  1.
       -4    1    3    3    0  502 -0.33827610681E+03 -0.19278351305E+03  0.46562115394E+03  0.60696036052E+03  0.12699999809E+01 0. -1.
</event>
<event>
 5   0  0.6551489E-03  0.7993098E+03  0.7818609E-02  0.9561017E-01
       -1   -1    0    0    0  501  0.00000000000E+00  0.00000000000E+00  0.19856379348E+03  0.19856379355E+03  0.50400001928E-02 0.  1.
        1   -1    0    0  501    0  0.00000000000E+00  0.00000000000E+00 -0.80439652360E+03  0.80439652361E+03  0.50400001928E-02 0. -1.
    10030    2    1    2    0    0  0.00000000000E+00  0.00000000000E+00 -0.60583273011E+03  0.10029603172E+04  0.79930976531E+03 0.  0.
        4    1    3    3  502    0 -0.13262717687E+03 -0.36591606663E+03 -0.41680391993E+03  0.57027331730E+03  0.12699999809E+01 0. -1.
       -4    1    3    3    0  502  0.13262717687E+03  0.36591606663E+03 -0.18902881019E+03  0.43268699986E+03  0.12699999809E+01 0.  1.
</event>
<event>
 5   0  0.6600401E-03  0.8010450E+03  0.7818609E-02  0.9558506E-01
       -1   -1    0    0    0  501  0.00000000000E+00  0.00000000000E+00  0.17851158166E+03  0.17851158173E+03  0.50400001928E-02 0. -1.
        1   -1    0    0  501    0  0.00000000000E+00  0.00000000000E+00 -0.89864353626E+03  0.89864353627E+03  0.50400001928E-02 0.  1.
    10030    2    1    2    0    0  0.00000000000E+00  0.00000000000E+00 -0.72013195460E+03  0.10771551180E+04  0.80104501510E+03 0.  0.
        2    1    3    3  502    0  0.22673138684E+02  0.34990171257E+03 -0.99762149194E+02  0.36455145878E+03  0.25500000920E-02 0. -1.
       -2    1    3    3    0  502 -0.22673138684E+02 -0.34990171257E+03 -0.62036980540E+03  0.71260365923E+03  0.25500000920E-02 0.  1.
</event>
<event>
 5   0  0.1092868E-02  0.8018075E+03  0.7818609E-02  0.9557404E-01
        2   -1    0    0  501    0  0.00000000000E+00  0.00000000000E+00  0.24050575602E+04  0.24050575602E+04  0.25500000920E-02 0.  1.
       -2   -1    0    0    0  501  0.00000000000E+00  0.00000000000E+00 -0.66827433588E+02  0.66827433637E+02  0.25500000920E-02 0. -1.
    10030    2    1    2    0    0  0.00000000000E+00  0.00000000000E+00  0.23382301266E+04  0.24718849938E+04  0.80180751915E+03 0.  0.
        3    1    3    3  502    0 -0.16652618317E+03  0.20149422870E+03  0.23203330523E+03  0.34952876680E+03  0.10100000352E+00 0. -1.
       -3    1    3    3    0  502  0.16652618317E+03 -0.20149422870E+03  0.21061968214E+04  0.21223562270E+04  0.10100000352E+00 0.  1.
</event>
<event>
 5   0  0.6596225E-03  0.7931257E+03  0.7818609E-02  0.9570021E-01
       -1   -1    0    0    0  501  0.00000000000E+00  0.00000000000E+00  0.26787916786E+03  0.26787916791E+03  0.50400001928E-02 0.  1.
        1   -1    0    0  501    0  0.00000000000E+00  0.00000000000E+00 -0.58706354580E+03  0.58706354582E+03  0.50400001928E-02 0. -1.
    10030    2    1    2    0    0  0.00000000000E+00  0.00000000000E+00 -0.31918437793E+03  0.85494271373E+03  0.79312570040E+03 0.  0.
        5    1    3    3  502    0  0.23233425840E+03 -0.23647071633E+03  0.74949535107E+02  0.33990753171E+03  0.46999998093E+01 0.  1.
       -5    1    3    3    0  502 -0.23233425840E+03  0.23647071633E+03 -0.39413391304E+03  0.51503518201E+03  0.46999998093E+01 0. -1.
</event>
<event>
 5   0  0.1092868E-02  0.8086471E+03  0.7818609E-02  0.9547584E-01
        2   -1    0    0  501    0  0.00000000000E+00  0.00000000000E+00  0.11127234169E+04  0.11127234169E+04  0.25500000920E-02 0.  1.
       -2   -1    0    0    0  501  0.00000000000E+00  0.00000000000E+00 -0.14691658194E+03  0.14691658197E+03  0.25500000920E-02 0. -1.
    10030    2    1    2    0    0  0.00000000000E+00  0.00000000000E+00  0.96580683494E+03  0.12596399989E+04  0.80864707030E+03 0.  0.
        3    1    3    3  502    0  0.44455569332E+02 -0.53536489143E+02  0.11033251622E+04  0.11055174702E+04  0.10100000352E+00 0.  1.
       -3    1    3    3    0  502 -0.44455569332E+02  0.53536489143E+02 -0.13751832721E+03  0.15412252864E+03  0.10100000352E+00 0. -1.
</event>
<event>
 5   0  0.4385875E-03  0.8002904E+03  0.7818609E-02  0.9559597E-01
        3   -1    0    0  501    0  0.00000000000E+00  0.00000000000E+00  0.29808272033E+03  0.29808273745E+03  0.10100000352E+00 0. -1.
       -3   -1    0    0    0  501  0.00000000000E+00  0.00000000000E+00 -0.53715351380E+03  0.53715352330E+03  0.10100000352E+00 0.  1.
    10030    2    1    2    0    0  0.00000000000E+00  0.00000000000E+00 -0.23907079347E+03  0.83523626074E+03  0.80029042664E+03 0.  0.
        1    1    3    3  502    0  0.12188875525E+03  0.10392159873E+03  0.26316390122E+03  0.30807759781E+03  0.50400001928E-02 0. -1.
       -1    1    3    3    0  502 -0.12188875525E+03 -0.10392159873E+03 -0.50223469468E+03  0.52715866294E+03  0.50400001928E-02 0.  1.
</event>
<event>
 5   0  0.6551489E-03  0.7977570E+03  0.7818609E-02  0.9563269E-01
        1   -1    0    0  501    0  0.00000000000E+00  0.00000000000E+00  0.21096528652E+03  0.21096528658E+03  0.50400001928E-02 0.  1.
       -1   -1    0    0    0  501  0.00000000000E+00  0.00000000000E+00 -0.75417172809E+03  0.75417172811E+03  0.50400001928E-02 0. -1.
    10030    2    1    2    0    0  0.00000000000E+00  0.00000000000E+00 -0.54320644157E+03  0.96513701469E+03  0.79775699243E+03 0.  0.
        4    1    3    3  502    0 -0.83446896783E+01 -0.14442986551E+03  0.17810379823E+03  0.22946066273E+03  0.12699999809E+01 0.  1.
       -4    1    3    3    0  502  0.83446896783E+01  0.14442986551E+03 -0.72131023980E+03  0.73567635196E+03  0.12699999809E+01 0. -1.
</event>
<event>
 5   0  0.6596225E-03  0.8015102E+03  0.7818609E-02  0.9557834E-01
        1   -1    0    0  501    0  0.00000000000E+00  0.00000000000E+00  0.38219790521E+03  0.38219790524E+03  0.50400001928E-02 0.  1.
       -1   -1    0    0    0  501  0.00000000000E+00  0.00000000000E+00 -0.42021336666E+03  0.42021336669E+03  0.50400001928E-02 0. -1.
    10030    2    1    2    0    0  0.00000000000E+00  0.00000000000E+00 -0.38015461451E+02  0.80241127193E+03  0.80151024573E+03 0.  0.
        5    1    3    3  502    0  0.30154611222E+03  0.23258237968E+03 -0.14387949022E+03  0.40712162659E+03  0.46999998093E+01 0. -1.
       -5    1    3    3    0  502 -0.30154611222E+03 -0.23258237968E+03  0.10586402877E+03  0.39528964534E+03  0.46999998093E+01 0.  1.
</event>
<event>
 5   0  0.1154714E-02  0.8526307E+03  0.7818609E-02  0.9486813E-01
       -2   -1    0    0    0  501  0.00000000000E+00  0.00000000000E+00  0.90550481531E+03  0.90550481531E+03  0.25500000920E-02 0. -1.
        2   -1    0    0  501    0  0.00000000000E+00  0.00000000000E+00 -0.20071101052E+03  0.20071101054E+03  0.25500000920E-02 0.  1.
    10030    2    1    2    0    0  0.00000000000E+00  0.00000000000E+00  0.70479380479E+03  0.11062158258E+04  0.85263072082E+03 0.  0.
        5    1    3    3  502    0  0.38133920774E+03  0.14816326016E+03  0.50782024442E+03  0.65213145428E+03  0.46999998093E+01 0. -1.
       -5    1    3    3    0  502 -0.38133920774E+03 -0.14816326016E+03  0.19697356036E+03  0.45408437157E+03  0.46999998093E+01 0.  1.
</event>
<event>
 5   0  0.6557679E-03  0.8117284E+03  0.7818609E-02  0.9543194E-01
        1   -1    0    0  501    0  0.00000000000E+00  0.00000000000E+00  0.57824228070E+03  0.57824228072E+03  0.50400001928E-02 0. -1.
       -1   -1    0    0    0  501  0.00000000000E+00  0.00000000000E+00 -0.28487324595E+03  0.28487324599E+03  0.50400001928E-02 0.  1.
    10030    2    1    2    0    0  0.00000000000E+00  0.00000000000E+00  0.29336903475E+03  0.86311552671E+03  0.81172841634E+03 0.  0.
        1    1    3    3  502    0  0.31886162501E+03  0.24859191358E+03  0.10901466726E+03  0.41875395295E+03  0.50400001928E-02 0.  1.
       -1    1    3    3    0  502 -0.31886162501E+03 -0.24859191358E+03  0.18435436748E+03  0.44436157377E+03  0.50400001928E-02 0. -1.
</event>
<event>
 5   0  0.1154714E-02  0.7955786E+03  0.7818609E-02  0.9566439E-01
       -2   -1    0    0    0  501  0.00000000000E+00  0.00000000000E+00  0.41646745130E+03  0.41646745131E+03  0.25500000920E-02 0.  1.
        2   -1    0    0  501    0  0.00000000000E+00  0.00000000000E+00 -0.37994883673E+03  0.37994883674E+03  0.25500000920E-02 0. -1.
    10030    2    1    2    0    0  0.00000000000E+00  0.00000000000E+00  0.36518614571E+02  0.79641628804E+03  0.79557859112E+03 0.  0.
        5    1    3    3  502    0  0.35372242875E+03 -0.17957251094E+03  0.47417118061E+02  0.39954513683E+03  0.46999998093E+01 0. -1.
       -5    1    3    3    0  502 -0.35372242875E+03  0.17957251094E+03 -0.10898503490E+02  0.39687115121E+03  0.46999998093E+01 0.  1.
</event>
<event>
 5   0  0.6600401E-03  0.8075757E+03  0.7818609E-02  0.9549116E-01
        1   -1    0    0  501    0  0.00000000000E+00  0.00000000000E+00  0.29085429995E+03  0.29085429999E+03  0.50400001928E-02 0. -1.
       -1   -1    0    0    0  501  0.00000000000E+00  0.00000000000E+00 -0.56057152316E+03  0.56057152318E+03  0.50400001928E-02 0.  1.
    10030    2    1    2    0    0  0.00000000000E+00  0.00000000000E+00 -0.26971722321E+03  0.85142582317E+03  0.80757572516E+03 0.  0.
        2    1    3    3  502    0 -0.82653397816E+02  0.90096396736E+02  0.27086919779E+03  0.29718524054E+03  0.25500000920E-02 0. -1.
       -2    1    3    3    0  502  0.82653397816E+02 -0.90096396736E+02 -0.54058642099E+03  0.55424058264E+03  0.25500000920E-02 0.  1.
</event>
<event>
 5   0  0.6517392E-03  0.7984125E+03  0.7818609E-02  0.9562318E-01
        1   -1    0    0  501    0  0.00000000000E+00  0.00000000000E+00  0.68322939063E+03  0.68322939065E+03  0.50400001928E-02 0. -1.
       -1   -1    0    0    0  501  0.00000000000E+00  0.00000000000E+00 -0.23325348461E+03  0.23325348467E+03  0.50400001928E-02 0.  1.
    10030    2    1    2    0    0  0.00000000000E+00  0.00000000000E+00  0.44997590602E+03  0.91648287532E+03  0.79841251540E+03 0.  0.
        3    1    3    3  502    0  0.34628225620E+03  0.19861291144E+03  0.22805441676E+03  0.45974701386E+03  0.10100000352E+00 0. -1.
       -3    1    3    3    0  502 -0.34628225620E+03 -0.19861291144E+03  0.22192148927E+03  0.45673586146E+03  0.10100000352E+00 0.  1.
</event>
<event>
 5   0  0.4385875E-03  0.8113163E+03  0.7818609E-02  0.9543780E-01
       -3   -1    0    0    0  501  0.00000000000E+00  0.00000000000E+00  0.17549607001E+03  0.17549609907E+03  0.10100000352E+00 0. -1.
        3   -1    0    0  501    0  0.00000000000E+00  0.00000000000E+00 -0.93767627592E+03  0.93767628136E+03  0.10100000352E+00 0.  1.
    10030    2    1    2    0    0  0.00000000000E+00  0.00000000000E+00 -0.76218020591E+03  0.11131723804E+04  0.81131626526E+03 0.  0.
        1    1    3    3  502    0  0.14635810671E+02 -0.35137586341E+03 -0.10367886476E+03  0.36664493910E+03  0.50400001928E-02 0. -1.
       -1    1    3    3    0  502 -0.14635810671E+02  0.35137586341E+03 -0.65850134115E+03  0.74652744133E+03  0.50400001928E-02 0.  1.
</event>
<event>
 5   0  0.6596225E-03  0.8014436E+03  0.7818609E-02  0.9557930E-01
       -1   -1    0    0    0  501  0.00000000000E+00  0.00000000000E+00  0.43091739411E+03  0.43091739414E+03  0.50400001928E-02 0. -1.
        1   -1    0    0  501    0  0.00000000000E+00  0.00000000000E+00 -0.37264212463E+03  0.37264212466E+03  0.50400001928E-02 0.  1.
    10030    2    1    2    0    0  0.00000000000E+00  0.00000000000E+00  0.58275269485E+02  0.80355951880E+03  0.80144363072E+03 0.  0.
        5    1    3    3  502    0  0.21495093363E+03  0.32858317009E+03  0.10925529026E+03  0.40759000476E+03  0.46999998093E+01 0. -1.
       -5    1    3    3    0  502 -0.21495093363E+03 -0.32858317009E+03 -0.50980020774E+02  0.39596951404E+03  0.46999998093E+01 0.  1.
</event>
<event>
 5   0  0.1121480E-02  0.8021443E+03  0.7818609E-02  0.9556918E-01
        2   -1    0    0  501    0  0.00000000000E+00  0.00000000000E+00  0.71463682323E+03  0.71463682324E+03  0.25500000920E-02 0. -1.
       -2   -1    0    0    0  501  0.00000000000E+00  0.00000000000E+00 -0.22509178185E+03  0.22509178187E+03  0.25500000920E-02 0.  1.
    10030    2    1    2    0    0  0.00000000000E+00  0.00000000000E+00  0.48954504138E+03  0.93972860510E+03  0.80214431601E+03 0.  0.
        2    1    3    3  502    0  0.21807493641E+03  0.18097845276E+03  0.57726360686E+03  0.64307320740E+03  0.25500000920E-02 0. -1.
       -2    1    3    3    0  502 -0.21807493641E+03 -0.18097845276E+03 -0.87718565485E+02  0.29665539771E+03  0.25500000920E-02 0.  1.
</event>
<event>
 5   0  0.1106332E-02  0.7989195E+03  0.7818609E-02  0.9561582E-01
        2   -1    0    0  501    0  0.00000000000E+00  0.00000000000E+00  0.51354782802E+03  0.51354782803E+03  0.25500000920E-02 0.  1.
       -2   -1    0    0    0  501  0.00000000000E+00  0.00000000000E+00 -0.31071713868E+03  0.31071713869E+03  0.25500000920E-02 0. -1.
    10030    2    1    2    0    0  0.00000000000E+00  0.00000000000E+00  0.20283068935E+03  0.82426496672E+03  0.79891954965E+03 0.  0.
        1    1    3    3  502    0  0.27321824337E+03  0.27011592447E+03 -0.11403119591E+02  0.38437072251E+03  0.50400001928E-02 0.  1.
       -1    1    3    3    0  502 -0.27321824337E+03 -0.27011592447E+03  0.21423380894E+03  0.43989424420E+03  0.50400001928E-02 0. -1.
</event>
<event>
 5   0  0.6551489E-03  0.7839463E+03  0.7818609E-02  0.9583549E-01
       -1   -1    0    0    0  501  0.00000000000E+00  0.00000000000E+00  0.27922733158E+03  0.27922733162E+03  0.50400001928E-02 0. -1.
        1   -1    0    0  501    0  0.00000000000E+00  0.00000000000E+00 -0.55024329480E+03  0.55024329482E+03  0.50400001928E-02 0.  1.
    10030    2    1    2    0    0  0.00000000000E+00  0.00000000000E+00 -0.27101596322E+03  0.82947062645E+03  0.78394634244E+03 0.  0.
        4    1    3    3  502    0 -0.11640327408E+03  0.29015542043E+03 -0.38567281730E+03  0.49647258245E+03  0.12699999809E+01 0.  1.
       -4    1    3    3    0  502  0.11640327408E+03 -0.29015542043E+03  0.11465685407E+03  0.33299804400E+03  0.12699999809E+01 0. -1.
</event>
<event>
 5   0  0.6517392E-03  0.7992073E+03  0.7818609E-02  0.9561165E-01
       -1   -1    0    0    0  501  0.00000000000E+00  0.00000000000E+00  0.30510013420E+03  0.30510013424E+03  0.50400001928E-02 0.  1.
        1   -1    0    0  501    0  0.00000000000E+00  0.00000000000E+00 -0.52337919166E+03  0.52337919168E+03  0.50400001928E-02 0. -1.
    10030    2    1    2    0    0  0.00000000000E+00  0.00000000000E+00 -0.21827905746E+03  0.82847932592E+03  0.79920726132E+03 0.  0.
        3    1    3    3  502    0 -0.66443413396E+02 -0.39358607343E+03 -0.12876237749E+03  0.41940968567E+03  0.10100000352E+00 0.  1.
       -3    1    3    3    0  502  0.66443413396E+02  0.39358607343E+03 -0.89516679974E+02  0.40906964025E+03  0.10100000352E+00 0. -1.
</event>
<event>
 5   0  0.6517392E-03  0.8021159E+03  0.7818609E-02  0.9556959E-01
       -1   -1    0    0    0  501  0.00000000000E+00  0.00000000000E+00  0.63719874784E+03  0.63719874786E+03  0.50400001928E-02 0.  1.
        1   -1    0    0  501    0  0.00000000000E+00  0.00000000000E+00 -0.25242907636E+03  0.25242907642E+03  0.50400001928E-02 0. -1.
    10030    2    1    2    0    0  0.00000000000E+00  0.00000000000E+00  0.38476967147E+03  0.88962782427E+03  0.80211593030E+03 0.  0.
        3    1    3    3  502    0 -0.37240076095E+03  0.14885172147E+03  0.18918580149E+03  0.44343030955E+03  0.10100000352E+00 0.  1.
       -3    1    3    3    0  502  0.37240076095E+03 -0.14885172147E+03  0.19558386998E+03  0.44619751472E+03  0.10100000352E+00 0. -1.
</event>
<event>
 5   0  0.6600401E-03  0.7954003E+03  0.7818609E-02  0.9566699E-01
        1   -1    0    0  501    0  0.00000000000E+00  0.00000000000E+00  0.20913557924E+03  0.20913557930E+03  0.50400001928E-02 0. -1.
       -1   -1    0    0    0  501  0.00000000000E+00  0.00000000000E+00 -0.75628161279E+03  0.75628161281E+03  0.50400001928E-02 0.  1.
    10030    2    1    2    0    0  0.00000000000E+00  0.00000000000E+00 -0.54714603355E+03  0.96541719211E+03  0.79540025948E+03 0.  0.
        2    1    3    3  502    0 -0.27940006348E+02 -0.30448483573E+03 -0.58224219684E+03  0.65764552377E+03  0.25500000920E-02 0.  1.
       -2    1    3    3    0  502  0.27940006348E+02  0.30448483573E+03  0.35096163292E+02  0.30777166833E+03  0.25500000920E-02 0. -1.
</event>
<event>
 5   0  0.1106332E-02  0.7961724E+03  0.7818609E-02  0.9565574E-01
       -2   -1    0    0    0  501  0.00000000000E+00  0.00000000000E+00  0.36977882975E+03  0.36977882976E+03  0.25500000920E-02 0.  1.
        2   -1    0    0  501    0  0.00000000000E+00  0.00000000000E+00 -0.42856059038E+03  0.42856059038E+03  0.25500000920E-02 0. -1.
    10030    2    1    2    0    0  0.00000000000E+00  0.00000000000E+00 -0.58781760624E+02  0.79833942014E+03  0.79617242754E+03 0.  0.
        1    1    3    3  502    0  0.15832768140E+03 -0.32263781674E+03 -0.20105795334E+03  0.41180956292E+03  0.50400001928E-02 0. -1.
       -1    1    3    3    0  502 -0.15832768140E+03  0.32263781674E+03  0.14227619272E+03  0.38652985722E+03  0.50400001928E-02 0.  1.
</event>
<event>
 5   0  0.1092868E-02  0.7972653E+03  0.7818609E-02  0.9563984E-01
        2   -1    0    0  501    0  0.00000000000E+00  0.00000000000E+00  0.36654762983E+03  0.36654762984E+03  0.25500000920E-02 0. -1.
       -2   -1    0    0    0  501  0.00000000000E+00  0.00000000000E+00 -0.43352613894E+03  0.43352613894E+03  0.25500000920E-02 0.  1.
    10030    2    1    2    0    0  0.00000000000E+00  0.00000000000E+00 -0.66978509109E+02  0.80007376878E+03  0.79726527255E+03 0.  0.
        3    1    3    3  502    0 -0.25100675745E+03 -0.44267565497E+02  0.27409323891E+03  0.37428748772E+03  0.10100000352E+00 0. -1.
       -3    1    3    3    0  502  0.25100675745E+03  0.44267565497E+02 -0.34107174802E+03  0.42578628106E+03  0.10100000352E+00 0.  1.
</event>
<event>
 5   0  0.6517392E-03  0.7995532E+03  0.7818609E-02  0.9560664E-01
        1   -1    0    0  501    0  0.00000000000E+00  0.00000000000E+00  0.66493243473E+03  0.66493243475E+03  0.50400001928E-02 0. -1.
       -1   -1    0    0    0  501  0.00000000000E+00  0.00000000000E+00 -0.24035724748E+03  0.24035724753E+03  0.50400001928E-02 0.  1.
    10030    2    1    2    0    0  0.00000000000E+00  0.00000000000E+00  0.42457518726E+03  0.90528968228E+03  0.79955319974E+03 0.  0.
        3    1    3    3  502    0  0.52115151684E+02 -0.24494182869E+02  0.66021209687E+03  0.66271862588E+03  0.10100000352E+00 0. -1.
       -3    1    3    3    0  502 -0.52115151684E+02  0.24494182869E+02 -0.23563690962E+03  0.24257105640E+03  0.10100000352E+00 0.  1.
</event>
<event>
 5   0  0.1119792E-02  0.8013274E+03  0.7818609E-02  0.9558098E-01
        2   -1    0    0  501    0  0.00000000000E+00  0.00000000000E+00  0.86606833890E+03  0.86606833891E+03  0.25500000920E-02 0. -1.
       -2   -1    0    0    0  501  0.00000000000E+00  0.00000000000E+00 -0.18535652121E+03  0.18535652122E+03  0.25500000920E-02 0.  1.
    10030    2    1    2    0    0  0.00000000000E+00  0.00000000000E+00  0.68071181770E+03  0.10514248601E+04  0.80132743479E+03 0.  0.
        4    1    3    3  502    0  0.12988160720E+03 -0.21025629102E+03  0.75414293694E+03  0.79360577244E+03  0.12699999809E+01 0. -1.
       -4    1    3    3    0  502 -0.12988160720E+03  0.21025629102E+03 -0.73431119248E+02  0.25781908769E+03  0.12699999809E+01 0.  1.
</event>
<event>
 5   0  0.6517392E-03  0.8029407E+03  0.7818609E-02  0.9555770E-01
       -1   -1    0    0    0  501  0.00000000000E+00  0.00000000000E+00  0.51415253313E+03  0.51415253316E+03  0.50400001928E-02 0.  1.
        1   -1    0    0  501    0  0.00000000000E+00  0.00000000000E+00 -0.31348370322E+03  0.31348370326E+03  0.50400001928E-02 0. -1.
    10030    2    1    2    0    0  0.00000000000E+00  0.00000000000E+00  0.20066882991E+03  0.82763623642E+03  0.80294069553E+03 0.  0.
        3    1    3    3  502    0 -0.23113497780E+03 -0.28048081602E+03 -0.75455829770E+02  0.37119598403E+03  0.10100000352E+00 0. -1.
       -3    1    3    3    0  502  0.23113497780E+03  0.28048081602E+03  0.27612465968E+03  0.45644025239E+03  0.10100000352E+00 0.  1.
</event>
<event>
 5   0  0.6517392E-03  0.8011346E+03  0.7818609E-02  0.9558376E-01
        1   -1    0    0  501    0  0.00000000000E+00  0.00000000000E+00  0.27972794525E+03  0.27972794530E+03  0.50400001928E-02 0. -1.
       -1   -1    0    0    0  501  0.00000000000E+00  0.00000000000E+00 -0.57360785646E+03  0.57360785648E+03  0.50400001928E-02 0.  1.
    10030    2    1    2    0    0  0.00000000000E+00  0.00000000000E+00 -0.29387991121E+03  0.85333580178E+03  0.80113456322E+03 0.  0.
        3    1    3    3  502    0  0.21843344547E+03  0.18587167187E+03 -0.44478993240E+03  0.52924431284E+03  0.10100000352E+00 0.  1.
       -3    1    3    3    0  502 -0.21843344547E+03 -0.18587167187E+03  0.15091002119E+03  0.32409148894E+03  0.10100000352E+00 0. -1.
</event>
<event>
 5   0  0.1154714E-02  0.8004432E+03  0.7818609E-02  0.9559376E-01
        2   -1    0    0  501    0  0.00000000000E+00  0.00000000000E+00  0.12066767589E+04  0.12066767589E+04  0.25500000920E-02 0.  1.
       -2   -1    0    0    0  501  0.00000000000E+00  0.00000000000E+00 -0.13274252018E+03  0.13274252020E+03  0.25500000920E-02 0. -1.
    10030    2    1    2    0    0  0.00000000000E+00  0.00000000000E+00  0.10739342387E+04  0.13394192791E+04  0.80044316233E+03 0.  0.
        5    1    3    3  502    0  0.76340598417E+02  0.39023351355E+03  0.61264130869E+03  0.73038451871E+03  0.46999998093E+01 0. -1.
       -5    1    3    3    0  502 -0.76340598417E+02 -0.39023351355E+03  0.46129292999E+03  0.60903476035E+03  0.46999998093E+01 0.  1.
</event>
<event>
 5   0  0.6551489E-03  0.8083558E+03  0.7818609E-02  0.9548001E-01
        1   -1    0    0  501    0  0.00000000000E+00  0.00000000000E+00  0.45546290087E+03  0.45546290089E+03  0.50400001928E-02 0.  1.
       -1   -1    0    0    0  501  0.00000000000E+00  0.00000000000E+00 -0.35866760972E+03  0.35866760976E+03  0.50400001928E-02 0. -1.
    10030    2    1    2    0    0  0.00000000000E+00  0.00000000000E+00  0.96795291142E+02  0.81413051065E+03  0.80835583748E+03 0.  0.
        4    1    3    3  502    0  0.11421430824E+02  0.40044352785E+03  0.10237819128E+03  0.41348322219E+03  0.12699999809E+01 0.  1.
       -4    1    3    3    0  502 -0.11421430824E+02 -0.40044352785E+03 -0.55829001366E+01  0.40064728847E+03  0.12699999809E+01 0. -1.
</event>
<event>
 5   0  0.6517392E-03  0.8004225E+03  0.7818609E-02  0.9559406E-01
        1   -1    0    0  501    0  0.00000000000E+00  0.00000000000E+00  0.14409130035E+04  0.14409130035E+04  0.50400001928E-02 0. -1.
       -1   -1    0    0    0  501  0.00000000000E+00  0.00000000000E+00 -0.11115802876E+03  0.11115802887E+03  0.50400001928E-02 0.  1.
    10030    2    1    2    0    0  0.00000000000E+00  0.00000000000E+00  0.13297549748E+04  0.15520710324E+04  0.80042251137E+03 0.  0.
        3    1    3    3  502    0  0.22536079838E+03 -0.15205308153E+03  0.12343864657E+04  0.12639689814E+04  0.10100000352E+00 0. -1.
       -3    1    3    3    0  502 -0.22536079838E+03  0.15205308153E+03  0.95368509021E+02  0.28810205096E+03  0.10100000352E+00 0.  1.
</event>
<event>
 5   0  0.1121480E-02  0.8013945E+03  0.7818609E-02  0.9558001E-01
       -2   -1    0    0    0  501  0.00000000000E+00  0.00000000000E+00  0.11474200303E+03  0.11474200306E+03  0.25500000920E-02 0. -1.
        2   -1    0    0  501    0  0.00000000000E+00  0.00000000000E+00 -0.13992981025E+04  0.13992981025E+04  0.25500000920E-02 0.  1.
    10030    2    1    2    0    0  0.00000000000E+00  0.00000000000E+00 -0.12845560995E+04  0.15140401056E+04  0.80139445255E+03 0.  0.
        2    1    3    3  502    0  0.39935003214E+03 -0.18711431326E+02 -0.59131356655E+03  0.71378028820E+03  0.25500000920E-02 0.  1.
       -2    1    3    3    0  502 -0.39935003214E+03  0.18711431326E+02 -0.69324253296E+03  0.80025981740E+03  0.25500000920E-02 0. -1.
</event>
<event>
 5   0  0.6551489E-03  0.7990122E+03  0.7818609E-02  0.9561448E-01
       -1   -1    0    0    0  501  0.00000000000E+00  0.00000000000E+00  0.29353429633E+03  0.29353429637E+03  0.50400001928E-02 0.  1.
        1   -1    0    0  501    0  0.00000000000E+00  0.00000000000E+00 -0.54373585113E+03  0.54373585115E+03  0.50400001928E-02 0. -1.
    10030    2    1    2    0    0  0.00000000000E+00  0.00000000000E+00 -0.25020155480E+03  0.83727014752E+03  0.79901219134E+03 0.  0.
        4    1    3    3  502    0 -0.18943320850E+03 -0.61317456736E+02 -0.48803518472E+03  0.52709081325E+03  0.12699999809E+01 0. -1.
       -4    1    3    3    0  502  0.18943320850E+03  0.61317456736E+02  0.23783362993E+03  0.31017933427E+03  0.12699999809E+01 0.  1.
</event>
<event>
 5   0  0.1106332E-02  0.8041395E+03  0.7818609E-02  0.9554045E-01
        2   -1    0    0  501    0  0.00000000000E+00  0.00000000000E+00  0.29893686549E+03  0.29893686550E+03  0.25500000920E-02 0. -1.
       -2   -1    0    0    0  501  0.00000000000E+00  0.00000000000E+00 -0.54078333241E+03  0.54078333241E+03  0.25500000920E-02 0.  1.
    10030    2    1    2    0    0  0.00000000000E+00  0.00000000000E+00 -0.24184646692E+03  0.83972019791E+03  0.80413947623E+03 0.  0.
        1    1    3    3  502    0 -0.57166288461E+02  0.39149040518E+03 -0.19569709339E+03  0.44139559838E+03  0.50400001928E-02 0.  1.
       -1    1    3    3    0  502  0.57166288461E+02 -0.39149040518E+03 -0.46149373529E+02  0.39832459953E+03  0.50400001928E-02 0. -1.
</event>
<event>
 5   0  0.4385875E-03  0.7879115E+03  0.7818609E-02  0.9577681E-01
        4   -1    0    0  501    0  0.00000000000E+00  0.00000000000E+00  0.63534359534E+03  0.63534486465E+03  0.12699999809E+01 0.  1.
       -4   -1    0    0    0  501  0.00000000000E+00  0.00000000000E+00 -0.24427586507E+03  0.24427916644E+03  0.12699999809E+01 0. -1.
    10030    2    1    2    0    0  0.00000000000E+00  0.00000000000E+00  0.39106773027E+03  0.87962403109E+03  0.78791145848E+03 0.  0.
        5    1    3    3  502    0  0.37481264870E+03  0.65719588216E+02  0.81817506200E+02  0.38925541771E+03  0.46999998093E+01 0. -1.
       -5    1    3    3    0  502 -0.37481264870E+03 -0.65719588216E+02  0.30925022407E+03  0.49036861337E+03  0.46999998093E+01 0.  1.
</event>
<event>
 5   0  0.6551489E-03  0.7926722E+03  0.7818609E-02  0.9570685E-01
       -1   -1    0    0    0  501  0.00000000000E+00  0.00000000000E+00  0.36280132649E+03  0.36280132652E+03  0.50400001928E-02 0. -1.
        1   -1    0    0  501    0  0.00000000000E+00  0.00000000000E+00 -0.43297056001E+03  0.43297056004E+03  0.50400001928E-02 0.  1.
    10030    2    1    2    0    0  0.00000000000E+00  0.00000000000E+00 -0.70169233525E+02  0.79577188656E+03  0.79267217317E+03 0.  0.
        4    1    3    3  502    0 -0.18217452805E+03 -0.30533050828E+03 -0.21088766321E+03  0.41338782922E+03  0.12699999809E+01 0.  1.
       -4    1    3    3    0  502  0.18217452805E+03  0.30533050828E+03  0.14071842968E+03  0.38238405734E+03  0.12699999809E+01 0. -1.
</event>
<event>
 5   0  0.1092868E-02  0.8013186E+03  0.7818609E-02  0.9558110E-01
       -2   -1    0    0    0  501  0.00000000000E+00  0.00000000000E+00  0.37819801769E+03  0.37819801770E+03  0.25500000920E-02 0. -1.
        2   -1    0    0  501    0  0.00000000000E+00  0.00000000000E+00 -0.42445453839E+03  0.42445453839E+03  0.25500000920E-02 0.  1.
    10030    2    1    2    0    0  0.00000000000E+00  0.00000000000E+00 -0.46256520693E+02  0.80265255609E+03  0.80131857591E+03 0.  0.
        3    1    3    3  502    0 -0.31656014076E+03 -0.96473175464E+01  0.22268700235E+03  0.38716005046E+03  0.10100000352E+00 0. -1.
       -3    1    3    3    0  502  0.31656014076E+03  0.96473175464E+01 -0.26894352304E+03  0.41549250564E+03  0.10100000352E+00 0.  1.
</event>
<event>
 5   0  0.6517392E-03  0.7961844E+03  0.7818609E-02  0.9565557E-01
       -1   -1    0    0    0  501  0.00000000000E+00  0.00000000000E+00  0.35062004108E+03  0.35062004112E+03  0.50400001928E-02 0. -1.
        1   -1    0    0  501    0  0.00000000000E+00  0.00000000000E+00 -0.45199181308E+03  0.45199181311E+03  0.50400001928E-02 0.  1.
    10030    2    1    2    0    0  0.00000000000E+00  0.00000000000E+00 -0.10137177200E+03  0.80261185423E+03  0.79618437085E+03 0.  0.
        3    1    3    3  502    0 -0.10395903761E+03 -0.19500861832E+02 -0.43756740282E+03  0.45016997604E+03  0.10100000352E+00 0.  1.
       -3    1    3    3    0  502  0.10395903761E+03  0.19500861832E+02  0.33619563083E+03  0.35244187819E+03  0.10100000352E+00 0. -1.
</event>
<event>
 5   0  0.1121480E-02  0.7901624E+03  0.7818609E-02  0.9574367E-01
        2   -1    0    0  501    0  0.00000000000E+00  0.00000000000E+00  0.14769746377E+04  0.14769746377E+04  0.25500000920E-02 0. -1.
       -2   -1    0    0    0  501  0.00000000000E+00  0.00000000000E+00 -0.10568166913E+03  0.10568166916E+03  0.25500000920E-02 0.  1.
    10030    2    1    2    0    0  0.00000000000E+00  0.00000000000E+00  0.13712929686E+04  0.15826563069E+04  0.79016237572E+03 0.  0.
        2    1    3    3  502    0 -0.35762377503E+03  0.16784084120E+03  0.67586836051E+03  0.78285589554E+03  0.25500000920E-02 0. -1.
       -2    1    3    3    0  502  0.35762377503E+03 -0.16784084120E+03  0.69542460807E+03  0.79980041133E+03  0.25500000920E-02 0.  1.
</event>
<event>
 5   0  0.1092868E-02  0.7659698E+03  0.7818609E-02  0.9610624E-01
        2   -1    0    0  501    0  0.00000000000E+00  0.00000000000E+00  0.80694720686E+03  0.80694720686E+03  0.25500000920E-02 0.  1.
       -2   -1    0    0    0  501  0.00000000000E+00  0.00000000000E+00 -0.18176831613E+03  0.18176831615E+03  0.25500000920E-02 0. -1.
    10030    2    1    2    0    0  0.00000000000E+00  0.00000000000E+00  0.62517889073E+03  0.98871552302E+03  0.76596980361E+03 0.  0.
        3    1    3    3  502    0  0.82569607714E+02 -0.35461577761E+03  0.46590357885E+03  0.59130046917E+03  0.10100000352E+00 0.  1.
       -3    1    3    3    0  502 -0.82569607714E+02  0.35461577761E+03  0.15927531188E+03  0.39741505385E+03  0.10100000352E+00 0. -1.
</event>
<event>
 5   0  0.1121480E-02  0.8257114E+03  0.7818609E-02  0.9523529E-01
        2   -1    0    0  501    0  0.00000000000E+00  0.00000000000E+00  0.22847902838E+04  0.22847902838E+04  0.25500000920E-02 0. -1.
       -2   -1    0    0    0  501  0.00000000000E+00  0.00000000000E+00 -0.74601955911E+02  0.74601955954E+02  0.25500000920E-02 0.  1.
    10030    2    1    2    0    0  0.00000000000E+00  0.00000000000E+00  0.22101883279E+04  0.23593922398E+04  0.82571138801E+03 0.  0.
        2    1    3    3  502    0  0.23977562892E+03 -0.32869348009E+03  0.13054809761E+04  0.13674108143E+04  0.25500000920E-02 0. -1.
       -2    1    3    3    0  502 -0.23977562892E+03  0.32869348009E+03  0.90470735179E+03  0.99198142546E+03  0.25500000920E-02 0.  1.
</event>
<event>
 5   0  0.1121480E-02  0.7978882E+03  0.7818609E-02  0.9563079E-01
       -2   -1    0    0    0  501  0.00000000000E+00  0.00000000000E+00  0.13470558852E+03  0.13470558855E+03  0.25500000920E-02 0. -1.
        2   -1    0    0  501    0  0.00000000000E+00  0.00000000000E+00 -0.11815130756E+04  0.11815130756E+04  0.25500000920E-02 0.  1.
    10030    2    1    2    0    0  0.00000000000E+00  0.00000000000E+00 -0.10468074871E+04  0.13162186642E+04  0.79788824836E+03 0.  0.
        2    1    3    3  502    0 -0.18283574714E+03 -0.26678784906E+03 -0.90869602541E+03  0.96453778228E+03  0.25500000920E-02 0.  1.
       -2    1    3    3    0  502  0.18283574714E+03  0.26678784906E+03 -0.13811146171E+03  0.35168088191E+03  0.25500000920E-02 0. -1.
</event>
<event>
 5   0  0.6596225E-03  0.7961305E+03  0.7818609E-02  0.9565635E-01
       -1   -1    0    0    0  501  0.00000000000E+00  0.00000000000E+00  0.22981629075E+03  0.22981629081E+03  0.50400001928E-02 0.  1.
        1   -1    0    0  501    0  0.00000000000E+00  0.00000000000E+00 -0.68948961817E+03  0.68948961818E+03  0.50400001928E-02 0. -1.
    10030    2    1    2    0    0  0.00000000000E+00  0.00000000000E+00 -0.45967332742E+03  0.91930590899E+03  0.79613050838E+03 0.  0.
        5    1    3    3  502    0 -0.70209098731E+02  0.36857703293E+03 -0.38326865324E+03  0.53637234950E+03  0.46999998093E+01 0. -1.
       -5    1    3    3    0  502  0.70209098731E+02 -0.36857703293E+03 -0.76404674174E+02  0.38293355949E+03  0.46999998093E+01 0.  1.
</event>
<event>
 5   0  0.6551489E-03  0.8122857E+03  0.7818609E-02  0.9542402E-01
       -1   -1    0    0    0  501  0.00000000000E+00  0.00000000000E+00  0.16858857725E+03  0.16858857732E+03  0.50400001928E-02 0.  1.
        1   -1    0    0  501    0  0.00000000000E+00  0.00000000000E+00 -0.97842931604E+03  0.97842931606E+03  0.50400001928E-02 0. -1.
    10030    2    1    2    0    0  0.00000000000E+00  0.00000000000E+00 -0.80984073879E+03  0.11470178934E+04  0.81228567975E+03 0.  0.
        4    1    3    3  502    0 -0.37944751079E+03  0.24083823140E+02 -0.60655701830E+03  0.71587252590E+03  0.12699999809E+01 0.  1.
       -4    1    3    3    0  502  0.37944751079E+03 -0.24083823140E+02 -0.20328372049E+03  0.43114536748E+03  0.12699999809E+01 0. -1.
</event>
<event>
 5   0  0.1121480E-02  0.8041466E+03  0.7818609E-02  0.9554034E-01
        2   -1    0    0  501    0  0.00000000000E+00  0.00000000000E+00  0.19973560787E+04  0.19973560787E+04  0.25500000920E-02 0.  1.
       -2   -1    0    0    0  501  0.00000000000E+00  0.00000000000E+00 -0.80938469329E+02  0.80938469369E+02  0.25500000920E-02 0. -1.
    10030    2    1    2    0    0  0.00000000000E+00  0.00000000000E+00  0.19164176093E+04  0.20782945480E+04  0.80414661289E+03 0.  0.
        2    1    3    3  502    0  0.40075947499E+03 -0.31630029337E+02  0.97725834531E+03  0.10567130590E+04  0.25500000920E-02 0.  1.
       -2    1    3    3    0  502 -0.40075947499E+03  0.31630029337E+02  0.93915926402E+03  0.10215814890E+04  0.25500000920E-02 0. -1.
</event>
<event>
 5   0  0.1121480E-02  0.7810516E+03  0.7818609E-02  0.9587857E-01
       -2   -1    0    0    0  501  0.00000000000E+00  0.00000000000E+00  0.15688287269E+03  0.15688287271E+03  0.25500000920E-02 0. -1.
        2   -1    0    0  501    0  0.00000000000E+00  0.00000000000E+00 -0.97212899460E+03  0.97212899460E+03  0.25500000920E-02 0.  1.
    10030    2    1    2    0    0  0.00000000000E+00  0.00000000000E+00 -0.81524612191E+03  0.11290118673E+04  0.78105157144E+03 0.  0.
        2    1    3    3  502    0  0.33937683263E+03 -0.13327249826E+03 -0.60984979793E+03  0.71053146965E+03  0.25500000920E-02 0.  1.
       -2    1    3    3    0  502 -0.33937683263E+03  0.13327249826E+03 -0.20539632398E+03  0.41848039767E+03  0.25500000920E-02 0. -1.
</event>
<event>
 5   0  0.4385875E-03  0.8057217E+03  0.7818609E-02  0.9551772E-01
       -3   -1    0    0    0  501  0.00000000000E+00  0.00000000000E+00  0.23534666653E+03  0.23534668820E+03  0.10100000352E+00 0.  1.
        3   -1    0    0  501    0  0.00000000000E+00  0.00000000000E+00 -0.68960754051E+03  0.68960754790E+03  0.10100000352E+00 0. -1.
    10030    2    1    2    0    0  0.00000000000E+00  0.00000000000E+00 -0.45426087398E+03  0.92495423610E+03  0.80572166239E+03 0.  0.
        2    1    3    3  502    0  0.26594315640E+03  0.21467996418E+03  0.17698428799E+02  0.34223746704E+03  0.25500000920E-02 0.  1.
       -2    1    3    3    0  502 -0.26594315640E+03 -0.21467996418E+03 -0.47195930278E+03  0.58271676906E+03  0.25500000920E-02 0. -1.
</event>
<event>
 5   0  0.1092868E-02  0.8198910E+03  0.7818609E-02  0.9531664E-01
       -2   -1    0    0    0  501  0.00000000000E+00  0.00000000000E+00  0.95265335866E+02  0.95265335900E+02  0.25500000920E-02 0.  1.
        2   -1    0    0  501    0  0.00000000000E+00  0.00000000000E+00 -0.17640762526E+04  0.17640762526E+04  0.25500000920E-02 0. -1.
    10030    2    1    2    0    0  0.00000000000E+00  0.00000000000E+00 -0.16688109167E+04  0.18593415885E+04  0.81989100916E+03 0.  0.
        3    1    3    3  502    0  0.38565916161E+03  0.84547271436E+02 -0.58418600422E+03  0.70509185768E+03  0.10100000352E+00 0.  1.
       -3    1    3    3    0  502 -0.38565916161E+03 -0.84547271436E+02 -0.10846249125E+04  0.11542497308E+04  0.10100000352E+00 0. -1.
</event>
<event>
 5   0  0.4385875E-03  0.8317127E+03  0.7818609E-02  0.9515216E-01
        4   -1    0    0  501    0  0.00000000000E+00  0.00000000000E+00  0.13316837097E+03  0.13317442670E+03  0.12699999809E+01 0. -1.
       -4   -1    0    0    0  501  0.00000000000E+00  0.00000000000E+00 -0.12985944981E+04  0.12985951191E+04  0.12699999809E+01 0.  1.
    10030    2    1    2    0    0  0.00000000000E+00  0.00000000000E+00 -0.11654261271E+04  0.14317695458E+04  0.83171267547E+03 0.  0.
        1    1    3    3  502    0  0.12755835959E+03 -0.39408848317E+03 -0.64618905904E+03  0.76755271332E+03  0.50400001928E-02 0.  1.
       -1    1    3    3    0  502 -0.12755835959E+03  0.39408848317E+03 -0.51923706807E+03  0.66421683248E+03  0.50400001928E-02 0. -1.
</event>
<event>
 5   0  0.6557679E-03  0.8093984E+03  0.7818609E-02  0.9546512E-01
        1   -1    0    0  501    0  0.00000000000E+00  0.00000000000E+00  0.36444836908E+03  0.36444836911E+03  0.50400001928E-02 0.  1.
       -1   -1    0    0    0  501  0.00000000000E+00  0.00000000000E+00 -0.44939544918E+03  0.44939544921E+03  0.50400001928E-02 0. -1.
    10030    2    1    2    0    0  0.00000000000E+00  0.00000000000E+00 -0.84947080106E+02  0.81384381832E+03  0.80939839029E+03 0.  0.
        1    1    3    3  502    0  0.37216218224E+02  0.25136428672E+03 -0.35918347134E+03  0.43997933775E+03  0.50400001928E-02 0. -1.
       -1    1    3    3    0  502 -0.37216218224E+02 -0.25136428672E+03  0.27423639123E+03  0.37386448058E+03  0.50400001928E-02 0.  1.
</event>
<event>
 5   0  0.1121480E-02  0.8003034E+03  0.7818609E-02  0.9559578E-01
       -2   -1    0    0    0  501  0.00000000000E+00  0.00000000000E+00  0.81585644347E+03  0.81585644348E+03  0.25500000920E-02 0.  1.
        2   -1    0    0  501    0  0.00000000000E+00  0.00000000000E+00 -0.19626169990E+03  0.19626169991E+03  0.25500000920E-02 0. -1.
    10030    2    1    2    0    0  0.00000000000E+00  0.00000000000E+00  0.61959474357E+03  0.10121181434E+04  0.80030337367E+03 0.  0.
        2    1    3    3  502    0 -0.12643365462E+03  0.12330653390E+03  0.76390198653E+03  0.78405115608E+03  0.25500000920E-02 0.  1.
       -2    1    3    3    0  502  0.12643365462E+03 -0.12330653390E+03 -0.14430724296E+03  0.22806698731E+03  0.25500000920E-02 0. -1.
</event>
<event>
 5   0  0.1154714E-02  0.8008650E+03  0.7818609E-02  0.9558766E-01
        2   -1    0    0  501    0  0.00000000000E+00  0.00000000000E+00  0.79680266376E+03  0.79680266376E+03  0.25500000920E-02 0.  1.
       -2   -1    0    0    0  501  0.00000000000E+00  0.00000000000E+00 -0.20123700908E+03  0.20123700909E+03  0.25500000920E-02 0. -1.
    10030    2    1    2    0    0  0.00000000000E+00  0.00000000000E+00  0.59556565468E+03  0.99803967285E+03  0.80086499459E+03 0.  0.
        5    1    3    3  502    0  0.11299976093E+03  0.36190595000E+03  0.45824427349E+03  0.59477286993E+03  0.46999998093E+01 0.  1.
       -5    1    3    3    0  502 -0.11299976093E+03 -0.36190595000E+03  0.13732138119E+03  0.40326680293E+03  0.46999998093E+01 0. -1.
</event>
<event>
 5   0  0.4385875E-03  0.7937219E+03  0.7818609E-02  0.9569149E-01
        4   -1    0    0  501    0  0.00000000000E+00  0.00000000000E+00  0.14152491238E+03  0.14153061056E+03  0.12699999809E+01 0. -1.
       -4   -1    0    0    0  501  0.00000000000E+00  0.00000000000E+00 -0.11128400298E+04  0.11128407544E+04  0.12699999809E+01 0.  1.
    10030    2    1    2    0    0  0.00000000000E+00  0.00000000000E+00 -0.97131511737E+03  0.12543713650E+04  0.79372190600E+03 0.  0.
        1    1    3    3  502    0  0.26283247202E+03  0.26618717552E+03 -0.27622416577E+03  0.46501216172E+03  0.50400001928E-02 0. -1.
       -1    1    3    3    0  502 -0.26283247202E+03 -0.26618717552E+03 -0.69509095161E+03  0.78935920327E+03  0.50400001928E-02 0.  1.
</event>
<event>
 5   0  0.6596225E-03  0.7985419E+03  0.7818609E-02  0.9562130E-01
       -1   -1    0    0    0  501  0.00000000000E+00  0.00000000000E+00  0.20427309966E+03  0.20427309972E+03  0.50400001928E-02 0. -1.
        1   -1    0    0  501    0  0.00000000000E+00  0.00000000000E+00 -0.78041262904E+03  0.78041262906E+03  0.50400001928E-02 0.  1.
    10030    2    1    2    0    0  0.00000000000E+00  0.00000000000E+00 -0.57613952938E+03  0.98468572878E+03  0.79854193825E+03 0.  0.
        5    1    3    3  502    0 -0.31837121729E+03  0.18609536846E+03 -0.99426933032E+02  0.38196796093E+03  0.46999998093E+01 0. -1.
       -5    1    3    3    0  502  0.31837121729E+03 -0.18609536846E+03 -0.47671259635E+03  0.60271776785E+03  0.46999998093E+01 0.  1.
</event>
<event>
 5   0  0.1119792E-02  0.8172031E+03  0.7818609E-02  0.9535445E-01
       -2   -1    0    0    0  501  0.00000000000E+00  0.00000000000E+00  0.15664482156E+03  0.15664482158E+03  0.25500000920E-02 0. -1.
        2   -1    0    0  501    0  0.00000000000E+00  0.00000000000E+00 -0.10658201688E+04  0.10658201688E+04  0.25500000920E-02 0.  1.
    10030    2    1    2    0    0  0.00000000000E+00  0.00000000000E+00 -0.90917534723E+03  0.12224649904E+04  0.81720305965E+03 0.  0.
        4    1    3    3  502    0 -0.30496524170E+03 -0.87968663227E+02 -0.83950950753E+03  0.89750772169E+03  0.12699999809E+01 0.  1.
       -4    1    3    3    0  502  0.30496524170E+03  0.87968663227E+02 -0.69665839706E+02  0.32495726870E+03  0.12699999809E+01 0. -1.
</event>
<event>
 5   0  0.6517392E-03  0.8062005E+03  0.7818609E-02  0.9551085E-01
       -1   -1    0    0    0  501  0.00000000000E+00  0.00000000000E+00  0.39765086187E+03  0.39765086190E+03  0.50400001928E-02 0. -1.
        1   -1    0    0  501    0  0.00000000000E+00  0.00000000000E+00 -0.40862433144E+03  0.40862433147E+03  0.50400001928E-02 0.  1.
    10030    2    1    2    0    0  0.00000000000E+00  0.00000000000E+00 -0.10973469570E+02  0.80627519337E+03  0.80620051501E+03 0.  0.
        3    1    3    3  502    0 -0.15556526041E+03  0.37175740922E+03  0.37707875028E+01  0.40301160107E+03  0.10100000352E+00 0.  1.
       -3    1    3    3    0  502  0.15556526041E+03 -0.37175740922E+03 -0.14744257072E+02  0.40326359230E+03  0.10100000352E+00 0. -1.
</event>
<event>
 5   0  0.6600401E-03  0.7982991E+03  0.7818609E-02  0.9562482E-01
       -1   -1    0    0    0  501  0.00000000000E+00  0.00000000000E+00  0.97066099419E+02  0.97066099550E+02  0.50400001928E-02 0.  1.
        1   -1    0    0  501    0  0.00000000000E+00  0.00000000000E+00 -0.16413594627E+04  0.16413594627E+04  0.50400001928E-02 0. -1.
    10030    2    1    2    0    0  0.00000000000E+00  0.00000000000E+00 -0.15442933633E+04  0.17384255623E+04  0.79829909410E+03 0.  0.
        2    1    3    3  502    0 -0.15438853889E+03 -0.44612780119E+02 -0.15677960571E+04  0.15760109764E+04  0.25500000920E-02 0. -1.
       -2    1    3    3    0  502  0.15438853889E+03  0.44612780119E+02  0.23502693778E+02  0.16241458589E+03  0.25500000920E-02 0.  1.
</event>
<event>
 5   0  0.1121480E-02  0.8100835E+03  0.7818609E-02  0.9545535E-01
       -2   -1    0    0    0  501  0.00000000000E+00  0.00000000000E+00  0.53168219669E+03  0.53168219670E+03  0.25500000920E-02 0.  1.
        2   -1    0    0  501    0  0.00000000000E+00  0.00000000000E+00 -0.30856554410E+03  0.30856554411E+03  0.25500000920E-02 0. -1.
    10030    2    1    2    0    0  0.00000000000E+00  0.00000000000E+00  0.22311665260E+03  0.84024774081E+03  0.81008346809E+03 0.  0.
        2    1    3    3  502    0 -0.21679671398E+03  0.34133285032E+03  0.13588093350E+03  0.42658241642E+03  0.25500000920E-02 0.  1.
       -2    1    3    3    0  502  0.21679671398E+03 -0.34133285032E+03  0.87235719093E+02  0.41366532438E+03  0.25500000920E-02 0. -1.
</event>
<event>
 5   0  0.1154714E-02  0.7991196E+03  0.7818609E-02  0.9561292E-01
       -2   -1    0    0    0  501  0.00000000000E+00  0.00000000000E+00  0.17358657015E+03  0.17358657017E+03  0.25500000920E-02 0. -1.
        2   -1    0    0  501    0  0.00000000000E+00  0.00000000000E+00 -0.91970273342E+03  0.91970273342E+03  0.25500000920E-02 0.  1.
    10030    2    1    2    0    0  0.00000000000E+00  0.00000000000E+00 -0.74611616327E+03  0.10932893036E+04  0.79911962325E+03 0.  0.
        5    1    3    3  502    0 -0.24875544013E+03  0.29120846371E+03 -0.21740316764E+03  0.44041783073E+03  0.46999998093E+01 0. -1.
       -5    1    3    3    0  502  0.24875544013E+03 -0.29120846371E+03 -0.52871299563E+03  0.65287147286E+03  0.46999998093E+01 0.  1.
</event>
<event>
 5   0  0.6551489E-03  0.8004600E+03  0.7818609E-02  0.9559352E-01
       -1   -1    0    0    0  501  0.00000000000E+00  0.00000000000E+00  0.47272109032E+03  0.47272109035E+03  0.50400001928E-02 0.  1.
        1   -1    0    0  501    0  0.00000000000E+00  0.00000000000E+00 -0.33885528391E+03  0.33885528395E+03  0.50400001928E-02 0. -1.
    10030    2    1    2    0    0  0.00000000000E+00  0.00000000000E+00  0.13386580641E+03  0.81157637430E+03  0.80045996601E+03 0.  0.
        4    1    3    3  502    0  0.98388942292E+02 -0.35948967760E+03 -0.80932135596E+02  0.38139852613E+03  0.12699999809E+01 0. -1.
       -4    1    3    3    0  502 -0.98388942292E+02  0.35948967760E+03  0.21479794200E+03  0.43017784817E+03  0.12699999809E+01 0.  1.
</event>
<event>
 5   0  0.1154714E-02  0.8343605E+03  0.7818609E-02  0.9511572E-01
       -2   -1    0    0    0  501  0.00000000000E+00  0.00000000000E+00  0.36626756307E+03  0.36626756308E+03  0.25500000920E-02 0. -1.
        2   -1    0    0  501    0  0.00000000000E+00  0.00000000000E+00 -0.47516999193E+03  0.47516999194E+03  0.25500000920E-02 0.  1.
    10030    2    1    2    0    0  0.00000000000E+00  0.00000000000E+00 -0.10890242886E+03  0.84143755502E+03  0.83436048563E+03 0.  0.
        5    1    3    3  502    0  0.24914237531E+03  0.32926805350E+03  0.54486346380E+01  0.41296628416E+03  0.46999998093E+01 0. -1.
       -5    1    3    3    0  502 -0.24914237531E+03 -0.32926805350E+03 -0.11435106350E+03  0.42847127086E+03  0.46999998093E+01 0.  1.
</event>
<event>
 5   0  0.4385875E-03  0.8022612E+03  0.7818609E-02  0.9556750E-01
        3   -1    0    0  501    0  0.00000000000E+00  0.00000000000E+00  0.61723930726E+03  0.61723931552E+03  0.10100000352E+00 0. -1.
       -3   -1    0    0    0  501  0.00000000000E+00  0.00000000000E+00 -0.26068613644E+03  0.26068615601E+03  0.10100000352E+00 0.  1.
    10030    2    1    2    0    0  0.00000000000E+00  0.00000000000E+00  0.35655317082E+03  0.87792547153E+03  0.80226116068E+03 0.  0.
        3    1    3    3  502    0  0.12450767211E+03 -0.74236872206E+02  0.58757403040E+03  0.60519131274E+03  0.10100000352E+00 0. -1.
       -3    1    3    3    0  502 -0.12450767211E+03  0.74236872206E+02 -0.23102085958E+03  0.27273415879E+03  0.10100000352E+00 0.  1.
</event>
<event>
 5   0  0.6517392E-03  0.8008699E+03  0.7818609E-02  0.9558759E-01
        1   -1    0    0  501    0  0.00000000000E+00  0.00000000000E+00  0.41900552661E+03  0.41900552664E+03  0.50400001928E-02 0.  1.
       -1   -1    0    0    0  501  0.00000000000E+00  0.00000000000E+00 -0.38268741516E+03  0.38268741519E+03  0.50400001928E-02 0. -1.
    10030    2    1    2    0    0  0.00000000000E+00  0.00000000000E+00  0.36318111455E+02  0.80169294183E+03  0.80086988192E+03 0.  0.
        3    1    3    3  502    0 -0.32344254130E+03 -0.48032466574E+02 -0.21321900127E+03  0.39036463476E+03  0.10100000352E+00 0. -1.
       -3    1    3    3    0  502  0.32344254130E+03  0.48032466574E+02  0.24953711272E+03  0.41132830707E+03  0.10100000352E+00 0.  1.
</event>
<event>
 5   0  0.1121480E-02  0.8015600E+03  0.7818609E-02  0.9557762E-01
       -2   -1    0    0    0  501  0.00000000000E+00  0.00000000000E+00  0.17419224890E+03  0.17419224892E+03  0.25500000920E-02 0.  1.
        2   -1    0    0  501    0  0.00000000000E+00  0.00000000000E+00 -0.92211112664E+03  0.92211112665E+03  0.25500000920E-02 0. -1.
    10030    2    1    2    0    0  0.00000000000E+00  0.00000000000E+00 -0.74791887774E+03  0.10963033756E+04  0.80156000624E+03 0.  0.
        2    1    3    3  502    0 -0.33736699885E+02  0.18582680956E+03 -0.85743136138E+03  0.87798536864E+03  0.25500000920E-02 0. -1.
       -2    1    3    3    0  502  0.33736699885E+02 -0.18582680956E+03  0.10951248364E+03  0.21831800693E+03  0.25500000920E-02 0.  1.
</event>
<event>
 5   0  0.1092868E-02  0.7906480E+03  0.7818609E-02  0.9573653E-01
        2   -1    0    0  501    0  0.00000000000E+00  0.00000000000E+00  0.56421537269E+03  0.56421537270E+03  0.25500000920E-02 0. -1.
       -2   -1    0    0    0  501  0.00000000000E+00  0.00000000000E+00 -0.27698832612E+03  0.27698832613E+03  0.25500000920E-02 0.  1.
    10030    2    1    2    0    0  0.00000000000E+00  0.00000000000E+00  0.28722704657E+03  0.84120369883E+03  0.79064801691E+03 0.  0.
        3    1    3    3  502    0  0.35816416137E+03  0.11051710641E+03  0.27728743773E+03  0.46624449661E+03  0.10100000352E+00 0. -1.
       -3    1    3    3    0  502 -0.35816416137E+03 -0.11051710641E+03  0.99396088426E+01  0.37495920221E+03  0.10100000352E+00 0.  1.
</event>
<event>
 5   0  0.1106332E-02  0.7981226E+03  0.7818609E-02  0.9562739E-01
       -2   -1    0    0    0  501  0.00000000000E+00  0.00000000000E+00  0.19889850226E+03  0.19889850228E+03  0.25500000920E-02 0. -1.
        2   -1    0    0  501    0  0.00000000000E+00  0.00000000000E+00 -0.80065919773E+03  0.80065919774E+03  0.25500000920E-02 0.  1.
    10030    2    1    2    0    0  0.00000000000E+00  0.00000000000E+00 -0.60176069547E+03  0.99955770002E+03  0.79812258523E+03 0.  0.
        1    1    3    3  502    0  0.40465466601E+02 -0.19703404171E+03 -0.73252692022E+03  0.75964172901E+03  0.50400001928E-02 0.  1.
       -1    1    3    3    0  502 -0.40465466601E+02  0.19703404171E+03  0.13076622475E+03  0.23991597100E+03  0.50400001928E-02 0. -1.
</event>
<event>
 5   0  0.6557679E-03  0.8014463E+03  0.7818609E-02  0.9557926E-01
       -1   -1    0    0    0  501  0.00000000000E+00  0.00000000000E+00  0.99875443846E+02  0.99875443973E+02  0.50400001928E-02 0. -1.
        1   -1    0    0  501    0  0.00000000000E+00  0.00000000000E+00 -0.16077929200E+04  0.16077929200E+04  0.50400001928E-02 0.  1.
    10030    2    1    2    0    0  0.00000000000E+00  0.00000000000E+00 -0.15079174762E+04  0.17076683640E+04  0.80144627172E+03 0.  0.
        1    1    3    3  502    0  0.78974778605E+02 -0.37374353050E+03 -0.10119252656E+04  0.10816256217E+04  0.50400001928E-02 0.  1.
       -1    1    3    3    0  502 -0.78974778605E+02  0.37374353050E+03 -0.49599221052E+03  0.62604274229E+03  0.50400001928E-02 0. -1.
</event>
<event>
 5   0  0.1092868E-02  0.7851949E+03  0.7818609E-02  0.9581698E-01
        2   -1    0    0  501    0  0.00000000000E+00  0.00000000000E+00  0.96411600755E+03  0.96411600756E+03  0.25500000920E-02 0.  1.
       -2   -1    0    0    0  501  0.00000000000E+00  0.00000000000E+00 -0.15986950753E+03  0.15986950756E+03  0.25500000920E-02 0. -1.
    10030    2    1    2    0    0  0.00000000000E+00  0.00000000000E+00  0.80424650002E+03  0.11239855151E+04  0.78519488370E+03 0.  0.
        3    1    3    3  502    0 -0.70712421661E+02  0.37095792110E+03  0.55578319378E+03  0.67194121357E+03  0.10100000352E+00 0.  1.
       -3    1    3    3    0  502  0.70712421661E+02 -0.37095792110E+03  0.24846330624E+03  0.45204430154E+03  0.10100000352E+00 0. -1.
</event>
<event>
 5   0  0.6551489E-03  0.7989004E+03  0.7818609E-02  0.9561610E-01
        1   -1    0    0  501    0  0.00000000000E+00  0.00000000000E+00  0.77507077346E+03  0.77507077348E+03  0.50400001928E-02 0. -1.
       -1   -1    0    0    0  501  0.00000000000E+00  0.00000000000E+00 -0.20586568422E+03  0.20586568428E+03  0.50400001928E-02 0.  1.
    10030    2    1    2    0    0  0.00000000000E+00  0.00000000000E+00  0.56920508924E+03  0.98093645775E+03  0.79890043218E+03 0.  0.
        4    1    3    3  502    0  0.36926261423E+03  0.12528769909E+03  0.17821745940E+03  0.42873647098E+03  0.12699999809E+01 0.  1.
       -4    1    3    3    0  502 -0.36926261423E+03 -0.12528769909E+03  0.39098762984E+03  0.55219998678E+03  0.12699999809E+01 0. -1.
</event>
<event>
 5   0  0.1154714E-02  0.8039180E+03  0.7818609E-02  0.9554363E-01
       -2   -1    0    0    0  501  0.00000000000E+00  0.00000000000E+00  0.49444478672E+03  0.49444478673E+03  0.25500000920E-02 0. -1.
        2   -1    0    0  501    0  0.00000000000E+00  0.00000000000E+00 -0.32677266237E+03  0.32677266238E+03  0.25500000920E-02 0.  1.
    10030    2    1    2    0    0  0.00000000000E+00  0.00000000000E+00  0.16767212435E+03  0.82121744911E+03  0.80391800418E+03 0.  0.
        5    1    3    3  502    0 -0.24801405568E+03 -0.26991611569E+03 -0.84585327828E+02  0.37622127665E+03  0.46999998093E+01 0.  1.
       -5    1    3    3    0  502  0.24801405568E+03  0.26991611569E+03  0.25225745218E+03  0.44499617246E+03  0.46999998093E+01 0. -1.
</event>
<event>
 5   0  0.6551489E-03  0.7941323E+03  0.7818609E-02  0.9568549E-01
       -1   -1    0    0    0  501  0.00000000000E+00  0.00000000000E+00  0.19333149599E+03  0.19333149606E+03  0.50400001928E-02 0.  1.
        1   -1    0    0  501    0  0.00000000000E+00  0.00000000000E+00 -0.81549850217E+03  0.81549850218E+03  0.50400001928E-02 0. -1.
    10030    2    1    2    0    0  0.00000000000E+00  0.00000000000E+00 -0.62216700618E+03  0.10088299982E+04  0.79413234525E+03 0.  0.
        4    1    3    3  502    0  0.48658443975E+02 -0.31702742743E+03 -0.60842772069E+03  0.68779352870E+03  0.12699999809E+01 0. -1.
       -4    1    3    3    0  502 -0.48658443975E+02  0.31702742743E+03 -0.13739285487E+02  0.32103646955E+03  0.12699999809E+01 0.  1.
</event>
<event>
 5   0  0.6517392E-03  0.7996359E+03  0.7818609E-02  0.9560544E-01
        1   -1    0    0  501    0  0.00000000000E+00  0.00000000000E+00  0.32183205555E+03  0.32183205559E+03  0.50400001928E-02 0. -1.
       -1   -1    0    0    0  501  0.00000000000E+00  0.00000000000E+00 -0.49670132651E+03  0.49670132654E+03  0.50400001928E-02 0.  1.
    10030    2    1    2    0    0  0.00000000000E+00  0.00000000000E+00 -0.17486927096E+03  0.81853338213E+03  0.79963593950E+03 0.  0.
        3    1    3    3  502    0 -0.21563554740E+03  0.32272573576E+03 -0.18563834373E+03  0.43024666726E+03  0.10100000352E+00 0. -1.
       -3    1    3    3    0  502  0.21563554740E+03 -0.32272573576E+03  0.10769072770E+02  0.38828671488E+03  0.10100000352E+00 0.  1.
</event>
<event>
 5   0  0.1106332E-02  0.8017692E+03  0.7818609E-02  0.9557460E-01
        2   -1    0    0  501    0  0.00000000000E+00  0.00000000000E+00  0.32775500427E+03  0.32775500428E+03  0.25500000920E-02 0. -1.
       -2   -1    0    0    0  501  0.00000000000E+00  0.00000000000E+00 -0.49033105756E+03  0.49033105757E+03  0.25500000920E-02 0.  1.
    10030    2    1    2    0    0  0.00000000000E+00  0.00000000000E+00 -0.16257605329E+03  0.81808606185E+03  0.80176918841E+03 0.  0.
        1    1    3    3  502    0 -0.39601507997E+02  0.28273833615E+03 -0.36843884632E+03  0.46610774470E+03  0.50400001928E-02 0.  1.
       -1    1    3    3    0  502  0.39601507997E+02 -0.28273833615E+03  0.20586279303E+03  0.35197831715E+03  0.50400001928E-02 0. -1.
</event>
<event>
 5   0  0.1119792E-02  0.7946083E+03  0.7818609E-02  0.9567854E-01
       -2   -1    0    0    0  501  0.00000000000E+00  0.00000000000E+00  0.21872349742E+03  0.21872349743E+03  0.25500000920E-02 0.  1.
        2   -1    0    0  501    0  0.00000000000E+00  0.00000000000E+00 -0.72169018868E+03  0.72169018869E+03  0.25500000920E-02 0. -1.
    10030    2    1    2    0    0  0.00000000000E+00  0.00000000000E+00 -0.50296669126E+03  0.94041368612E+03  0.79460833655E+03 0.  0.
        4    1    3    3  502    0  0.21571948928E+03 -0.17241425646E+02 -0.64581371358E+03  0.68110875076E+03  0.12699999809E+01 0. -1.
       -4    1    3    3    0  502 -0.21571948928E+03  0.17241425646E+02  0.14284702232E+03  0.25930493536E+03  0.12699999809E+01 0.  1.
</event>
<event>
 5   0  0.1092868E-02  0.7980478E+03  0.7818609E-02  0.9562847E-01
        2   -1    0    0  501    0  0.00000000000E+00  0.00000000000E+00  0.12602787299E+04  0.12602787299E+04  0.25500000920E-02 0.  1.
       -2   -1    0    0    0  501  0.00000000000E+00  0.00000000000E+00 -0.12633718391E+03  0.12633718393E+03  0.25500000920E-02 0. -1.
    10030    2    1    2    0    0  0.00000000000E+00  0.00000000000E+00  0.11339415460E+04  0.13866159139E+04  0.79804778228E+03 0.  0.
        3    1    3    3  502    0  0.55586867642E+02  0.20278256086E+02 -0.11867217828E+03  0.13260544341E+03  0.10100000352E+00 0. -1.
       -3    1    3    3    0  502 -0.55586867642E+02 -0.20278256086E+02  0.12526137243E+04  0.12540104705E+04  0.10100000352E+00 0.  1.
</event>
<event>
 5   0  0.6600401E-03  0.8063145E+03  0.7818609E-02  0.9550922E-01
       -1   -1    0    0    0  501  0.00000000000E+00  0.00000000000E+00  0.14504293070E+03  0.14504293078E+03  0.50400001928E-02 0.  1.
        1   -1    0    0  501    0  0.00000000000E+00  0.00000000000E+00 -0.11206045573E+04  0.11206045573E+04  0.50400001928E-02 0. -1.
    10030    2    1    2    0    0  0.00000000000E+00  0.00000000000E+00 -0.97556162661E+03  0.12656474881E+04  0.80631450243E+03 0.  0.
        2    1    3    3  502    0  0.26591135713E+03 -0.49319478246E+02 -0.18466596184E+02  0.27107614423E+03  0.25500000920E-02 0.  1.
       -2    1    3    3    0  502 -0.26591135713E+03  0.49319478246E+02 -0.95709503043E+03  0.99457134388E+03  0.25500000920E-02 0. -1.
</event>
<event>
 5   0  0.6600401E-03  0.8027371E+03  0.7818609E-02  0.9556064E-01
        1   -1    0    0  501    0  0.00000000000E+00  0.00000000000E+00  0.12475369942E+04  0.12475369943E+04  0.50400001928E-02 0.  1.
       -1   -1    0    0    0  501  0.00000000000E+00  0.00000000000E+00 -0.12913180591E+03  0.12913180601E+03  0.50400001928E-02 0. -1.
    10030    2    1    2    0    0  0.00000000000E+00  0.00000000000E+00  0.11184051883E+04  0.13766688003E+04  0.80273708046E+03 0.  0.
        2    1    3    3  502    0  0.98218773078E+02 -0.11792802678E+03 -0.76823611649E+02  0.17162696233E+03  0.25500000920E-02 0. -1.
       -2    1    3    3    0  502 -0.98218773078E+02  0.11792802678E+03  0.11952288000E+04  0.12050418379E+04  0.25500000920E-02 0.  1.
</event>
<event>
 5   0  0.1154714E-02  0.7922830E+03  0.7818609E-02  0.9571255E-01
       -2   -1    0    0    0  501  0.00000000000E+00  0.00000000000E+00  0.23183159434E+03  0.23183159436E+03  0.25500000920E-02 0. -1.
        2   -1    0    0  501    0  0.00000000000E+00  0.00000000000E+00 -0.67690551976E+03  0.67690551977E+03  0.25500000920E-02 0.  1.
    10030    2    1    2    0    0  0.00000000000E+00  0.00000000000E+00 -0.44507392542E+03  0.90873711412E+03  0.79228299458E+03 0.  0.
        5    1    3    3  502    0 -0.24305635055E+03 -0.13334113384E+03  0.10198038419E+03  0.29542907148E+03  0.46999998093E+01 0. -1.
       -5    1    3    3    0  502  0.24305635055E+03  0.13334113384E+03 -0.54705430961E+03  0.61330804265E+03  0.46999998093E+01 0.  1.
</event>
<event>
 5   0  0.6557679E-03  0.8035453E+03  0.7818609E-02  0.9554900E-01
        1   -1    0    0  501    0  0.00000000000E+00  0.00000000000E+00  0.13409544902E+04  0.13409544902E+04  0.50400001928E-02 0. -1.
       -1   -1    0    0    0  501  0.00000000000E+00  0.00000000000E+00 -0.12037788258E+03  0.12037788268E+03  0.50400001928E-02 0.  1.
    10030    2    1    2    0    0  0.00000000000E+00  0.00000000000E+00  0.12205766076E+04  0.14613323728E+04  0.80354529989E+03 0.  0.
        1    1    3    3  502    0 -0.15179093239E+03 -0.31938571646E+03  0.26344651260E+03  0.44096687865E+03  0.50400001928E-02 0.  1.
       -1    1    3    3    0  502  0.15179093239E+03  0.31938571646E+03  0.95713009497E+03  0.10203654942E+04  0.50400001928E-02 0. -1.
</event>
<event>
 5   0  0.1092868E-02  0.8009859E+03  0.7818609E-02  0.9558591E-01
       -2   -1    0    0    0  501  0.00000000000E+00  0.00000000000E+00  0.59888432057E+03  0.59888432057E+03  0.25500000920E-02 0. -1.
        2   -1    0    0  501    0  0.00000000000E+00  0.00000000000E+00 -0.26782232813E+03  0.26782232814E+03  0.25500000920E-02 0.  1.
    10030    2    1    2    0    0  0.00000000000E+00  0.00000000000E+00  0.33106199244E+03  0.86670664871E+03  0.80098587509E+03 0.  0.
        3    1    3    3  502    0  0.60775927731E+02  0.38947993665E+03  0.24209126808E+03  0.46259758616E+03  0.10100000352E+00 0.  1.
       -3    1    3    3    0  502 -0.60775927731E+02 -0.38947993665E+03  0.88970724356E+02  0.40410906255E+03  0.10100000352E+00 0. -1.
</event>
<event>
 5   0  0.4385875E-03  0.7974912E+03  0.7818609E-02  0.9563656E-01
       -4   -1    0    0    0  501  0.00000000000E+00  0.00000000000E+00  0.47646085153E+03  0.47646254411E+03  0.12699999809E+01 0.  1.
        4   -1    0    0  501    0  0.00000000000E+00  0.00000000000E+00 -0.33370293870E+03  0.33370535536E+03  0.12699999809E+01 0. -1.
    10030    2    1    2    0    0  0.00000000000E+00  0.00000000000E+00  0.14275791284E+03  0.81016789947E+03  0.79749119346E+03 0.  0.
        5    1    3    3  502    0  0.39411089150E+03 -0.29544798537E+02  0.17818307109E+02  0.39564614492E+03  0.46999998093E+01 0. -1.
       -5    1    3    3    0  502 -0.39411089150E+03  0.29544798537E+02  0.12493960573E+03  0.41452175455E+03  0.46999998093E+01 0.  1.
</event>
<event>
 5   0  0.6551489E-03  0.7795145E+03  0.7818609E-02  0.9590152E-01
        1   -1    0    0  501    0  0.00000000000E+00  0.00000000000E+00  0.28061731249E+03  0.28061731253E+03  0.50400001928E-02 0. -1.
       -1   -1    0    0    0  501  0.00000000000E+00  0.00000000000E+00 -0.54134479369E+03  0.54134479371E+03  0.50400001928E-02 0.  1.
    10030    2    1    2    0    0  0.00000000000E+00  0.00000000000E+00 -0.26072748120E+03  0.82196210624E+03  0.77951451856E+03 0.  0.
        4    1    3    3  502    0 -0.22087736521E+03  0.47545531340E+02  0.20451746419E+03  0.30475628635E+03  0.12699999809E+01 0. -1.
       -4    1    3    3    0  502  0.22087736521E+03 -0.47545531340E+02 -0.46524494539E+03  0.51720581989E+03  0.12699999809E+01 0.  1.
</event>
<event>
 5   0  0.6596225E-03  0.7987103E+03  0.7818609E-02  0.9561886E-01
       -1   -1    0    0    0  501  0.00000000000E+00  0.00000000000E+00  0.51924225681E+03  0.51924225684E+03  0.50400001928E-02 0. -1.
        1   -1    0    0  501    0  0.00000000000E+00  0.00000000000E+00 -0.30714863165E+03  0.30714863169E+03  0.50400001928E-02 0.  1.
    10030    2    1    2    0    0  0.00000000000E+00  0.00000000000E+00  0.21209362516E+03  0.82639088853E+03  0.79871033223E+03 0.  0.
        5    1    3    3  502    0 -0.70104251023E+02 -0.25893247789E+03  0.41210554280E+03  0.49174556686E+03  0.46999998093E+01 0. -1.
       -5    1    3    3    0  502  0.70104251023E+02  0.25893247789E+03 -0.20001191764E+03  0.33464532167E+03  0.46999998093E+01 0.  1.
</event>
<event>
 5   0  0.1119792E-02  0.8110758E+03  0.7818609E-02  0.9544122E-01
        2   -1    0    0  501    0  0.00000000000E+00  0.00000000000E+00  0.77020743612E+03  0.77020743612E+03  0.25500000920E-02 0. -1.
       -2   -1    0    0    0  501  0.00000000000E+00  0.00000000000E+00 -0.21352819866E+03  0.21352819867E+03  0.25500000920E-02 0.  1.
    10030    2    1    2    0    0  0.00000000000E+00  0.00000000000E+00  0.55667923746E+03  0.98373563479E+03  0.81107584463E+03 0.  0.
        4    1    3    3  502    0 -0.19813387541E+03 -0.20032457641E+03  0.63210175061E+03  0.69205578137E+03  0.12699999809E+01 0. -1.
       -4    1    3    3    0  502  0.19813387541E+03  0.20032457641E+03 -0.75422513152E+02  0.29167985342E+03  0.12699999809E+01 0.  1.
</event>
<event>
 5   0  0.6596225E-03  0.8415860E+03  0.7818609E-02  0.9501700E-01
       -1   -1    0    0    0  501  0.00000000000E+00  0.00000000000E+00  0.22958028423E+03  0.22958028429E+03  0.50400001928E-02 0. -1.
        1   -1    0    0  501    0  0.00000000000E+00  0.00000000000E+00 -0.77126278656E+03  0.77126278658E+03  0.50400001928E-02 0.  1.
    10030    2    1    2    0    0  0.00000000000E+00  0.00000000000E+00 -0.54168250233E+03  0.10008430709E+04  0.84158595471E+03 0.  0.
        5    1    3    3  502    0 -0.28287519945E+03 -0.95005833424E+02 -0.62362552835E+03  0.69135763282E+03  0.46999998093E+01 0.  1.
       -5    1    3    3    0  502  0.28287519945E+03  0.95005833424E+02  0.81943026019E+02  0.30948543804E+03  0.46999998093E+01 0. -1.
</event>
<event>
 5   0  0.1121480E-02  0.8009843E+03  0.7818609E-02  0.9558593E-01
       -2   -1    0    0    0  501  0.00000000000E+00  0.00000000000E+00  0.11009121276E+03  0.11009121279E+03  0.25500000920E-02 0. -1.
        2   -1    0    0  501    0  0.00000000000E+00  0.00000000000E+00 -0.14569188433E+04  0.14569188433E+04  0.25500000920E-02 0.  1.
    10030    2    1    2    0    0  0.00000000000E+00  0.00000000000E+00 -0.13468276306E+04  0.15670100561E+04  0.80098430040E+03 0.  0.
        2    1    3    3  502    0  0.30782063800E+03  0.10459461862E+03 -0.21585917611E+03  0.39024192924E+03  0.25500000920E-02 0. -1.
       -2    1    3    3    0  502 -0.30782063800E+03 -0.10459461862E+03 -0.11309684545E+04  0.11767681269E+04  0.25500000920E-02 0.  1.
</event>
<event>
 5   0  0.6600401E-03  0.7995181E+03  0.7818609E-02  0.9560715E-01
       -1   -1    0    0    0  501  0.00000000000E+00  0.00000000000E+00  0.14737501268E+04  0.14737501268E+04  0.50400001928E-02 0.  1.
        1   -1    0    0  501    0  0.00000000000E+00  0.00000000000E+00 -0.10843582597E+03  0.10843582609E+03  0.50400001928E-02 0. -1.
    10030    2    1    2    0    0  0.00000000000E+00  0.00000000000E+00  0.13653143008E+04  0.15821859529E+04  0.79951813580E+03 0.  0.
        2    1    3    3  502    0  0.28766184368E+03 -0.18607136280E+03  0.27500148922E+03  0.43931504350E+03  0.25500000920E-02 0. -1.
       -2    1    3    3    0  502 -0.28766184368E+03  0.18607136280E+03  0.10903128116E+04  0.11428709094E+04  0.25500000920E-02 0.  1.
</event>
<event>
 5   0  0.6551489E-03  0.7911292E+03  0.7818609E-02  0.9572947E-01
        1   -1    0    0  501    0  0.00000000000E+00  0.00000000000E+00  0.38628683768E+03  0.38628683771E+03  0.50400001928E-02 0. -1.
       -1   -1    0    0    0  501  0.00000000000E+00  0.00000000000E+00 -0.40506523971E+03  0.40506523974E+03  0.50400001928E-02 0.  1.
    10030    2    1    2    0    0  0.00000000000E+00  0.00000000000E+00 -0.18778402034E+02  0.79135207745E+03  0.79112924488E+03 0.  0.
        4    1    3    3  502    0 -0.14308502735E+03  0.20649102746E+03 -0.31502049303E+03  0.40292852146E+03  0.12699999809E+01 0.  1.
       -4    1    3    3    0  502  0.14308502735E+03 -0.20649102746E+03  0.29624209100E+03  0.38842355599E+03  0.12699999809E+01 0. -1.
</event>
<event>
 5   0  0.1121480E-02  0.7998367E+03  0.7818609E-02  0.9560254E-01
        2   -1    0    0  501    0  0.00000000000E+00  0.00000000000E+00  0.91791212811E+03  0.91791212812E+03  0.25500000920E-02 0.  1.
       -2   -1    0    0    0  501  0.00000000000E+00  0.00000000000E+00 -0.17423746835E+03  0.17423746837E+03  0.25500000920E-02 0. -1.
    10030    2    1    2    0    0  0.00000000000E+00  0.00000000000E+00  0.74367465976E+03  0.10921495965E+04  0.79983669680E+03 0.  0.
        2    1    3    3  502    0  0.64744677132E+02  0.22782315764E+03 -0.68172048098E+02  0.24646032646E+03  0.25500000920E-02 0. -1.
       -2    1    3    3    0  502 -0.64744677132E+02 -0.22782315764E+03  0.81184670786E+03  0.84568927003E+03  0.25500000920E-02 0.  1.
</event>
<event>
 5   0  0.1106332E-02  0.7930537E+03  0.7818609E-02  0.9570126E-01
       -2   -1    0    0    0  501  0.00000000000E+00  0.00000000000E+00  0.38486323373E+03  0.38486323374E+03  0.25500000920E-02 0.  1.
        2   -1    0    0  501    0  0.00000000000E+00  0.00000000000E+00 -0.40854399163E+03  0.40854399163E+03  0.25500000920E-02 0. -1.
    10030    2    1    2    0    0  0.00000000000E+00  0.00000000000E+00 -0.23680757898E+02  0.79340722537E+03  0.79305374785E+03 0.  0.
        1    1    3    3  502    0 -0.53286207172E+02 -0.11433011245E+03  0.36425638416E+03  0.38547828462E+03  0.50400001928E-02 0.  1.
       -1    1    3    3    0  502  0.53286207172E+02  0.11433011245E+03 -0.38793714206E+03  0.40792894075E+03  0.50400001928E-02 0. -1.
</event>
<event>
 5   0  0.6600401E-03  0.8034074E+03  0.7818609E-02  0.9555098E-01
       -1   -1    0    0    0  501  0.00000000000E+00  0.00000000000E+00  0.48109866678E+03  0.48109866681E+03  0.50400001928E-02 0.  1.
        1   -1    0    0  501    0  0.00000000000E+00  0.00000000000E+00 -0.33541118955E+03  0.33541118958E+03  0.50400001928E-02 0. -1.
    10030    2    1    2    0    0  0.00000000000E+00  0.00000000000E+00  0.14568747723E+03  0.81650985639E+03  0.80340743372E+03 0.  0.
        2    1    3    3  502    0 -0.19905439633E+03  0.28876881956E+03 -0.12619658303E+03  0.37274074291E+03  0.25500000920E-02 0. -1.
       -2    1    3    3    0  502  0.19905439633E+03 -0.28876881956E+03  0.27188406027E+03  0.44376911348E+03  0.25500000920E-02 0.  1.
</event>
<event>
 5   0  0.6557679E-03  0.8048089E+03  0.7818609E-02  0.9553082E-01
       -1   -1    0    0    0  501  0.00000000000E+00  0.00000000000E+00  0.41040824095E+03  0.41040824098E+03  0.50400001928E-02 0. -1.
        1   -1    0    0  501    0  0.00000000000E+00  0.00000000000E+00 -0.39455673073E+03  0.39455673076E+03  0.50400001928E-02 0.  1.
    10030    2    1    2    0    0  0.00000000000E+00  0.00000000000E+00  0.15851510225E+02  0.80496497174E+03  0.80480888126E+03 0.  0.
        1    1    3    3  502    0 -0.29653239864E+03 -0.26548707169E+03  0.67220346096E+02  0.40365012527E+03  0.50400001928E-02 0. -1.
       -1    1    3    3    0  502  0.29653239864E+03  0.26548707169E+03 -0.51368835871E+02  0.40131484647E+03  0.50400001928E-02 0.  1.
</event>
<event>
 5   0  0.6551489E-03  0.8130197E+03  0.7818609E-02  0.9541360E-01
       -1   -1    0    0    0  501  0.00000000000E+00  0.00000000000E+00  0.14370054564E+03  0.14370054573E+03  0.50400001928E-02 0. -1.
        1   -1    0    0  501    0  0.00000000000E+00  0.00000000000E+00 -0.11499626990E+04  0.11499626990E+04  0.50400001928E-02 0.  1.
    10030    2    1    2    0    0  0.00000000000E+00  0.00000000000E+00 -0.10062621533E+04  0.12936632447E+04  0.81301972270E+03 0.  0.
        4    1    3    3  502    0  0.13574742234E+03 -0.22707300308E+02  0.10549525429E+03  0.17341812401E+03  0.12699999809E+01 0. -1.
       -4    1    3    3    0  502 -0.13574742234E+03  0.22707300308E+02 -0.11117574076E+04  0.11202451207E+04  0.12699999809E+01 0.  1.
</event>
<event>
 5   0  0.1119792E-02  0.8546537E+03  0.7818609E-02  0.9484112E-01
       -2   -1    0    0    0  501  0.00000000000E+00  0.00000000000E+00  0.20588038780E+03  0.20588038782E+03  0.25500000920E-02 0.  1.
        2   -1    0    0  501    0  0.00000000000E+00  0.00000000000E+00 -0.88696284256E+03  0.88696284256E+03  0.25500000920E-02 0. -1.
    10030    2    1    2    0    0  0.00000000000E+00  0.00000000000E+00 -0.68108245476E+03  0.10928432304E+04  0.85465374042E+03 0.  0.
        4    1    3    3  502    0 -0.35944503937E+03 -0.21751817516E+03 -0.24073936578E+03  0.48422303538E+03  0.12699999809E+01 0. -1.
       -4    1    3    3    0  502  0.35944503937E+03  0.21751817516E+03 -0.44034308898E+03  0.60862019501E+03  0.12699999809E+01 0.  1.
</event>
<event>
 5   0  0.6517392E-03  0.7995338E+03  0.7818609E-02  0.9560692E-01
        1   -1    0    0  501    0  0.00000000000E+00  0.00000000000E+00  0.10517030950E+03  0.10517030962E+03  0.50400001928E-02 0.  1.
       -1   -1    0    0    0  501  0.00000000000E+00  0.00000000000E+00 -0.15195691673E+04  0.15195691673E+04  0.50400001928E-02 0. -1.
    10030    2    1    2    0    0  0.00000000000E+00  0.00000000000E+00 -0.14143988578E+04  0.16247394770E+04  0.79953376348E+03 0.  0.
        3    1    3    3  502    0  0.38297556989E+03  0.26671504602E+02 -0.48062256540E+03  0.61512577321E+03  0.10100000352E+00 0.  1.
       -3    1    3    3    0  502 -0.38297556989E+03 -0.26671504602E+02 -0.93377629243E+03  0.10096137037E+04  0.10100000352E+00 0. -1.
</event>
<event>
 5   0  0.6557679E-03  0.8025275E+03  0.7818609E-02  0.9556366E-01
       -1   -1    0    0    0  501  0.00000000000E+00  0.00000000000E+00  0.19575204047E+03  0.19575204054E+03  0.50400001928E-02 0.  1.
        1   -1    0    0  501    0  0.00000000000E+00  0.00000000000E+00 -0.82253346799E+03  0.82253346801E+03  0.50400001928E-02 0. -1.
    10030    2    1    2    0    0  0.00000000000E+00  0.00000000000E+00 -0.62678142752E+03  0.10182855085E+04  0.80252751917E+03 0.  0.
        1    1    3    3  502    0 -0.14332025159E+03 -0.37058400358E+03 -0.24229663901E+03  0.46538248735E+03  0.50400001928E-02 0. -1.
       -1    1    3    3    0  502  0.14332025159E+03  0.37058400358E+03 -0.38448478851E+03  0.55290302120E+03  0.50400001928E-02 0.  1.
</event>
<event>
 5   0  0.6557679E-03  0.7935894E+03  0.7818609E-02  0.9569343E-01
        1   -1    0    0  501    0  0.00000000000E+00  0.00000000000E+00  0.26184800981E+03  0.26184800985E+03  0.50400001928E-02 0. -1.
       -1   -1    0    0    0  501  0.00000000000E+00  0.00000000000E+00 -0.60128784616E+03  0.60128784618E+03  0.50400001928E-02 0.  1.
    10030    2    1    2    0    0  0.00000000000E+00  0.00000000000E+00 -0.33943983635E+03  0.86313585603E+03  0.79358937963E+03 0.  0.
        1    1    3    3  502    0  0.32991644922E+03 -0.87408679763E+02 -0.38984421277E+03  0.51813478074E+03  0.50400001928E-02 0.  1.
       -1    1    3    3    0  502 -0.32991644922E+03  0.87408679763E+02  0.50404376417E+02  0.34500107529E+03  0.50400001928E-02 0. -1.
</event>
<event>
 5   0  0.1119792E-02  0.7977740E+03  0.7818609E-02  0.9563245E-01
        2   -1    0    0  501    0  0.00000000000E+00  0.00000000000E+00  0.83639977106E+03  0.83639977106E+03  0.25500000920E-02 0. -1.
       -2   -1    0    0    0  501  0.00000000000E+00  0.00000000000E+00 -0.19023302176E+03  0.19023302177E+03  0.25500000920E-02 0.  1.
    10030    2    1    2    0    0  0.00000000000E+00  0.00000000000E+00  0.64616674930E+03  0.10266327928E+04  0.79777404283E+03 0.  0.
        4    1    3    3  502    0  0.36380278606E+03 -0.94181806519E+01  0.11293257152E+03  0.38104664791E+03  0.12699999809E+01 0.  1.
       -4    1    3    3    0  502 -0.36380278606E+03  0.94181806519E+01  0.53323417778E+03  0.64558614493E+03  0.12699999809E+01 0. -1.
</event>
<event>
 5   0  0.1092868E-02  0.8179014E+03  0.7818609E-02  0.9534461E-01
        2   -1    0    0  501    0  0.00000000000E+00  0.00000000000E+00  0.14945322590E+04  0.14945322590E+04  0.25500000920E-02 0.  1.
       -2   -1    0    0    0  501  0.00000000000E+00  0.00000000000E+00 -0.11190169225E+03  0.11190169228E+03  0.25500000920E-02 0. -1.
    10030    2    1    2    0    0  0.00000000000E+00  0.00000000000E+00  0.13826305667E+04  0.16064339513E+04  0.81790143398E+03 0.  0.
        3    1    3    3  502    0 -0.31395732537E+03  0.88622700331E+02  0.11756840863E+04  0.12201050226E+04  0.10100000352E+00 0.  1.
       -3    1    3    3    0  502  0.31395732537E+03 -0.88622700331E+02  0.20694648043E+03  0.38632892867E+03  0.10100000352E+00 0. -1.
</event>
<event>
 5   0  0.4385875E-03  0.8312735E+03  0.7818609E-02  0.9515822E-01
       -3   -1    0    0    0  501  0.00000000000E+00  0.00000000000E+00  0.14540076524E+03  0.14540080032E+03  0.10100000352E+00 0.  1.
        3   -1    0    0  501    0  0.00000000000E+00  0.00000000000E+00 -0.11881221641E+04  0.11881221684E+04  0.10100000352E+00 0. -1.
    10030    2    1    2    0    0  0.00000000000E+00  0.00000000000E+00 -0.10427213989E+04  0.13335229688E+04  0.83127347635E+03 0.  0.
        3    1    3    3  502    0  0.17626324312E+03  0.29159759928E+03 -0.13952237065E+03  0.36819070181E+03  0.10100000352E+00 0.  1.
       -3    1    3    3    0  502 -0.17626324312E+03 -0.29159759928E+03 -0.90319902825E+03  0.96533226695E+03  0.10100000352E+00 0. -1.
</event>
<event>
 5   0  0.1154714E-02  0.8016113E+03  0.7818609E-02  0.9557688E-01
       -2   -1    0    0    0  501  0.00000000000E+00  0.00000000000E+00  0.59734388010E+03  0.59734388010E+03  0.25500000920E-02 0.  1.
        2   -1    0    0  501    0  0.00000000000E+00  0.00000000000E+00 -0.26893245188E+03  0.26893245189E+03  0.25500000920E-02 0. -1.
    10030    2    1    2    0    0  0.00000000000E+00  0.00000000000E+00  0.32841142822E+03  0.86627633199E+03  0.80161126314E+03 0.  0.
        5    1    3    3  502    0 -0.31852890033E+03 -0.10159443665E+03 -0.74622041922E+02  0.34259689001E+03  0.46999998093E+01 0.  1.
       -5    1    3    3    0  502  0.31852890033E+03  0.10159443665E+03  0.40303347014E+03  0.52367944198E+03  0.46999998093E+01 0. -1.
</event>
<event>
 5   0  0.1092868E-02  0.7938686E+03  0.7818609E-02  0.9568935E-01
        2   -1    0    0  501    0  0.00000000000E+00  0.00000000000E+00  0.99387564700E+03  0.99387564701E+03  0.25500000920E-02 0.  1.
       -2   -1    0    0    0  501  0.00000000000E+00  0.00000000000E+00 -0.15852770541E+03  0.15852770543E+03  0.25500000920E-02 0. -1.
    10030    2    1    2    0    0  0.00000000000E+00  0.00000000000E+00  0.83534794159E+03  0.11524033524E+04  0.79386856796E+03 0.  0.
        3    1    3    3  502    0 -0.20341626377E+03 -0.10890612349E+03  0.88652592532E+03  0.91606055835E+03  0.10100000352E+00 0.  1.
       -3    1    3    3    0  502  0.20341626377E+03  0.10890612349E+03 -0.51177983727E+02  0.23634279409E+03  0.10100000352E+00 0. -1.
</event>
<event>
 5   0  0.6517392E-03  0.7897295E+03  0.7818609E-02  0.9575003E-01
        1   -1    0    0  501    0  0.00000000000E+00  0.00000000000E+00  0.17756948107E+03  0.17756948114E+03  0.50400001928E-02 0. -1.
       -1   -1    0    0    0  501  0.00000000000E+00  0.00000000000E+00 -0.87806842548E+03  0.87806842549E+03  0.50400001928E-02 0.  1.
    10030    2    1    2    0    0  0.00000000000E+00  0.00000000000E+00 -0.70049894441E+03  0.10556379066E+04  0.78972945924E+03 0.  0.
        3    1    3    3  502    0  0.52795836318E+02 -0.21857097557E+03 -0.78412915139E+03  0.81573231391E+03  0.10100000352E+00 0.  1.
       -3    1    3    3    0  502 -0.52795836318E+02  0.21857097557E+03  0.83630206982E+02  0.23990559272E+03  0.10100000352E+00 0. -1.
</event>
<event>
 5   0  0.1154714E-02  0.8116201E+03  0.7818609E-02  0.9543348E-01
       -2   -1    0    0    0  501  0.00000000000E+00  0.00000000000E+00  0.13114613634E+03  0.13114613637E+03  0.25500000920E-02 0. -1.
        2   -1    0    0  501    0  0.00000000000E+00  0.00000000000E+00 -0.12557120740E+04  0.12557120740E+04  0.25500000920E-02 0.  1.
    10030    2    1    2    0    0  0.00000000000E+00  0.00000000000E+00 -0.11245659376E+04  0.13868582104E+04  0.81162007585E+03 0.  0.
        5    1    3    3  502    0 -0.27095239383E+03  0.12095195138E+03 -0.89309770625E+02  0.30990788856E+03  0.46999998093E+01 0. -1.
       -5    1    3    3    0  502  0.27095239383E+03 -0.12095195138E+03 -0.10352561670E+04  0.10769503218E+04  0.46999998093E+01 0.  1.
</event>
<event>
 5   0  0.1121480E-02  0.8390588E+03  0.7818609E-02  0.9505141E-01
       -2   -1    0    0    0  501  0.00000000000E+00  0.00000000000E+00  0.17234955323E+03  0.17234955325E+03  0.25500000920E-02 0.  1.
        2   -1    0    0  501    0  0.00000000000E+00  0.00000000000E+00 -0.10212090221E+04  0.10212090221E+04  0.25500000920E-02 0. -1.
    10030    2    1    2    0    0  0.00000000000E+00  0.00000000000E+00 -0.84885946884E+03  0.11935585753E+04  0.83905880300E+03 0.  0.
        2    1    3    3  502    0  0.29352788509E+03  0.14439221874E+03 -0.79808149279E+03  0.86252060920E+03  0.25500000920E-02 0. -1.
       -2    1    3    3    0  502 -0.29352788509E+03 -0.14439221874E+03 -0.50777976054E+02  0.33103796612E+03  0.25500000920E-02 0.  1.
</event>
<event>
 5   0  0.1154714E-02  0.7927870E+03  0.7818609E-02  0.9570517E-01
        2   -1    0    0  501    0  0.00000000000E+00  0.00000000000E+00  0.33361936600E+03  0.33361936601E+03  0.25500000920E-02 0.  1.
       -2   -1    0    0    0  501  0.00000000000E+00  0.00000000000E+00 -0.47097927848E+03  0.47097927848E+03  0.25500000920E-02 0. -1.
    10030    2    1    2    0    0  0.00000000000E+00  0.00000000000E+00 -0.13735991248E+03  0.80459864449E+03  0.79278700366E+03 0.  0.
        5    1    3    3  502    0  0.26955717967E+03  0.25229336336E+03 -0.21502508124E+03  0.42728314952E+03  0.46999998093E+01 0. -1.
       -5    1    3    3    0  502 -0.26955717967E+03 -0.25229336336E+03  0.77665168761E+02  0.37731549497E+03  0.46999998093E+01 0.  1.
</event>
<event>
 5   0  0.6557679E-03  0.8001077E+03  0.7818609E-02  0.9559861E-01
        1   -1    0    0  501    0  0.00000000000E+00  0.00000000000E+00  0.17922508890E+03  0.17922508897E+03  0.50400001928E-02 0. -1.
       -1   -1    0    0    0  501  0.00000000000E+00  0.00000000000E+00 -0.89297256506E+03  0.89297256507E+03  0.50400001928E-02 0.  1.
    10030    2    1    2    0    0  0.00000000000E+00  0.00000000000E+00 -0.71374747616E+03  0.10721976540E+04  0.80010771126E+03 0.  0.
        1    1    3    3  502    0 -0.33260429166E+03  0.19932782182E+03 -0.48875898222E+03  0.62389305021E+03  0.50400001928E-02 0.  1.
       -1    1    3    3    0  502  0.33260429166E+03 -0.19932782182E+03 -0.22498849394E+03  0.44830460383E+03  0.50400001928E-02 0. -1.
</event>
<event>
 5   0  0.4385875E-03  0.8037506E+03  0.7818609E-02  0.9554604E-01
        3   -1    0    0  501    0  0.00000000000E+00  0.00000000000E+00  0.11660563713E+03  0.11660568087E+03  0.10100000352E+00 0. -1.
       -3   -1    0    0    0  501  0.00000000000E+00  0.00000000000E+00 -0.13850421639E+04  0.13850421676E+04  0.10100000352E+00 0.  1.
    10030    2    1    2    0    0  0.00000000000E+00  0.00000000000E+00 -0.12684365268E+04  0.15016478484E+04  0.80375060703E+03 0.  0.
        5    1    3    3  502    0  0.48093357555E+02  0.68819175346E+02  0.99984988073E+02  0.13064508324E+03  0.46999998093E+01 0. -1.
       -5    1    3    3    0  502 -0.48093357555E+02 -0.68819175346E+02 -0.13684215148E+04  0.13710027652E+04  0.46999998093E+01 0.  1.
</event>
<event>
 5   0  0.1121480E-02  0.8001916E+03  0.7818609E-02  0.9559740E-01
       -2   -1    0    0    0  501  0.00000000000E+00  0.00000000000E+00  0.20847421554E+03  0.20847421556E+03  0.25500000920E-02 0. -1.
        2   -1    0    0  501    0  0.00000000000E+00  0.00000000000E+00 -0.76784872674E+03  0.76784872675E+03  0.25500000920E-02 0.  1.
    10030    2    1    2    0    0  0.00000000000E+00  0.00000000000E+00 -0.55937451120E+03  0.97632294231E+03  0.80019162948E+03 0.  0.
        2    1    3    3  502    0  0.70967979498E+02  0.39991212159E+02  0.19824910609E+03  0.21433259024E+03  0.25500000920E-02 0. -1.
       -2    1    3    3    0  502 -0.70967979498E+02 -0.39991212159E+02 -0.75762361729E+03  0.76199035207E+03  0.25500000920E-02 0.  1.
</event>
<event>
 5   0  0.6596225E-03  0.7934491E+03  0.7818609E-02  0.9569548E-01
        1   -1    0    0  501    0  0.00000000000E+00  0.00000000000E+00  0.14437763768E+03  0.14437763777E+03  0.50400001928E-02 0. -1.
       -1   -1    0    0    0  501  0.00000000000E+00  0.00000000000E+00 -0.10901297436E+04  0.10901297436E+04  0.50400001928E-02 0.  1.
    10030    2    1    2    0    0  0.00000000000E+00  0.00000000000E+00 -0.94575210590E+03  0.12345073814E+04  0.79344907134E+03 0.  0.
        5    1    3    3  502    0 -0.58466699913E+02 -0.28484398280E+03 -0.89271385119E+03  0.93889006792E+03  0.46999998093E+01 0.  1.
       -5    1    3    3    0  502  0.58466699913E+02  0.28484398280E+03 -0.53038254705E+02  0.29561731343E+03  0.46999998093E+01 0. -1.
</event>
<event>
 5   0  0.6517392E-03  0.8049687E+03  0.7818609E-02  0.9552853E-01
        1   -1    0    0  501    0  0.00000000000E+00  0.00000000000E+00  0.63864373401E+03  0.63864373403E+03  0.50400001928E-02 0.  1.
       -1   -1    0    0    0  501  0.00000000000E+00  0.00000000000E+00 -0.25365259542E+03  0.25365259547E+03  0.50400001928E-02 0. -1.
    10030    2    1    2    0    0  0.00000000000E+00  0.00000000000E+00  0.38499113859E+03  0.89229632950E+03  0.80496867196E+03 0.  0.
        3    1    3    3  502    0  0.24389152577E+03  0.50665059840E+02  0.54293069823E+03  0.59734728418E+03  0.10100000352E+00 0.  1.
       -3    1    3    3    0  502 -0.24389152577E+03 -0.50665059840E+02 -0.15793955964E+03  0.29494904532E+03  0.10100000352E+00 0. -1.
</event>
<event>
 5   0  0.1119792E-02  0.7995204E+03  0.7818609E-02  0.9560712E-01
       -2   -1    0    0    0  501  0.00000000000E+00  0.00000000000E+00  0.12349061553E+03  0.12349061555E+03  0.25500000920E-02 0.  1.
        2   -1    0    0  501    0  0.00000000000E+00  0.00000000000E+00 -0.12940919120E+04  0.12940919120E+04  0.25500000920E-02 0. -1.
    10030    2    1    2    0    0  0.00000000000E+00  0.00000000000E+00 -0.11706012965E+04  0.14175825276E+04  0.79952037319E+03 0.  0.
        4    1    3    3  502    0 -0.15051960615E+03 -0.85229523586E+02  0.53698982542E+02  0.18112265776E+03  0.12699999809E+01 0.  1.
       -4    1    3    3    0  502  0.15051960615E+03  0.85229523586E+02 -0.12243002791E+04  0.12364598698E+04  0.12699999809E+01 0. -1.
</event>
<event>
 5   0  0.6517392E-03  0.8008111E+03  0.7818609E-02  0.9558844E-01
        1   -1    0    0  501    0  0.00000000000E+00  0.00000000000E+00  0.84533561746E+03  0.84533561748E+03  0.50400001928E-02 0.  1.
       -1   -1    0    0    0  501  0.00000000000E+00  0.00000000000E+00 -0.18965792016E+03  0.18965792022E+03  0.50400001928E-02 0. -1.
    10030    2    1    2    0    0  0.00000000000E+00  0.00000000000E+00  0.65567769731E+03  0.10349935377E+04  0.80081107655E+03 0.  0.
        3    1    3    3  502    0  0.34489875296E+02  0.12920020007E+02  0.84314172570E+03  0.84394576735E+03  0.10100000352E+00 0.  1.
       -3    1    3    3    0  502 -0.34489875296E+02 -0.12920020007E+02 -0.18746402839E+03  0.19104777035E+03  0.10100000352E+00 0. -1.
</event>
<event>
 5   0  0.6551489E-03  0.7992063E+03  0.7818609E-02  0.9561167E-01
        1   -1    0    0  501    0  0.00000000000E+00  0.00000000000E+00  0.34135569774E+03  0.34135569778E+03  0.50400001928E-02 0.  1.
       -1   -1    0    0    0  501  0.00000000000E+00  0.00000000000E+00 -0.46778969077E+03  0.46778969080E+03  0.50400001928E-02 0. -1.
    10030    2    1    2    0    0  0.00000000000E+00  0.00000000000E+00 -0.12643399303E+03  0.80914538858E+03  0.79920629707E+03 0.  0.
        4    1    3    3  502    0 -0.30155056764E+03 -0.15993344974E+03  0.14713988797E+03  0.37170312444E+03  0.12699999809E+01 0.  1.
       -4    1    3    3    0  502  0.30155056764E+03  0.15993344974E+03 -0.27357388100E+03  0.43744226414E+03  0.12699999809E+01 0. -1.
</event>
<event>
 5   0  0.6517392E-03  0.7991133E+03  0.7818609E-02  0.9561302E-01
       -1   -1    0    0    0  501  0.00000000000E+00  0.00000000000E+00  0.14254614604E+03  0.14254614612E+03  0.50400001928E-02 0. -1.
        1   -1    0    0  501    0  0.00000000000E+00  0.00000000000E+00 -0.11199566511E+04  0.11199566511E+04  0.50400001928E-02 0.  1.
    10030    2    1    2    0    0  0.00000000000E+00  0.00000000000E+00 -0.97741050503E+03  0.12625027972E+04  0.79911326957E+03 0.  0.
        3    1    3    3  502    0  0.17126913214E+03 -0.78350153789E+02 -0.10454276563E+04  0.10622574345E+04  0.10100000352E+00 0.  1.
       -3    1    3    3    0  502 -0.17126913214E+03  0.78350153789E+02  0.68017151313E+02  0.20024536274E+03  0.10100000352E+00 0. -1.
</event>
<event>
 5   0  0.1154714E-02  0.8013276E+03  0.7818609E-02  0.9558097E-01
       -2   -1    0    0    0  501  0.00000000000E+00  0.00000000000E+00  0.66868201862E+02  0.66868201911E+02  0.25500000920E-02 0.  1.
        2   -1    0    0  501    0  0.00000000000E+00  0.00000000000E+00 -0.24007149995E+04  0.24007149995E+04  0.25500000920E-02 0. -1.
    10030    2    1    2    0    0  0.00000000000E+00  0.00000000000E+00 -0.23338467976E+04  0.24675832014E+04  0.80132763651E+03 0.  0.
        5    1    3    3  502    0 -0.24367490526E+03 -0.26271673410E+02 -0.21428537136E+04  0.21568291050E+04  0.46999998093E+01 0. -1.
       -5    1    3    3    0  502  0.24367490526E+03  0.26271673410E+02 -0.19099308400E+03  0.31075409637E+03  0.46999998093E+01 0.  1.
</event>
<event>
 5   0  0.6551489E-03  0.7934033E+03  0.7818609E-02  0.9569615E-01
       -1   -1    0    0    0  501  0.00000000000E+00  0.00000000000E+00  0.53059354676E+03  0.53059354679E+03  0.50400001928E-02 0.  1.
        1   -1    0    0  501    0  0.00000000000E+00  0.00000000000E+00 -0.29659653596E+03  0.29659653601E+03  0.50400001928E-02 0. -1.
    10030    2    1    2    0    0  0.00000000000E+00  0.00000000000E+00  0.23399701080E+03  0.82719008279E+03  0.79340332241E+03 0.  0.
        4    1    3    3  502    0 -0.15130889611E+03 -0.42441486288E+02 -0.26275845555E+03  0.30616871274E+03  0.12699999809E+01 0. -1.
       -4    1    3    3    0  502  0.15130889611E+03  0.42441486288E+02  0.49675546635E+03  0.52102137005E+03  0.12699999809E+01 0.  1.
</event>
<event>
 5   0  0.6596225E-03  0.8032319E+03  0.7818609E-02  0.9555351E-01
        1   -1    0    0  501    0  0.00000000000E+00  0.00000000000E+00  0.38970599328E+03  0.38970599331E+03  0.50400001928E-02 0.  1.
       -1   -1    0    0    0  501  0.00000000000E+00  0.00000000000E+00 -0.41388993615E+03  0.41388993618E+03  0.50400001928E-02 0. -1.
    10030    2    1    2    0    0  0.00000000000E+00  0.00000000000E+00 -0.24183942868E+02  0.80359592949E+03  0.80323194334E+03 0.  0.
        5    1    3    3  502    0 -0.57270752065E+02  0.14941501480E+03  0.35640700792E+03  0.39070811481E+03  0.46999998093E+01 0.  1.
       -5    1    3    3    0  502  0.57270752065E+02 -0.14941501480E+03 -0.38059095078E+03  0.41288781468E+03  0.46999998093E+01 0. -1.
</event>
<event>
 5   0  0.1154714E-02  0.8002332E+03  0.7818609E-02  0.9559680E-01
       -2   -1    0    0    0  501  0.00000000000E+00  0.00000000000E+00  0.23378960115E+03  0.23378960116E+03  0.25500000920E-02 0.  1.
        2   -1    0    0  501    0  0.00000000000E+00  0.00000000000E+00 -0.68477509319E+03  0.68477509320E+03  0.25500000920E-02 0. -1.
    10030    2    1    2    0    0  0.00000000000E+00  0.00000000000E+00 -0.45098549204E+03  0.91856469436E+03  0.80023320582E+03 0.  0.
        5    1    3    3  502    0  0.14660635071E+03  0.13689723658E+03 -0.62285674593E+03  0.65437519161E+03  0.46999998093E+01 0. -1.
       -5    1    3    3    0  502 -0.14660635071E+03 -0.13689723658E+03  0.17187125388E+03  0.26418950275E+03  0.46999998093E+01 0.  1.
</event>
<event>
 5   0  0.6596225E-03  0.8030416E+03  0.7818609E-02  0.9555625E-01
       -1   -1    0    0    0  501  0.00000000000E+00  0.00000000000E+00  0.57576697966E+03  0.57576697968E+03  0.50400001928E-02 0.  1.
        1   -1    0    0  501    0  0.00000000000E+00  0.00000000000E+00 -0.28000729622E+03  0.28000729627E+03  0.50400001928E-02 0. -1.
    10030    2    1    2    0    0  0.00000000000E+00  0.00000000000E+00  0.29575968343E+03  0.85577427595E+03  0.80304160604E+03 0.  0.
        5    1    3    3  502    0 -0.80166211870E+02 -0.27245535045E+03  0.45030817733E+03  0.53240781745E+03  0.46999998093E+01 0.  1.
       -5    1    3    3    0  502  0.80166211870E+02  0.27245535045E+03 -0.15454849390E+03  0.32336645849E+03  0.46999998093E+01 0. -1.
</event>
<event>
 5   0  0.1119792E-02  0.7965278E+03  0.7818609E-02  0.9565057E-01
        2   -1    0    0  501    0  0.00000000000E+00  0.00000000000E+00  0.35127661523E+03  0.35127661524E+03  0.25500000920E-02 0.  1.
       -2   -1    0    0    0  501  0.00000000000E+00  0.00000000000E+00 -0.45153629378E+03  0.45153629379E+03  0.25500000920E-02 0. -1.
    10030    2    1    2    0    0  0.00000000000E+00  0.00000000000E+00 -0.10025967856E+03  0.80281290903E+03  0.79652781731E+03 0.  0.
        4    1    3    3  502    0  0.22922213554E+03  0.12667614093E+03 -0.35253548134E+03  0.43917252943E+03  0.12699999809E+01 0. -1.
       -4    1    3    3    0  502 -0.22922213554E+03 -0.12667614093E+03  0.25227580279E+03  0.36364037960E+03  0.12699999809E+01 0.  1.
</event>
<event>
 5   0  0.6600401E-03  0.8004964E+03  0.7818609E-02  0.9559299E-01
       -1   -1    0    0    0  501  0.00000000000E+00  0.00000000000E+00  0.22271298529E+03  0.22271298535E+03  0.50400001928E-02 0.  1.
        1   -1    0    0  501    0  0.00000000000E+00  0.00000000000E+00 -0.71930526678E+03  0.71930526680E+03  0.50400001928E-02 0. -1.
    10030    2    1    2    0    0  0.00000000000E+00  0.00000000000E+00 -0.49659228149E+03  0.94201825215E+03  0.80049640434E+03 0.  0.
        2    1    3    3  502    0 -0.25974976185E+03  0.77875137072E+02  0.98137188090E+02  0.28838409014E+03  0.25500000920E-02 0.  1.
       -2    1    3    3    0  502  0.25974976185E+03 -0.77875137072E+02 -0.59472946958E+03  0.65363416201E+03  0.25500000920E-02 0. -1.
</event>
<event>
 5   0  0.6600401E-03  0.8051532E+03  0.7818609E-02  0.9552588E-01
       -1   -1    0    0    0  501  0.00000000000E+00  0.00000000000E+00  0.17381150790E+03  0.17381150797E+03  0.50400001928E-02 0.  1.
        1   -1    0    0  501    0  0.00000000000E+00  0.00000000000E+00 -0.93243501142E+03  0.93243501143E+03  0.50400001928E-02 0. -1.
    10030    2    1    2    0    0  0.00000000000E+00  0.00000000000E+00 -0.75862350352E+03  0.11062465194E+04  0.80515324106E+03 0.  0.
        2    1    3    3  502    0 -0.16500468009E+03 -0.31490861181E+03 -0.11980478891E+03  0.37516285223E+03  0.25500000920E-02 0. -1.
       -2    1    3    3    0  502  0.16500468009E+03  0.31490861181E+03 -0.63881871461E+03  0.73108366716E+03  0.25500000920E-02 0.  1.
</event>
<event>
 5   0  0.6557679E-03  0.8015794E+03  0.7818609E-02  0.9557734E-01
       -1   -1    0    0    0  501  0.00000000000E+00  0.00000000000E+00  0.12074700655E+03  0.12074700665E+03  0.50400001928E-02 0.  1.
        1   -1    0    0  501    0  0.00000000000E+00  0.00000000000E+00 -0.13303220044E+04  0.13303220044E+04  0.50400001928E-02 0. -1.
    10030    2    1    2    0    0  0.00000000000E+00  0.00000000000E+00 -0.12095749979E+04  0.14510690111E+04  0.80157944050E+03 0.  0.
        1    1    3    3  502    0 -0.10907495030E+03 -0.30228960222E+03 -0.17124555491E+03  0.36414473564E+03  0.50400001928E-02 0.  1.
       -1    1    3    3    0  502  0.10907495030E+03  0.30228960222E+03 -0.10383294429E+04  0.10869242754E+04  0.50400001928E-02 0. -1.
</event>
<event>
 5   0  0.1092868E-02  0.8032460E+03  0.7818609E-02  0.9555330E-01
       -2   -1    0    0    0  501  0.00000000000E+00  0.00000000000E+00  0.55506268073E+02  0.55506268132E+02  0.25500000920E-02 0.  1.
        2   -1    0    0  501    0  0.00000000000E+00  0.00000000000E+00 -0.29059968702E+04  0.29059968702E+04  0.25500000920E-02 0. -1.
    10030    2    1    2    0    0  0.00000000000E+00  0.00000000000E+00 -0.28504906022E+04  0.29615031384E+04  0.80324601807E+03 0.  0.
        3    1    3    3  502    0 -0.88514345250E+02  0.37694018421E+03 -0.18185955068E+04  0.18593569639E+04  0.10100000352E+00 0. -1.
       -3    1    3    3    0  502  0.88514345250E+02 -0.37694018421E+03 -0.10318950954E+04  0.11021461745E+04  0.10100000352E+00 0.  1.
</event>
<event>
 5   0  0.6600401E-03  0.8215032E+03  0.7818609E-02  0.9529403E-01
        1   -1    0    0  501    0  0.00000000000E+00  0.00000000000E+00  0.13860582149E+04  0.13860582150E+04  0.50400001928E-02 0. -1.
       -1   -1    0    0    0  501  0.00000000000E+00  0.00000000000E+00 -0.12172424665E+03  0.12172424675E+03  0.50400001928E-02 0.  1.
    10030    2    1    2    0    0  0.00000000000E+00  0.00000000000E+00  0.12643339683E+04  0.15077824617E+04  0.82150323703E+03 0.  0.
        2    1    3    3  502    0 -0.12803068671E+03  0.34746590341E+03  0.95839501681E+03  0.10274460662E+04  0.25500000920E-02 0.  1.
       -2    1    3    3    0  502  0.12803068671E+03 -0.34746590341E+03  0.30593895148E+03  0.48033639547E+03  0.25500000920E-02 0. -1.
</event>
<event>
 5   0  0.4385875E-03  0.8005804E+03  0.7818609E-02  0.9559177E-01
       -3   -1    0    0    0  501  0.00000000000E+00  0.00000000000E+00  0.48560023138E+03  0.48560024188E+03  0.10100000352E+00 0.  1.
        3   -1    0    0  501    0  0.00000000000E+00  0.00000000000E+00 -0.32996736464E+03  0.32996738010E+03  0.10100000352E+00 0. -1.
    10030    2    1    2    0    0  0.00000000000E+00  0.00000000000E+00  0.15563286673E+03  0.81556762198E+03  0.80058038748E+03 0.  0.
        1    1    3    3  502    0  0.34364060282E+02  0.23052151265E+03  0.40934880344E+03  0.47104935977E+03  0.50400001928E-02 0.  1.
       -1    1    3    3    0  502 -0.34364060282E+02 -0.23052151265E+03 -0.25371593671E+03  0.34451826221E+03  0.50400001928E-02 0. -1.
</event>
<event>
 5   0  0.6600401E-03  0.8009240E+03  0.7818609E-02  0.9558681E-01
       -1   -1    0    0    0  501  0.00000000000E+00  0.00000000000E+00  0.21128504978E+03  0.21128504984E+03  0.50400001928E-02 0. -1.
        1   -1    0    0  501    0  0.00000000000E+00  0.00000000000E+00 -0.75902106958E+03  0.75902106959E+03  0.50400001928E-02 0.  1.
    10030    2    1    2    0    0  0.00000000000E+00  0.00000000000E+00 -0.54773601979E+03  0.97030611944E+03  0.80092397769E+03 0.  0.
        2    1    3    3  502    0  0.23724500153E+03 -0.25698189695E+03 -0.37566877294E+02  0.35176150498E+03  0.25500000920E-02 0. -1.
       -2    1    3    3    0  502 -0.23724500153E+03  0.25698189695E+03 -0.51016914250E+03  0.61854461446E+03  0.25500000920E-02 0.  1.
</event>
<event>
 5   0  0.1154714E-02  0.8024670E+03  0.7818609E-02  0.9556453E-01
        2   -1    0    0  501    0  0.00000000000E+00  0.00000000000E+00  0.76395249812E+03  0.76395249813E+03  0.25500000920E-02 0. -1.
       -2   -1    0    0    0  501  0.00000000000E+00  0.00000000000E+00 -0.21073079301E+03  0.21073079302E+03  0.25500000920E-02 0.  1.
    10030    2    1    2    0    0  0.00000000000E+00  0.00000000000E+00  0.55322170512E+03  0.97468329115E+03  0.80246698564E+03 0.  0.
        5    1    3    3  502    0 -0.10427226414E+03  0.30797592825E+03 -0.88721622320E+01  0.32530398508E+03  0.46999998093E+01 0.  1.
       -5    1    3    3    0  502  0.10427226414E+03 -0.30797592825E+03  0.56209386735E+03  0.64937930607E+03  0.46999998093E+01 0. -1.
</event>
<event>
 5   0  0.1119792E-02  0.7957785E+03  0.7818609E-02  0.9566148E-01
        2   -1    0    0  501    0  0.00000000000E+00  0.00000000000E+00  0.17264764485E+04  0.17264764485E+04  0.25500000920E-02 0. -1.
       -2   -1    0    0    0  501  0.00000000000E+00  0.00000000000E+00 -0.91698825461E+02  0.91698825497E+02  0.25500000920E-02 0.  1.
    10030    2    1    2    0    0  0.00000000000E+00  0.00000000000E+00  0.16347776230E+04  0.18181752740E+04  0.79577851830E+03 0.  0.
        4    1    3    3  502    0  0.37921149313E+03  0.33584474024E+02  0.55305523139E+03  0.67141713956E+03  0.12699999809E+01 0.  1.
       -4    1    3    3    0  502 -0.37921149313E+03 -0.33584474024E+02  0.10817223917E+04  0.11467581344E+04  0.12699999809E+01 0. -1.
</event>
<event>
 5   0  0.6600401E-03  0.8046461E+03  0.7818609E-02  0.9553316E-01
        1   -1    0    0  501    0  0.00000000000E+00  0.00000000000E+00  0.39182533058E+03  0.39182533061E+03  0.50400001928E-02 0.  1.
       -1   -1    0    0    0  501  0.00000000000E+00  0.00000000000E+00 -0.41310202875E+03  0.41310202878E+03  0.50400001928E-02 0. -1.
    10030    2    1    2    0    0  0.00000000000E+00  0.00000000000E+00 -0.21276698165E+02  0.80492735939E+03  0.80464610607E+03 0.  0.
        2    1    3    3  502    0 -0.35553278232E+03 -0.18380379923E+03  0.30320352563E+02  0.40138101562E+03  0.25500000920E-02 0.  1.
       -2    1    3    3    0  502  0.35553278232E+03  0.18380379923E+03 -0.51597050728E+02  0.40354634377E+03  0.25500000920E-02 0. -1.
</event>
<event>
 5   0  0.6557679E-03  0.8068237E+03  0.7818609E-02  0.9550192E-01
        1   -1    0    0  501    0  0.00000000000E+00  0.00000000000E+00  0.26831957175E+03  0.26831957179E+03  0.50400001928E-02 0. -1.
       -1   -1    0    0    0  501  0.00000000000E+00  0.00000000000E+00 -0.60651978934E+03  0.60651978936E+03  0.50400001928E-02 0.  1.
    10030    2    1    2    0    0  0.00000000000E+00  0.00000000000E+00 -0.33820021759E+03  0.87483936115E+03  0.80682372340E+03 0.  0.
        1    1    3    3  502    0 -0.62606440876E+02  0.39687730106E+03 -0.20834477096E+03  0.45259109818E+03  0.50400001928E-02 0. -1.
       -1    1    3    3    0  502  0.62606440876E+02 -0.39687730106E+03 -0.12985544663E+03  0.42224826297E+03  0.50400001928E-02 0.  1.
</event>
<event>
 5   0  0.6517392E-03  0.8005972E+03  0.7818609E-02  0.9559153E-01
        1   -1    0    0  501    0  0.00000000000E+00  0.00000000000E+00  0.46839452631E+03  0.46839452634E+03  0.50400001928E-02 0.  1.
       -1   -1    0    0    0  501  0.00000000000E+00  0.00000000000E+00 -0.34210260421E+03  0.34210260424E+03  0.50400001928E-02 0. -1.
    10030    2    1    2    0    0  0.00000000000E+00  0.00000000000E+00  0.12629192211E+03  0.81049713058E+03  0.80059724524E+03 0.  0.
        3    1    3    3  502    0 -0.16131481395E+03  0.32604906302E+03  0.23227016490E+03  0.43160155282E+03  0.10100000352E+00 0.  1.
       -3    1    3    3    0  502  0.16131481395E+03 -0.32604906302E+03 -0.10597824279E+03  0.37889557776E+03  0.10100000352E+00 0. -1.
</event>
<event>
 5   0  0.1121480E-02  0.7955217E+03  0.7818609E-02  0.9566522E-01
       -2   -1    0    0    0  501  0.00000000000E+00  0.00000000000E+00  0.41480795104E+03  0.41480795104E+03  0.25500000920E-02 0.  1.
        2   -1    0    0  501    0  0.00000000000E+00  0.00000000000E+00 -0.38141430348E+03  0.38141430349E+03  0.25500000920E-02 0. -1.
    10030    2    1    2    0    0  0.00000000000E+00  0.00000000000E+00  0.33393647551E+02  0.79622225454E+03  0.79552167973E+03 0.  0.
        2    1    3    3  502    0  0.22057661116E+03 -0.31256250689E+03 -0.92322575484E+02  0.39353884186E+03  0.25500000920E-02 0.  1.
       -2    1    3    3    0  502 -0.22057661116E+03  0.31256250689E+03  0.12571622304E+03  0.40268341267E+03  0.25500000920E-02 0. -1.
</event>
<event>
 5   0  0.6557679E-03  0.7695949E+03  0.7818609E-02  0.9605101E-01
        1   -1    0    0  501    0  0.00000000000E+00  0.00000000000E+00  0.16342496053E+03  0.16342496061E+03  0.50400001928E-02 0. -1.
       -1   -1    0    0    0  501  0.00000000000E+00  0.00000000000E+00 -0.90603716654E+03  0.90603716655E+03  0.50400001928E-02 0.  1.
    10030    2    1    2    0    0  0.00000000000E+00  0.00000000000E+00 -0.74261220601E+03  0.10694621272E+04  0.76959492783E+03 0.  0.
        1    1    3    3  502    0 -0.26128206451E+03  0.43180590425E+02  0.16641298495E+02  0.26534847553E+03  0.50400001928E-02 0. -1.
       -1    1    3    3    0  502  0.26128206451E+03 -0.43180590425E+02 -0.75925350450E+03  0.80411365164E+03  0.50400001928E-02 0.  1.
</event>
<event>
 5   0  0.1154714E-02  0.7993807E+03  0.7818609E-02  0.9560914E-01
        2   -1    0    0  501    0  0.00000000000E+00  0.00000000000E+00  0.48760403150E+03  0.48760403150E+03  0.25500000920E-02 0.  1.
       -2   -1    0    0    0  501  0.00000000000E+00  0.00000000000E+00 -0.32762722850E+03  0.32762722851E+03  0.25500000920E-02 0. -1.
    10030    2    1    2    0    0  0.00000000000E+00  0.00000000000E+00  0.15997680299E+03  0.81523126002E+03  0.79938065389E+03 0.  0.
        5    1    3    3  502    0  0.28732411638E+03  0.25138456926E+02 -0.20216184531E+03  0.35224791208E+03  0.46999998093E+01 0. -1.
       -5    1    3    3    0  502 -0.28732411638E+03 -0.25138456926E+02  0.36213864831E+03  0.46298334793E+03  0.46999998093E+01 0.  1.
</event>
<event>
 5   0  0.6557679E-03  0.8010138E+03  0.7818609E-02  0.9558551E-01
        1   -1    0    0  501    0  0.00000000000E+00  0.00000000000E+00  0.33144289603E+03  0.33144289607E+03  0.50400001928E-02 0. -1.
       -1   -1    0    0    0  501  0.00000000000E+00  0.00000000000E+00 -0.48396200824E+03  0.48396200827E+03  0.50400001928E-02 0.  1.
    10030    2    1    2    0    0  0.00000000000E+00  0.00000000000E+00 -0.15251911221E+03  0.81540490433E+03  0.80101378167E+03 0.  0.
        1    1    3    3  502    0 -0.26205942280E+01  0.35083267065E+03  0.12038278147E+03  0.37092107571E+03  0.50400001928E-02 0. -1.
       -1    1    3    3    0  502  0.26205942280E+01 -0.35083267065E+03 -0.27290189368E+03  0.44448382862E+03  0.50400001928E-02 0.  1.
</event>
<event>
 5   0  0.1121480E-02  0.8108962E+03  0.7818609E-02  0.9544378E-01
       -2   -1    0    0    0  501  0.00000000000E+00  0.00000000000E+00  0.25707373770E+03  0.25707373771E+03  0.25500000920E-02 0. -1.
        2   -1    0    0  501    0  0.00000000000E+00  0.00000000000E+00 -0.63945912137E+03  0.63945912137E+03  0.25500000920E-02 0.  1.
    10030    2    1    2    0    0  0.00000000000E+00  0.00000000000E+00 -0.38238538367E+03  0.89653285908E+03  0.81089616213E+03 0.  0.
        2    1    3    3  502    0 -0.54140771712E+02 -0.15213676195E+03 -0.60237066722E+03  0.62364031158E+03  0.25500000920E-02 0.  1.
       -2    1    3    3    0  502  0.54140771712E+02  0.15213676195E+03  0.21998528355E+03  0.27289254750E+03  0.25500000920E-02 0. -1.
</event>
<event>
 5   0  0.6596225E-03  0.7938242E+03  0.7818609E-02  0.9569000E-01
        1   -1    0    0  501    0  0.00000000000E+00  0.00000000000E+00  0.82639276705E+03  0.82639276706E+03  0.50400001928E-02 0.  1.
       -1   -1    0    0    0  501  0.00000000000E+00  0.00000000000E+00 -0.19063478916E+03  0.19063478923E+03  0.50400001928E-02 0. -1.
    10030    2    1    2    0    0  0.00000000000E+00  0.00000000000E+00  0.63575797789E+03  0.10170275563E+04  0.79382418949E+03 0.  0.
        5    1    3    3  502    0 -0.17953451974E+03 -0.31680884695E+03  0.52011247015E+03  0.63493272154E+03  0.46999998093E+01 0.  1.
       -5    1    3    3    0  502  0.17953451974E+03  0.31680884695E+03  0.11564550774E+03  0.38209483475E+03  0.46999998093E+01 0. -1.
</event>
<event>
 5   0  0.1154714E-02  0.8014681E+03  0.7818609E-02  0.9557895E-01
        2   -1    0    0  501    0  0.00000000000E+00  0.00000000000E+00  0.22882097630E+04  0.22882097630E+04  0.25500000920E-02 0. -1.
       -2   -1    0    0    0  501  0.00000000000E+00  0.00000000000E+00 -0.70180534700E+02  0.70180534747E+02  0.25500000920E-02 0.  1.
    10030    2    1    2    0    0  0.00000000000E+00  0.00000000000E+00  0.22180292283E+04  0.23583902977E+04  0.80146811472E+03 0.  0.
        5    1    3    3  502    0 -0.14186014606E+03  0.21441954461E+03  0.20460245011E+03  0.32860963884E+03  0.46999998093E+01 0.  1.
       -5    1    3    3    0  502  0.14186014606E+03 -0.21441954461E+03  0.20134267782E+04  0.20297806589E+04  0.46999998093E+01 0. -1.
</event>
<event>
 5   0  0.6557679E-03  0.7674514E+03  0.7818609E-02  0.9608363E-01
        1   -1    0    0  501    0  0.00000000000E+00  0.00000000000E+00  0.51067723143E+03  0.51067723145E+03  0.50400001928E-02 0.  1.
       -1   -1    0    0    0  501  0.00000000000E+00  0.00000000000E+00 -0.28833363713E+03  0.28833363717E+03  0.50400001928E-02 0. -1.
    10030    2    1    2    0    0  0.00000000000E+00  0.00000000000E+00  0.22234359430E+03  0.79901086862E+03  0.76745142794E+03 0.  0.
        1    1    3    3  502    0  0.25885972453E+03  0.11942794310E+03  0.37858836154E+03  0.47392039215E+03  0.50400001928E-02 0.  1.
       -1    1    3    3    0  502 -0.25885972453E+03 -0.11942794310E+03 -0.15624476724E+03  0.32509047647E+03  0.50400001928E-02 0. -1.
</event>
<event>
 5   0  0.6600401E-03  0.7996950E+03  0.7818609E-02  0.9560459E-01
       -1   -1    0    0    0  501  0.00000000000E+00  0.00000000000E+00  0.96928479283E+02  0.96928479414E+02  0.50400001928E-02 0. -1.
        1   -1    0    0  501    0  0.00000000000E+00  0.00000000000E+00 -0.16494433487E+04  0.16494433487E+04  0.50400001928E-02 0.  1.
    10030    2    1    2    0    0  0.00000000000E+00  0.00000000000E+00 -0.15525148694E+04  0.17463718281E+04  0.79969503080E+03 0.  0.
        2    1    3    3  502    0  0.26147035950E+03 -0.12028084883E+03 -0.13824089268E+04  0.14120512287E+04  0.25500000920E-02 0.  1.
       -2    1    3    3    0  502 -0.26147035950E+03  0.12028084883E+03 -0.17010594261E+03  0.33432059944E+03  0.25500000920E-02 0. -1.
</event>
<event>
 5   0  0.1092868E-02  0.7902612E+03  0.7818609E-02  0.9574222E-01
        2   -1    0    0  501    0  0.00000000000E+00  0.00000000000E+00  0.11128735183E+04  0.11128735183E+04  0.25500000920E-02 0. -1.
       -2   -1    0    0    0  501  0.00000000000E+00  0.00000000000E+00 -0.14029285489E+03  0.14029285491E+03  0.25500000920E-02 0.  1.
    10030    2    1    2    0    0  0.00000000000E+00  0.00000000000E+00  0.97258066339E+03  0.12531663732E+04  0.79026123029E+03 0.  0.
        3    1    3    3  502    0  0.37086825992E+03 -0.13570496406E+03  0.50691068822E+03  0.64258661635E+03  0.10100000352E+00 0. -1.
       -3    1    3    3    0  502 -0.37086825992E+03  0.13570496406E+03  0.46566997517E+03  0.61057975684E+03  0.10100000352E+00 0.  1.
</event>
<event>
 5   0  0.6517392E-03  0.8024457E+03  0.7818609E-02  0.9556484E-01
        1   -1    0    0  501    0  0.00000000000E+00  0.00000000000E+00  0.12957797555E+03  0.12957797565E+03  0.50400001928E-02 0. -1.
       -1   -1    0    0    0  501  0.00000000000E+00  0.00000000000E+00 -0.12423391644E+04  0.12423391644E+04  0.50400001928E-02 0.  1.
    10030    2    1    2    0    0  0.00000000000E+00  0.00000000000E+00 -0.11127611889E+04  0.13719171401E+04  0.80244574633E+03 0.  0.
        3    1    3    3  502    0  0.21921223372E+03  0.10945025926E+03 -0.10995779736E+04  0.11265456462E+04  0.10100000352E+00 0.  1.
       -3    1    3    3    0  502 -0.21921223372E+03 -0.10945025926E+03 -0.13183215274E+02  0.24537149392E+03  0.10100000352E+00 0. -1.
</event>
<event>
 5   0  0.1106332E-02  0.8024744E+03  0.7818609E-02  0.9556442E-01
        2   -1    0    0  501    0  0.00000000000E+00  0.00000000000E+00  0.13861515759E+04  0.13861515759E+04  0.25500000920E-02 0.  1.
       -2   -1    0    0    0  501  0.00000000000E+00  0.00000000000E+00 -0.11614264331E+03  0.11614264333E+03  0.25500000920E-02 0. -1.
    10030    2    1    2    0    0  0.00000000000E+00  0.00000000000E+00  0.12700089326E+04  0.15022942193E+04  0.80247444339E+03 0.  0.
        1    1    3    3  502    0 -0.85886009356E+02  0.22778613199E+03  0.12321014113E+04  0.12559207046E+04  0.50400001928E-02 0.  1.
       -1    1    3    3    0  502  0.85886009356E+02 -0.22778613199E+03  0.37907521341E+02  0.24637351467E+03  0.50400001928E-02 0. -1.
</event>
<event>
 5   0  0.6557679E-03  0.7765485E+03  0.7818609E-02  0.9594597E-01
        1   -1    0    0  501    0  0.00000000000E+00  0.00000000000E+00  0.65032856696E+03  0.65032856698E+03  0.50400001928E-02 0. -1.
       -1   -1    0    0    0  501  0.00000000000E+00  0.00000000000E+00 -0.23181650562E+03  0.23181650567E+03  0.50400001928E-02 0.  1.
    10030    2    1    2    0    0  0.00000000000E+00  0.00000000000E+00  0.41851206135E+03  0.88214507265E+03  0.77654850699E+03 0.  0.
        1    1    3    3  502    0  0.44366162631E+02 -0.13617991188E+03  0.61922366452E+03  0.63557161005E+03  0.50400001928E-02 0. -1.
       -1    1    3    3    0  502 -0.44366162631E+02  0.13617991188E+03 -0.20071160317E+03  0.24657346260E+03  0.50400001928E-02 0.  1.
</event>
<event>
 5   0  0.1121480E-02  0.8062413E+03  0.7818609E-02  0.9551027E-01
       -2   -1    0    0    0  501  0.00000000000E+00  0.00000000000E+00  0.27752891187E+03  0.27752891188E+03  0.25500000920E-02 0. -1.
        2   -1    0    0  501    0  0.00000000000E+00  0.00000000000E+00 -0.58554709562E+03  0.58554709563E+03  0.25500000920E-02 0.  1.
    10030    2    1    2    0    0  0.00000000000E+00  0.00000000000E+00 -0.30801818375E+03  0.86307600751E+03  0.80624127482E+03 0.  0.
        2    1    3    3  502    0  0.17007605952E+03 -0.35557330066E+03 -0.24451493034E+03  0.46383810680E+03  0.25500000920E-02 0.  1.
       -2    1    3    3    0  502 -0.17007605952E+03  0.35557330066E+03 -0.63503253414E+02  0.39923790071E+03  0.25500000920E-02 0. -1.
</event>
<event>
 5   0  0.6517392E-03  0.8107022E+03  0.7818609E-02  0.9544654E-01
        1   -1    0    0  501    0  0.00000000000E+00  0.00000000000E+00  0.56892725962E+03  0.56892725964E+03  0.50400001928E-02 0. -1.
       -1   -1    0    0    0  501  0.00000000000E+00  0.00000000000E+00 -0.28880581470E+03  0.28880581474E+03  0.50400001928E-02 0.  1.
    10030    2    1    2    0    0  0.00000000000E+00  0.00000000000E+00  0.28012144492E+03  0.85773307438E+03  0.81070216664E+03 0.  0.
        3    1    3    3  502    0 -0.28671843166E+03  0.28411124211E+03  0.17940447541E+03  0.44171555661E+03  0.10100000352E+00 0. -1.
       -3    1    3    3    0  502  0.28671843166E+03 -0.28411124211E+03  0.10071696951E+03  0.41601751778E+03  0.10100000352E+00 0.  1.
</event>
<event>
 5   0  0.1119792E-02  0.7973062E+03  0.7818609E-02  0.9563924E-01
       -2   -1    0    0    0  501  0.00000000000E+00  0.00000000000E+00  0.52699613294E+03  0.52699613295E+03  0.25500000920E-02 0. -1.
        2   -1    0    0  501    0  0.00000000000E+00  0.00000000000E+00 -0.30156633410E+03  0.30156633411E+03  0.25500000920E-02 0.  1.
    10030    2    1    2    0    0  0.00000000000E+00  0.00000000000E+00  0.22542979885E+03  0.82856246706E+03  0.79730619439E+03 0.  0.
        4    1    3    3  502    0  0.11712965360E+03 -0.58310336566E+01 -0.28323254374E+03  0.30655447059E+03  0.12699999809E+01 0.  1.
       -4    1    3    3    0  502 -0.11712965360E+03  0.58310336566E+01  0.50866234259E+03  0.52200799646E+03  0.12699999809E+01 0. -1.
</event>
<event>
 5   0  0.1106332E-02  0.7934863E+03  0.7818609E-02  0.9569494E-01
        2   -1    0    0  501    0  0.00000000000E+00  0.00000000000E+00  0.10021062266E+04  0.10021062267E+04  0.25500000920E-02 0.  1.
       -2   -1    0    0    0  501  0.00000000000E+00  0.00000000000E+00 -0.15707430814E+03  0.15707430816E+03  0.25500000920E-02 0. -1.
    10030    2    1    2    0    0  0.00000000000E+00  0.00000000000E+00  0.84503191851E+03  0.11591805348E+04  0.79348633826E+03 0.  0.
        1    1    3    3  502    0  0.19736681934E+03 -0.14123212219E+03 -0.35985470499E+02  0.24534695398E+03  0.50400001928E-02 0. -1.
       -1    1    3    3    0  502 -0.19736681934E+03  0.14123212219E+03  0.88101738901E+03  0.91383358084E+03  0.50400001928E-02 0.  1.
</event>
<event>
 5   0  0.6517392E-03  0.8414485E+03  0.7818609E-02  0.9501887E-01
       -1   -1    0    0    0  501  0.00000000000E+00  0.00000000000E+00  0.18342502814E+03  0.18342502821E+03  0.50400001928E-02 0.  1.
        1   -1    0    0  501    0  0.00000000000E+00  0.00000000000E+00 -0.96502032586E+03  0.96502032587E+03  0.50400001928E-02 0. -1.
    10030    2    1    2    0    0  0.00000000000E+00  0.00000000000E+00 -0.78159529772E+03  0.11484453541E+04  0.84144846657E+03 0.  0.
        3    1    3    3  502    0  0.24161896724E+03 -0.23733051739E+03 -0.73147132949E+03  0.80607432405E+03  0.10100000352E+00 0. -1.
       -3    1    3    3    0  502 -0.24161896724E+03  0.23733051739E+03 -0.50123968227E+02  0.34237103004E+03  0.10100000352E+00 0.  1.
</event>
<event>
 5   0  0.6596225E-03  0.7954819E+03  0.7818609E-02  0.9566580E-01
       -1   -1    0    0    0  501  0.00000000000E+00  0.00000000000E+00  0.25550013647E+03  0.25550013652E+03  0.50400001928E-02 0. -1.
        1   -1    0    0  501    0  0.00000000000E+00  0.00000000000E+00 -0.61916931194E+03  0.61916931196E+03  0.50400001928E-02 0.  1.
    10030    2    1    2    0    0  0.00000000000E+00  0.00000000000E+00 -0.36366917547E+03  0.87466944848E+03  0.79548185078E+03 0.  0.
        5    1    3    3  502    0 -0.23812803502E+03  0.28554568219E+03 -0.26590211558E+02  0.37278737509E+03  0.46999998093E+01 0. -1.
       -5    1    3    3    0  502  0.23812803502E+03 -0.28554568219E+03 -0.33707896391E+03  0.50188207339E+03  0.46999998093E+01 0.  1.
</event>
<event>
 5   0  0.6517392E-03  0.8026289E+03  0.7818609E-02  0.9556220E-01
        1   -1    0    0  501    0  0.00000000000E+00  0.00000000000E+00  0.73227094175E+03  0.73227094177E+03  0.50400001928E-02 0.  1.
       -1   -1    0    0    0  501  0.00000000000E+00  0.00000000000E+00 -0.21993672915E+03  0.21993672921E+03  0.50400001928E-02 0. -1.
    10030    2    1    2    0    0  0.00000000000E+00  0.00000000000E+00  0.51233421260E+03  0.95220767098E+03  0.80262887019E+03 0.  0.
        3    1    3    3  502    0 -0.21960736110E+02 -0.11314317769E+03 -0.19987975048E+03  0.23072836289E+03  0.10100000352E+00 0. -1.
       -3    1    3    3    0  502  0.21960736110E+02  0.11314317769E+03  0.71221396308E+03  0.72147930809E+03  0.10100000352E+00 0.  1.
</event>
<event>
 5   0  0.6596225E-03  0.8039536E+03  0.7818609E-02  0.9554312E-01
        1   -1    0    0  501    0  0.00000000000E+00  0.00000000000E+00  0.75104561440E+02  0.75104561609E+02  0.50400001928E-02 0. -1.
       -1   -1    0    0    0  501  0.00000000000E+00  0.00000000000E+00 -0.21514717779E+04  0.21514717779E+04  0.50400001928E-02 0.  1.
    10030    2    1    2    0    0  0.00000000000E+00  0.00000000000E+00 -0.20763672165E+04  0.22265763395E+04  0.80395359201E+03 0.  0.
        5    1    3    3  502    0 -0.12762013719E+03 -0.33547450182E+03 -0.15392565290E+04  0.15805577474E+04  0.46999998093E+01 0.  1.
       -5    1    3    3    0  502  0.12762013719E+03  0.33547450182E+03 -0.53711068749E+03  0.64601859215E+03  0.46999998093E+01 0. -1.
</event>
<event>
 5   0  0.1121480E-02  0.7959359E+03  0.7818609E-02  0.9565918E-01
       -2   -1    0    0    0  501  0.00000000000E+00  0.00000000000E+00  0.22712744163E+03  0.22712744164E+03  0.25500000920E-02 0.  1.
        2   -1    0    0  501    0  0.00000000000E+00  0.00000000000E+00 -0.69731110939E+03  0.69731110940E+03  0.25500000920E-02 0. -1.
    10030    2    1    2    0    0  0.00000000000E+00  0.00000000000E+00 -0.47018366776E+03  0.92443855104E+03  0.79593589768E+03 0.  0.
        2    1    3    3  502    0  0.29664912778E+03  0.23118879036E+03 -0.38621197888E+03  0.53908130596E+03  0.25500000920E-02 0. -1.
       -2    1    3    3    0  502 -0.29664912778E+03 -0.23118879036E+03 -0.83971688880E+02  0.38535724508E+03  0.25500000920E-02 0.  1.
</event>
<event>
 5   0  0.6517392E-03  0.8050538E+03  0.7818609E-02  0.9552731E-01
        1   -1    0    0  501    0  0.00000000000E+00  0.00000000000E+00  0.46780222989E+03  0.46780222991E+03  0.50400001928E-02 0.  1.
       -1   -1    0    0    0  501  0.00000000000E+00  0.00000000000E+00 -0.34635979990E+03  0.34635979994E+03  0.50400001928E-02 0. -1.
    10030    2    1    2    0    0  0.00000000000E+00  0.00000000000E+00  0.12144242999E+03  0.81416202985E+03  0.80505375414E+03 0.  0.
        3    1    3    3  502    0  0.26786971180E+03 -0.84092928999E+02  0.35243237156E+03  0.45059337538E+03  0.10100000352E+00 0.  1.
       -3    1    3    3    0  502 -0.26786971180E+03  0.84092928999E+02 -0.23098994157E+03  0.36356865447E+03  0.10100000352E+00 0. -1.
</event>
<event>
 5   0  0.1106332E-02  0.7812890E+03  0.7818609E-02  0.9587502E-01
        2   -1    0    0  501    0  0.00000000000E+00  0.00000000000E+00  0.79295350367E+03  0.79295350367E+03  0.25500000920E-02 0. -1.
       -2   -1    0    0    0  501  0.00000000000E+00  0.00000000000E+00 -0.19244901759E+03  0.19244901761E+03  0.25500000920E-02 0.  1.
    10030    2    1    2    0    0  0.00000000000E+00  0.00000000000E+00  0.60050448607E+03  0.98540252128E+03  0.78128899336E+03 0.  0.
        1    1    3    3  502    0 -0.26087015114E+03  0.26625503468E+03  0.15285213598E+03  0.40287560704E+03  0.50400001928E-02 0.  1.
       -1    1    3    3    0  502  0.26087015114E+03 -0.26625503468E+03  0.44765235009E+03  0.58252691424E+03  0.50400001928E-02 0. -1.
</event>
<event>
 5   0  0.1119792E-02  0.7976789E+03  0.7818609E-02  0.9563383E-01
        2   -1    0    0  501    0  0.00000000000E+00  0.00000000000E+00  0.50953139919E+03  0.50953139920E+03  0.25500000920E-02 0.  1.
       -2   -1    0    0    0  501  0.00000000000E+00  0.00000000000E+00 -0.31219449457E+03  0.31219449458E+03  0.25500000920E-02 0. -1.
    10030    2    1    2    0    0  0.00000000000E+00  0.00000000000E+00  0.19733690462E+03  0.82172589378E+03  0.79767887685E+03 0.  0.
        4    1    3    3  502    0 -0.24086689227E+03 -0.85599576795E+02 -0.21670966570E+03  0.33512511014E+03  0.12699999809E+01 0. -1.
       -4    1    3    3    0  502  0.24086689227E+03  0.85599576795E+02  0.41404657032E+03  0.48660078363E+03  0.12699999809E+01 0.  1.
</event>
<event>
 5   0  0.6517392E-03  0.8005046E+03  0.7818609E-02  0.9559287E-01
        1   -1    0    0  501    0  0.00000000000E+00  0.00000000000E+00  0.68885980480E+03  0.68885980482E+03  0.50400001928E-02 0. -1.
       -1   -1    0    0    0  501  0.00000000000E+00  0.00000000000E+00 -0.23256094942E+03  0.23256094947E+03  0.50400001928E-02 0.  1.
    10030    2    1    2    0    0  0.00000000000E+00  0.00000000000E+00  0.45629885538E+03  0.92142075429E+03  0.80050456652E+03 0.  0.
        3    1    3    3  502    0  0.16895984100E+03  0.35550916530E+03  0.14460757578E+03  0.41933942775E+03  0.10100000352E+00 0.  1.
       -3    1    3    3    0  502 -0.16895984100E+03 -0.35550916530E+03  0.31169127960E+03  0.50208132655E+03  0.10100000352E+00 0. -1.
</event>
<event>
 5   0  0.1092868E-02  0.8149454E+03  0.7818609E-02  0.9538633E-01
        2   -1    0    0  501    0  0.00000000000E+00  0.00000000000E+00  0.91420185108E+03  0.91420185109E+03  0.25500000920E-02 0.  1.
       -2   -1    0    0    0  501  0.00000000000E+00  0.00000000000E+00 -0.18161634650E+03  0.18161634652E+03  0.25500000920E-02 0. -1.
    10030    2    1    2    0    0  0.00000000000E+00  0.00000000000E+00  0.73258550458E+03  0.10958181976E+04  0.81494539737E+03 0.  0.
        3    1    3    3  502    0 -0.39863963502E+03  0.30207865930E+02  0.47223835105E+03  0.61873673253E+03  0.10100000352E+00 0.  1.
       -3    1    3    3    0  502  0.39863963502E+03 -0.30207865930E+02  0.26034715353E+03  0.47708146508E+03  0.10100000352E+00 0. -1.
</event>
<event>
 5   0  0.1092868E-02  0.7944379E+03  0.7818609E-02  0.9568103E-01
       -2   -1    0    0    0  501  0.00000000000E+00  0.00000000000E+00  0.78999941551E+02  0.78999941592E+02  0.25500000920E-02 0.  1.
        2   -1    0    0  501    0  0.00000000000E+00  0.00000000000E+00 -0.19972531152E+04  0.19972531152E+04  0.25500000920E-02 0. -1.
    10030    2    1    2    0    0  0.00000000000E+00  0.00000000000E+00 -0.19182531736E+04  0.20762530568E+04  0.79443786265E+03 0.  0.
        3    1    3    3  502    0 -0.24327073531E+03  0.26884729948E+03 -0.13831510510E+04  0.14298833383E+04  0.10100000352E+00 0. -1.
       -3    1    3    3    0  502  0.24327073531E+03 -0.26884729948E+03 -0.53510212258E+03  0.64636971842E+03  0.10100000352E+00 0.  1.
</event>
<event>
 5   0  0.6600401E-03  0.7960975E+03  0.7818609E-02  0.9565683E-01
        1   -1    0    0  501    0  0.00000000000E+00  0.00000000000E+00  0.64557969637E+03  0.64557969639E+03  0.50400001928E-02 0. -1.
       -1   -1    0    0    0  501  0.00000000000E+00  0.00000000000E+00 -0.24542719985E+03  0.24542719990E+03  0.50400001928E-02 0.  1.
    10030    2    1    2    0    0  0.00000000000E+00  0.00000000000E+00  0.40015249652E+03  0.89100689629E+03  0.79609752465E+03 0.  0.
        2    1    3    3  502    0  0.81035856279E+02 -0.33885054689E+03  0.41552595191E+03  0.54226222425E+03  0.25500000920E-02 0. -1.
       -2    1    3    3    0  502 -0.81035856279E+02  0.33885054689E+03 -0.15373455390E+02  0.34874467203E+03  0.25500000920E-02 0.  1.
</event>
<event>
 5   0  0.6596225E-03  0.8054791E+03  0.7818609E-02  0.9552120E-01
        1   -1    0    0  501    0  0.00000000000E+00  0.00000000000E+00  0.73704914255E+03  0.73704914256E+03  0.50400001928E-02 0. -1.
       -1   -1    0    0    0  501  0.00000000000E+00  0.00000000000E+00 -0.22006559954E+03  0.22006559960E+03  0.50400001928E-02 0.  1.
    10030    2    1    2    0    0  0.00000000000E+00  0.00000000000E+00  0.51698354300E+03  0.95711474216E+03  0.80547914059E+03 0.  0.
        5    1    3    3  502    0 -0.10579539168E+03 -0.17785205591E+03 -0.15202081136E+03  0.25681985082E+03  0.46999998093E+01 0.  1.
       -5    1    3    3    0  502  0.10579539168E+03  0.17785205591E+03  0.66900435436E+03  0.70029489134E+03  0.46999998093E+01 0. -1.
</event>
<event>
 5   0  0.6557679E-03  0.8079109E+03  0.7818609E-02  0.9548637E-01
       -1   -1    0    0    0  501  0.00000000000E+00  0.00000000000E+00  0.20046141066E+03  0.20046141072E+03  0.50400001928E-02 0. -1.
        1   -1    0    0  501    0  0.00000000000E+00  0.00000000000E+00 -0.81402200037E+03  0.81402200039E+03  0.50400001928E-02 0.  1.
    10030    2    1    2    0    0  0.00000000000E+00  0.00000000000E+00 -0.61356058971E+03  0.10144834111E+04  0.80791088256E+03 0.  0.
        1    1    3    3  502    0  0.37279835264E+02  0.28349714633E+03  0.51518973789E+02  0.29054194668E+03  0.50400001928E-02 0. -1.
       -1    1    3    3    0  502 -0.37279835264E+02 -0.28349714633E+03 -0.66507956350E+03  0.72394146442E+03  0.50400001928E-02 0.  1.
</event>
<event>
 5   0  0.1154714E-02  0.8058091E+03  0.7818609E-02  0.9551647E-01
       -2   -1    0    0    0  501  0.00000000000E+00  0.00000000000E+00  0.96580610871E+02  0.96580610905E+02  0.25500000920E-02 0. -1.
        2   -1    0    0  501    0  0.00000000000E+00  0.00000000000E+00 -0.16807935252E+04  0.16807935252E+04  0.25500000920E-02 0.  1.
    10030    2    1    2    0    0  0.00000000000E+00  0.00000000000E+00 -0.15842129144E+04  0.17773741362E+04  0.80580907279E+03 0.  0.
        5    1    3    3  502    0  0.22764697456E+03 -0.32325732503E+03 -0.62137417188E+03  0.73650960257E+03  0.46999998093E+01 0. -1.
       -5    1    3    3    0  502 -0.22764697456E+03  0.32325732503E+03 -0.96283874250E+03  0.10408645336E+04  0.46999998093E+01 0.  1.
</event>
<event>
 5   0  0.1092868E-02  0.8307364E+03  0.7818609E-02  0.9516563E-01
       -2   -1    0    0    0  501  0.00000000000E+00  0.00000000000E+00  0.30059025144E+03  0.30059025145E+03  0.25500000920E-02 0.  1.
        2   -1    0    0  501    0  0.00000000000E+00  0.00000000000E+00 -0.57397315905E+03  0.57397315905E+03  0.25500000920E-02 0. -1.
    10030    2    1    2    0    0  0.00000000000E+00  0.00000000000E+00 -0.27338290761E+03  0.87456341050E+03  0.83073638708E+03 0.  0.
        3    1    3    3  502    0 -0.24039289202E+03  0.26707200485E+03 -0.35604548019E+03  0.50585036569E+03  0.10100000352E+00 0. -1.
       -3    1    3    3    0  502  0.24039289202E+03 -0.26707200485E+03  0.82662572580E+02  0.36871304481E+03  0.10100000352E+00 0.  1.
</event>
<event>
 5   0  0.1119792E-02  0.7966793E+03  0.7818609E-02  0.9564836E-01
       -2   -1    0    0    0  501  0.00000000000E+00  0.00000000000E+00  0.14724180692E+04  0.14724180692E+04  0.25500000920E-02 0. -1.
        2   -1    0    0  501    0  0.00000000000E+00  0.00000000000E+00 -0.10776455725E+03  0.10776455728E+03  0.25500000920E-02 0.  1.
    10030    2    1    2    0    0  0.00000000000E+00  0.00000000000E+00  0.13646535119E+04  0.15801826265E+04  0.79667931148E+03 0.  0.
        4    1    3    3  502    0  0.21300565498E+03  0.16777600063E+01  0.13499571506E+04  0.13666602158E+04  0.12699999809E+01 0. -1.
       -4    1    3    3    0  502 -0.21300565498E+03 -0.16777600063E+01  0.14696361304E+02  0.21352241069E+03  0.12699999809E+01 0.  1.
</event>
<event>
 5   0  0.1092868E-02  0.7960732E+03  0.7818609E-02  0.9565718E-01
        2   -1    0    0  501    0  0.00000000000E+00  0.00000000000E+00  0.15559958660E+03  0.15559958662E+03  0.25500000920E-02 0. -1.
       -2   -1    0    0    0  501  0.00000000000E+00  0.00000000000E+00 -0.10182105344E+04  0.10182105344E+04  0.25500000920E-02 0.  1.
    10030    2    1    2    0    0  0.00000000000E+00  0.00000000000E+00 -0.86261094777E+03  0.11738101210E+04  0.79607320827E+03 0.  0.
        3    1    3    3  502    0  0.26777021144E+03  0.27597924456E+03 -0.27972786625E+03  0.47551353179E+03  0.10100000352E+00 0. -1.
       -3    1    3    3    0  502 -0.26777021144E+03 -0.27597924456E+03 -0.58288308152E+03  0.69829658920E+03  0.10100000352E+00 0.  1.
</event>
<event>
 5   0  0.6596225E-03  0.8066759E+03  0.7818609E-02  0.9550404E-01
       -1   -1    0    0    0  501  0.00000000000E+00  0.00000000000E+00  0.95733223414E+03  0.95733223415E+03  0.50400001928E-02 0.  1.
        1   -1    0    0  501    0  0.00000000000E+00  0.00000000000E+00 -0.16993210643E+03  0.16993210651E+03  0.50400001928E-02 0. -1.
    10030    2    1    2    0    0  0.00000000000E+00  0.00000000000E+00  0.78740012771E+03  0.11272643407E+04  0.80667585349E+03 0.  0.
        5    1    3    3  502    0 -0.25938722891E+03  0.15689305319E+03  0.76542993612E+03  0.82328745999E+03  0.46999998093E+01 0.  1.
       -5    1    3    3    0  502  0.25938722891E+03 -0.15689305319E+03  0.21970191582E+02  0.30397688067E+03  0.46999998093E+01 0. -1.
</event>
<event>
 5   0  0.6551489E-03  0.8028185E+03  0.7818609E-02  0.9555946E-01
       -1   -1    0    0    0  501  0.00000000000E+00  0.00000000000E+00  0.63764104409E+03  0.63764104411E+03  0.50400001928E-02 0. -1.
        1   -1    0    0  501    0  0.00000000000E+00  0.00000000000E+00 -0.25269606686E+03  0.25269606691E+03  0.50400001928E-02 0.  1.
    10030    2    1    2    0    0  0.00000000000E+00  0.00000000000E+00  0.38494497722E+03  0.89033711102E+03  0.80281849491E+03 0.  0.
        4    1    3    3  502    0 -0.12564375721E+03  0.11991410426E+03  0.59381004102E+03  0.61869032952E+03  0.12699999809E+01 0. -1.
       -4    1    3    3    0  502  0.12564375721E+03 -0.11991410426E+03 -0.20886506379E+03  0.27164678150E+03  0.12699999809E+01 0.  1.
</event>
<event>
 5   0  0.6596225E-03  0.7999894E+03  0.7818609E-02  0.9560033E-01
        1   -1    0    0  501    0  0.00000000000E+00  0.00000000000E+00  0.42210392537E+03  0.42210392540E+03  0.50400001928E-02 0. -1.
       -1   -1    0    0    0  501  0.00000000000E+00  0.00000000000E+00 -0.37904348629E+03  0.37904348632E+03  0.50400001928E-02 0.  1.
    10030    2    1    2    0    0  0.00000000000E+00  0.00000000000E+00  0.43060439077E+02  0.80114741172E+03  0.79998935861E+03 0.  0.
        5    1    3    3  502    0 -0.31835648141E+03  0.57335976427E+02  0.25710549713E+03  0.41323551409E+03  0.46999998093E+01 0. -1.
       -5    1    3    3    0  502  0.31835648141E+03 -0.57335976427E+02 -0.21404505806E+03  0.38791189763E+03  0.46999998093E+01 0.  1.
</event>
<event>
 5   0  0.6551489E-03  0.7908605E+03  0.7818609E-02  0.9573341E-01
        1   -1    0    0  501    0  0.00000000000E+00  0.00000000000E+00  0.60784062239E+03  0.60784062241E+03  0.50400001928E-02 0.  1.
       -1   -1    0    0    0  501  0.00000000000E+00  0.00000000000E+00 -0.25724687153E+03  0.25724687158E+03  0.50400001928E-02 0. -1.
    10030    2    1    2    0    0  0.00000000000E+00  0.00000000000E+00  0.35059375086E+03  0.86508749399E+03  0.79086054024E+03 0.  0.
        4    1    3    3  502    0 -0.18895451629E+03 -0.24940854283E+03  0.43976367765E+03  0.53972412911E+03  0.12699999809E+01 0.  1.
       -4    1    3    3    0  502  0.18895451629E+03  0.24940854283E+03 -0.89169926782E+02  0.32536336488E+03  0.12699999809E+01 0. -1.
</event>
<event>
 5   0  0.1092868E-02  0.7981555E+03  0.7818609E-02  0.9562691E-01
       -2   -1    0    0    0  501  0.00000000000E+00  0.00000000000E+00  0.44752367636E+03  0.44752367637E+03  0.25500000920E-02 0.  1.
        2   -1    0    0  501    0  0.00000000000E+00  0.00000000000E+00 -0.35587622114E+03  0.35587622115E+03  0.25500000920E-02 0. -1.
    10030    2    1    2    0    0  0.00000000000E+00  0.00000000000E+00  0.91647455223E+02  0.80339989752E+03  0.79815546060E+03 0.  0.
        3    1    3    3  502    0 -0.38585519996E+03  0.71638876999E+02  0.11873350425E+03  0.41001709631E+03  0.10100000352E+00 0.  1.
       -3    1    3    3    0  502  0.38585519996E+03 -0.71638876999E+02 -0.27086049027E+02  0.39338280121E+03  0.10100000352E+00 0. -1.
</event>
<event>
 5   0  0.6517392E-03  0.8006373E+03  0.7818609E-02  0.9559095E-01
       -1   -1    0    0    0  501  0.00000000000E+00  0.00000000000E+00  0.22839424782E+03  0.22839424788E+03  0.50400001928E-02 0.  1.
        1   -1    0    0  501    0  0.00000000000E+00  0.00000000000E+00 -0.70165964468E+03  0.70165964470E+03  0.50400001928E-02 0. -1.
    10030    2    1    2    0    0  0.00000000000E+00  0.00000000000E+00 -0.47326539686E+03  0.93005389258E+03  0.80063731316E+03 0.  0.
        3    1    3    3  502    0  0.24204060400E+03 -0.31531335008E+03 -0.18154521819E+03  0.43699523930E+03  0.10100000352E+00 0.  1.
       -3    1    3    3    0  502 -0.24204060400E+03  0.31531335008E+03 -0.29172017868E+03  0.49305865328E+03  0.10100000352E+00 0. -1.
</event>
<event>
 5   0  0.4385875E-03  0.8055380E+03  0.7818609E-02  0.9552036E-01
        4   -1    0    0  501    0  0.00000000000E+00  0.00000000000E+00  0.32709996379E+03  0.32710242923E+03  0.12699999809E+01 0.  1.
       -4   -1    0    0    0  501  0.00000000000E+00  0.00000000000E+00 -0.49593763136E+03  0.49593925747E+03  0.12699999809E+01 0. -1.
    10030    2    1    2    0    0  0.00000000000E+00  0.00000000000E+00 -0.16883766758E+03  0.82304168670E+03  0.80553799418E+03 0.  0.
        2    1    3    3  502    0 -0.33643785695E+02  0.17954714991E+03 -0.45118088063E+03  0.48675791766E+03  0.25500000920E-02 0. -1.
       -2    1    3    3    0  502  0.33643785695E+02 -0.17954714991E+03  0.28234321305E+03  0.33628376904E+03  0.25500000920E-02 0.  1.
</event>
<event>
 5   0  0.1092868E-02  0.7990355E+03  0.7818609E-02  0.9561414E-01
       -2   -1    0    0    0  501  0.00000000000E+00  0.00000000000E+00  0.51183605341E+03  0.51183605342E+03  0.25500000920E-02 0. -1.
        2   -1    0    0  501    0  0.00000000000E+00  0.00000000000E+00 -0.31184681891E+03  0.31184681892E+03  0.25500000920E-02 0.  1.
    10030    2    1    2    0    0  0.00000000000E+00  0.00000000000E+00  0.19998923450E+03  0.82368287234E+03  0.79903553130E+03 0.  0.
        3    1    3    3  502    0 -0.21624820860E+03  0.30551986258E+03  0.24397681040E+03  0.44680014365E+03  0.10100000352E+00 0. -1.
       -3    1    3    3    0  502  0.21624820860E+03 -0.30551986258E+03 -0.43987575893E+02  0.37688272869E+03  0.10100000352E+00 0.  1.
</event>
<event>
 5   0  0.6517392E-03  0.7985221E+03  0.7818609E-02  0.9562159E-01
        1   -1    0    0  501    0  0.00000000000E+00  0.00000000000E+00  0.52007624790E+03  0.52007624792E+03  0.50400001928E-02 0. -1.
       -1   -1    0    0    0  501  0.00000000000E+00  0.00000000000E+00 -0.30651157790E+03  0.30651157795E+03  0.50400001928E-02 0.  1.
    10030    2    1    2    0    0  0.00000000000E+00  0.00000000000E+00  0.21356467000E+03  0.82658782587E+03  0.79852211341E+03 0.  0.
        3    1    3    3  502    0 -0.28333848233E+03  0.19486908166E+03 -0.10321409797E+03  0.35903734454E+03  0.10100000352E+00 0.  1.
       -3    1    3    3    0  502  0.28333848233E+03 -0.19486908166E+03  0.31677876796E+03  0.46755048133E+03  0.10100000352E+00 0. -1.
</event>
<event>
 5   0  0.1119792E-02  0.8004526E+03  0.7818609E-02  0.9559362E-01
        2   -1    0    0  501    0  0.00000000000E+00  0.00000000000E+00  0.12993445322E+04  0.12993445322E+04  0.25500000920E-02 0.  1.
       -2   -1    0    0    0  501  0.00000000000E+00  0.00000000000E+00 -0.12327837568E+03  0.12327837571E+03  0.25500000920E-02 0. -1.
    10030    2    1    2    0    0  0.00000000000E+00  0.00000000000E+00  0.11760661565E+04  0.14226229079E+04  0.80045258048E+03 0.  0.
        4    1    3    3  502    0 -0.92305456742E+02  0.24247320828E+03  0.11296377017E+04  0.11590498281E+04  0.12699999809E+01 0.  1.
       -4    1    3    3    0  502  0.92305456742E+02 -0.24247320828E+03  0.46428454846E+02  0.26357307981E+03  0.12699999809E+01 0. -1.
</event>
<event>
 5   0  0.4385875E-03  0.8004618E+03  0.7818609E-02  0.9559349E-01
        4   -1    0    0  501    0  0.00000000000E+00  0.00000000000E+00  0.13225062484E+04  0.13225068582E+04  0.12699999809E+01 0. -1.
       -4   -1    0    0    0  501  0.00000000000E+00  0.00000000000E+00 -0.12111817194E+03  0.12112483013E+03  0.12699999809E+01 0.  1.
    10030    2    1    2    0    0  0.00000000000E+00  0.00000000000E+00  0.12013880765E+04  0.14436316883E+04  0.80046182998E+03 0.  0.
        2    1    3    3  502    0 -0.12314110913E+03 -0.37946437578E+03  0.65851409995E+03  0.76993361083E+03  0.25500000920E-02 0.  1.
       -2    1    3    3    0  502  0.12314110913E+03  0.37946437578E+03  0.54287397655E+03  0.67369807752E+03  0.25500000920E-02 0. -1.
</event>
<event>
 5   0  0.6600401E-03  0.8004787E+03  0.7818609E-02  0.9559324E-01
        1   -1    0    0  501    0  0.00000000000E+00  0.00000000000E+00  0.10293879154E+04  0.10293879154E+04  0.50400001928E-02 0.  1.
       -1   -1    0    0    0  501  0.00000000000E+00  0.00000000000E+00 -0.15561823470E+03  0.15561823479E+03  0.50400001928E-02 0. -1.
    10030    2    1    2    0    0  0.00000000000E+00  0.00000000000E+00  0.87376968073E+03  0.11850061502E+04  0.80047868250E+03 0.  0.
        2    1    3    3  502    0 -0.26358476754E+03  0.92603204331E+01  0.88254525622E+03  0.92111281204E+03  0.25500000920E-02 0.  1.
       -2    1    3    3    0  502  0.26358476754E+03 -0.92603204331E+01 -0.87755754921E+01  0.26389333820E+03  0.25500000920E-02 0. -1.
</event>
<event>
 5   0  0.6551489E-03  0.7998418E+03  0.7818609E-02  0.9560246E-01
        1   -1    0    0  501    0  0.00000000000E+00  0.00000000000E+00  0.27500430520E+03  0.27500430525E+03  0.50400001928E-02 0.  1.
       -1   -1    0    0    0  501  0.00000000000E+00  0.00000000000E+00 -0.58157905323E+03  0.58157905326E+03  0.50400001928E-02 0. -1.
    10030    2    1    2    0    0  0.00000000000E+00  0.00000000000E+00 -0.30657474803E+03  0.85658335850E+03  0.79984184307E+03 0.  0.
        4    1    3    3  502    0  0.20645934052E+02 -0.11726474841E+03 -0.56215384383E+03  0.57462668999E+03  0.12699999809E+01 0. -1.
       -4    1    3    3    0  502 -0.20645934052E+02  0.11726474841E+03  0.25557909579E+03  0.28195666851E+03  0.12699999809E+01 0.  1.
</event>
<event>
 5   0  0.6517392E-03  0.7978145E+03  0.7818609E-02  0.9563186E-01
       -1   -1    0    0    0  501  0.00000000000E+00  0.00000000000E+00  0.36791383211E+03  0.36791383214E+03  0.50400001928E-02 0. -1.
        1   -1    0    0  501    0  0.00000000000E+00  0.00000000000E+00 -0.43251161494E+03  0.43251161497E+03  0.50400001928E-02 0.  1.
    10030    2    1    2    0    0  0.00000000000E+00  0.00000000000E+00 -0.64597782829E+02  0.80042544711E+03  0.79781452910E+03 0.  0.
        3    1    3    3  502    0  0.22093116700E+03 -0.23615982466E+03 -0.26661180745E+03  0.41912278560E+03  0.10100000352E+00 0.  1.
       -3    1    3    3    0  502 -0.22093116700E+03  0.23615982466E+03  0.20201402462E+03  0.38130266151E+03  0.10100000352E+00 0. -1.
</event>
<event>
 5   0  0.6596225E-03  0.8073296E+03  0.7818609E-02  0.9549468E-01
        1   -1    0    0  501    0  0.00000000000E+00  0.00000000000E+00  0.10703881742E+04  0.10703881743E+04  0.50400001928E-02 0. -1.
       -1   -1    0    0    0  501  0.00000000000E+00  0.00000000000E+00 -0.15223006022E+03  0.15223006031E+03  0.50400001928E-02 0.  1.
    10030    2    1    2    0    0  0.00000000000E+00  0.00000000000E+00  0.91815811402E+03  0.12226182346E+04  0.80732956414E+03 0.  0.
        5    1    3    3  502    0  0.14340964593E+03  0.20668140792E+03  0.93711007435E+03  0.97029939316E+03  0.46999998093E+01 0. -1.
       -5    1    3    3    0  502 -0.14340964593E+03 -0.20668140792E+03 -0.18951960335E+02  0.25231884139E+03  0.46999998093E+01 0.  1.
</event>
<event>
 5   0  0.1092868E-02  0.8018089E+03  0.7818609E-02  0.9557402E-01
       -2   -1    0    0    0  501  0.00000000000E+00  0.00000000000E+00  0.52344467335E+03  0.52344467336E+03  0.25500000920E-02 0. -1.
        2   -1    0    0  501    0  0.00000000000E+00  0.00000000000E+00 -0.30705133679E+03  0.30705133680E+03  0.25500000920E-02 0.  1.
    10030    2    1    2    0    0  0.00000000000E+00  0.00000000000E+00  0.21639333656E+03  0.83049601015E+03  0.80180892161E+03 0.  0.
        3    1    3    3  502    0  0.85646281940E+02  0.17447732223E+03  0.47137940867E+03  0.50987859212E+03  0.10100000352E+00 0. -1.
       -3    1    3    3    0  502 -0.85646281940E+02 -0.17447732223E+03 -0.25498607210E+03  0.32061741804E+03  0.10100000352E+00 0.  1.
</event>
<event>
 5   0  0.6557679E-03  0.7916465E+03  0.7818609E-02  0.9572188E-01
       -1   -1    0    0    0  501  0.00000000000E+00  0.00000000000E+00  0.10303903505E+03  0.10303903518E+03  0.50400001928E-02 0. -1.
        1   -1    0    0  501    0  0.00000000000E+00  0.00000000000E+00 -0.15205502477E+04  0.15205502477E+04  0.50400001928E-02 0.  1.
    10030    2    1    2    0    0  0.00000000000E+00  0.00000000000E+00 -0.14175112126E+04  0.16235892829E+04  0.79164646245E+03 0.  0.
        1    1    3    3  502    0 -0.34061828978E+03 -0.16996049311E+03 -0.93124436487E+03  0.10060434661E+04  0.50400001928E-02 0.  1.
       -1    1    3    3    0  502  0.34061828978E+03  0.16996049311E+03 -0.48626684776E+03  0.61754581677E+03  0.50400001928E-02 0. -1.
</event>
<event>
 5   0  0.1106332E-02  0.7985505E+03  0.7818609E-02  0.9562118E-01
       -2   -1    0    0    0  501  0.00000000000E+00  0.00000000000E+00  0.72562277875E+02  0.72562277920E+02  0.25500000920E-02 0. -1.
        2   -1    0    0  501    0  0.00000000000E+00  0.00000000000E+00 -0.21970194762E+04  0.21970194762E+04  0.25500000920E-02 0.  1.
    10030    2    1    2    0    0  0.00000000000E+00  0.00000000000E+00 -0.21244571984E+04  0.22695817542E+04  0.79855053136E+03 0.  0.
        1    1    3    3  502    0  0.38230937691E+03  0.94687140399E+02 -0.87597444071E+03  0.96044642487E+03  0.50400001928E-02 0. -1.
       -1    1    3    3    0  502 -0.38230937691E+03 -0.94687140399E+02 -0.12484827577E+04  0.13091353293E+04  0.50400001928E-02 0.  1.
</event>
<event>
 5   0  0.6517392E-03  0.8037656E+03  0.7818609E-02  0.9554583E-01
       -1   -1    0    0    0  501  0.00000000000E+00  0.00000000000E+00  0.16812229543E+03  0.16812229551E+03  0.50400001928E-02 0.  1.
        1   -1    0    0  501    0  0.00000000000E+00  0.00000000000E+00 -0.96066835342E+03  0.96066835343E+03  0.50400001928E-02 0. -1.
    10030    2    1    2    0    0  0.00000000000E+00  0.00000000000E+00 -0.79254605798E+03  0.11287906489E+04  0.80376555980E+03 0.  0.
        3    1    3    3  502    0  0.14769614014E+03  0.35981150381E+03 -0.25422041908E+03  0.46465740042E+03  0.10100000352E+00 0.  1.
       -3    1    3    3    0  502 -0.14769614014E+03 -0.35981150381E+03 -0.53832563890E+03  0.66413324852E+03  0.10100000352E+00 0. -1.
</event>
<event>
 5   0  0.6600401E-03  0.7959228E+03  0.7818609E-02  0.9565938E-01
       -1   -1    0    0    0  501  0.00000000000E+00  0.00000000000E+00  0.25553294136E+03  0.25553294141E+03  0.50400001928E-02 0.  1.
        1   -1    0    0  501    0  0.00000000000E+00  0.00000000000E+00 -0.61977631971E+03  0.61977631973E+03  0.50400001928E-02 0. -1.
    10030    2    1    2    0    0  0.00000000000E+00  0.00000000000E+00 -0.36424337835E+03  0.87530926115E+03  0.79592277514E+03 0.  0.
        2    1    3    3  502    0  0.25749357875E+03  0.23305374201E+02  0.15058814512E+03  0.29920373164E+03  0.25500000920E-02 0.  1.
       -2    1    3    3    0  502 -0.25749357875E+03 -0.23305374201E+02 -0.51483152347E+03  0.57610552951E+03  0.25500000920E-02 0. -1.
</event>
<event>
 5   0  0.6596225E-03  0.7987086E+03  0.7818609E-02  0.9561888E-01
        1   -1    0    0  501    0  0.00000000000E+00  0.00000000000E+00  0.12210497984E+04  0.12210497984E+04  0.50400001928E-02 0.  1.
       -1   -1    0    0    0  501  0.00000000000E+00  0.00000000000E+00 -0.13061206849E+03  0.13061206859E+03  0.50400001928E-02 0. -1.
    10030    2    1    2    0    0  0.00000000000E+00  0.00000000000E+00  0.10904377299E+04  0.13516618670E+04  0.79870855753E+03 0.  0.
        5    1    3    3  502    0 -0.12789840273E+03  0.37684917493E+03  0.48938681823E+03  0.63078906927E+03  0.46999998093E+01 0.  1.
       -5    1    3    3    0  502  0.12789840273E+03 -0.37684917493E+03  0.60105091169E+03  0.72087279773E+03  0.46999998093E+01 0. -1.
</event>
<event>
 5   0  0.1154714E-02  0.7968895E+03  0.7818609E-02  0.9564530E-01
        2   -1    0    0  501    0  0.00000000000E+00  0.00000000000E+00  0.40390263506E+03  0.40390263506E+03  0.25500000920E-02 0.  1.
       -2   -1    0    0    0  501  0.00000000000E+00  0.00000000000E+00 -0.39306060051E+03  0.39306060051E+03  0.25500000920E-02 0. -1.
    10030    2    1    2    0    0  0.00000000000E+00  0.00000000000E+00  0.10842034550E+02  0.79696323558E+03  0.79688948365E+03 0.  0.
        5    1    3    3  502    0  0.14630537249E+03 -0.17575726460E+03 -0.32086098830E+03  0.39404281733E+03  0.46999998093E+01 0. -1.
       -5    1    3    3    0  502 -0.14630537249E+03  0.17575726460E+03  0.33170302285E+03  0.40292041825E+03  0.46999998093E+01 0.  1.
</event>
<event>
 5   0  0.1154714E-02  0.8124998E+03  0.7818609E-02  0.9542098E-01
       -2   -1    0    0    0  501  0.00000000000E+00  0.00000000000E+00  0.11727046202E+03  0.11727046205E+03  0.25500000920E-02 0.  1.
        2   -1    0    0  501    0  0.00000000000E+00  0.00000000000E+00 -0.14073362425E+04  0.14073362425E+04  0.25500000920E-02 0. -1.
    10030    2    1    2    0    0  0.00000000000E+00  0.00000000000E+00 -0.12900657804E+04  0.15246067045E+04  0.81249977574E+03 0.  0.
        5    1    3    3  502    0  0.33420753941E+03 -0.98961847770E+02 -0.10365247144E+04  0.10935692480E+04  0.46999998093E+01 0. -1.
       -5    1    3    3    0  502 -0.33420753941E+03  0.98961847770E+02 -0.25354106605E+03  0.43103745647E+03  0.46999998093E+01 0.  1.
</event>
<event>
 5   0  0.1154714E-02  0.7954496E+03  0.7818609E-02  0.9566627E-01
        2   -1    0    0  501    0  0.00000000000E+00  0.00000000000E+00  0.37052742396E+03  0.37052742397E+03  0.25500000920E-02 0.  1.
       -2   -1    0    0    0  501  0.00000000000E+00  0.00000000000E+00 -0.42691849669E+03  0.42691849670E+03  0.25500000920E-02 0. -1.
    10030    2    1    2    0    0  0.00000000000E+00  0.00000000000E+00 -0.56391072731E+02  0.79744592066E+03  0.79544958564E+03 0.  0.
        5    1    3    3  502    0  0.31639616846E+03  0.21738076886E+03 -0.13238898210E+03  0.40609095862E+03  0.46999998093E+01 0. -1.
       -5    1    3    3    0  502 -0.31639616846E+03 -0.21738076886E+03  0.75997909372E+02  0.39135496205E+03  0.46999998093E+01 0.  1.
</event>
<event>
 5   0  0.6551489E-03  0.8015694E+03  0.7818609E-02  0.9557748E-01
       -1   -1    0    0    0  501  0.00000000000E+00  0.00000000000E+00  0.10776479518E+04  0.10776479518E+04  0.50400001928E-02 0.  1.
        1   -1    0    0  501    0  0.00000000000E+00  0.00000000000E+00 -0.14905460816E+03  0.14905460824E+03  0.50400001928E-02 0. -1.
    10030    2    1    2    0    0  0.00000000000E+00  0.00000000000E+00  0.92859334361E+03  0.12267025600E+04  0.80156944363E+03 0.  0.
        4    1    3    3  502    0 -0.14044692506E+03  0.16514408489E+03 -0.51575935575E+02  0.22284433483E+03  0.12699999809E+01 0. -1.
       -4    1    3    3    0  502  0.14044692506E+03 -0.16514408489E+03  0.98016927918E+03  0.10038582252E+04  0.12699999809E+01 0.  1.
</event>
<event>
 5   0  0.1121480E-02  0.8129829E+03  0.7818609E-02  0.9541413E-01
        2   -1    0    0  501    0  0.00000000000E+00  0.00000000000E+00  0.73955948844E+03  0.73955948845E+03  0.25500000920E-02 0. -1.
       -2   -1    0    0    0  501  0.00000000000E+00  0.00000000000E+00 -0.22342392582E+03  0.22342392584E+03  0.25500000920E-02 0.  1.
    10030    2    1    2    0    0  0.00000000000E+00  0.00000000000E+00  0.51613556262E+03  0.96298341429E+03  0.81298286402E+03 0.  0.
        2    1    3    3  502    0 -0.10671675708E+03 -0.48409372839E+02 -0.20298275812E+03  0.23437989189E+03  0.25500000920E-02 0.  1.
       -2    1    3    3    0  502  0.10671675708E+03  0.48409372839E+02  0.71911832074E+03  0.72860352240E+03  0.25500000920E-02 0. -1.
</event>
<event>
 5   0  0.1092868E-02  0.7986474E+03  0.7818609E-02  0.9561977E-01
        2   -1    0    0  501    0  0.00000000000E+00  0.00000000000E+00  0.17019394861E+04  0.17019394861E+04  0.25500000920E-02 0. -1.
       -2   -1    0    0    0  501  0.00000000000E+00  0.00000000000E+00 -0.93692758191E+02  0.93692758226E+02  0.25500000920E-02 0.  1.
    10030    2    1    2    0    0  0.00000000000E+00  0.00000000000E+00  0.16082467280E+04  0.17956322444E+04  0.79864736840E+03 0.  0.
        3    1    3    3  502    0  0.13235270029E+03  0.16679043631E+03  0.44586031248E+02  0.21754128643E+03  0.10100000352E+00 0.  1.
       -3    1    3    3    0  502 -0.13235270029E+03 -0.16679043631E+03  0.15636606967E+04  0.15780909579E+04  0.10100000352E+00 0. -1.
</event>
<event>
 5   0  0.6557679E-03  0.8035979E+03  0.7818609E-02  0.9554824E-01
        1   -1    0    0  501    0  0.00000000000E+00  0.00000000000E+00  0.83008883060E+03  0.83008883061E+03  0.50400001928E-02 0. -1.
       -1   -1    0    0    0  501  0.00000000000E+00  0.00000000000E+00 -0.19448808289E+03  0.19448808296E+03  0.50400001928E-02 0.  1.
    10030    2    1    2    0    0  0.00000000000E+00  0.00000000000E+00  0.63560074770E+03  0.10245769136E+04  0.80359787291E+03 0.  0.
        1    1    3    3  502    0 -0.28839461999E+02  0.89994112958E+02  0.81571789813E+03  0.82117376011E+03  0.50400001928E-02 0. -1.
       -1    1    3    3    0  502  0.28839461999E+02 -0.89994112958E+02 -0.18011715043E+03  0.20340315346E+03  0.50400001928E-02 0.  1.
</event>
<event>
 5   0  0.1092868E-02  0.7885480E+03  0.7818609E-02  0.9576743E-01
        2   -1    0    0  501    0  0.00000000000E+00  0.00000000000E+00  0.83935153815E+03  0.83935153815E+03  0.25500000920E-02 0.  1.
       -2   -1    0    0    0  501  0.00000000000E+00  0.00000000000E+00 -0.18520488494E+03  0.18520488495E+03  0.25500000920E-02 0. -1.
    10030    2    1    2    0    0  0.00000000000E+00  0.00000000000E+00  0.65414665321E+03  0.10245564231E+04  0.78854804560E+03 0.  0.
        3    1    3    3  502    0 -0.22575468752E+02  0.17999356644E+03  0.78190941366E+03  0.80267657069E+03  0.10100000352E+00 0.  1.
       -3    1    3    3    0  502  0.22575468752E+02 -0.17999356644E+03 -0.12776276046E+03  0.22187985242E+03  0.10100000352E+00 0. -1.
</event>
<event>
 5   0  0.6551489E-03  0.8158779E+03  0.7818609E-02  0.9537315E-01
       -1   -1    0    0    0  501  0.00000000000E+00  0.00000000000E+00  0.14137616146E+03  0.14137616155E+03  0.50400001928E-02 0. -1.
        1   -1    0    0  501    0  0.00000000000E+00  0.00000000000E+00 -0.11771021858E+04  0.11771021858E+04  0.50400001928E-02 0.  1.
    10030    2    1    2    0    0  0.00000000000E+00  0.00000000000E+00 -0.10357260243E+04  0.13184783473E+04  0.81587790444E+03 0.  0.
        4    1    3    3  502    0  0.35363912616E+03 -0.52639980985E+02 -0.20044290121E+03  0.40989092292E+03  0.12699999809E+01 0. -1.
       -4    1    3    3    0  502 -0.35363912616E+03  0.52639980985E+02 -0.83528312309E+03  0.90858742440E+03  0.12699999809E+01 0.  1.
</event>
<event>
 5   0  0.1154714E-02  0.7971734E+03  0.7818609E-02  0.9564118E-01
       -2   -1    0    0    0  501  0.00000000000E+00  0.00000000000E+00  0.63668852948E+02  0.63668852999E+02  0.25500000920E-02 0. -1.
        2   -1    0    0  501    0  0.00000000000E+00  0.00000000000E+00 -0.24952756534E+04  0.24952756534E+04  0.25500000920E-02 0.  1.
    10030    2    1    2    0    0  0.00000000000E+00  0.00000000000E+00 -0.24316068004E+04  0.25589445064E+04  0.79717335305E+03 0.  0.
        5    1    3    3  502    0 -0.18630617616E+03  0.17428932248E+03 -0.21987335568E+04  0.22134900277E+04  0.46999998093E+01 0.  1.
       -5    1    3    3    0  502  0.18630617616E+03 -0.17428932248E+03 -0.23287324366E+03  0.34545447865E+03  0.46999998093E+01 0. -1.
</event>
<event>
 5   0  0.6517392E-03  0.7979972E+03  0.7818609E-02  0.9562921E-01
       -1   -1    0    0    0  501  0.00000000000E+00  0.00000000000E+00  0.49962704531E+03  0.49962704534E+03  0.50400001928E-02 0.  1.
        1   -1    0    0  501    0  0.00000000000E+00  0.00000000000E+00 -0.31863743512E+03  0.31863743516E+03  0.50400001928E-02 0. -1.
    10030    2    1    2    0    0  0.00000000000E+00  0.00000000000E+00  0.18098961020E+03  0.81826448050E+03  0.79799719363E+03 0.  0.
        3    1    3    3  502    0 -0.24149358979E+03 -0.24592958098E+03  0.29659555116E+03  0.45471908238E+03  0.10100000352E+00 0.  1.
       -3    1    3    3    0  502  0.24149358979E+03  0.24592958098E+03 -0.11560594096E+03  0.36354539812E+03  0.10100000352E+00 0. -1.
</event>
<event>
 5   0  0.1121480E-02  0.8030644E+03  0.7818609E-02  0.9555592E-01
       -2   -1    0    0    0  501  0.00000000000E+00  0.00000000000E+00  0.15518153338E+03  0.15518153340E+03  0.25500000920E-02 0.  1.
        2   -1    0    0  501    0  0.00000000000E+00  0.00000000000E+00 -0.10389644926E+04  0.10389644926E+04  0.25500000920E-02 0. -1.
    10030    2    1    2    0    0  0.00000000000E+00  0.00000000000E+00 -0.88378295926E+03  0.11941460260E+04  0.80306438872E+03 0.  0.
        2    1    3    3  502    0  0.26473056975E+02 -0.38351652794E+03 -0.26948851877E+03  0.46947823347E+03  0.25500000920E-02 0.  1.
       -2    1    3    3    0  502 -0.26473056975E+02  0.38351652794E+03 -0.61429444049E+03  0.72466779257E+03  0.25500000920E-02 0. -1.
</event>
<event>
 5   0  0.6596225E-03  0.7999522E+03  0.7818609E-02  0.9560086E-01
       -1   -1    0    0    0  501  0.00000000000E+00  0.00000000000E+00  0.52837202980E+03  0.52837202982E+03  0.50400001928E-02 0.  1.
        1   -1    0    0  501    0  0.00000000000E+00  0.00000000000E+00 -0.30278076770E+03  0.30278076774E+03  0.50400001928E-02 0. -1.
    10030    2    1    2    0    0  0.00000000000E+00  0.00000000000E+00  0.22559126210E+03  0.83115279757E+03  0.79995222068E+03 0.  0.
        5    1    3    3  502    0  0.27822237214E+03 -0.19530021662E+03  0.33174918862E+03  0.47500471273E+03  0.46999998093E+01 0.  1.
       -5    1    3    3    0  502 -0.27822237214E+03  0.19530021662E+03 -0.10615792652E+03  0.35614808483E+03  0.46999998093E+01 0. -1.
</event>
<event>
 5   0  0.6600401E-03  0.8158668E+03  0.7818609E-02  0.9537330E-01
       -1   -1    0    0    0  501  0.00000000000E+00  0.00000000000E+00  0.12397990826E+03  0.12397990836E+03  0.50400001928E-02 0.  1.
        1   -1    0    0  501    0  0.00000000000E+00  0.00000000000E+00 -0.13422308451E+04  0.13422308451E+04  0.50400001928E-02 0. -1.
    10030    2    1    2    0    0  0.00000000000E+00  0.00000000000E+00 -0.12182509369E+04  0.14662107535E+04  0.81586679580E+03 0.  0.
        2    1    3    3  502    0 -0.23327268441E+03  0.18054612309E+03 -0.10274363170E+03  0.31236085176E+03  0.25500000920E-02 0.  1.
       -2    1    3    3    0  502  0.23327268441E+03 -0.18054612309E+03 -0.11155073052E+04  0.11538499017E+04  0.25500000920E-02 0. -1.
</event>
<event>
 5   0  0.6596225E-03  0.8054573E+03  0.7818609E-02  0.9552151E-01
        1   -1    0    0  501    0  0.00000000000E+00  0.00000000000E+00  0.35541383933E+03  0.35541383936E+03  0.50400001928E-02 0. -1.
       -1   -1    0    0    0  501  0.00000000000E+00  0.00000000000E+00 -0.45634232700E+03  0.45634232702E+03  0.50400001928E-02 0.  1.
    10030    2    1    2    0    0  0.00000000000E+00  0.00000000000E+00 -0.10092848767E+03  0.81175616639E+03  0.80545733223E+03 0.  0.
        5    1    3    3  502    0  0.25604581595E+03  0.22885350961E+03  0.16150145188E+03  0.37952364575E+03  0.46999998093E+01 0. -1.
       -5    1    3    3    0  502 -0.25604581595E+03 -0.22885350961E+03 -0.26242993955E+03  0.43223252064E+03  0.46999998093E+01 0.  1.
</event>
<event>
 5   0  0.1154714E-02  0.7988385E+03  0.7818609E-02  0.9561700E-01
        2   -1    0    0  501    0  0.00000000000E+00  0.00000000000E+00  0.19274331765E+04  0.19274331765E+04  0.25500000920E-02 0.  1.
       -2   -1    0    0    0  501  0.00000000000E+00  0.00000000000E+00 -0.82771085286E+02  0.82771085325E+02  0.25500000920E-02 0. -1.
    10030    2    1    2    0    0  0.00000000000E+00  0.00000000000E+00  0.18446620913E+04  0.20102042619E+04  0.79883849652E+03 0.  0.
        5    1    3    3  502    0 -0.18746537837E+03 -0.27753503033E+03  0.37478982695E+03  0.50265143543E+03  0.46999998093E+01 0. -1.
       -5    1    3    3    0  502  0.18746537837E+03  0.27753503033E+03  0.14698722643E+04  0.15075528264E+04  0.46999998093E+01 0.  1.
</event>
<event>
 5   0  0.6596225E-03  0.7979401E+03  0.7818609E-02  0.9563004E-01
       -1   -1    0    0    0  501  0.00000000000E+00  0.00000000000E+00  0.17642983706E+03  0.17642983713E+03  0.50400001928E-02 0.  1.
        1   -1    0    0  501    0  0.00000000000E+00  0.00000000000E+00 -0.90221193789E+03  0.90221193790E+03  0.50400001928E-02 0. -1.
    10030    2    1    2    0    0  0.00000000000E+00  0.00000000000E+00 -0.72578210083E+03  0.10786417750E+04  0.79794011113E+03 0.  0.
        5    1    3    3  502    0 -0.30313584124E+03  0.13668779131E+03 -0.64945947302E+02  0.33884355771E+03  0.46999998093E+01 0.  1.
       -5    1    3    3    0  502  0.30313584124E+03 -0.13668779131E+03 -0.66083615353E+03  0.73979821731E+03  0.46999998093E+01 0. -1.
</event>
<event>
 5   0  0.1106332E-02  0.7974267E+03  0.7818609E-02  0.9563749E-01
        2   -1    0    0  501    0  0.00000000000E+00  0.00000000000E+00  0.27306130703E+03  0.27306130705E+03  0.25500000920E-02 0. -1.
       -2   -1    0    0    0  501  0.00000000000E+00  0.00000000000E+00 -0.58218548095E+03  0.58218548096E+03  0.25500000920E-02 0.  1.
    10030    2    1    2    0    0  0.00000000000E+00  0.00000000000E+00 -0.30912417392E+03  0.85524678800E+03  0.79742668220E+03 0.  0.
        1    1    3    3  502    0  0.21319222984E+03 -0.18153631693E+03  0.14986023975E+03  0.31759164459E+03  0.50400001928E-02 0. -1.
       -1    1    3    3    0  502 -0.21319222984E+03  0.18153631693E+03 -0.45898441367E+03  0.53765514342E+03  0.50400001928E-02 0.  1.
</event>
<event>
 5   0  0.1154714E-02  0.7983464E+03  0.7818609E-02  0.9562414E-01
        2   -1    0    0  501    0  0.00000000000E+00  0.00000000000E+00  0.48935956898E+03  0.48935956898E+03  0.25500000920E-02 0.  1.
       -2   -1    0    0    0  501  0.00000000000E+00  0.00000000000E+00 -0.32560768264E+03  0.32560768265E+03  0.25500000920E-02 0. -1.
    10030    2    1    2    0    0  0.00000000000E+00  0.00000000000E+00  0.16375188634E+03  0.81496725163E+03  0.79834637905E+03 0.  0.
        5    1    3    3  502    0 -0.38838611703E+03 -0.41332636267E+02 -0.20859334889E+01  0.39061311273E+03  0.46999998093E+01 0.  1.
       -5    1    3    3    0  502  0.38838611703E+03  0.41332636267E+02  0.16583781983E+03  0.42435413890E+03  0.46999998093E+01 0. -1.
</event>
<event>
 5   0  0.1154714E-02  0.8050921E+03  0.7818609E-02  0.9552676E-01
        2   -1    0    0  501    0  0.00000000000E+00  0.00000000000E+00  0.74695655676E+03  0.74695655677E+03  0.25500000920E-02 0.  1.
       -2   -1    0    0    0  501  0.00000000000E+00  0.00000000000E+00 -0.21693810474E+03  0.21693810476E+03  0.25500000920E-02 0. -1.
    10030    2    1    2    0    0  0.00000000000E+00  0.00000000000E+00  0.53001845202E+03  0.96389466152E+03  0.80509214320E+03 0.  0.
        5    1    3    3  502    0  0.22162085668E+03  0.29302322845E+03  0.46189307068E+03  0.59020819655E+03  0.46999998093E+01 0.  1.
       -5    1    3    3    0  502 -0.22162085668E+03 -0.29302322845E+03  0.68125381334E+02  0.37368646498E+03  0.46999998093E+01 0. -1.
</event>
<event>
 5   0  0.6517392E-03  0.7993567E+03  0.7818609E-02  0.9560949E-01
        1   -1    0    0  501    0  0.00000000000E+00  0.00000000000E+00  0.51274178763E+03  0.51274178766E+03  0.50400001928E-02 0. -1.
       -1   -1    0    0    0  501  0.00000000000E+00  0.00000000000E+00 -0.31154625537E+03  0.31154625541E+03  0.50400001928E-02 0.  1.
    10030    2    1    2    0    0  0.00000000000E+00  0.00000000000E+00  0.20119553227E+03  0.82428804306E+03  0.79935670119E+03 0.  0.
        3    1    3    3  502    0  0.11361271037E+03  0.32984264048E+03  0.30171604600E+03  0.46123377809E+03  0.10100000352E+00 0.  1.
       -3    1    3    3    0  502 -0.11361271037E+03 -0.32984264048E+03 -0.10052051373E+03  0.36305426498E+03  0.10100000352E+00 0. -1.
</event>
<event>
 5   0  0.6596225E-03  0.8045919E+03  0.7818609E-02  0.9553394E-01
       -1   -1    0    0    0  501  0.00000000000E+00  0.00000000000E+00  0.36781772598E+03  0.36781772601E+03  0.50400001928E-02 0. -1.
        1   -1    0    0  501    0  0.00000000000E+00  0.00000000000E+00 -0.44000606403E+03  0.44000606406E+03  0.50400001928E-02 0.  1.
    10030    2    1    2    0    0  0.00000000000E+00  0.00000000000E+00 -0.72188338048E+02  0.80782379007E+03  0.80459189634E+03 0.  0.
        5    1    3    3  502    0 -0.28782896443E+03  0.33183263841E+02 -0.31627296781E+03  0.42894909014E+03  0.46999998093E+01 0.  1.
       -5    1    3    3    0  502  0.28782896443E+03 -0.33183263841E+02  0.24408462976E+03  0.37887469993E+03  0.46999998093E+01 0. -1.
</event>
<event>
 5   0  0.1154714E-02  0.8014971E+03  0.7818609E-02  0.9557853E-01
       -2   -1    0    0    0  501  0.00000000000E+00  0.00000000000E+00  0.76957895498E+02  0.76957895540E+02  0.25500000920E-02 0.  1.
        2   -1    0    0  501    0  0.00000000000E+00  0.00000000000E+00 -0.20868475184E+04  0.20868475184E+04  0.25500000920E-02 0. -1.
    10030    2    1    2    0    0  0.00000000000E+00  0.00000000000E+00 -0.20098896229E+04  0.21638054140E+04  0.80149708244E+03 0.  0.
        5    1    3    3  502    0  0.13827273532E+02  0.18914669621E+02 -0.20849223281E+04  0.20850592707E+04  0.46999998093E+01 0. -1.
       -5    1    3    3    0  502 -0.13827273532E+02 -0.18914669621E+02  0.75032705211E+02  0.78746143205E+02  0.46999998093E+01 0.  1.
</event>
<event>
 5   0  0.6600401E-03  0.7924406E+03  0.7818609E-02  0.9571024E-01
        1   -1    0    0  501    0  0.00000000000E+00  0.00000000000E+00  0.10103091182E+04  0.10103091182E+04  0.50400001928E-02 0.  1.
       -1   -1    0    0    0  501  0.00000000000E+00  0.00000000000E+00 -0.15538858874E+03  0.15538858882E+03  0.50400001928E-02 0. -1.
    10030    2    1    2    0    0  0.00000000000E+00  0.00000000000E+00  0.85492052944E+03  0.11656977070E+04  0.79244055455E+03 0.  0.
        2    1    3    3  502    0  0.26598218880E+03  0.12327762329E+03  0.35365600712E+02  0.29528735645E+03  0.25500000920E-02 0. -1.
       -2    1    3    3    0  502 -0.26598218880E+03 -0.12327762329E+03  0.81955492873E+03  0.87041035056E+03  0.25500000920E-02 0.  1.
</event>
<event>
 5   0  0.1106332E-02  0.7703388E+03  0.7818609E-02  0.9603972E-01
        2   -1    0    0  501    0  0.00000000000E+00  0.00000000000E+00  0.33682629671E+03  0.33682629672E+03  0.25500000920E-02 0. -1.
       -2   -1    0    0    0  501  0.00000000000E+00  0.00000000000E+00 -0.44045090718E+03  0.44045090718E+03  0.25500000920E-02 0.  1.
    10030    2    1    2    0    0  0.00000000000E+00  0.00000000000E+00 -0.10362461047E+03  0.77727720390E+03  0.77033875133E+03 0.  0.
        1    1    3    3  502    0 -0.19687454947E+03  0.26176107781E+03 -0.25631240920E+03  0.41590203320E+03  0.50400001928E-02 0.  1.
       -1    1    3    3    0  502  0.19687454947E+03 -0.26176107781E+03  0.15268779874E+03  0.36137517069E+03  0.50400001928E-02 0. -1.
</event>
<event>
 5   0  0.6596225E-03  0.8104800E+03  0.7818609E-02  0.9544970E-01
        1   -1    0    0  501    0  0.00000000000E+00  0.00000000000E+00  0.13054043014E+04  0.13054043015E+04  0.50400001928E-02 0.  1.
       -1   -1    0    0    0  501  0.00000000000E+00  0.00000000000E+00 -0.12579970590E+03  0.12579970600E+03  0.50400001928E-02 0. -1.
    10030    2    1    2    0    0  0.00000000000E+00  0.00000000000E+00  0.11796045955E+04  0.14312040075E+04  0.81048004857E+03 0.  0.
        5    1    3    3  502    0  0.29085409616E+03 -0.25643819064E+03  0.38205335888E+03  0.54437442069E+03  0.46999998093E+01 0. -1.
       -5    1    3    3    0  502 -0.29085409616E+03  0.25643819064E+03  0.79755123666E+03  0.88682958677E+03  0.46999998093E+01 0.  1.
</event>
<event>
 5   0  0.6557679E-03  0.8080286E+03  0.7818609E-02  0.9548468E-01
        1   -1    0    0  501    0  0.00000000000E+00  0.00000000000E+00  0.50383806744E+03  0.50383806747E+03  0.50400001928E-02 0. -1.
       -1   -1    0    0    0  501  0.00000000000E+00  0.00000000000E+00 -0.32396827894E+03  0.32396827898E+03  0.50400001928E-02 0.  1.
    10030    2    1    2    0    0  0.00000000000E+00  0.00000000000E+00  0.17986978850E+03  0.82780634645E+03  0.80802859257E+03 0.  0.
        1    1    3    3  502    0 -0.29728071874E+03  0.70704020260E+02  0.36070051448E+03  0.47273644390E+03  0.50400001928E-02 0. -1.
       -1    1    3    3    0  502  0.29728071874E+03 -0.70704020260E+02 -0.18083072598E+03  0.35506990255E+03  0.50400001928E-02 0.  1.
</event>
<event>
 5   0  0.6557679E-03  0.8111459E+03  0.7818609E-02  0.9544023E-01
        1   -1    0    0  501    0  0.00000000000E+00  0.00000000000E+00  0.15810493895E+04  0.15810493895E+04  0.50400001928E-02 0. -1.
       -1   -1    0    0    0  501  0.00000000000E+00  0.00000000000E+00 -0.10403812443E+03  0.10403812456E+03  0.50400001928E-02 0.  1.
    10030    2    1    2    0    0  0.00000000000E+00  0.00000000000E+00  0.14770112650E+04  0.16850875140E+04  0.81114588879E+03 0.  0.
        1    1    3    3  502    0 -0.17014190658E+03 -0.92929885857E+02  0.14785592161E+04  0.14912148026E+04  0.50400001928E-02 0. -1.
       -1    1    3    3    0  502  0.17014190658E+03  0.92929885857E+02 -0.15479510321E+01  0.19387271143E+03  0.50400001928E-02 0.  1.
</event>
<event>
 5   0  0.6551489E-03  0.7912306E+03  0.7818609E-02  0.9572798E-01
        1   -1    0    0  501    0  0.00000000000E+00  0.00000000000E+00  0.16507906042E+04  0.16507906042E+04  0.50400001928E-02 0.  1.
       -1   -1    0    0    0  501  0.00000000000E+00  0.00000000000E+00 -0.94809993670E+02  0.94809993804E+02  0.50400001928E-02 0. -1.
    10030    2    1    2    0    0  0.00000000000E+00  0.00000000000E+00  0.15559806106E+04  0.17456005980E+04  0.79123055265E+03 0.  0.
        4    1    3    3  502    0 -0.25762173855E+03  0.81887189014E+02  0.14152506743E+04  0.14408367554E+04  0.12699999809E+01 0. -1.
       -4    1    3    3    0  502  0.25762173855E+03 -0.81887189014E+02  0.14072993631E+03  0.30476384262E+03  0.12699999809E+01 0.  1.
</event>
<event>
 5   0  0.1119792E-02  0.7661155E+03  0.7818609E-02  0.9610402E-01
        2   -1    0    0  501    0  0.00000000000E+00  0.00000000000E+00  0.72961024193E+03  0.72961024194E+03  0.25500000920E-02 0. -1.
       -2   -1    0    0    0  501  0.00000000000E+00  0.00000000000E+00 -0.20111179931E+03  0.20111179933E+03  0.25500000920E-02 0.  1.
    10030    2    1    2    0    0  0.00000000000E+00  0.00000000000E+00  0.52849844262E+03  0.93072204126E+03  0.76611547056E+03 0.  0.
        4    1    3    3  502    0 -0.11562974752E+03 -0.28850479246E+03  0.53624293023E+03  0.61980912135E+03  0.12699999809E+01 0. -1.
       -4    1    3    3    0  502  0.11562974752E+03  0.28850479246E+03 -0.77444876089E+01  0.31091291992E+03  0.12699999809E+01 0.  1.
</event>
<event>
 5   0  0.1092868E-02  0.7978825E+03  0.7818609E-02  0.9563087E-01
       -2   -1    0    0    0  501  0.00000000000E+00  0.00000000000E+00  0.12299533528E+03  0.12299533531E+03  0.25500000920E-02 0.  1.
        2   -1    0    0  501    0  0.00000000000E+00  0.00000000000E+00 -0.12939850253E+04  0.12939850253E+04  0.25500000920E-02 0. -1.
    10030    2    1    2    0    0  0.00000000000E+00  0.00000000000E+00 -0.11709896900E+04  0.14169803606E+04  0.79788250277E+03 0.  0.
        3    1    3    3  502    0  0.23393994072E+03  0.14426595507E+03 -0.10990217727E+04  0.11328677896E+04  0.10100000352E+00 0. -1.
       -3    1    3    3    0  502 -0.23393994072E+03 -0.14426595507E+03 -0.71967917251E+02  0.28411257094E+03  0.10100000352E+00 0.  1.
</event>
<event>
 5   0  0.6551489E-03  0.7975333E+03  0.7818609E-02  0.9563594E-01
       -1   -1    0    0    0  501  0.00000000000E+00  0.00000000000E+00  0.17341140599E+03  0.17341140606E+03  0.50400001928E-02 0.  1.
        1   -1    0    0  501    0  0.00000000000E+00  0.00000000000E+00 -0.91698039927E+03  0.91698039928E+03  0.50400001928E-02 0. -1.
    10030    2    1    2    0    0  0.00000000000E+00  0.00000000000E+00 -0.74356899328E+03  0.10903918053E+04  0.79753334814E+03 0.  0.
        4    1    3    3  502    0 -0.91757024454E+02 -0.35421562349E+03 -0.15506978859E+03  0.39741201756E+03  0.12699999809E+01 0. -1.
       -4    1    3    3    0  502  0.91757024454E+02  0.35421562349E+03 -0.58849920469E+03  0.69297978779E+03  0.12699999809E+01 0.  1.
</event>
<event>
 5   0  0.1154714E-02  0.7654130E+03  0.7818609E-02  0.9611475E-01
        2   -1    0    0  501    0  0.00000000000E+00  0.00000000000E+00  0.56583644095E+03  0.56583644095E+03  0.25500000920E-02 0. -1.
       -2   -1    0    0    0  501  0.00000000000E+00  0.00000000000E+00 -0.25884561871E+03  0.25884561872E+03  0.25500000920E-02 0.  1.
    10030    2    1    2    0    0  0.00000000000E+00  0.00000000000E+00  0.30699082224E+03  0.82468205968E+03  0.76541304837E+03 0.  0.
        5    1    3    3  502    0  0.37757716214E+03 -0.48447433948E+02  0.19564672366E+03  0.42803200546E+03  0.46999998093E+01 0.  1.
       -5    1    3    3    0  502 -0.37757716214E+03  0.48447433948E+02  0.11134409858E+03  0.39665005422E+03  0.46999998093E+01 0. -1.
</event>
<event>
 5   0  0.1092868E-02  0.8009363E+03  0.7818609E-02  0.9558663E-01
        2   -1    0    0  501    0  0.00000000000E+00  0.00000000000E+00  0.75168280051E+03  0.75168280052E+03  0.25500000920E-02 0. -1.
       -2   -1    0    0    0  501  0.00000000000E+00  0.00000000000E+00 -0.21335429847E+03  0.21335429848E+03  0.25500000920E-02 0.  1.
    10030    2    1    2    0    0  0.00000000000E+00  0.00000000000E+00  0.53832850205E+03  0.96503709900E+03  0.80093634349E+03 0.  0.
        3    1    3    3  502    0  0.11123696556E+03 -0.22871017866E+03 -0.10355815344E+03  0.27460209336E+03  0.10100000352E+00 0.  1.
       -3    1    3    3    0  502 -0.11123696556E+03  0.22871017866E+03  0.64188665548E+03  0.69043500565E+03  0.10100000352E+00 0. -1.
</event>
<event>
 5   0  0.1119792E-02  0.8004644E+03  0.7818609E-02  0.9559345E-01
        2   -1    0    0  501    0  0.00000000000E+00  0.00000000000E+00  0.15636868393E+04  0.15636868393E+04  0.25500000920E-02 0.  1.
       -2   -1    0    0    0  501  0.00000000000E+00  0.00000000000E+00 -0.10244111765E+03  0.10244111769E+03  0.25500000920E-02 0. -1.
    10030    2    1    2    0    0  0.00000000000E+00  0.00000000000E+00  0.14612457216E+04  0.16661279570E+04  0.80046443396E+03 0.  0.
        4    1    3    3  502    0  0.37242660159E+03  0.13892856305E+03  0.82784014003E+03  0.91832653754E+03  0.12699999809E+01 0. -1.
       -4    1    3    3    0  502 -0.37242660159E+03 -0.13892856305E+03  0.63340558161E+03  0.74780141945E+03  0.12699999809E+01 0.  1.
</event>
<event>
 5   0  0.1121480E-02  0.7995149E+03  0.7818609E-02  0.9560720E-01
        2   -1    0    0  501    0  0.00000000000E+00  0.00000000000E+00  0.15366571707E+04  0.15366571707E+04  0.25500000920E-02 0.  1.
       -2   -1    0    0    0  501  0.00000000000E+00  0.00000000000E+00 -0.10399588325E+03  0.10399588328E+03  0.25500000920E-02 0. -1.
    10030    2    1    2    0    0  0.00000000000E+00  0.00000000000E+00  0.14326612874E+04  0.16406530539E+04  0.79951490229E+03 0.  0.
        2    1    3    3  502    0  0.18642622832E+03 -0.25605012308E+03  0.12168383510E+04  0.12573829873E+04  0.25500000920E-02 0.  1.
       -2    1    3    3    0  502 -0.18642622832E+03  0.25605012308E+03  0.21582293639E+03  0.38327006668E+03  0.25500000920E-02 0. -1.
</event>
<event>
 5   0  0.1121480E-02  0.7985439E+03  0.7818609E-02  0.9562127E-01
       -2   -1    0    0    0  501  0.00000000000E+00  0.00000000000E+00  0.14580929422E+03  0.14580929425E+03  0.25500000920E-02 0. -1.
        2   -1    0    0  501    0  0.00000000000E+00  0.00000000000E+00 -0.10933329115E+04  0.10933329115E+04  0.25500000920E-02 0.  1.
    10030    2    1    2    0    0  0.00000000000E+00  0.00000000000E+00 -0.94752361724E+03  0.12391422057E+04  0.79854392537E+03 0.  0.
        2    1    3    3  502    0  0.31754765625E+03  0.21580791133E+03 -0.64380814980E+03  0.74959889430E+03  0.25500000920E-02 0.  1.
       -2    1    3    3    0  502 -0.31754765625E+03 -0.21580791133E+03 -0.30371546745E+03  0.48954331142E+03  0.25500000920E-02 0. -1.
</event>
<event>
 5   0  0.1121480E-02  0.8067349E+03  0.7818609E-02  0.9550319E-01
       -2   -1    0    0    0  501  0.00000000000E+00  0.00000000000E+00  0.29616796240E+03  0.29616796241E+03  0.25500000920E-02 0. -1.
        2   -1    0    0  501    0  0.00000000000E+00  0.00000000000E+00 -0.54936833006E+03  0.54936833006E+03  0.25500000920E-02 0.  1.
    10030    2    1    2    0    0  0.00000000000E+00  0.00000000000E+00 -0.25320036766E+03  0.84553629248E+03  0.80673489804E+03 0.  0.
        2    1    3    3  502    0 -0.13138587902E+03 -0.43928533484E+01  0.27308595087E+03  0.30307999429E+03  0.25500000920E-02 0. -1.
       -2    1    3    3    0  502  0.13138587902E+03  0.43928533484E+01 -0.52628631853E+03  0.54245629819E+03  0.25500000920E-02 0.  1.
</event>
<event>
 5   0  0.1092868E-02  0.8014749E+03  0.7818609E-02  0.9557885E-01
       -2   -1    0    0    0  501  0.00000000000E+00  0.00000000000E+00  0.75313297451E+02  0.75313297495E+02  0.25500000920E-02 0.  1.
        2   -1    0    0  501    0  0.00000000000E+00  0.00000000000E+00 -0.21322995949E+04  0.21322995949E+04  0.25500000920E-02 0. -1.
    10030    2    1    2    0    0  0.00000000000E+00  0.00000000000E+00 -0.20569862974E+04  0.22076128924E+04  0.80147492461E+03 0.  0.
        3    1    3    3  502    0 -0.67126349936E+02  0.39502840230E+03 -0.10117118588E+04  0.10881701526E+04  0.10100000352E+00 0. -1.
       -3    1    3    3    0  502  0.67126349936E+02 -0.39502840230E+03 -0.10452744386E+04  0.11194427398E+04  0.10100000352E+00 0.  1.
</event>
<event>
 5   0  0.1119792E-02  0.7962896E+03  0.7818609E-02  0.9565403E-01
       -2   -1    0    0    0  501  0.00000000000E+00  0.00000000000E+00  0.21074989211E+03  0.21074989212E+03  0.25500000920E-02 0. -1.
        2   -1    0    0  501    0  0.00000000000E+00  0.00000000000E+00 -0.75216782785E+03  0.75216782786E+03  0.25500000920E-02 0.  1.
    10030    2    1    2    0    0  0.00000000000E+00  0.00000000000E+00 -0.54141793574E+03  0.96291771998E+03  0.79628961710E+03 0.  0.
        4    1    3    3  502    0  0.23651486314E+03  0.11797182123E+03 -0.63077698556E+03  0.68391362722E+03  0.12699999809E+01 0.  1.
       -4    1    3    3    0  502 -0.23651486314E+03 -0.11797182123E+03  0.89359049814E+02  0.27900409276E+03  0.12699999809E+01 0. -1.
</event>
<event>
 5   0  0.1106332E-02  0.7720087E+03  0.7818609E-02  0.9601441E-01
       -2   -1    0    0    0  501  0.00000000000E+00  0.00000000000E+00  0.13531262239E+03  0.13531262241E+03  0.25500000920E-02 0. -1.
        2   -1    0    0  501    0  0.00000000000E+00  0.00000000000E+00 -0.11011491135E+04  0.11011491135E+04  0.25500000920E-02 0.  1.
    10030    2    1    2    0    0  0.00000000000E+00  0.00000000000E+00 -0.96583649109E+03  0.12364617359E+04  0.77200874140E+03 0.  0.
        1    1    3    3  502    0  0.25953205854E+03 -0.34214108803E+02 -0.28578703803E+02  0.26333293943E+03  0.50400001928E-02 0. -1.
       -1    1    3    3    0  502 -0.25953205854E+03  0.34214108803E+02 -0.93725778729E+03  0.97312879647E+03  0.50400001928E-02 0.  1.
</event>
<event>
 5   0  0.6557679E-03  0.8004306E+03  0.7818609E-02  0.9559394E-01
       -1   -1    0    0    0  501  0.00000000000E+00  0.00000000000E+00  0.21671694585E+03  0.21671694591E+03  0.50400001928E-02 0. -1.
        1   -1    0    0  501    0  0.00000000000E+00  0.00000000000E+00 -0.73908520836E+03  0.73908520838E+03  0.50400001928E-02 0.  1.
    10030    2    1    2    0    0  0.00000000000E+00  0.00000000000E+00 -0.52236826250E+03  0.95580215429E+03  0.80043060690E+03 0.  0.
        1    1    3    3  502    0  0.33046914364E+03  0.20680415682E+03 -0.15308931109E+03  0.41882472631E+03  0.50400001928E-02 0. -1.
       -1    1    3    3    0  502 -0.33046914364E+03 -0.20680415682E+03 -0.36927895141E+03  0.53697742797E+03  0.50400001928E-02 0.  1.
</event>
<event>
 5   0  0.6517392E-03  0.8061417E+03  0.7818609E-02  0.9551170E-01
       -1   -1    0    0    0  501  0.00000000000E+00  0.00000000000E+00  0.14751303180E+03  0.14751303188E+03  0.50400001928E-02 0.  1.
        1   -1    0    0  501    0  0.00000000000E+00  0.00000000000E+00 -0.11013679465E+04  0.11013679465E+04  0.50400001928E-02 0. -1.
    10030    2    1    2    0    0  0.00000000000E+00  0.00000000000E+00 -0.95385491465E+03  0.12488809783E+04  0.80614173683E+03 0.  0.
        3    1    3    3  502    0 -0.31073455258E+03  0.71003538537E+02 -0.94713555182E+02  0.33251786778E+03  0.10100000352E+00 0.  1.
       -3    1    3    3    0  502  0.31073455258E+03 -0.71003538537E+02 -0.85914135947E+03  0.91636311057E+03  0.10100000352E+00 0. -1.
</event>
<event>
 5   0  0.6557679E-03  0.7876305E+03  0.7818609E-02  0.9578096E-01
        1   -1    0    0  501    0  0.00000000000E+00  0.00000000000E+00  0.48304722345E+03  0.48304722348E+03  0.50400001928E-02 0.  1.
       -1   -1    0    0    0  501  0.00000000000E+00  0.00000000000E+00 -0.32106686930E+03  0.32106686934E+03  0.50400001928E-02 0. -1.
    10030    2    1    2    0    0  0.00000000000E+00  0.00000000000E+00  0.16198035416E+03  0.80411409282E+03  0.78763052197E+03 0.  0.
        1    1    3    3  502    0 -0.15639190509E+03 -0.75270888793E+02 -0.27991377304E+03  0.32935672915E+03  0.50400001928E-02 0. -1.
       -1    1    3    3    0  502  0.15639190509E+03  0.75270888793E+02  0.44189412719E+03  0.47475736366E+03  0.50400001928E-02 0.  1.
</event>
<event>
 5   0  0.1119792E-02  0.7780213E+03  0.7818609E-02  0.9592387E-01
        2   -1    0    0  501    0  0.00000000000E+00  0.00000000000E+00  0.51976584083E+03  0.51976584084E+03  0.25500000920E-02 0.  1.
       -2   -1    0    0    0  501  0.00000000000E+00  0.00000000000E+00 -0.29114898835E+03  0.29114898836E+03  0.25500000920E-02 0. -1.
    10030    2    1    2    0    0  0.00000000000E+00  0.00000000000E+00  0.22861685248E+03  0.81091482920E+03  0.77802133324E+03 0.  0.
        4    1    3    3  502    0  0.82481148020E+02  0.37999821867E+03  0.10261352986E+03  0.40216033542E+03  0.12699999809E+01 0. -1.
       -4    1    3    3    0  502 -0.82481148020E+02 -0.37999821867E+03  0.12600332262E+03  0.40875449378E+03  0.12699999809E+01 0.  1.
</event>
<event>
 5   0  0.1121480E-02  0.7977833E+03  0.7818609E-02  0.9563231E-01
       -2   -1    0    0    0  501  0.00000000000E+00  0.00000000000E+00  0.17017609534E+03  0.17017609536E+03  0.25500000920E-02 0. -1.
        2   -1    0    0  501    0  0.00000000000E+00  0.00000000000E+00 -0.93499936376E+03  0.93499936376E+03  0.25500000920E-02 0.  1.
    10030    2    1    2    0    0  0.00000000000E+00  0.00000000000E+00 -0.76482326841E+03  0.11051754591E+04  0.79778328107E+03 0.  0.
        2    1    3    3  502    0  0.18995458929E+02  0.29319588426E+03 -0.86610981701E+01  0.29393820547E+03  0.25500000920E-02 0. -1.
       -2    1    3    3    0  502 -0.18995458929E+02 -0.29319588426E+03 -0.75616217024E+03  0.81123725366E+03  0.25500000920E-02 0.  1.
</event>
<event>
 5   0  0.1121480E-02  0.7088980E+03  0.7818609E-02  0.9702135E-01
       -2   -1    0    0    0  501  0.00000000000E+00  0.00000000000E+00  0.26783888991E+03  0.26783888992E+03  0.25500000920E-02 0.  1.
        2   -1    0    0  501    0  0.00000000000E+00  0.00000000000E+00 -0.46906590610E+03  0.46906590611E+03  0.25500000920E-02 0. -1.
    10030    2    1    2    0    0  0.00000000000E+00  0.00000000000E+00 -0.20122701619E+03  0.73690479603E+03  0.70889799433E+03 0.  0.
        2    1    3    3  502    0 -0.12715764804E+03 -0.30845343429E+03 -0.22501395332E+03  0.40242249909E+03  0.25500000920E-02 0. -1.
       -2    1    3    3    0  502  0.12715764804E+03  0.30845343429E+03  0.23786937130E+02  0.33448229694E+03  0.25500000920E-02 0.  1.
</event>
<event>
 5   0  0.1106332E-02  0.8016060E+03  0.7818609E-02  0.9557695E-01
       -2   -1    0    0    0  501  0.00000000000E+00  0.00000000000E+00  0.27608751283E+03  0.27608751284E+03  0.25500000920E-02 0.  1.
        2   -1    0    0  501    0  0.00000000000E+00  0.00000000000E+00 -0.58185557515E+03  0.58185557516E+03  0.25500000920E-02 0. -1.
    10030    2    1    2    0    0  0.00000000000E+00  0.00000000000E+00 -0.30576806232E+03  0.85794308799E+03  0.80160603434E+03 0.  0.
        1    1    3    3  502    0 -0.19727539807E+03  0.18434015374E+03 -0.46991863735E+03  0.54196162292E+03  0.50400001928E-02 0. -1.
       -1    1    3    3    0  502  0.19727539807E+03 -0.18434015374E+03  0.16415057502E+03  0.31598146507E+03  0.50400001928E-02 0.  1.
</event>
<event>
 5   0  0.1154714E-02  0.8063156E+03  0.7818609E-02  0.9550920E-01
       -2   -1    0    0    0  501  0.00000000000E+00  0.00000000000E+00  0.44975959041E+03  0.44975959042E+03  0.25500000920E-02 0.  1.
        2   -1    0    0  501    0  0.00000000000E+00  0.00000000000E+00 -0.36138465819E+03  0.36138465820E+03  0.25500000920E-02 0. -1.
    10030    2    1    2    0    0  0.00000000000E+00  0.00000000000E+00  0.88374932219E+02  0.81114424862E+03  0.80631561030E+03 0.  0.
        5    1    3    3  502    0 -0.47795684508E+02  0.27977046789E+03  0.33218527789E+03  0.43694975799E+03  0.46999998093E+01 0.  1.
       -5    1    3    3    0  502  0.47795684508E+02 -0.27977046789E+03 -0.24381034567E+03  0.37419449063E+03  0.46999998093E+01 0. -1.
</event>
<event>
 5   0  0.6600401E-03  0.7969680E+03  0.7818609E-02  0.9564416E-01
       -1   -1    0    0    0  501  0.00000000000E+00  0.00000000000E+00  0.32484894416E+03  0.32484894419E+03  0.50400001928E-02 0.  1.
        1   -1    0    0  501    0  0.00000000000E+00  0.00000000000E+00 -0.48881031817E+03  0.48881031820E+03  0.50400001928E-02 0. -1.
    10030    2    1    2    0    0  0.00000000000E+00  0.00000000000E+00 -0.16396137402E+03  0.81365926239E+03  0.79696804397E+03 0.  0.
        2    1    3    3  502    0  0.31964087699E+03  0.21250982780E+03  0.27306993386E+02  0.38480695037E+03  0.25500000920E-02 0.  1.
       -2    1    3    3    0  502 -0.31964087699E+03 -0.21250982780E+03 -0.19126836740E+03  0.42885231203E+03  0.25500000920E-02 0. -1.
</event>
<event>
 5   0  0.6517392E-03  0.7981023E+03  0.7818609E-02  0.9562768E-01
        1   -1    0    0  501    0  0.00000000000E+00  0.00000000000E+00  0.41214741689E+03  0.41214741692E+03  0.50400001928E-02 0. -1.
       -1   -1    0    0    0  501  0.00000000000E+00  0.00000000000E+00 -0.38637098701E+03  0.38637098704E+03  0.50400001928E-02 0.  1.
    10030    2    1    2    0    0  0.00000000000E+00  0.00000000000E+00  0.25776429874E+02  0.79851840396E+03  0.79810225982E+03 0.  0.
        3    1    3    3  502    0  0.57213689548E+02  0.23589504882E+03  0.32978971406E+03  0.40948888389E+03  0.10100000352E+00 0. -1.
       -3    1    3    3    0  502 -0.57213689548E+02 -0.23589504882E+03 -0.30401328418E+03  0.38902952007E+03  0.10100000352E+00 0.  1.
</event>
<event>
 5   0  0.6557679E-03  0.7570255E+03  0.7818609E-02  0.9624392E-01
        1   -1    0    0  501    0  0.00000000000E+00  0.00000000000E+00  0.17556706320E+03  0.17556706327E+03  0.50400001928E-02 0.  1.
       -1   -1    0    0    0  501  0.00000000000E+00  0.00000000000E+00 -0.81605236052E+03  0.81605236053E+03  0.50400001928E-02 0. -1.
    10030    2    1    2    0    0  0.00000000000E+00  0.00000000000E+00 -0.64048529732E+03  0.99161942381E+03  0.75702553827E+03 0.  0.
        1    1    3    3  502    0 -0.76130357324E+01 -0.12381110609E+03  0.14818649214E+03  0.19325212750E+03  0.50400001928E-02 0.  1.
       -1    1    3    3    0  502  0.76130357324E+01  0.12381110609E+03 -0.78867178946E+03  0.79836729631E+03  0.50400001928E-02 0. -1.
</event>
<event>
 5   0  0.6600401E-03  0.7960356E+03  0.7818609E-02  0.9565773E-01
       -1   -1    0    0    0  501  0.00000000000E+00  0.00000000000E+00  0.22618588535E+03  0.22618588540E+03  0.50400001928E-02 0. -1.
        1   -1    0    0  501    0  0.00000000000E+00  0.00000000000E+00 -0.70038919118E+03  0.70038919120E+03  0.50400001928E-02 0.  1.
    10030    2    1    2    0    0  0.00000000000E+00  0.00000000000E+00 -0.47420330583E+03  0.92657507660E+03  0.79603555028E+03 0.  0.
        2    1    3    3  502    0  0.74098458991E+02 -0.25590325049E+03  0.10709444482E+03  0.28713459449E+03  0.25500000920E-02 0. -1.
       -2    1    3    3    0  502 -0.74098458991E+02  0.25590325049E+03 -0.58129775066E+03  0.63944048211E+03  0.25500000920E-02 0.  1.
</event>
<event>
 5   0  0.1092868E-02  0.7957998E+03  0.7818609E-02  0.9566117E-01
       -2   -1    0    0    0  501  0.00000000000E+00  0.00000000000E+00  0.32731411901E+03  0.32731411902E+03  0.25500000920E-02 0.  1.
        2   -1    0    0  501    0  0.00000000000E+00  0.00000000000E+00 -0.48370764613E+03  0.48370764613E+03  0.25500000920E-02 0. -1.
    10030    2    1    2    0    0  0.00000000000E+00  0.00000000000E+00 -0.15639352712E+03  0.81102176515E+03  0.79579982924E+03 0.  0.
        3    1    3    3  502    0 -0.21004795578E+03  0.30767950913E+03 -0.22064702475E+03  0.43298030417E+03  0.10100000352E+00 0. -1.
       -3    1    3    3    0  502  0.21004795578E+03 -0.30767950913E+03  0.64253497634E+02  0.37804146098E+03  0.10100000352E+00 0.  1.
</event>
<event>
 5   0  0.6600401E-03  0.8007105E+03  0.7818609E-02  0.9558989E-01
       -1   -1    0    0    0  501  0.00000000000E+00  0.00000000000E+00  0.49416174785E+03  0.49416174787E+03  0.50400001928E-02 0.  1.
        1   -1    0    0  501    0  0.00000000000E+00  0.00000000000E+00 -0.32435600639E+03  0.32435600642E+03  0.50400001928E-02 0. -1.
    10030    2    1    2    0    0  0.00000000000E+00  0.00000000000E+00  0.16980574146E+03  0.81851775430E+03  0.80071051215E+03 0.  0.
        2    1    3    3  502    0  0.19388109014E+03 -0.30054114651E+03  0.26881924201E+03  0.44741327958E+03  0.25500000920E-02 0.  1.
       -2    1    3    3    0  502 -0.19388109014E+03  0.30054114651E+03 -0.99013500549E+02  0.37110447472E+03  0.25500000920E-02 0. -1.
</event>
<event>
 5   0  0.1154714E-02  0.7992005E+03  0.7818609E-02  0.9561175E-01
        2   -1    0    0  501    0  0.00000000000E+00  0.00000000000E+00  0.94852138045E+03  0.94852138045E+03  0.25500000920E-02 0. -1.
       -2   -1    0    0    0  501  0.00000000000E+00  0.00000000000E+00 -0.16834661434E+03  0.16834661436E+03  0.25500000920E-02 0.  1.
    10030    2    1    2    0    0  0.00000000000E+00  0.00000000000E+00  0.78017476610E+03  0.11168679948E+04  0.79920050812E+03 0.  0.
        5    1    3    3  502    0  0.82481089394E+02 -0.34340958519E+01  0.93643539665E+03  0.94007886117E+03  0.46999998093E+01 0. -1.
       -5    1    3    3    0  502 -0.82481089394E+02  0.34340958519E+01 -0.15626063054E+03  0.17678913365E+03  0.46999998093E+01 0.  1.
</event>
<event>
 5   0  0.1106332E-02  0.7347877E+03  0.7818609E-02  0.9659523E-01
        2   -1    0    0  501    0  0.00000000000E+00  0.00000000000E+00  0.69052826745E+03  0.69052826745E+03  0.25500000920E-02 0. -1.
       -2   -1    0    0    0  501  0.00000000000E+00  0.00000000000E+00 -0.19547096207E+03  0.19547096208E+03  0.25500000920E-02 0.  1.
    10030    2    1    2    0    0  0.00000000000E+00  0.00000000000E+00  0.49505730538E+03  0.88599922954E+03  0.73478765581E+03 0.  0.
        1    1    3    3  502    0 -0.25264097167E+02  0.20579933411E+03 -0.11817873926E+03  0.23865844834E+03  0.50400001928E-02 0.  1.
       -1    1    3    3    0  502  0.25264097167E+02 -0.20579933411E+03  0.61323604464E+03  0.64734078119E+03  0.50400001928E-02 0. -1.
</event>
<event>
 5   0  0.6596225E-03  0.7968170E+03  0.7818609E-02  0.9564636E-01
        1   -1    0    0  501    0  0.00000000000E+00  0.00000000000E+00  0.13133711214E+03  0.13133711224E+03  0.50400001928E-02 0. -1.
       -1   -1    0    0    0  501  0.00000000000E+00  0.00000000000E+00 -0.12085643151E+04  0.12085643151E+04  0.50400001928E-02 0.  1.
    10030    2    1    2    0    0  0.00000000000E+00  0.00000000000E+00 -0.10772272030E+04  0.13399014273E+04  0.79681703559E+03 0.  0.
        5    1    3    3  502    0  0.22677920957E+03  0.57040313751E+02  0.37403239767E+01  0.23391983094E+03  0.46999998093E+01 0. -1.
       -5    1    3    3    0  502 -0.22677920957E+03 -0.57040313751E+02 -0.10809675269E+04  0.11059815964E+04  0.46999998093E+01 0.  1.
</event>
<event>
 5   0  0.6517392E-03  0.7991876E+03  0.7818609E-02  0.9561194E-01
       -1   -1    0    0    0  501  0.00000000000E+00  0.00000000000E+00  0.16766645332E+03  0.16766645340E+03  0.50400001928E-02 0. -1.
        1   -1    0    0  501    0  0.00000000000E+00  0.00000000000E+00 -0.95233836395E+03  0.95233836396E+03  0.50400001928E-02 0.  1.
    10030    2    1    2    0    0  0.00000000000E+00  0.00000000000E+00 -0.78467191063E+03  0.11200048174E+04  0.79918757721E+03 0.  0.
        3    1    3    3  502    0 -0.60959085918E+02  0.23052011770E+03 -0.84171128734E+03  0.87483337628E+03  0.10100000352E+00 0.  1.
       -3    1    3    3    0  502  0.60959085918E+02 -0.23052011770E+03  0.57039376715E+02  0.24517144107E+03  0.10100000352E+00 0. -1.
</event>
<event>
 5   0  0.6551489E-03  0.7947098E+03  0.7818609E-02  0.9567706E-01
        1   -1    0    0  501    0  0.00000000000E+00  0.00000000000E+00  0.12729259682E+03  0.12729259692E+03  0.50400001928E-02 0. -1.
       -1   -1    0    0    0  501  0.00000000000E+00  0.00000000000E+00 -0.12403779812E+04  0.12403779812E+04  0.50400001928E-02 0.  1.
    10030    2    1    2    0    0  0.00000000000E+00  0.00000000000E+00 -0.11130853844E+04  0.13676705782E+04  0.79470984478E+03 0.  0.
        4    1    3    3  502    0  0.34643583388E+03  0.19228150835E+03 -0.60815327110E+03  0.72583881096E+03  0.12699999809E+01 0.  1.
       -4    1    3    3    0  502 -0.34643583388E+03 -0.19228150835E+03 -0.50493211331E+03  0.64183176721E+03  0.12699999809E+01 0. -1.
</event>
<event>
 5   0  0.6596225E-03  0.7989073E+03  0.7818609E-02  0.9561600E-01
        1   -1    0    0  501    0  0.00000000000E+00  0.00000000000E+00  0.76198528471E+03  0.76198528473E+03  0.50400001928E-02 0. -1.
       -1   -1    0    0    0  501  0.00000000000E+00  0.00000000000E+00 -0.20940460865E+03  0.20940460871E+03  0.50400001928E-02 0.  1.
    10030    2    1    2    0    0  0.00000000000E+00  0.00000000000E+00  0.55258067606E+03  0.97138989344E+03  0.79890732974E+03 0.  0.
        5    1    3    3  502    0  0.38079042710E+03  0.94085121427E+02  0.36799018390E+03  0.53785892657E+03  0.46999998093E+01 0.  1.
       -5    1    3    3    0  502 -0.38079042710E+03 -0.94085121427E+02  0.18459049216E+03  0.43353096687E+03  0.46999998093E+01 0. -1.
</event>
<event>
 5   0  0.1121480E-02  0.8018130E+03  0.7818609E-02  0.9557397E-01
       -2   -1    0    0    0  501  0.00000000000E+00  0.00000000000E+00  0.37307965309E+03  0.37307965309E+03  0.25500000920E-02 0.  1.
        2   -1    0    0  501    0  0.00000000000E+00  0.00000000000E+00 -0.43080882828E+03  0.43080882829E+03  0.25500000920E-02 0. -1.
    10030    2    1    2    0    0  0.00000000000E+00  0.00000000000E+00 -0.57729175195E+02  0.80388848138E+03  0.80181296624E+03 0.  0.
        2    1    3    3  502    0  0.10713993598E+03 -0.29677468387E+03 -0.27683420101E+03  0.41975153808E+03  0.25500000920E-02 0. -1.
       -2    1    3    3    0  502 -0.10713993598E+03  0.29677468387E+03  0.21910502581E+03  0.38413694330E+03  0.25500000920E-02 0.  1.
</event>
<event>
 5   0  0.6600401E-03  0.8005355E+03  0.7818609E-02  0.9559242E-01
        1   -1    0    0  501    0  0.00000000000E+00  0.00000000000E+00  0.16355042356E+04  0.16355042356E+04  0.50400001928E-02 0. -1.
       -1   -1    0    0    0  501  0.00000000000E+00  0.00000000000E+00 -0.97960158094E+02  0.97960158223E+02  0.50400001928E-02 0.  1.
    10030    2    1    2    0    0  0.00000000000E+00  0.00000000000E+00  0.15375440775E+04  0.17334643938E+04  0.80053545480E+03 0.  0.
        2    1    3    3  502    0  0.37310094022E+03  0.30248158093E+02  0.46181452991E+03  0.59446776423E+03  0.25500000920E-02 0.  1.
       -2    1    3    3    0  502 -0.37310094022E+03 -0.30248158093E+02  0.10757295476E+04  0.11389966296E+04  0.25500000920E-02 0. -1.
</event>
<event>
 5   0  0.1154714E-02  0.8186020E+03  0.7818609E-02  0.9533475E-01
       -2   -1    0    0    0  501  0.00000000000E+00  0.00000000000E+00  0.91095766753E+02  0.91095766789E+02  0.25500000920E-02 0. -1.
        2   -1    0    0  501    0  0.00000000000E+00  0.00000000000E+00 -0.18390242956E+04  0.18390242956E+04  0.25500000920E-02 0.  1.
    10030    2    1    2    0    0  0.00000000000E+00  0.00000000000E+00 -0.17479285288E+04  0.19301200624E+04  0.81860204818E+03 0.  0.
        5    1    3    3  502    0 -0.27699806031E+03 -0.25663685766E+03 -0.50179498964E+03  0.62802126059E+03  0.46999998093E+01 0.  1.
       -5    1    3    3    0  502  0.27699806031E+03  0.25663685766E+03 -0.12461335392E+04  0.13020988018E+04  0.46999998093E+01 0. -1.
</event>
<event>
 5   0  0.6557679E-03  0.7973783E+03  0.7818609E-02  0.9563820E-01
       -1   -1    0    0    0  501  0.00000000000E+00  0.00000000000E+00  0.27785985492E+03  0.27785985496E+03  0.50400001928E-02 0.  1.
        1   -1    0    0  501    0  0.00000000000E+00  0.00000000000E+00 -0.57206188728E+03  0.57206188730E+03  0.50400001928E-02 0. -1.
    10030    2    1    2    0    0  0.00000000000E+00  0.00000000000E+00 -0.29420203236E+03  0.84992174227E+03  0.79737828672E+03 0.  0.
        1    1    3    3  502    0  0.22052454620E+03 -0.24681722280E+03 -0.38401579054E+03  0.50696937221E+03  0.50400001928E-02 0. -1.
       -1    1    3    3    0  502 -0.22052454620E+03  0.24681722280E+03  0.89813758175E+02  0.34295237006E+03  0.50400001928E-02 0.  1.
</event>
<event>
 5   0  0.1092868E-02  0.8050679E+03  0.7818609E-02  0.9552710E-01
       -2   -1    0    0    0  501  0.00000000000E+00  0.00000000000E+00  0.53168346899E+03  0.53168346900E+03  0.25500000920E-02 0.  1.
        2   -1    0    0  501    0  0.00000000000E+00  0.00000000000E+00 -0.30475573787E+03  0.30475573788E+03  0.25500000920E-02 0. -1.
    10030    2    1    2    0    0  0.00000000000E+00  0.00000000000E+00  0.22692773112E+03  0.83643920687E+03  0.80506791741E+03 0.  0.
        3    1    3    3  502    0  0.20836481558E+03  0.98379792984E+02 -0.22945687141E+03  0.32518448007E+03  0.10100000352E+00 0. -1.
       -3    1    3    3    0  502 -0.20836481558E+03 -0.98379792984E+02  0.45638460254E+03  0.51125472680E+03  0.10100000352E+00 0.  1.
</event>
<event>
 5   0  0.1154714E-02  0.7971436E+03  0.7818609E-02  0.9564161E-01
       -2   -1    0    0    0  501  0.00000000000E+00  0.00000000000E+00  0.22561376624E+03  0.22561376626E+03  0.25500000920E-02 0.  1.
        2   -1    0    0  501    0  0.00000000000E+00  0.00000000000E+00 -0.70412133177E+03  0.70412133178E+03  0.25500000920E-02 0. -1.
    10030    2    1    2    0    0  0.00000000000E+00  0.00000000000E+00 -0.47850756553E+03  0.92973509803E+03  0.79714356439E+03 0.  0.
        5    1    3    3  502    0 -0.25388129396E+03  0.11573885007E+03 -0.57116975093E+03  0.63569502689E+03  0.46999998093E+01 0. -1.
       -5    1    3    3    0  502  0.25388129396E+03 -0.11573885007E+03  0.92662185395E+02  0.29404007114E+03  0.46999998093E+01 0.  1.
</event>
<event>
 5   0  0.1154714E-02  0.8018610E+03  0.7818609E-02  0.9557327E-01
        2   -1    0    0  501    0  0.00000000000E+00  0.00000000000E+00  0.29446833075E+03  0.29446833076E+03  0.25500000920E-02 0. -1.
       -2   -1    0    0    0  501  0.00000000000E+00  0.00000000000E+00 -0.54588301270E+03  0.54588301271E+03  0.25500000920E-02 0.  1.
    10030    2    1    2    0    0  0.00000000000E+00  0.00000000000E+00 -0.25141468196E+03  0.84035134347E+03  0.80186098431E+03 0.  0.
        5    1    3    3  502    0  0.92589273436E+02 -0.59362295695E+02 -0.52973394350E+03  0.54105156557E+03  0.46999998093E+01 0.  1.
       -5    1    3    3    0  502 -0.92589273436E+02  0.59362295695E+02  0.27831926155E+03  0.29929977790E+03  0.46999998093E+01 0. -1.
</event>
<event>
 5   0  0.1092868E-02  0.7974100E+03  0.7818609E-02  0.9563774E-01
        2   -1    0    0  501    0  0.00000000000E+00  0.00000000000E+00  0.21087049249E+04  0.21087049249E+04  0.25500000920E-02 0. -1.
       -2   -1    0    0    0  501  0.00000000000E+00  0.00000000000E+00 -0.75385458830E+02  0.75385458873E+02  0.25500000920E-02 0.  1.
    10030    2    1    2    0    0  0.00000000000E+00  0.00000000000E+00  0.20333194661E+04  0.21840903838E+04  0.79741002841E+03 0.  0.
        3    1    3    3  502    0 -0.15696797904E+03 -0.11534476775E+03  0.63816083355E+02  0.20497771730E+03  0.10100000352E+00 0.  1.
       -3    1    3    3    0  502  0.15696797904E+03  0.11534476775E+03  0.19695033827E+04  0.19791126665E+04  0.10100000352E+00 0. -1.
</event>
<event>
 5   0  0.6557679E-03  0.7979250E+03  0.7818609E-02  0.9563025E-01
       -1   -1    0    0    0  501  0.00000000000E+00  0.00000000000E+00  0.46106531698E+03  0.46106531700E+03  0.50400001928E-02 0. -1.
        1   -1    0    0  501    0  0.00000000000E+00  0.00000000000E+00 -0.34522457512E+03  0.34522457516E+03  0.50400001928E-02 0.  1.
    10030    2    1    2    0    0  0.00000000000E+00  0.00000000000E+00  0.11584074185E+03  0.80628989216E+03  0.79792500445E+03 0.  0.
        1    1    3    3  502    0 -0.39627318952E+03  0.45460977213E+02  0.66490852614E+02  0.40437627859E+03  0.50400001928E-02 0.  1.
       -1    1    3    3    0  502  0.39627318952E+03 -0.45460977213E+02  0.49349889237E+02  0.40191361357E+03  0.50400001928E-02 0. -1.
</event>
<event>
 5   0  0.6600401E-03  0.8015550E+03  0.7818609E-02  0.9557769E-01
       -1   -1    0    0    0  501  0.00000000000E+00  0.00000000000E+00  0.25450945362E+03  0.25450945367E+03  0.50400001928E-02 0.  1.
        1   -1    0    0  501    0  0.00000000000E+00  0.00000000000E+00 -0.63110663574E+03  0.63110663576E+03  0.50400001928E-02 0. -1.
    10030    2    1    2    0    0  0.00000000000E+00  0.00000000000E+00 -0.37659718212E+03  0.88561608943E+03  0.80155500140E+03 0.  0.
        2    1    3    3  502    0  0.30949813665E+03 -0.25432486926E+03 -0.17466026795E+03  0.43700851813E+03  0.25500000920E-02 0.  1.
       -2    1    3    3    0  502 -0.30949813665E+03  0.25432486926E+03 -0.20193691417E+03  0.44860757130E+03  0.25500000920E-02 0. -1.
</event>
<event>
 5   0  0.6596225E-03  0.8003745E+03  0.7818609E-02  0.9559475E-01
        1   -1    0    0  501    0  0.00000000000E+00  0.00000000000E+00  0.87794672547E+03  0.87794672548E+03  0.50400001928E-02 0. -1.
       -1   -1    0    0    0  501  0.00000000000E+00  0.00000000000E+00 -0.18241406944E+03  0.18241406951E+03  0.50400001928E-02 0.  1.
    10030    2    1    2    0    0  0.00000000000E+00  0.00000000000E+00  0.69553265603E+03  0.10603607950E+04  0.80037449982E+03 0.  0.
        5    1    3    3  502    0 -0.14443841997E+03  0.20020695198E+03 -0.69465918019E+02  0.25650123694E+03  0.46999998093E+01 0.  1.
       -5    1    3    3    0  502  0.14443841997E+03 -0.20020695198E+03  0.76499857405E+03  0.80385955805E+03  0.46999998093E+01 0. -1.
</event>
<event>
 5   0  0.1121480E-02  0.7944162E+03  0.7818609E-02  0.9568135E-01
        2   -1    0    0  501    0  0.00000000000E+00  0.00000000000E+00  0.23163321491E+03  0.23163321492E+03  0.25500000920E-02 0.  1.
       -2   -1    0    0    0  501  0.00000000000E+00  0.00000000000E+00 -0.68113834434E+03  0.68113834435E+03  0.25500000920E-02 0. -1.
    10030    2    1    2    0    0  0.00000000000E+00  0.00000000000E+00 -0.44950512943E+03  0.91277155927E+03  0.79441617432E+03 0.  0.
        2    1    3    3  502    0  0.71994898373E+02  0.33128892934E+03 -0.46256353315E+03  0.57349859835E+03  0.25500000920E-02 0. -1.
       -2    1    3    3    0  502 -0.71994898373E+02 -0.33128892934E+03  0.13058403723E+02  0.33927296092E+03  0.25500000920E-02 0.  1.
</event>
<event>
 5   0  0.6517392E-03  0.7964838E+03  0.7818609E-02  0.9565121E-01
       -1   -1    0    0    0  501  0.00000000000E+00  0.00000000000E+00  0.14202784753E+03  0.14202784762E+03  0.50400001928E-02 0. -1.
        1   -1    0    0  501    0  0.00000000000E+00  0.00000000000E+00 -0.11166586157E+04  0.11166586158E+04  0.50400001928E-02 0.  1.
    10030    2    1    2    0    0  0.00000000000E+00  0.00000000000E+00 -0.97463076821E+03  0.12586864634E+04  0.79648382203E+03 0.  0.
        3    1    3    3  502    0 -0.12283990294E+03 -0.37287277643E+03 -0.38162553664E+03  0.54750507721E+03  0.10100000352E+00 0.  1.
       -3    1    3    3    0  502  0.12283990294E+03  0.37287277643E+03 -0.59300523158E+03  0.71118138617E+03  0.10100000352E+00 0. -1.
</event>
<event>
 5   0  0.6551489E-03  0.8010115E+03  0.7818609E-02  0.9558554E-01
        1   -1    0    0  501    0  0.00000000000E+00  0.00000000000E+00  0.14913824307E+04  0.14913824308E+04  0.50400001928E-02 0.  1.
       -1   -1    0    0    0  501  0.00000000000E+00  0.00000000000E+00 -0.10755448600E+03  0.10755448612E+03  0.50400001928E-02 0. -1.
    10030    2    1    2    0    0  0.00000000000E+00  0.00000000000E+00  0.13838279447E+04  0.15989369169E+04  0.80101153768E+03 0.  0.
        4    1    3    3  502    0  0.13324183331E+03  0.32000676955E+03  0.10923668637E+04  0.11460474234E+04  0.12699999809E+01 0. -1.
       -4    1    3    3    0  502 -0.13324183331E+03 -0.32000676955E+03  0.29146108100E+03  0.45288949352E+03  0.12699999809E+01 0.  1.
</event>
<event>
 5   0  0.1119792E-02  0.7935731E+03  0.7818609E-02  0.9569367E-01
       -2   -1    0    0    0  501  0.00000000000E+00  0.00000000000E+00  0.14766447595E+03  0.14766447597E+03  0.25500000920E-02 0.  1.
        2   -1    0    0  501    0  0.00000000000E+00  0.00000000000E+00 -0.10661980967E+04  0.10661980967E+04  0.25500000920E-02 0. -1.
    10030    2    1    2    0    0  0.00000000000E+00  0.00000000000E+00 -0.91853362079E+03  0.12138625727E+04  0.79357314275E+03 0.  0.
        4    1    3    3  502    0  0.10126729939E+03 -0.38347846926E+03 -0.44201750959E+03  0.59387868627E+03  0.12699999809E+01 0.  1.
       -4    1    3    3    0  502 -0.10126729939E+03  0.38347846926E+03 -0.47651611120E+03  0.61998388644E+03  0.12699999809E+01 0. -1.
</event>
<event>
 5   0  0.4385875E-03  0.7968832E+03  0.7818609E-02  0.9564540E-01
        3   -1    0    0  501    0  0.00000000000E+00  0.00000000000E+00  0.22574692101E+03  0.22574694361E+03  0.10100000352E+00 0.  1.
       -3   -1    0    0    0  501  0.00000000000E+00  0.00000000000E+00 -0.70324636344E+03  0.70324637069E+03  0.10100000352E+00 0. -1.
    10030    2    1    2    0    0  0.00000000000E+00  0.00000000000E+00 -0.47749944243E+03  0.92899331430E+03  0.79688321635E+03 0.  0.
        1    1    3    3  502    0 -0.23672845082E+02 -0.39596215393E+03 -0.28251373978E+03  0.48699121566E+03  0.50400001928E-02 0.  1.
       -1    1    3    3    0  502  0.23672845082E+02  0.39596215393E+03 -0.19498570265E+03  0.44200209864E+03  0.50400001928E-02 0. -1.
</event>
<event>
 5   0  0.6551489E-03  0.7994275E+03  0.7818609E-02  0.9560846E-01
        1   -1    0    0  501    0  0.00000000000E+00  0.00000000000E+00  0.54067736223E+03  0.54067736225E+03  0.50400001928E-02 0.  1.
       -1   -1    0    0    0  501  0.00000000000E+00  0.00000000000E+00 -0.29550173800E+03  0.29550173805E+03  0.50400001928E-02 0. -1.
    10030    2    1    2    0    0  0.00000000000E+00  0.00000000000E+00  0.24517562423E+03  0.83617910030E+03  0.79942754585E+03 0.  0.
        4    1    3    3  502    0  0.29183300306E+03 -0.11123944562E+03  0.38351288488E+03  0.49459525038E+03  0.12699999809E+01 0.  1.
       -4    1    3    3    0  502 -0.29183300306E+03  0.11123944562E+03 -0.13833726065E+03  0.34158384991E+03  0.12699999809E+01 0. -1.
</event>
<event>
 5   0  0.6551489E-03  0.7841020E+03  0.7818609E-02  0.9583318E-01
        1   -1    0    0  501    0  0.00000000000E+00  0.00000000000E+00  0.40469998385E+03  0.40469998388E+03  0.50400001928E-02 0. -1.
       -1   -1    0    0    0  501  0.00000000000E+00  0.00000000000E+00 -0.37979740409E+03  0.37979740413E+03  0.50400001928E-02 0.  1.
    10030    2    1    2    0    0  0.00000000000E+00  0.00000000000E+00  0.24902579759E+02  0.78449738801E+03  0.78410204267E+03 0.  0.
        4    1    3    3  502    0 -0.26284371125E+03 -0.13462601143E+03 -0.24553800827E+03  0.38405924791E+03  0.12699999809E+01 0.  1.
       -4    1    3    3    0  502  0.26284371125E+03  0.13462601143E+03  0.27044058803E+03  0.40043814010E+03  0.12699999809E+01 0. -1.
</event>
<event>
 5   0  0.6557679E-03  0.7997586E+03  0.7818609E-02  0.9560367E-01
        1   -1    0    0  501    0  0.00000000000E+00  0.00000000000E+00  0.11213406251E+04  0.11213406251E+04  0.50400001928E-02 0. -1.
       -1   -1    0    0    0  501  0.00000000000E+00  0.00000000000E+00 -0.14260026117E+03  0.14260026125E+03  0.50400001928E-02 0.  1.
    10030    2    1    2    0    0  0.00000000000E+00  0.00000000000E+00  0.97874036392E+03  0.12639408864E+04  0.79975862873E+03 0.  0.
        1    1    3    3  502    0 -0.26585139014E+03  0.12809267445E+03  0.62899185242E+02  0.30173001577E+03  0.50400001928E-02 0.  1.
       -1    1    3    3    0  502  0.26585139014E+03 -0.12809267445E+03  0.91584117868E+03  0.96221087059E+03  0.50400001928E-02 0. -1.
</event>
<event>
 5   0  0.1106332E-02  0.8020509E+03  0.7818609E-02  0.9557053E-01
       -2   -1    0    0    0  501  0.00000000000E+00  0.00000000000E+00  0.22427469413E+03  0.22427469414E+03  0.25500000920E-02 0. -1.
        2   -1    0    0  501    0  0.00000000000E+00  0.00000000000E+00 -0.71707339927E+03  0.71707339927E+03  0.25500000920E-02 0.  1.
    10030    2    1    2    0    0  0.00000000000E+00  0.00000000000E+00 -0.49279870514E+03  0.94134809341E+03  0.80205091433E+03 0.  0.
        1    1    3    3  502    0 -0.36644571867E+03  0.18583352634E+02 -0.43635228410E+03  0.57011500733E+03  0.50400001928E-02 0.  1.
       -1    1    3    3    0  502  0.36644571867E+03 -0.18583352634E+02 -0.56446421043E+02  0.37123308608E+03  0.50400001928E-02 0. -1.
</event>
<event>
 5   0  0.6517392E-03  0.7997899E+03  0.7818609E-02  0.9560321E-01
        1   -1    0    0  501    0  0.00000000000E+00  0.00000000000E+00  0.36803751414E+03  0.36803751417E+03  0.50400001928E-02 0.  1.
       -1   -1    0    0    0  501  0.00000000000E+00  0.00000000000E+00 -0.43450998814E+03  0.43450998817E+03  0.50400001928E-02 0. -1.
    10030    2    1    2    0    0  0.00000000000E+00  0.00000000000E+00 -0.66472474004E+02  0.80254750234E+03  0.79978991223E+03 0.  0.
        3    1    3    3  502    0 -0.11960267580E+03  0.37540250013E+03  0.35440432985E+02  0.39558547958E+03  0.10100000352E+00 0.  1.
       -3    1    3    3    0  502  0.11960267580E+03 -0.37540250013E+03 -0.10191290699E+03  0.40696202276E+03  0.10100000352E+00 0. -1.
</event>
<event>
 5   0  0.1121480E-02  0.7991742E+03  0.7818609E-02  0.9561213E-01
        2   -1    0    0  501    0  0.00000000000E+00  0.00000000000E+00  0.29974610467E+03  0.29974610468E+03  0.25500000920E-02 0.  1.
       -2   -1    0    0    0  501  0.00000000000E+00  0.00000000000E+00 -0.53268361827E+03  0.53268361828E+03  0.25500000920E-02 0. -1.
    10030    2    1    2    0    0  0.00000000000E+00  0.00000000000E+00 -0.23293751361E+03  0.83242972296E+03  0.79917417277E+03 0.  0.
        2    1    3    3  502    0 -0.47603710278E+02  0.37788197063E+03 -0.24236580004E+03  0.45144443512E+03  0.25500000920E-02 0. -1.
       -2    1    3    3    0  502  0.47603710278E+02 -0.37788197063E+03  0.94282864371E+01  0.38098528784E+03  0.25500000920E-02 0.  1.
</event>
<event>
 5   0  0.1092868E-02  0.8058863E+03  0.7818609E-02  0.9551536E-01
        2   -1    0    0  501    0  0.00000000000E+00  0.00000000000E+00  0.49619372444E+03  0.49619372444E+03  0.25500000920E-02 0.  1.
       -2   -1    0    0    0  501  0.00000000000E+00  0.00000000000E+00 -0.32721735002E+03  0.32721735003E+03  0.25500000920E-02 0. -1.
    10030    2    1    2    0    0  0.00000000000E+00  0.00000000000E+00  0.16897637442E+03  0.82341107447E+03  0.80588633346E+03 0.  0.
        3    1    3    3  502    0  0.24279403631E+03 -0.10878541912E+03  0.39369081107E+03  0.47515858027E+03  0.10100000352E+00 0.  1.
       -3    1    3    3    0  502 -0.24279403631E+03  0.10878541912E+03 -0.22471443665E+03  0.34825249421E+03  0.10100000352E+00 0. -1.
</event>
<event>
 5   0  0.4385875E-03  0.8070509E+03  0.7818609E-02  0.9549867E-01
       -3   -1    0    0    0  501  0.00000000000E+00  0.00000000000E+00  0.15474693332E+03  0.15474696628E+03  0.10100000352E+00 0. -1.
        3   -1    0    0  501    0  0.00000000000E+00  0.00000000000E+00 -0.10522520570E+04  0.10522520618E+04  0.10100000352E+00 0.  1.
    10030    2    1    2    0    0  0.00000000000E+00  0.00000000000E+00 -0.89750512366E+03  0.12069990281E+04  0.80705093201E+03 0.  0.
        2    1    3    3  502    0  0.63435234892E+02  0.39614485175E+03 -0.51356481761E+03  0.65169286822E+03  0.25500000920E-02 0. -1.
       -2    1    3    3    0  502 -0.63435234892E+02 -0.39614485175E+03 -0.38394030605E+03  0.55530615988E+03  0.25500000920E-02 0.  1.
</event>
<event>
 5   0  0.6596225E-03  0.7988864E+03  0.7818609E-02  0.9561630E-01
       -1   -1    0    0    0  501  0.00000000000E+00  0.00000000000E+00  0.17872868129E+03  0.17872868136E+03  0.50400001928E-02 0.  1.
        1   -1    0    0  501    0  0.00000000000E+00  0.00000000000E+00 -0.89272118694E+03  0.89272118696E+03  0.50400001928E-02 0. -1.
    10030    2    1    2    0    0  0.00000000000E+00  0.00000000000E+00 -0.71399250565E+03  0.10714498683E+04  0.79888642634E+03 0.  0.
        5    1    3    3  502    0 -0.29788161014E+03  0.11608877172E+03 -0.67810361383E+03  0.74970438018E+03  0.46999998093E+01 0. -1.
       -5    1    3    3    0  502  0.29788161014E+03 -0.11608877172E+03 -0.35888891825E+02  0.32174548814E+03  0.46999998093E+01 0.  1.
</event>
<event>
 5   0  0.1119792E-02  0.7837295E+03  0.7818609E-02  0.9583871E-01
        2   -1    0    0  501    0  0.00000000000E+00  0.00000000000E+00  0.16024632862E+04  0.16024632862E+04  0.25500000920E-02 0.  1.
       -2   -1    0    0    0  501  0.00000000000E+00  0.00000000000E+00 -0.95826221209E+02  0.95826221243E+02  0.25500000920E-02 0. -1.
    10030    2    1    2    0    0  0.00000000000E+00  0.00000000000E+00  0.15066370650E+04  0.16982895074E+04  0.78372954869E+03 0.  0.
        4    1    3    3  502    0  0.13094797188E+03  0.67102370507E+02  0.15403249185E+04  0.15473372506E+04  0.12699999809E+01 0.  1.
       -4    1    3    3    0  502 -0.13094797188E+03 -0.67102370507E+02 -0.33687853569E+02  0.15095225684E+03  0.12699999809E+01 0. -1.
</event>
<event>
 5   0  0.1119792E-02  0.7980448E+03  0.7818609E-02  0.9562852E-01
        2   -1    0    0  501    0  0.00000000000E+00  0.00000000000E+00  0.46796038480E+03  0.46796038480E+03  0.25500000920E-02 0.  1.
       -2   -1    0    0    0  501  0.00000000000E+00  0.00000000000E+00 -0.34024006216E+03  0.34024006217E+03  0.25500000920E-02 0. -1.
    10030    2    1    2    0    0  0.00000000000E+00  0.00000000000E+00  0.12772032264E+03  0.80820044697E+03  0.79804478675E+03 0.  0.
        4    1    3    3  502    0 -0.17997135692E+03 -0.59295262151E+02 -0.29176612812E+03  0.34790042231E+03  0.12699999809E+01 0. -1.
       -4    1    3    3    0  502  0.17997135692E+03  0.59295262151E+02  0.41948645076E+03  0.46030002466E+03  0.12699999809E+01 0.  1.
</event>
<event>
 5   0  0.1121480E-02  0.7995614E+03  0.7818609E-02  0.9560652E-01
        2   -1    0    0  501    0  0.00000000000E+00  0.00000000000E+00  0.33063377060E+03  0.33063377061E+03  0.25500000920E-02 0. -1.
       -2   -1    0    0    0  501  0.00000000000E+00  0.00000000000E+00 -0.48338861297E+03  0.48338861297E+03  0.25500000920E-02 0.  1.
    10030    2    1    2    0    0  0.00000000000E+00  0.00000000000E+00 -0.15275484236E+03  0.81402238358E+03  0.79956137920E+03 0.  0.
        2    1    3    3  502    0  0.36372036707E+03 -0.11278049204E+03  0.47531048139E+02  0.38375922836E+03  0.25500000920E-02 0.  1.
       -2    1    3    3    0  502 -0.36372036707E+03  0.11278049204E+03 -0.20028589050E+03  0.43026315523E+03  0.25500000920E-02 0. -1.
</event>
<event>
 5   0  0.6517392E-03  0.7961512E+03  0.7818609E-02  0.9565605E-01
        1   -1    0    0  501    0  0.00000000000E+00  0.00000000000E+00  0.11204034200E+04  0.11204034200E+04  0.50400001928E-02 0. -1.
       -1   -1    0    0    0  501  0.00000000000E+00  0.00000000000E+00 -0.14143492800E+03  0.14143492809E+03  0.50400001928E-02 0.  1.
    10030    2    1    2    0    0  0.00000000000E+00  0.00000000000E+00  0.97896849199E+03  0.12618383481E+04  0.79615118439E+03 0.  0.
        3    1    3    3  502    0 -0.20187944058E+02 -0.31086720807E+03  0.96697619319E+02  0.32618463165E+03  0.10100000352E+00 0.  1.
       -3    1    3    3    0  502  0.20187944058E+02  0.31086720807E+03  0.88227087267E+03  0.93565371645E+03  0.10100000352E+00 0. -1.
</event>
<event>
 5   0  0.1092868E-02  0.7996498E+03  0.7818609E-02  0.9560524E-01
        2   -1    0    0  501    0  0.00000000000E+00  0.00000000000E+00  0.60865261102E+03  0.60865261102E+03  0.25500000920E-02 0. -1.
       -2   -1    0    0    0  501  0.00000000000E+00  0.00000000000E+00 -0.26264561843E+03  0.26264561844E+03  0.25500000920E-02 0.  1.
    10030    2    1    2    0    0  0.00000000000E+00  0.00000000000E+00  0.34600699259E+03  0.87129822946E+03  0.79964977693E+03 0.  0.
        3    1    3    3  502    0  0.24010763271E+03  0.28292891035E+03  0.33520200929E+03  0.50006083713E+03  0.10100000352E+00 0. -1.
       -3    1    3    3    0  502 -0.24010763271E+03 -0.28292891035E+03  0.10804983300E+02  0.37123739233E+03  0.10100000352E+00 0.  1.
</event>
<event>
 5   0  0.6596225E-03  0.7796617E+03  0.7818609E-02  0.9589932E-01
        1   -1    0    0  501    0  0.00000000000E+00  0.00000000000E+00  0.45073328598E+03  0.45073328601E+03  0.50400001928E-02 0.  1.
       -1   -1    0    0    0  501  0.00000000000E+00  0.00000000000E+00 -0.33715742360E+03  0.33715742364E+03  0.50400001928E-02 0. -1.
    10030    2    1    2    0    0  0.00000000000E+00  0.00000000000E+00  0.11357586238E+03  0.78789070964E+03  0.77966165343E+03 0.  0.
        5    1    3    3  502    0  0.14635709606E+02 -0.10965167226E+02 -0.33669503910E+03  0.33722407719E+03  0.46999998093E+01 0. -1.
       -5    1    3    3    0  502 -0.14635709606E+02  0.10965167226E+02  0.45027090148E+03  0.45066663245E+03  0.46999998093E+01 0.  1.
</event>
<event>
 5   0  0.6517392E-03  0.8028717E+03  0.7818609E-02  0.9555870E-01
       -1   -1    0    0    0  501  0.00000000000E+00  0.00000000000E+00  0.64613260682E+03  0.64613260684E+03  0.50400001928E-02 0. -1.
        1   -1    0    0  501    0  0.00000000000E+00  0.00000000000E+00 -0.24940812502E+03  0.24940812507E+03  0.50400001928E-02 0.  1.
    10030    2    1    2    0    0  0.00000000000E+00  0.00000000000E+00  0.39672448180E+03  0.89554073192E+03  0.80287165105E+03 0.  0.
        3    1    3    3  502    0 -0.20800218600E+03  0.14513993238E+02  0.58099451056E+03  0.61727643474E+03  0.10100000352E+00 0. -1.
       -3    1    3    3    0  502  0.20800218600E+03 -0.14513993238E+02 -0.18427002877E+03  0.27826429717E+03  0.10100000352E+00 0.  1.
</event>
<event>
 5   0  0.6596225E-03  0.8092168E+03  0.7818609E-02  0.9546771E-01
        1   -1    0    0  501    0  0.00000000000E+00  0.00000000000E+00  0.14626175934E+04  0.14626175935E+04  0.50400001928E-02 0. -1.
       -1   -1    0    0    0  501  0.00000000000E+00  0.00000000000E+00 -0.11192805740E+03  0.11192805751E+03  0.50400001928E-02 0.  1.
    10030    2    1    2    0    0  0.00000000000E+00  0.00000000000E+00  0.13506895360E+04  0.15745456510E+04  0.80921677205E+03 0.  0.
        5    1    3    3  502    0  0.83162787458E+02 -0.39346822922E+03  0.76132379212E+03  0.86102805010E+03  0.46999998093E+01 0. -1.
       -5    1    3    3    0  502 -0.83162787458E+02  0.39346822922E+03  0.58936574393E+03  0.71351760086E+03  0.46999998093E+01 0.  1.
</event>
<event>
 5   0  0.1119792E-02  0.7997259E+03  0.7818609E-02  0.9560414E-01
        2   -1    0    0  501    0  0.00000000000E+00  0.00000000000E+00  0.40933577154E+03  0.40933577155E+03  0.25500000920E-02 0.  1.
       -2   -1    0    0    0  501  0.00000000000E+00  0.00000000000E+00 -0.39060937750E+03  0.39060937751E+03  0.25500000920E-02 0. -1.
    10030    2    1    2    0    0  0.00000000000E+00  0.00000000000E+00  0.18726394041E+02  0.79994514905E+03  0.79972593034E+03 0.  0.
        4    1    3    3  502    0 -0.13059780639E+03 -0.33775457724E+03  0.17898219092E+03  0.40394328692E+03  0.12699999809E+01 0.  1.
       -4    1    3    3    0  502  0.13059780639E+03  0.33775457724E+03 -0.16025579688E+03  0.39600186213E+03  0.12699999809E+01 0. -1.
</event>
<event>
 5   0  0.6551489E-03  0.8154206E+03  0.7818609E-02  0.9537961E-01
       -1   -1    0    0    0  501  0.00000000000E+00  0.00000000000E+00  0.62726930641E+03  0.62726930643E+03  0.50400001928E-02 0.  1.
        1   -1    0    0  501    0  0.00000000000E+00  0.00000000000E+00 -0.26500209663E+03  0.26500209668E+03  0.50400001928E-02 0. -1.
    10030    2    1    2    0    0  0.00000000000E+00  0.00000000000E+00  0.36226720978E+03  0.89227140311E+03  0.81542058199E+03 0.  0.
        4    1    3    3  502    0  0.11276920854E+02 -0.13367116088E+03  0.60242705531E+03  0.61718321272E+03  0.12699999809E+01 0.  1.
       -4    1    3    3    0  502 -0.11276920854E+02  0.13367116088E+03 -0.24015984552E+03  0.27508819040E+03  0.12699999809E+01 0. -1.
</event>
<event>
 5   0  0.6517392E-03  0.7914951E+03  0.7818609E-02  0.9572410E-01
        1   -1    0    0  501    0  0.00000000000E+00  0.00000000000E+00  0.20865011329E+04  0.20865011330E+04  0.50400001928E-02 0.  1.
       -1   -1    0    0    0  501  0.00000000000E+00  0.00000000000E+00 -0.75061610099E+02  0.75061610268E+02  0.50400001928E-02 0. -1.
    10030    2    1    2    0    0  0.00000000000E+00  0.00000000000E+00  0.20114395228E+04  0.21615627432E+04  0.79149512873E+03 0.  0.
        3    1    3    3  502    0 -0.78585952221E+02 -0.19416439195E+03  0.19226994092E+04  0.19340756426E+04  0.10100000352E+00 0.  1.
       -3    1    3    3    0  502  0.78585952221E+02  0.19416439195E+03  0.88740113699E+02  0.22748710066E+03  0.10100000352E+00 0. -1.
</event>
<event>
 5   0  0.1121480E-02  0.7982640E+03  0.7818609E-02  0.9562533E-01
        2   -1    0    0  501    0  0.00000000000E+00  0.00000000000E+00  0.46981058692E+03  0.46981058692E+03  0.25500000920E-02 0. -1.
       -2   -1    0    0    0  501  0.00000000000E+00  0.00000000000E+00 -0.33908631860E+03  0.33908631861E+03  0.25500000920E-02 0.  1.
    10030    2    1    2    0    0  0.00000000000E+00  0.00000000000E+00  0.13072426831E+03  0.80889690554E+03  0.79826397229E+03 0.  0.
        2    1    3    3  502    0 -0.23245459497E+03  0.88049336640E+02 -0.25107700278E+03  0.35330933435E+03  0.25500000920E-02 0.  1.
       -2    1    3    3    0  502  0.23245459497E+03 -0.88049336640E+02  0.38180127109E+03  0.45558757119E+03  0.25500000920E-02 0. -1.
</event>
<event>
 5   0  0.6517392E-03  0.7868135E+03  0.7818609E-02  0.9579303E-01
       -1   -1    0    0    0  501  0.00000000000E+00  0.00000000000E+00  0.50606526441E+03  0.50606526443E+03  0.50400001928E-02 0. -1.
        1   -1    0    0  501    0  0.00000000000E+00  0.00000000000E+00 -0.30582791330E+03  0.30582791334E+03  0.50400001928E-02 0.  1.
    10030    2    1    2    0    0  0.00000000000E+00  0.00000000000E+00  0.20023735111E+03  0.81189317777E+03  0.78681353276E+03 0.  0.
        3    1    3    3  502    0 -0.51345700291E+02 -0.37573875724E+03 -0.78732328977E+01  0.37931252632E+03  0.10100000352E+00 0.  1.
       -3    1    3    3    0  502  0.51345700291E+02  0.37573875724E+03  0.20811058401E+03  0.43258065145E+03  0.10100000352E+00 0. -1.
</event>
<event>
 5   0  0.1119792E-02  0.8114758E+03  0.7818609E-02  0.9543553E-01
        2   -1    0    0  501    0  0.00000000000E+00  0.00000000000E+00  0.16654653805E+04  0.16654653805E+04  0.25500000920E-02 0.  1.
       -2   -1    0    0    0  501  0.00000000000E+00  0.00000000000E+00 -0.98845199589E+02  0.98845199622E+02  0.25500000920E-02 0. -1.
    10030    2    1    2    0    0  0.00000000000E+00  0.00000000000E+00  0.15666201810E+04  0.17643105802E+04  0.81147583570E+03 0.  0.
        4    1    3    3  502    0 -0.13284490943E+03 -0.12000072526E+03 -0.83306511253E+01  0.17921762378E+03  0.12699999809E+01 0. -1.
       -4    1    3    3    0  502  0.13284490943E+03  0.12000072526E+03  0.15749508321E+04  0.15850929564E+04  0.12699999809E+01 0.  1.
</event>
<event>
 5   0  0.1106332E-02  0.8071779E+03  0.7818609E-02  0.9549685E-01
       -2   -1    0    0    0  501  0.00000000000E+00  0.00000000000E+00  0.30815552937E+03  0.30815552938E+03  0.25500000920E-02 0.  1.
        2   -1    0    0  501    0  0.00000000000E+00  0.00000000000E+00 -0.52857735111E+03  0.52857735112E+03  0.25500000920E-02 0. -1.
    10030    2    1    2    0    0  0.00000000000E+00  0.00000000000E+00 -0.22042182175E+03  0.83673288050E+03  0.80717788238E+03 0.  0.
        1    1    3    3  502    0  0.33329932426E+03 -0.19437038921E+03 -0.23293383264E+03  0.45069552712E+03  0.50400001928E-02 0.  1.
       -1    1    3    3    0  502 -0.33329932426E+03  0.19437038921E+03  0.12512010892E+02  0.38603735337E+03  0.50400001928E-02 0. -1.
</event>
<event>
 5   0  0.1092868E-02  0.7980015E+03  0.7818609E-02  0.9562914E-01
        2   -1    0    0  501    0  0.00000000000E+00  0.00000000000E+00  0.53199588711E+03  0.53199588712E+03  0.25500000920E-02 0. -1.
       -2   -1    0    0    0  501  0.00000000000E+00  0.00000000000E+00 -0.29925342248E+03  0.29925342249E+03  0.25500000920E-02 0.  1.
    10030    2    1    2    0    0  0.00000000000E+00  0.00000000000E+00  0.23274246463E+03  0.83124930961E+03  0.79800147863E+03 0.  0.
        3    1    3    3  502    0  0.33737268881E+03  0.18035741985E+03 -0.17207895932E+01  0.38255993173E+03  0.10100000352E+00 0. -1.
       -3    1    3    3    0  502 -0.33737268881E+03 -0.18035741985E+03  0.23446325422E+03  0.44868937788E+03  0.10100000352E+00 0.  1.
</event>
<event>
 5   0  0.1092868E-02  0.8001442E+03  0.7818609E-02  0.9559808E-01
        2   -1    0    0  501    0  0.00000000000E+00  0.00000000000E+00  0.28024473666E+03  0.28024473667E+03  0.25500000920E-02 0. -1.
       -2   -1    0    0    0  501  0.00000000000E+00  0.00000000000E+00 -0.57113531753E+03  0.57113531753E+03  0.25500000920E-02 0.  1.
    10030    2    1    2    0    0  0.00000000000E+00  0.00000000000E+00 -0.29089058087E+03  0.85138005420E+03  0.80014415367E+03 0.  0.
        3    1    3    3  502    0  0.13525369173E+03 -0.10779655743E+03  0.23840980182E+03  0.29453845712E+03  0.10100000352E+00 0. -1.
       -3    1    3    3    0  502 -0.13525369173E+03  0.10779655743E+03 -0.52930038269E+03  0.55684159708E+03  0.10100000352E+00 0.  1.
</event>
<event>
 5   0  0.1154714E-02  0.7996359E+03  0.7818609E-02  0.9560544E-01
        2   -1    0    0  501    0  0.00000000000E+00  0.00000000000E+00  0.12416641489E+04  0.12416641489E+04  0.25500000920E-02 0. -1.
       -2   -1    0    0    0  501  0.00000000000E+00  0.00000000000E+00 -0.12874205228E+03  0.12874205230E+03  0.25500000920E-02 0.  1.
    10030    2    1    2    0    0  0.00000000000E+00  0.00000000000E+00  0.11129220966E+04  0.13704062012E+04  0.79963589411E+03 0.  0.
        5    1    3    3  502    0 -0.58075937075E+02  0.29237168423E+03  0.10130440976E+04  0.10559992660E+04  0.46999998093E+01 0. -1.
       -5    1    3    3    0  502  0.58075937075E+02 -0.29237168423E+03  0.99877999056E+02  0.31440693519E+03  0.46999998093E+01 0.  1.
</event>
<event>
 5   0  0.6517392E-03  0.8029142E+03  0.7818609E-02  0.9555809E-01
        1   -1    0    0  501    0  0.00000000000E+00  0.00000000000E+00  0.12709564010E+04  0.12709564010E+04  0.50400001928E-02 0.  1.
       -1   -1    0    0    0  501  0.00000000000E+00  0.00000000000E+00 -0.12680827695E+03  0.12680827705E+03  0.50400001928E-02 0. -1.
    10030    2    1    2    0    0  0.00000000000E+00  0.00000000000E+00  0.11441481240E+04  0.13977646781E+04  0.80291417067E+03 0.  0.
        3    1    3    3  502    0  0.22108424931E+03 -0.22770004341E+03  0.14408254200E+03  0.34854747764E+03  0.10100000352E+00 0. -1.
       -3    1    3    3    0  502 -0.22108424931E+03  0.22770004341E+03  0.10000655820E+04  0.10492172004E+04  0.10100000352E+00 0.  1.
</event>
<event>
 5   0  0.6551489E-03  0.8089709E+03  0.7818609E-02  0.9547122E-01
       -1   -1    0    0    0  501  0.00000000000E+00  0.00000000000E+00  0.20020656399E+03  0.20020656405E+03  0.50400001928E-02 0. -1.
        1   -1    0    0  501    0  0.00000000000E+00  0.00000000000E+00 -0.81719843664E+03  0.81719843666E+03  0.50400001928E-02 0.  1.
    10030    2    1    2    0    0  0.00000000000E+00  0.00000000000E+00 -0.61699187265E+03  0.10174050007E+04  0.80897092936E+03 0.  0.
        4    1    3    3  502    0 -0.24182140648E+03  0.61600340497E+02 -0.70884610018E+03  0.75148958823E+03  0.12699999809E+01 0.  1.
       -4    1    3    3    0  502  0.24182140648E+03 -0.61600340497E+02  0.91854227525E+02  0.26591541248E+03  0.12699999809E+01 0. -1.
</event>
<event>
 5   0  0.1119792E-02  0.7928932E+03  0.7818609E-02  0.9570361E-01
        2   -1    0    0  501    0  0.00000000000E+00  0.00000000000E+00  0.39461760148E+03  0.39461760149E+03  0.25500000920E-02 0. -1.
       -2   -1    0    0    0  501  0.00000000000E+00  0.00000000000E+00 -0.39828405621E+03  0.39828405621E+03  0.25500000920E-02 0.  1.
    10030    2    1    2    0    0  0.00000000000E+00  0.00000000000E+00 -0.36664547219E+01  0.79290165771E+03  0.79289318064E+03 0.  0.
        4    1    3    3  502    0  0.10250805635E+03  0.16055920811E+03 -0.34951657456E+03  0.39805855061E+03  0.12699999809E+01 0.  1.
       -4    1    3    3    0  502 -0.10250805635E+03 -0.16055920811E+03  0.34585011984E+03  0.39484310709E+03  0.12699999809E+01 0. -1.
</event>
<event>
 5   0  0.6517392E-03  0.7995405E+03  0.7818609E-02  0.9560683E-01
        1   -1    0    0  501    0  0.00000000000E+00  0.00000000000E+00  0.68959662505E+03  0.68959662507E+03  0.50400001928E-02 0.  1.
       -1   -1    0    0    0  501  0.00000000000E+00  0.00000000000E+00 -0.23175321245E+03  0.23175321251E+03  0.50400001928E-02 0. -1.
    10030    2    1    2    0    0  0.00000000000E+00  0.00000000000E+00  0.45784341260E+03  0.92134983758E+03  0.79954045098E+03 0.  0.
        3    1    3    3  502    0  0.38413556892E+03  0.50060515311E+02  0.11513614555E+03  0.40413182591E+03  0.10100000352E+00 0. -1.
       -3    1    3    3    0  502 -0.38413556892E+03 -0.50060515311E+02  0.34270726705E+03  0.51721801167E+03  0.10100000352E+00 0.  1.
</event>
<event>
 5   0  0.6600401E-03  0.8015619E+03  0.7818609E-02  0.9557759E-01
       -1   -1    0    0    0  501  0.00000000000E+00  0.00000000000E+00  0.38370122806E+03  0.38370122809E+03  0.50400001928E-02 0.  1.
        1   -1    0    0  501    0  0.00000000000E+00  0.00000000000E+00 -0.41862092948E+03  0.41862092951E+03  0.50400001928E-02 0. -1.
    10030    2    1    2    0    0  0.00000000000E+00  0.00000000000E+00 -0.34919701415E+02  0.80232215760E+03  0.80156188721E+03 0.  0.
        2    1    3    3  502    0  0.38386778643E+02  0.39118166223E+03 -0.95820291289E+02  0.40457158312E+03  0.25500000920E-02 0. -1.
       -2    1    3    3    0  502 -0.38386778643E+02 -0.39118166223E+03  0.60900589874E+02  0.39775057448E+03  0.25500000920E-02 0.  1.
</event>
<event>
 5   0  0.6517392E-03  0.7876863E+03  0.7818609E-02  0.9578014E-01
       -1   -1    0    0    0  501  0.00000000000E+00  0.00000000000E+00  0.44619516038E+03  0.44619516040E+03  0.50400001928E-02 0.  1.
        1   -1    0    0  501    0  0.00000000000E+00  0.00000000000E+00 -0.34763360642E+03  0.34763360645E+03  0.50400001928E-02 0. -1.
    10030    2    1    2    0    0  0.00000000000E+00  0.00000000000E+00  0.98561553959E+02  0.79382876686E+03  0.78768631521E+03 0.  0.
        3    1    3    3  502    0 -0.15437833900E+03 -0.24721477762E+03  0.31623240520E+03  0.43005902168E+03  0.10100000352E+00 0.  1.
       -3    1    3    3    0  502  0.15437833900E+03  0.24721477762E+03 -0.21767085124E+03  0.36376974518E+03  0.10100000352E+00 0. -1.
</event>
<event>
 5   0  0.6517392E-03  0.7995131E+03  0.7818609E-02  0.9560722E-01
       -1   -1    0    0    0  501  0.00000000000E+00  0.00000000000E+00  0.97586493349E+02  0.97586493479E+02  0.50400001928E-02 0. -1.
        1   -1    0    0  501    0  0.00000000000E+00  0.00000000000E+00 -0.16375760648E+04  0.16375760648E+04  0.50400001928E-02 0.  1.
    10030    2    1    2    0    0  0.00000000000E+00  0.00000000000E+00 -0.15399895714E+04  0.17351625583E+04  0.79951311652E+03 0.  0.
        3    1    3    3  502    0 -0.65641975241E+01  0.22551007483E+03 -0.14862095938E+04  0.15032354604E+04  0.10100000352E+00 0. -1.
       -3    1    3    3    0  502  0.65641975241E+01 -0.22551007483E+03 -0.53779977673E+02  0.23192709789E+03  0.10100000352E+00 0.  1.
</event>
<event>
 5   0  0.6596225E-03  0.7977345E+03  0.7818609E-02  0.9563302E-01
       -1   -1    0    0    0  501  0.00000000000E+00  0.00000000000E+00  0.21573716891E+03  0.21573716897E+03  0.50400001928E-02 0.  1.
        1   -1    0    0  501    0  0.00000000000E+00  0.00000000000E+00 -0.73744872645E+03  0.73744872646E+03  0.50400001928E-02 0. -1.
    10030    2    1    2    0    0  0.00000000000E+00  0.00000000000E+00 -0.52171155754E+03  0.95318589543E+03  0.79773454355E+03 0.  0.
        5    1    3    3  502    0 -0.29764498070E+03 -0.21159681329E+03 -0.45243444377E+03  0.58145056698E+03  0.46999998093E+01 0. -1.
       -5    1    3    3    0  502  0.29764498070E+03  0.21159681329E+03 -0.69277113770E+02  0.37173532845E+03  0.46999998093E+01 0.  1.
</event>
<event>
 5   0  0.6600401E-03  0.7995954E+03  0.7818609E-02  0.9560603E-01
       -1   -1    0    0    0  501  0.00000000000E+00  0.00000000000E+00  0.11216207982E+04  0.11216207983E+04  0.50400001928E-02 0.  1.
        1   -1    0    0  501    0  0.00000000000E+00  0.00000000000E+00 -0.14250645417E+03  0.14250645426E+03  0.50400001928E-02 0. -1.
    10030    2    1    2    0    0  0.00000000000E+00  0.00000000000E+00  0.97911434407E+03  0.12641272525E+04  0.79959540505E+03 0.  0.
        2    1    3    3  502    0 -0.13726407108E+03 -0.12261342274E+03  0.10506588019E+04  0.10666580496E+04  0.25500000920E-02 0.  1.
       -2    1    3    3    0  502  0.13726407108E+03  0.12261342274E+03 -0.71544457869E+02  0.19746920293E+03  0.25500000920E-02 0. -1.
</event>
<event>
 5   0  0.4385875E-03  0.8022307E+03  0.7818609E-02  0.9556794E-01
        3   -1    0    0  501    0  0.00000000000E+00  0.00000000000E+00  0.75725930936E+03  0.75725931609E+03  0.10100000352E+00 0. -1.
       -3   -1    0    0    0  501  0.00000000000E+00  0.00000000000E+00 -0.21246817228E+03  0.21246819628E+03  0.10100000352E+00 0.  1.
    10030    2    1    2    0    0  0.00000000000E+00  0.00000000000E+00  0.54479113708E+03  0.96972751238E+03  0.80223068080E+03 0.  0.
        2    1    3    3  502    0  0.27133343197E+02 -0.30281457729E+02  0.75476189913E+03  0.75585627561E+03  0.25500000920E-02 0. -1.
       -2    1    3    3    0  502 -0.27133343197E+02  0.30281457729E+02 -0.20997076205E+03  0.21387123677E+03  0.25500000920E-02 0.  1.
</event>
<event>
 5   0  0.4385875E-03  0.7951482E+03  0.7818609E-02  0.9567067E-01
        4   -1    0    0  501    0  0.00000000000E+00  0.00000000000E+00  0.20431755484E+04  0.20431759431E+04  0.12699999809E+01 0.  1.
       -4   -1    0    0    0  501  0.00000000000E+00  0.00000000000E+00 -0.77356885660E+02  0.77367310015E+02  0.12699999809E+01 0. -1.
    10030    2    1    2    0    0  0.00000000000E+00  0.00000000000E+00  0.19658186628E+04  0.21205432531E+04  0.79514820856E+03 0.  0.
        3    1    3    3  502    0  0.24507775936E+03 -0.27401562662E+03  0.13866314484E+04  0.14345363208E+04  0.10100000352E+00 0.  1.
       -3    1    3    3    0  502 -0.24507775936E+03  0.27401562662E+03  0.57918721439E+03  0.68600693238E+03  0.10100000352E+00 0. -1.
</event>
<event>
 5   0  0.1154714E-02  0.8028686E+03  0.7818609E-02  0.9555874E-01
       -2   -1    0    0    0  501  0.00000000000E+00  0.00000000000E+00  0.27882228594E+03  0.27882228595E+03  0.25500000920E-02 0. -1.
        2   -1    0    0  501    0  0.00000000000E+00  0.00000000000E+00 -0.57796489059E+03  0.57796489059E+03  0.25500000920E-02 0.  1.
    10030    2    1    2    0    0  0.00000000000E+00  0.00000000000E+00 -0.29914260465E+03  0.85678717654E+03  0.80286858699E+03 0.  0.
        5    1    3    3  502    0  0.18655829359E+03  0.22247396209E+03  0.14622337224E+03  0.32511847887E+03  0.46999998093E+01 0. -1.
       -5    1    3    3    0  502 -0.18655829359E+03 -0.22247396209E+03 -0.44536597689E+03  0.53166869767E+03  0.46999998093E+01 0.  1.
</event>
<event>
 5   0  0.6557679E-03  0.8067602E+03  0.7818609E-02  0.9550283E-01
       -1   -1    0    0    0  501  0.00000000000E+00  0.00000000000E+00  0.12185508596E+03  0.12185508607E+03  0.50400001928E-02 0.  1.
        1   -1    0    0  501    0  0.00000000000E+00  0.00000000000E+00 -0.13353197272E+04  0.13353197272E+04  0.50400001928E-02 0. -1.
    10030    2    1    2    0    0  0.00000000000E+00  0.00000000000E+00 -0.12134646412E+04  0.14571748133E+04  0.80676018798E+03 0.  0.
        1    1    3    3  502    0 -0.20994084389E+03  0.14176541962E+03 -0.11737281766E+04  0.12007541067E+04  0.50400001928E-02 0. -1.
       -1    1    3    3    0  502  0.20994084389E+03 -0.14176541962E+03 -0.39736464647E+02  0.25642070661E+03  0.50400001928E-02 0.  1.
</event>
<event>
 5   0  0.1154714E-02  0.7996172E+03  0.7818609E-02  0.9560571E-01
        2   -1    0    0  501    0  0.00000000000E+00  0.00000000000E+00  0.97207334449E+03  0.97207334450E+03  0.25500000920E-02 0.  1.
       -2   -1    0    0    0  501  0.00000000000E+00  0.00000000000E+00 -0.16443913305E+03  0.16443913307E+03  0.25500000920E-02 0. -1.
    10030    2    1    2    0    0  0.00000000000E+00  0.00000000000E+00  0.80763421145E+03  0.11365124776E+04  0.79961715350E+03 0.  0.
        5    1    3    3  502    0 -0.35454489505E+03  0.15815918003E+03  0.53946502442E+03  0.66465104484E+03  0.46999998093E+01 0.  1.
       -5    1    3    3    0  502  0.35454489505E+03 -0.15815918003E+03  0.26816918702E+03  0.47186143273E+03  0.46999998093E+01 0. -1.
</event>
<event>
 5   0  0.6517392E-03  0.7989913E+03  0.7818609E-02  0.9561478E-01
       -1   -1    0    0    0  501  0.00000000000E+00  0.00000000000E+00  0.19872639214E+03  0.19872639221E+03  0.50400001928E-02 0. -1.
        1   -1    0    0  501    0  0.00000000000E+00  0.00000000000E+00 -0.80309810050E+03  0.80309810051E+03  0.50400001928E-02 0.  1.
    10030    2    1    2    0    0  0.00000000000E+00  0.00000000000E+00 -0.60437170835E+03  0.10018244927E+04  0.79899133434E+03 0.  0.
        3    1    3    3  502    0 -0.12365144071E+03 -0.11815593611E+03 -0.75487375433E+03  0.77400574882E+03  0.10100000352E+00 0.  1.
       -3    1    3    3    0  502  0.12365144071E+03  0.11815593611E+03  0.15050204598E+03  0.22781874390E+03  0.10100000352E+00 0. -1.
</event>
<event>
 5   0  0.1119792E-02  0.7991040E+03  0.7818609E-02  0.9561315E-01
        2   -1    0    0  501    0  0.00000000000E+00  0.00000000000E+00  0.33734333271E+03  0.33734333272E+03  0.25500000920E-02 0. -1.
       -2   -1    0    0    0  501  0.00000000000E+00  0.00000000000E+00 -0.47323245620E+03  0.47323245620E+03  0.25500000920E-02 0.  1.
    10030    2    1    2    0    0  0.00000000000E+00  0.00000000000E+00 -0.13588912349E+03  0.81057578892E+03  0.79910403309E+03 0.  0.
        4    1    3    3  502    0 -0.18880982345E+03 -0.77684384627E+02  0.28043339650E+03  0.34688400918E+03  0.12699999809E+01 0. -1.
       -4    1    3    3    0  502  0.18880982345E+03  0.77684384627E+02 -0.41632252000E+03  0.46369177974E+03  0.12699999809E+01 0.  1.
</event>
<event>
 5   0  0.6551489E-03  0.8021080E+03  0.7818609E-02  0.9556971E-01
       -1   -1    0    0    0  501  0.00000000000E+00  0.00000000000E+00  0.13100053125E+03  0.13100053135E+03  0.50400001928E-02 0.  1.
        1   -1    0    0  501    0  0.00000000000E+00  0.00000000000E+00 -0.12278142146E+04  0.12278142146E+04  0.50400001928E-02 0. -1.
    10030    2    1    2    0    0  0.00000000000E+00  0.00000000000E+00 -0.10968136833E+04  0.13588147459E+04  0.80210800884E+03 0.  0.
        4    1    3    3  502    0 -0.29804710600E+02 -0.39789758577E+03 -0.47997265522E+03  0.62416838449E+03  0.12699999809E+01 0.  1.
       -4    1    3    3    0  502  0.29804710600E+02  0.39789758577E+03 -0.61684102811E+03  0.73464636145E+03  0.12699999809E+01 0. -1.
</event>
<event>
 5   0  0.1119792E-02  0.8040626E+03  0.7818609E-02  0.9554155E-01
       -2   -1    0    0    0  501  0.00000000000E+00  0.00000000000E+00  0.72674703386E+02  0.72674703431E+02  0.25500000920E-02 0. -1.
        2   -1    0    0  501    0  0.00000000000E+00  0.00000000000E+00 -0.22240085014E+04  0.22240085014E+04  0.25500000920E-02 0.  1.
    10030    2    1    2    0    0  0.00000000000E+00  0.00000000000E+00 -0.21513337980E+04  0.22966832048E+04  0.80406258020E+03 0.  0.
        4    1    3    3  502    0  0.18667526148E+03  0.15594550183E+03 -0.19899702482E+04  0.20047817473E+04  0.12699999809E+01 0.  1.
       -4    1    3    3    0  502 -0.18667526148E+03 -0.15594550183E+03 -0.16136354983E+03  0.29190145752E+03  0.12699999809E+01 0. -1.
</event>
<event>
 5   0  0.1121480E-02  0.7981518E+03  0.7818609E-02  0.9562696E-01
       -2   -1    0    0    0  501  0.00000000000E+00  0.00000000000E+00  0.17687808644E+03  0.17687808646E+03  0.25500000920E-02 0. -1.
        2   -1    0    0  501    0  0.00000000000E+00  0.00000000000E+00 -0.90040307403E+03  0.90040307403E+03  0.25500000920E-02 0.  1.
    10030    2    1    2    0    0  0.00000000000E+00  0.00000000000E+00 -0.72352498759E+03  0.10772811605E+04  0.79815179702E+03 0.  0.
        2    1    3    3  502    0 -0.20929407360E+03 -0.65536686028E+02 -0.81177308390E+03  0.84087728368E+03  0.25500000920E-02 0.  1.
       -2    1    3    3    0  502  0.20929407360E+03  0.65536686028E+02  0.88248096314E+02  0.23640387681E+03  0.25500000920E-02 0. -1.
</event>
<event>
 5   0  0.6557679E-03  0.8081113E+03  0.7818609E-02  0.9548350E-01
       -1   -1    0    0    0  501  0.00000000000E+00  0.00000000000E+00  0.28694490059E+03  0.28694490064E+03  0.50400001928E-02 0.  1.
        1   -1    0    0  501    0  0.00000000000E+00  0.00000000000E+00 -0.56896282734E+03  0.56896282736E+03  0.50400001928E-02 0. -1.
    10030    2    1    2    0    0  0.00000000000E+00  0.00000000000E+00 -0.28201792675E+03  0.85590772800E+03  0.80811133382E+03 0.  0.
        1    1    3    3  502    0 -0.95605258532E+02  0.27467066765E+03  0.15607462043E+03  0.33006609686E+03  0.50400001928E-02 0.  1.
       -1    1    3    3    0  502  0.95605258532E+02 -0.27467066765E+03 -0.43809254718E+03  0.52584163114E+03  0.50400001928E-02 0. -1.
</event>
<event>
 5   0  0.6596225E-03  0.7908795E+03  0.7818609E-02  0.9573313E-01
       -1   -1    0    0    0  501  0.00000000000E+00  0.00000000000E+00  0.75914602785E+02  0.75914602953E+02  0.50400001928E-02 0. -1.
        1   -1    0    0  501    0  0.00000000000E+00  0.00000000000E+00 -0.20598488360E+04  0.20598488360E+04  0.50400001928E-02 0.  1.
    10030    2    1    2    0    0  0.00000000000E+00  0.00000000000E+00 -0.19839342332E+04  0.21357634390E+04  0.79087952652E+03 0.  0.
        5    1    3    3  502    0 -0.99155995209E+02  0.10465861634E+03 -0.19862658601E+04  0.19914967975E+04  0.46999998093E+01 0.  1.
       -5    1    3    3    0  502  0.99155995209E+02 -0.10465861634E+03  0.23316268952E+01  0.14426664147E+03  0.46999998093E+01 0. -1.
</event>
<event>
 5   0  0.6557679E-03  0.7912182E+03  0.7818609E-02  0.9572816E-01
        1   -1    0    0  501    0  0.00000000000E+00  0.00000000000E+00  0.12839607860E+04  0.12839607860E+04  0.50400001928E-02 0. -1.
       -1   -1    0    0    0  501  0.00000000000E+00  0.00000000000E+00 -0.12189356649E+03  0.12189356659E+03  0.50400001928E-02 0.  1.
    10030    2    1    2    0    0  0.00000000000E+00  0.00000000000E+00  0.11620672195E+04  0.14058543526E+04  0.79121819878E+03 0.  0.
        1    1    3    3  502    0 -0.37791691668E+03  0.42538679959E+02  0.77466508021E+03  0.86298129860E+03  0.50400001928E-02 0. -1.
       -1    1    3    3    0  502  0.37791691668E+03 -0.42538679959E+02  0.38740213931E+03  0.54287305402E+03  0.50400001928E-02 0.  1.
</event>
<event>
 5   0  0.1154714E-02  0.7991089E+03  0.7818609E-02  0.9561308E-01
       -2   -1    0    0    0  501  0.00000000000E+00  0.00000000000E+00  0.43048254413E+03  0.43048254414E+03  0.25500000920E-02 0.  1.
        2   -1    0    0  501    0  0.00000000000E+00  0.00000000000E+00 -0.37084838664E+03  0.37084838665E+03  0.25500000920E-02 0. -1.
    10030    2    1    2    0    0  0.00000000000E+00  0.00000000000E+00  0.59634157486E+02  0.80133093079E+03  0.79910889615E+03 0.  0.
        5    1    3    3  502    0  0.34297124342E+02 -0.11928789188E+02 -0.36916245727E+03  0.37097385164E+03  0.46999998093E+01 0. -1.
       -5    1    3    3    0  502 -0.34297124342E+02  0.11928789188E+02  0.42879661475E+03  0.43035707915E+03  0.46999998093E+01 0.  1.
</event>
<event>
 5   0  0.1092868E-02  0.7985760E+03  0.7818609E-02  0.9562081E-01
        2   -1    0    0  501    0  0.00000000000E+00  0.00000000000E+00  0.46064080226E+03  0.46064080226E+03  0.25500000920E-02 0. -1.
       -2   -1    0    0    0  501  0.00000000000E+00  0.00000000000E+00 -0.34610677180E+03  0.34610677181E+03  0.25500000920E-02 0.  1.
    10030    2    1    2    0    0  0.00000000000E+00  0.00000000000E+00  0.11453403046E+03  0.80674757407E+03  0.79857598520E+03 0.  0.
        3    1    3    3  502    0  0.17766468601E+03 -0.35319874338E+03  0.86745206417E+00  0.39536673564E+03  0.10100000352E+00 0. -1.
       -3    1    3    3    0  502 -0.17766468601E+03  0.35319874338E+03  0.11366657839E+03  0.41138083843E+03  0.10100000352E+00 0.  1.
</event>
<event>
 5   0  0.1154714E-02  0.8060671E+03  0.7818609E-02  0.9551276E-01
        2   -1    0    0  501    0  0.00000000000E+00  0.00000000000E+00  0.97536392989E+03  0.97536392989E+03  0.25500000920E-02 0. -1.
       -2   -1    0    0    0  501  0.00000000000E+00  0.00000000000E+00 -0.16653891951E+03  0.16653891953E+03  0.25500000920E-02 0.  1.
    10030    2    1    2    0    0  0.00000000000E+00  0.00000000000E+00  0.80882501038E+03  0.11419028494E+04  0.80606713126E+03 0.  0.
        5    1    3    3  502    0 -0.33700782761E+03  0.28407601894E+01  0.71745875613E+03  0.79268625731E+03  0.46999998093E+01 0. -1.
       -5    1    3    3    0  502  0.33700782761E+03 -0.28407601894E+01  0.91366254253E+02  0.34921659211E+03  0.46999998093E+01 0.  1.
</event>
<event>
 5   0  0.6600401E-03  0.8003693E+03  0.7818609E-02  0.9559483E-01
        1   -1    0    0  501    0  0.00000000000E+00  0.00000000000E+00  0.45855651586E+03  0.45855651589E+03  0.50400001928E-02 0.  1.
       -1   -1    0    0    0  501  0.00000000000E+00  0.00000000000E+00 -0.34924321910E+03  0.34924321914E+03  0.50400001928E-02 0. -1.
    10030    2    1    2    0    0  0.00000000000E+00  0.00000000000E+00  0.10931329676E+03  0.80779973503E+03  0.80036929917E+03 0.  0.
        2    1    3    3  502    0 -0.10829693985E+03  0.27922200116E+03  0.32255371835E+03  0.44015230811E+03  0.25500000920E-02 0.  1.
       -2    1    3    3    0  502  0.10829693985E+03 -0.27922200116E+03 -0.21324042159E+03  0.36764742691E+03  0.25500000920E-02 0. -1.
</event>
<event>
 5   0  0.1119792E-02  0.7876182E+03  0.7818609E-02  0.9578114E-01
       -2   -1    0    0    0  501  0.00000000000E+00  0.00000000000E+00  0.26158558292E+03  0.26158558294E+03  0.25500000920E-02 0. -1.
        2   -1    0    0  501    0  0.00000000000E+00  0.00000000000E+00 -0.59286758262E+03  0.59286758262E+03  0.25500000920E-02 0.  1.
    10030    2    1    2    0    0  0.00000000000E+00  0.00000000000E+00 -0.33128199969E+03  0.85445316556E+03  0.78761821260E+03 0.  0.
        4    1    3    3  502    0  0.88771358962E+02 -0.17998485443E+03  0.20194644058E+03  0.28470841182E+03  0.12699999809E+01 0. -1.
       -4    1    3    3    0  502 -0.88771358962E+02  0.17998485443E+03 -0.53322844028E+03  0.56974475374E+03  0.12699999809E+01 0.  1.
</event>
<event>
 5   0  0.6557679E-03  0.8023298E+03  0.7818609E-02  0.9556651E-01
       -1   -1    0    0    0  501  0.00000000000E+00  0.00000000000E+00  0.24660661357E+03  0.24660661362E+03  0.50400001928E-02 0. -1.
        1   -1    0    0  501    0  0.00000000000E+00  0.00000000000E+00 -0.65259108673E+03  0.65259108675E+03  0.50400001928E-02 0.  1.
    10030    2    1    2    0    0  0.00000000000E+00  0.00000000000E+00 -0.40598447316E+03  0.89919770037E+03  0.80232980245E+03 0.  0.
        1    1    3    3  502    0 -0.18961953575E+03 -0.27129447925E+03 -0.45702322493E+03  0.56429291238E+03  0.50400001928E-02 0.  1.
       -1    1    3    3    0  502  0.18961953575E+03  0.27129447925E+03  0.51038751771E+02  0.33490478799E+03  0.50400001928E-02 0. -1.
</event>
<event>
 5   0  0.1092868E-02  0.7988281E+03  0.7818609E-02  0.9561715E-01
        2   -1    0    0  501    0  0.00000000000E+00  0.00000000000E+00  0.98038202078E+03  0.98038202079E+03  0.25500000920E-02 0.  1.
       -2   -1    0    0    0  501  0.00000000000E+00  0.00000000000E+00 -0.16272389322E+03  0.16272389324E+03  0.25500000920E-02 0. -1.
    10030    2    1    2    0    0  0.00000000000E+00  0.00000000000E+00  0.81765812757E+03  0.11431059140E+04  0.79882808983E+03 0.  0.
        3    1    3    3  502    0  0.19865348076E+03  0.25930547352E+03  0.73773331187E+03  0.80681657375E+03  0.10100000352E+00 0.  1.
       -3    1    3    3    0  502 -0.19865348076E+03 -0.25930547352E+03  0.79924815693E+02  0.33628934028E+03  0.10100000352E+00 0. -1.
</event>
<event>
 5   0  0.6557679E-03  0.8002309E+03  0.7818609E-02  0.9559683E-01
        1   -1    0    0  501    0  0.00000000000E+00  0.00000000000E+00  0.16871808493E+04  0.16871808493E+04  0.50400001928E-02 0.  1.
       -1   -1    0    0    0  501  0.00000000000E+00  0.00000000000E+00 -0.94887511072E+02  0.94887511206E+02  0.50400001928E-02 0. -1.
    10030    2    1    2    0    0  0.00000000000E+00  0.00000000000E+00  0.15922933382E+04  0.17820683605E+04  0.80023094578E+03 0.  0.
        1    1    3    3  502    0 -0.12104462489E+03  0.29002014618E+03  0.13476417254E+04  0.13837997350E+04  0.50400001928E-02 0.  1.
       -1    1    3    3    0  502  0.12104462489E+03 -0.29002014618E+03  0.24465161278E+03  0.39826862551E+03  0.50400001928E-02 0. -1.
</event>
<event>
 5   0  0.1154714E-02  0.8011294E+03  0.7818609E-02  0.9558384E-01
        2   -1    0    0  501    0  0.00000000000E+00  0.00000000000E+00  0.89879264892E+03  0.89879264893E+03  0.25500000920E-02 0. -1.
       -2   -1    0    0    0  501  0.00000000000E+00  0.00000000000E+00 -0.17851956271E+03  0.17851956273E+03  0.25500000920E-02 0.  1.
    10030    2    1    2    0    0  0.00000000000E+00  0.00000000000E+00  0.72027308621E+03  0.10773122117E+04  0.80112937948E+03 0.  0.
        5    1    3    3  502    0 -0.35870615224E+03 -0.17738107368E+03  0.33700730717E+03  0.52319228209E+03  0.46999998093E+01 0.  1.
       -5    1    3    3    0  502  0.35870615224E+03  0.17738107368E+03  0.38326577904E+03  0.55411992956E+03  0.46999998093E+01 0. -1.
</event>
<event>
 5   0  0.4385875E-03  0.8005613E+03  0.7818609E-02  0.9559205E-01
        3   -1    0    0  501    0  0.00000000000E+00  0.00000000000E+00  0.35278286761E+03  0.35278288207E+03  0.10100000352E+00 0.  1.
       -3   -1    0    0    0  501  0.00000000000E+00  0.00000000000E+00 -0.45417340545E+03  0.45417341669E+03  0.10100000352E+00 0. -1.
    10030    2    1    2    0    0  0.00000000000E+00  0.00000000000E+00 -0.10139053785E+03  0.80695629875E+03  0.80056131991E+03 0.  0.
        2    1    3    3  502    0  0.19119462505E+02 -0.38315760407E+03  0.64450789470E+02  0.38901054957E+03  0.25500000920E-02 0.  1.
       -2    1    3    3    0  502 -0.19119462505E+02  0.38315760407E+03 -0.16584132732E+03  0.41794574918E+03  0.25500000920E-02 0. -1.
</event>
<event>
 5   0  0.6551489E-03  0.8092627E+03  0.7818609E-02  0.9546706E-01
       -1   -1    0    0    0  501  0.00000000000E+00  0.00000000000E+00  0.72714981778E+03  0.72714981780E+03  0.50400001928E-02 0. -1.
        1   -1    0    0  501    0  0.00000000000E+00  0.00000000000E+00 -0.22516202136E+03  0.22516202141E+03  0.50400001928E-02 0.  1.
    10030    2    1    2    0    0  0.00000000000E+00  0.00000000000E+00  0.50198779642E+03  0.95231183921E+03  0.80926268377E+03 0.  0.
        4    1    3    3  502    0  0.92749782638E+02  0.10207825854E+03 -0.19664473508E+03  0.24019420846E+03  0.12699999809E+01 0.  1.
       -4    1    3    3    0  502 -0.92749782638E+02 -0.10207825854E+03  0.69863253150E+03  0.71211763075E+03  0.12699999809E+01 0. -1.
</event>
<event>
 5   0  0.1121480E-02  0.7976785E+03  0.7818609E-02  0.9563384E-01
       -2   -1    0    0    0  501  0.00000000000E+00  0.00000000000E+00  0.83731914223E+02  0.83731914261E+02  0.25500000920E-02 0.  1.
        2   -1    0    0  501    0  0.00000000000E+00  0.00000000000E+00 -0.18997861094E+04  0.18997861094E+04  0.25500000920E-02 0. -1.
    10030    2    1    2    0    0  0.00000000000E+00  0.00000000000E+00 -0.18160541952E+04  0.19835180237E+04  0.79767845049E+03 0.  0.
        2    1    3    3  502    0  0.39761205939E+03 -0.30173362222E+02 -0.92837270627E+03  0.10103868879E+04  0.25500000920E-02 0. -1.
       -2    1    3    3    0  502 -0.39761205939E+03  0.30173362222E+02 -0.88768148892E+03  0.97313113573E+03  0.25500000920E-02 0.  1.
</event>
<event>
 5   0  0.1092868E-02  0.8010890E+03  0.7818609E-02  0.9558442E-01
        2   -1    0    0  501    0  0.00000000000E+00  0.00000000000E+00  0.18460268116E+03  0.18460268118E+03  0.25500000920E-02 0.  1.
       -2   -1    0    0    0  501  0.00000000000E+00  0.00000000000E+00 -0.86908748687E+03  0.86908748688E+03  0.25500000920E-02 0. -1.
    10030    2    1    2    0    0  0.00000000000E+00  0.00000000000E+00 -0.68448480571E+03  0.10536901681E+04  0.80108895948E+03 0.  0.
        3    1    3    3  502    0 -0.37226646963E+03  0.10731506214E+03 -0.20851207043E+03  0.43997288631E+03  0.10100000352E+00 0.  1.
       -3    1    3    3    0  502  0.37226646963E+03 -0.10731506214E+03 -0.47597273528E+03  0.61371728174E+03  0.10100000352E+00 0. -1.
</event>
<event>
 5   0  0.6517392E-03  0.7991218E+03  0.7818609E-02  0.9561289E-01
        1   -1    0    0  501    0  0.00000000000E+00  0.00000000000E+00  0.62968393859E+03  0.62968393861E+03  0.50400001928E-02 0. -1.
       -1   -1    0    0    0  501  0.00000000000E+00  0.00000000000E+00 -0.25353818712E+03  0.25353818717E+03  0.50400001928E-02 0.  1.
    10030    2    1    2    0    0  0.00000000000E+00  0.00000000000E+00  0.37614575147E+03  0.88322212578E+03  0.79912182870E+03 0.  0.
        3    1    3    3  502    0 -0.21811443566E+03 -0.30907655251E+03  0.45901379496E+02  0.38106320892E+03  0.10100000352E+00 0.  1.
       -3    1    3    3    0  502  0.21811443566E+03  0.30907655251E+03  0.33024437197E+03  0.50215891685E+03  0.10100000352E+00 0. -1.
</event>
<event>
 5   0  0.4385875E-03  0.8022559E+03  0.7818609E-02  0.9556757E-01
        4   -1    0    0  501    0  0.00000000000E+00  0.00000000000E+00  0.10082361486E+03  0.10083161316E+03  0.12699999809E+01 0. -1.
       -4   -1    0    0    0  501  0.00000000000E+00  0.00000000000E+00 -0.15958209228E+04  0.15958214282E+04  0.12699999809E+01 0.  1.
    10030    2    1    2    0    0  0.00000000000E+00  0.00000000000E+00 -0.14949973080E+04  0.16966530413E+04  0.80225593911E+03 0.  0.
        4    1    3    3  502    0 -0.23876141186E+03 -0.31953738793E+03 -0.65800062702E+03  0.76946578361E+03  0.12699999809E+01 0. -1.
       -4    1    3    3    0  502  0.23876141186E+03  0.31953738793E+03 -0.83699668094E+03  0.92718725772E+03  0.12699999809E+01 0.  1.
</event>
<event>
 5   0  0.1119792E-02  0.8025394E+03  0.7818609E-02  0.9556349E-01
       -2   -1    0    0    0  501  0.00000000000E+00  0.00000000000E+00  0.26673769354E+03  0.26673769355E+03  0.25500000920E-02 0.  1.
        2   -1    0    0  501    0  0.00000000000E+00  0.00000000000E+00 -0.60365432059E+03  0.60365432059E+03  0.25500000920E-02 0. -1.
    10030    2    1    2    0    0  0.00000000000E+00  0.00000000000E+00 -0.33691662704E+03  0.87039201415E+03  0.80253937269E+03 0.  0.
        4    1    3    3  502    0 -0.32717076907E+03  0.22860847641E+03 -0.21334862982E+03  0.45257242334E+03  0.12699999809E+01 0. -1.
       -4    1    3    3    0  502  0.32717076907E+03 -0.22860847641E+03 -0.12356799722E+03  0.41781959080E+03  0.12699999809E+01 0.  1.
</event>
<event>
 5   0  0.1121480E-02  0.8088913E+03  0.7818609E-02  0.9547236E-01
       -2   -1    0    0    0  501  0.00000000000E+00  0.00000000000E+00  0.12898714439E+03  0.12898714442E+03  0.25500000920E-02 0.  1.
        2   -1    0    0  501    0  0.00000000000E+00  0.00000000000E+00 -0.12681597211E+04  0.12681597211E+04  0.25500000920E-02 0. -1.
    10030    2    1    2    0    0  0.00000000000E+00  0.00000000000E+00 -0.11391725767E+04  0.13971468656E+04  0.80889134273E+03 0.  0.
        2    1    3    3  502    0 -0.25096173828E+03 -0.64811243804E+02 -0.11058481313E+04  0.11358179348E+04  0.25500000920E-02 0. -1.
       -2    1    3    3    0  502  0.25096173828E+03  0.64811243804E+02 -0.33324445445E+02  0.26132893081E+03  0.25500000920E-02 0.  1.
</event>
<event>
 5   0  0.6600401E-03  0.7971831E+03  0.7818609E-02  0.9564103E-01
        1   -1    0    0  501    0  0.00000000000E+00  0.00000000000E+00  0.13621102662E+03  0.13621102671E+03  0.50400001928E-02 0. -1.
       -1   -1    0    0    0  501  0.00000000000E+00  0.00000000000E+00 -0.11663902196E+04  0.11663902196E+04  0.50400001928E-02 0.  1.
    10030    2    1    2    0    0  0.00000000000E+00  0.00000000000E+00 -0.10301791930E+04  0.13026012463E+04  0.79718306384E+03 0.  0.
        2    1    3    3  502    0  0.23702919438E+01  0.37031779063E+03 -0.75598388545E+03  0.84181501496E+03  0.25500000920E-02 0.  1.
       -2    1    3    3    0  502 -0.23702919438E+01 -0.37031779063E+03 -0.27419530754E+03  0.46078623138E+03  0.25500000920E-02 0. -1.
</event>
<event>
 5   0  0.1121480E-02  0.8051632E+03  0.7818609E-02  0.9552573E-01
        2   -1    0    0  501    0  0.00000000000E+00  0.00000000000E+00  0.14149052336E+04  0.14149052336E+04  0.25500000920E-02 0. -1.
       -2   -1    0    0    0  501  0.00000000000E+00  0.00000000000E+00 -0.11454615979E+03  0.11454615982E+03  0.25500000920E-02 0.  1.
    10030    2    1    2    0    0  0.00000000000E+00  0.00000000000E+00  0.13003590738E+04  0.15294513934E+04  0.80516324060E+03 0.  0.
        2    1    3    3  502    0 -0.33927050956E+03  0.12957950178E+03  0.98015917794E+03  0.10452785945E+04  0.25500000920E-02 0. -1.
       -2    1    3    3    0  502  0.33927050956E+03 -0.12957950178E+03  0.32019989587E+03  0.48417279897E+03  0.25500000920E-02 0.  1.
</event>
<event>
 5   0  0.1154714E-02  0.8041967E+03  0.7818609E-02  0.9553962E-01
       -2   -1    0    0    0  501  0.00000000000E+00  0.00000000000E+00  0.43266021096E+03  0.43266021097E+03  0.25500000920E-02 0.  1.
        2   -1    0    0  501    0  0.00000000000E+00  0.00000000000E+00 -0.37369527971E+03  0.37369527972E+03  0.25500000920E-02 0. -1.
    10030    2    1    2    0    0  0.00000000000E+00  0.00000000000E+00  0.58964931256E+02  0.80635549069E+03  0.80419668878E+03 0.  0.
        5    1    3    3  502    0 -0.13820968616E+03  0.67699379910E+02  0.40193062292E+03  0.43041310276E+03  0.46999998093E+01 0.  1.
       -5    1    3    3    0  502  0.13820968616E+03 -0.67699379910E+02 -0.34296569166E+03  0.37594238793E+03  0.46999998093E+01 0. -1.
</event>
<event>
 5   0  0.1119792E-02  0.7832354E+03  0.7818609E-02  0.9584605E-01
       -2   -1    0    0    0  501  0.00000000000E+00  0.00000000000E+00  0.12845828792E+03  0.12845828795E+03  0.25500000920E-02 0. -1.
        2   -1    0    0  501    0  0.00000000000E+00  0.00000000000E+00 -0.11938851367E+04  0.11938851367E+04  0.25500000920E-02 0.  1.
    10030    2    1    2    0    0  0.00000000000E+00  0.00000000000E+00 -0.10654268488E+04  0.13223434247E+04  0.78323544521E+03 0.  0.
        4    1    3    3  502    0  0.38674736793E+03 -0.25000684714E+02 -0.62768387144E+03  0.73769046097E+03  0.12699999809E+01 0.  1.
       -4    1    3    3    0  502 -0.38674736793E+03  0.25000684714E+02 -0.43774297735E+03  0.58465296370E+03  0.12699999809E+01 0. -1.
</event>
<event>
 5   0  0.1121480E-02  0.7802195E+03  0.7818609E-02  0.9589098E-01
        2   -1    0    0  501    0  0.00000000000E+00  0.00000000000E+00  0.11222362638E+04  0.11222362638E+04  0.25500000920E-02 0.  1.
       -2   -1    0    0    0  501  0.00000000000E+00  0.00000000000E+00 -0.13560923404E+03  0.13560923406E+03  0.25500000920E-02 0. -1.
    10030    2    1    2    0    0  0.00000000000E+00  0.00000000000E+00  0.98662702977E+03  0.12578454979E+04  0.78021945673E+03 0.  0.
        2    1    3    3  502    0 -0.12673455430E+03  0.14834125388E+03 -0.51300947041E+02  0.20173884611E+03  0.25500000920E-02 0. -1.
       -2    1    3    3    0  502  0.12673455430E+03 -0.14834125388E+03  0.10379279768E+04  0.10561066518E+04  0.25500000920E-02 0.  1.
</event>
<event>
 5   0  0.1154714E-02  0.7987703E+03  0.7818609E-02  0.9561799E-01
        2   -1    0    0  501    0  0.00000000000E+00  0.00000000000E+00  0.51367301408E+03  0.51367301408E+03  0.25500000920E-02 0.  1.
       -2   -1    0    0    0  501  0.00000000000E+00  0.00000000000E+00 -0.31052536184E+03  0.31052536185E+03  0.25500000920E-02 0. -1.
    10030    2    1    2    0    0  0.00000000000E+00  0.00000000000E+00  0.20314765223E+03  0.82419837594E+03  0.79877030133E+03 0.  0.
        5    1    3    3  502    0  0.21766863914E+03 -0.74874555897E+02  0.43830693298E+03  0.49509685223E+03  0.46999998093E+01 0.  1.
       -5    1    3    3    0  502 -0.21766863914E+03  0.74874555897E+02 -0.23515928075E+03  0.32910152371E+03  0.46999998093E+01 0. -1.
</event>
<event>
 5   0  0.6557679E-03  0.8236002E+03  0.7818609E-02  0.9526471E-01
        1   -1    0    0  501    0  0.00000000000E+00  0.00000000000E+00  0.40088245690E+03  0.40088245693E+03  0.50400001928E-02 0. -1.
       -1   -1    0    0    0  501  0.00000000000E+00  0.00000000000E+00 -0.42301510485E+03  0.42301510488E+03  0.50400001928E-02 0.  1.
    10030    2    1    2    0    0  0.00000000000E+00  0.00000000000E+00 -0.22132647955E+02  0.82389756181E+03  0.82360022963E+03 0.  0.
        1    1    3    3  502    0 -0.14059098932E+03  0.25803632323E+03 -0.29966790078E+03  0.41970158586E+03  0.50400001928E-02 0.  1.
       -1    1    3    3    0  502  0.14059098932E+03 -0.25803632323E+03  0.27753525283E+03  0.40419597595E+03  0.50400001928E-02 0. -1.
</event>
<event>
 5   0  0.1092868E-02  0.7992448E+03  0.7818609E-02  0.9561111E-01
       -2   -1    0    0    0  501  0.00000000000E+00  0.00000000000E+00  0.12778149954E+03  0.12778149957E+03  0.25500000920E-02 0. -1.
        2   -1    0    0  501    0  0.00000000000E+00  0.00000000000E+00 -0.12497746358E+04  0.12497746358E+04  0.25500000920E-02 0.  1.
    10030    2    1    2    0    0  0.00000000000E+00  0.00000000000E+00 -0.11219931362E+04  0.13775561354E+04  0.79924483625E+03 0.  0.
        3    1    3    3  502    0  0.12107503559E+03  0.37324499386E+02  0.92248152956E+02  0.15672273104E+03  0.10100000352E+00 0. -1.
       -3    1    3    3    0  502 -0.12107503559E+03 -0.37324499386E+02 -0.12142412892E+04  0.12208334043E+04  0.10100000352E+00 0.  1.
</event>
<event>
 5   0  0.6557679E-03  0.7922278E+03  0.7818609E-02  0.9571336E-01
       -1   -1    0    0    0  501  0.00000000000E+00  0.00000000000E+00  0.25282697737E+03  0.25282697742E+03  0.50400001928E-02 0. -1.
        1   -1    0    0  501    0  0.00000000000E+00  0.00000000000E+00 -0.62060708691E+03  0.62060708693E+03  0.50400001928E-02 0.  1.
    10030    2    1    2    0    0  0.00000000000E+00  0.00000000000E+00 -0.36778010954E+03  0.87343406434E+03  0.79222778024E+03 0.  0.
        1    1    3    3  502    0 -0.12349427299E+03 -0.19831402625E+03  0.16878522619E+03  0.28821474819E+03  0.50400001928E-02 0. -1.
       -1    1    3    3    0  502  0.12349427299E+03  0.19831402625E+03 -0.53656533573E+03  0.58521931615E+03  0.50400001928E-02 0.  1.
</event>
<event>
 5   0  0.1121480E-02  0.7825498E+03  0.7818609E-02  0.9585625E-01
       -2   -1    0    0    0  501  0.00000000000E+00  0.00000000000E+00  0.51404577663E+03  0.51404577664E+03  0.25500000920E-02 0. -1.
        2   -1    0    0  501    0  0.00000000000E+00  0.00000000000E+00 -0.29782567431E+03  0.29782567432E+03  0.25500000920E-02 0.  1.
    10030    2    1    2    0    0  0.00000000000E+00  0.00000000000E+00  0.21622010233E+03  0.81187145096E+03  0.78254975575E+03 0.  0.
        2    1    3    3  502    0  0.55878587666E+02  0.37010926199E+03  0.22636676649E+03  0.43743021769E+03  0.25500000920E-02 0. -1.
       -2    1    3    3    0  502 -0.55878587666E+02 -0.37010926199E+03 -0.10146664160E+02  0.37444123327E+03  0.25500000920E-02 0.  1.
</event>
<event>
 5   0  0.1154714E-02  0.7912802E+03  0.7818609E-02  0.9572725E-01
       -2   -1    0    0    0  501  0.00000000000E+00  0.00000000000E+00  0.10136537895E+03  0.10136537899E+03  0.25500000920E-02 0.  1.
        2   -1    0    0  501    0  0.00000000000E+00  0.00000000000E+00 -0.15442261551E+04  0.15442261551E+04  0.25500000920E-02 0. -1.
    10030    2    1    2    0    0  0.00000000000E+00  0.00000000000E+00 -0.14428607762E+04  0.16455915341E+04  0.79128015123E+03 0.  0.
        5    1    3    3  502    0 -0.34355102028E+03  0.13103830558E+03 -0.10250221638E+04  0.10889861649E+04  0.46999998093E+01 0.  1.
       -5    1    3    3    0  502  0.34355102028E+03 -0.13103830558E+03 -0.41783861242E+03  0.55660536926E+03  0.46999998093E+01 0. -1.
</event>
<event>
 5   0  0.6557679E-03  0.7907359E+03  0.7818609E-02  0.9573524E-01
        1   -1    0    0  501    0  0.00000000000E+00  0.00000000000E+00  0.41470262375E+03  0.41470262378E+03  0.50400001928E-02 0. -1.
       -1   -1    0    0    0  501  0.00000000000E+00  0.00000000000E+00 -0.37693475625E+03  0.37693475629E+03  0.50400001928E-02 0.  1.
    10030    2    1    2    0    0  0.00000000000E+00  0.00000000000E+00  0.37767867492E+02  0.79163738006E+03  0.79073594183E+03 0.  0.
        1    1    3    3  502    0  0.21763669300E+03  0.32790614649E+03  0.56711414116E+02  0.39762338408E+03  0.50400001928E-02 0.  1.
       -1    1    3    3    0  502 -0.21763669300E+03 -0.32790614649E+03 -0.18943546624E+02  0.39401399599E+03  0.50400001928E-02 0. -1.
</event>
<event>
 5   0  0.6551489E-03  0.7864459E+03  0.7818609E-02  0.9579846E-01
       -1   -1    0    0    0  501  0.00000000000E+00  0.00000000000E+00  0.31334768038E+03  0.31334768042E+03  0.50400001928E-02 0. -1.
        1   -1    0    0  501    0  0.00000000000E+00  0.00000000000E+00 -0.49345914693E+03  0.49345914695E+03  0.50400001928E-02 0.  1.
    10030    2    1    2    0    0  0.00000000000E+00  0.00000000000E+00 -0.18011146655E+03  0.80680682738E+03  0.78644587628E+03 0.  0.
        4    1    3    3  502    0 -0.20083118779E+03  0.20446896611E+03  0.18613915452E+03  0.34174569761E+03  0.12699999809E+01 0. -1.
       -4    1    3    3    0  502  0.20083118779E+03 -0.20446896611E+03 -0.36625062106E+03  0.46506112977E+03  0.12699999809E+01 0.  1.
</event>
<event>
 5   0  0.6517392E-03  0.8001331E+03  0.7818609E-02  0.9559825E-01
       -1   -1    0    0    0  501  0.00000000000E+00  0.00000000000E+00  0.30723073206E+03  0.30723073210E+03  0.50400001928E-02 0. -1.
        1   -1    0    0  501    0  0.00000000000E+00  0.00000000000E+00 -0.52095447627E+03  0.52095447629E+03  0.50400001928E-02 0.  1.
    10030    2    1    2    0    0  0.00000000000E+00  0.00000000000E+00 -0.21372374421E+03  0.82818520839E+03  0.80013305178E+03 0.  0.
        3    1    3    3  502    0  0.32727818568E+03 -0.14142073311E+02 -0.34457020372E+03  0.47543626760E+03  0.10100000352E+00 0.  1.
       -3    1    3    3    0  502 -0.32727818568E+03  0.14142073311E+02  0.13084645951E+03  0.35274894079E+03  0.10100000352E+00 0. -1.
</event>
<event>
 5   0  0.4385875E-03  0.8142442E+03  0.7818609E-02  0.9539625E-01
        3   -1    0    0  501    0  0.00000000000E+00  0.00000000000E+00  0.29078791655E+03  0.29078793409E+03  0.10100000352E+00 0. -1.
       -3   -1    0    0    0  501  0.00000000000E+00  0.00000000000E+00 -0.56999756734E+03  0.56999757629E+03  0.10100000352E+00 0.  1.
    10030    2    1    2    0    0  0.00000000000E+00  0.00000000000E+00 -0.27920965079E+03  0.86078551038E+03  0.81424422982E+03 0.  0.
        2    1    3    3  502    0  0.48663614712E+02 -0.39716800714E+03 -0.60227446691E+02  0.40464542334E+03  0.25500000920E-02 0. -1.
       -2    1    3    3    0  502 -0.48663614712E+02  0.39716800714E+03 -0.21898220409E+03  0.45614008704E+03  0.25500000920E-02 0.  1.
</event>
<event>
 5   0  0.6596225E-03  0.7983520E+03  0.7818609E-02  0.9562406E-01
       -1   -1    0    0    0  501  0.00000000000E+00  0.00000000000E+00  0.48813391952E+03  0.48813391954E+03  0.50400001928E-02 0. -1.
        1   -1    0    0  501    0  0.00000000000E+00  0.00000000000E+00 -0.32642981752E+03  0.32642981756E+03  0.50400001928E-02 0.  1.
    10030    2    1    2    0    0  0.00000000000E+00  0.00000000000E+00  0.16170410200E+03  0.81456373710E+03  0.79835196824E+03 0.  0.
        5    1    3    3  502    0 -0.14843577887E+03 -0.39194302447E+02  0.45677652004E+03  0.48190896759E+03  0.46999998093E+01 0. -1.
       -5    1    3    3    0  502  0.14843577887E+03  0.39194302447E+02 -0.29507241804E+03  0.33265476951E+03  0.46999998093E+01 0.  1.
</event>
<event>
 5   0  0.6517392E-03  0.7929208E+03  0.7818609E-02  0.9570321E-01
        1   -1    0    0  501    0  0.00000000000E+00  0.00000000000E+00  0.72319436356E+03  0.72319436358E+03  0.50400001928E-02 0. -1.
       -1   -1    0    0    0  501  0.00000000000E+00  0.00000000000E+00 -0.21734247547E+03  0.21734247553E+03  0.50400001928E-02 0.  1.
    10030    2    1    2    0    0  0.00000000000E+00  0.00000000000E+00  0.50585188809E+03  0.94053683911E+03  0.79292081133E+03 0.  0.
        3    1    3    3  502    0 -0.16547311664E+03 -0.33387824632E+03  0.41349642309E+03  0.55662854562E+03  0.10100000352E+00 0.  1.
       -3    1    3    3    0  502  0.16547311664E+03  0.33387824632E+03  0.92355465009E+02  0.38390829349E+03  0.10100000352E+00 0. -1.
</event>
<event>
 5   0  0.1154714E-02  0.8011777E+03  0.7818609E-02  0.9558314E-01
        2   -1    0    0  501    0  0.00000000000E+00  0.00000000000E+00  0.21898128216E+03  0.21898128217E+03  0.25500000920E-02 0. -1.
       -2   -1    0    0    0  501  0.00000000000E+00  0.00000000000E+00 -0.73280893665E+03  0.73280893665E+03  0.25500000920E-02 0.  1.
    10030    2    1    2    0    0  0.00000000000E+00  0.00000000000E+00 -0.51382765449E+03  0.95179021882E+03  0.80117773442E+03 0.  0.
        5    1    3    3  502    0 -0.10605412918E+03  0.22631879467E+03  0.11495073806E+03  0.27514257634E+03  0.46999998093E+01 0. -1.
       -5    1    3    3    0  502  0.10605412918E+03 -0.22631879467E+03 -0.62877839255E+03  0.67664764248E+03  0.46999998093E+01 0.  1.
</event>
<event>
 5   0  0.4385875E-03  0.8002463E+03  0.7818609E-02  0.9559661E-01
       -3   -1    0    0    0  501  0.00000000000E+00  0.00000000000E+00  0.11456455789E+04  0.11456455833E+04  0.10100000352E+00 0.  1.
        3   -1    0    0  501    0  0.00000000000E+00  0.00000000000E+00 -0.13974522070E+03  0.13974525720E+03  0.10100000352E+00 0. -1.
    10030    2    1    2    0    0  0.00000000000E+00  0.00000000000E+00  0.10059003582E+04  0.12853908405E+04  0.80024626355E+03 0.  0.
        5    1    3    3  502    0 -0.87451476355E+02  0.61737353383E+02  0.11221716947E+04  0.11272757710E+04  0.46999998093E+01 0.  1.
       -5    1    3    3    0  502  0.87451476355E+02 -0.61737353383E+02 -0.11627133651E+03  0.15811506953E+03  0.46999998093E+01 0. -1.
</event>
<event>
 5   0  0.6596225E-03  0.7967491E+03  0.7818609E-02  0.9564735E-01
        1   -1    0    0  501    0  0.00000000000E+00  0.00000000000E+00  0.47044350957E+03  0.47044350960E+03  0.50400001928E-02 0. -1.
       -1   -1    0    0    0  501  0.00000000000E+00  0.00000000000E+00 -0.33734608826E+03  0.33734608830E+03  0.50400001928E-02 0.  1.
    10030    2    1    2    0    0  0.00000000000E+00  0.00000000000E+00  0.13309742131E+03  0.80778959790E+03  0.79674908906E+03 0.  0.
        5    1    3    3  502    0 -0.32676661873E+03 -0.47577297727E+02 -0.15933935711E+03  0.36667580108E+03  0.46999998093E+01 0.  1.
       -5    1    3    3    0  502  0.32676661873E+03  0.47577297727E+02  0.29243677843E+03  0.44111379682E+03  0.46999998093E+01 0. -1.
</event>
<event>
 5   0  0.1154714E-02  0.8047396E+03  0.7818609E-02  0.9553182E-01
        2   -1    0    0  501    0  0.00000000000E+00  0.00000000000E+00  0.82250671488E+03  0.82250671489E+03  0.25500000920E-02 0.  1.
       -2   -1    0    0    0  501  0.00000000000E+00  0.00000000000E+00 -0.19683907950E+03  0.19683907952E+03  0.25500000920E-02 0. -1.
    10030    2    1    2    0    0  0.00000000000E+00  0.00000000000E+00  0.62566763539E+03  0.10193457944E+04  0.80473962162E+03 0.  0.
        5    1    3    3  502    0 -0.13059854548E+03  0.37980088894E+03  0.34319921311E+03  0.52831097395E+03  0.46999998093E+01 0.  1.
       -5    1    3    3    0  502  0.13059854548E+03 -0.37980088894E+03  0.28246842228E+03  0.49103482045E+03  0.46999998093E+01 0. -1.
</event>
<event>
 5   0  0.6551489E-03  0.7993441E+03  0.7818609E-02  0.9560967E-01
       -1   -1    0    0    0  501  0.00000000000E+00  0.00000000000E+00  0.34646089176E+03  0.34646089180E+03  0.50400001928E-02 0.  1.
        1   -1    0    0  501    0  0.00000000000E+00  0.00000000000E+00 -0.46105563621E+03  0.46105563624E+03  0.50400001928E-02 0. -1.
    10030    2    1    2    0    0  0.00000000000E+00  0.00000000000E+00 -0.11459474445E+03  0.80751652803E+03  0.79934409836E+03 0.  0.
        4    1    3    3  502    0 -0.29210976639E+03  0.15352446156E+03  0.17048125854E+03  0.37143417766E+03  0.12699999809E+01 0.  1.
       -4    1    3    3    0  502  0.29210976639E+03 -0.15352446156E+03 -0.28507600300E+03  0.43608235037E+03  0.12699999809E+01 0. -1.
</event>
<event>
 5   0  0.6596225E-03  0.7981514E+03  0.7818609E-02  0.9562697E-01
       -1   -1    0    0    0  501  0.00000000000E+00  0.00000000000E+00  0.39843010618E+03  0.39843010621E+03  0.50400001928E-02 0. -1.
        1   -1    0    0  501    0  0.00000000000E+00  0.00000000000E+00 -0.39972237236E+03  0.39972237239E+03  0.50400001928E-02 0.  1.
    10030    2    1    2    0    0  0.00000000000E+00  0.00000000000E+00 -0.12922661815E+01  0.79815247860E+03  0.79815143246E+03 0.  0.
        5    1    3    3  502    0 -0.19135466906E+03  0.33660637359E+03 -0.97180591219E+02  0.39923253552E+03  0.46999998093E+01 0.  1.
       -5    1    3    3    0  502  0.19135466906E+03 -0.33660637359E+03  0.95888325037E+02  0.39891994308E+03  0.46999998093E+01 0. -1.
</event>
<event>
 5   0  0.1092868E-02  0.8024125E+03  0.7818609E-02  0.9556532E-01
       -2   -1    0    0    0  501  0.00000000000E+00  0.00000000000E+00  0.20935939571E+03  0.20935939572E+03  0.25500000920E-02 0. -1.
        2   -1    0    0  501    0  0.00000000000E+00  0.00000000000E+00 -0.76885239970E+03  0.76885239970E+03  0.25500000920E-02 0.  1.
    10030    2    1    2    0    0  0.00000000000E+00  0.00000000000E+00 -0.55949300399E+03  0.97821179542E+03  0.80241254676E+03 0.  0.
        3    1    3    3  502    0  0.12242977461E+03  0.30174743277E+03  0.59624039880E+01  0.32569329645E+03  0.10100000352E+00 0. -1.
       -3    1    3    3    0  502 -0.12242977461E+03 -0.30174743277E+03 -0.56545540798E+03  0.65251849897E+03  0.10100000352E+00 0.  1.
</event>
<event>
 5   0  0.1154714E-02  0.7990171E+03  0.7818609E-02  0.9561441E-01
        2   -1    0    0  501    0  0.00000000000E+00  0.00000000000E+00  0.14750380105E+04  0.14750380105E+04  0.25500000920E-02 0.  1.
       -2   -1    0    0    0  501  0.00000000000E+00  0.00000000000E+00 -0.10820540152E+03  0.10820540155E+03  0.25500000920E-02 0. -1.
    10030    2    1    2    0    0  0.00000000000E+00  0.00000000000E+00  0.13668326090E+04  0.15832434121E+04  0.79901709670E+03 0.  0.
        5    1    3    3  502    0 -0.11708460463E+03 -0.30285441712E+03  0.22229790500E+03  0.39353278285E+03  0.46999998093E+01 0. -1.
       -5    1    3    3    0  502  0.11708460463E+03  0.30285441712E+03  0.11445347040E+04  0.11897106292E+04  0.46999998093E+01 0.  1.
</event>
<event>
 5   0  0.6596225E-03  0.8031663E+03  0.7818609E-02  0.9555445E-01
       -1   -1    0    0    0  501  0.00000000000E+00  0.00000000000E+00  0.25129299374E+03  0.25129299379E+03  0.50400001928E-02 0. -1.
        1   -1    0    0  501    0  0.00000000000E+00  0.00000000000E+00 -0.64175693637E+03  0.64175693639E+03  0.50400001928E-02 0.  1.
    10030    2    1    2    0    0  0.00000000000E+00  0.00000000000E+00 -0.39046394263E+03  0.89304993018E+03  0.80316628870E+03 0.  0.
        5    1    3    3  502    0  0.39938291278E+03 -0.27827962410E+02 -0.16067628193E+03  0.43141634657E+03  0.46999998093E+01 0. -1.
       -5    1    3    3    0  502 -0.39938291278E+03  0.27827962410E+02 -0.22978766070E+03  0.46163358361E+03  0.46999998093E+01 0.  1.
</event>
<event>
 5   0  0.1119792E-02  0.8073611E+03  0.7818609E-02  0.9549423E-01
       -2   -1    0    0    0  501  0.00000000000E+00  0.00000000000E+00  0.17372257667E+03  0.17372257669E+03  0.25500000920E-02 0. -1.
        2   -1    0    0  501    0  0.00000000000E+00  0.00000000000E+00 -0.93803575645E+03  0.93803575645E+03  0.25500000920E-02 0.  1.
    10030    2    1    2    0    0  0.00000000000E+00  0.00000000000E+00 -0.76431317977E+03  0.11117583331E+04  0.80736110542E+03 0.  0.
        4    1    3    3  502    0 -0.13454973407E+03  0.22942853818E+03 -0.80031808478E+03  0.84335741818E+03  0.12699999809E+01 0.  1.
       -4    1    3    3    0  502  0.13454973407E+03 -0.22942853818E+03  0.36004905007E+02  0.26840091496E+03  0.12699999809E+01 0. -1.
</event>
<event>
 5   0  0.6557679E-03  0.7967367E+03  0.7818609E-02  0.9564753E-01
       -1   -1    0    0    0  501  0.00000000000E+00  0.00000000000E+00  0.20353100267E+03  0.20353100273E+03  0.50400001928E-02 0. -1.
        1   -1    0    0  501    0  0.00000000000E+00  0.00000000000E+00 -0.77972064649E+03  0.77972064650E+03  0.50400001928E-02 0.  1.
    10030    2    1    2    0    0  0.00000000000E+00  0.00000000000E+00 -0.57618964382E+03  0.98325164923E+03  0.79673665667E+03 0.  0.
        1    1    3    3  502    0  0.15968525922E+03  0.30371797893E+03 -0.38351141742E+02  0.34527496700E+03  0.50400001928E-02 0. -1.
       -1    1    3    3    0  502 -0.15968525922E+03 -0.30371797893E+03 -0.53783850207E+03  0.63797668224E+03  0.50400001928E-02 0.  1.
</event>
<event>
 5   0  0.6600401E-03  0.8085209E+03  0.7818609E-02  0.9547765E-01
        1   -1    0    0  501    0  0.00000000000E+00  0.00000000000E+00  0.12576031461E+04  0.12576031461E+04  0.50400001928E-02 0. -1.
       -1   -1    0    0    0  501  0.00000000000E+00  0.00000000000E+00 -0.12995078720E+03  0.12995078730E+03  0.50400001928E-02 0.  1.
    10030    2    1    2    0    0  0.00000000000E+00  0.00000000000E+00  0.11276523589E+04  0.13875539334E+04  0.80852091844E+03 0.  0.
        2    1    3    3  502    0 -0.44283563947E+02 -0.72271203178E+02 -0.11453034220E+03  0.14248284155E+03  0.25500000920E-02 0.  1.
       -2    1    3    3    0  502  0.44283563947E+02  0.72271203178E+02  0.12421827011E+04  0.12450710918E+04  0.25500000920E-02 0. -1.
</event>
<event>
 5   0  0.6551489E-03  0.8097037E+03  0.7818609E-02  0.9546077E-01
       -1   -1    0    0    0  501  0.00000000000E+00  0.00000000000E+00  0.14565512658E+03  0.14565512666E+03  0.50400001928E-02 0.  1.
        1   -1    0    0  501    0  0.00000000000E+00  0.00000000000E+00 -0.11252951813E+04  0.11252951813E+04  0.50400001928E-02 0. -1.
    10030    2    1    2    0    0  0.00000000000E+00  0.00000000000E+00 -0.97964005469E+03  0.12709503079E+04  0.80970367944E+03 0.  0.
        4    1    3    3  502    0 -0.37481868757E+03 -0.15022013838E+03 -0.44410414250E+03  0.60023765361E+03  0.12699999809E+01 0.  1.
       -4    1    3    3    0  502  0.37481868757E+03  0.15022013838E+03 -0.53553591219E+03  0.67071265433E+03  0.12699999809E+01 0. -1.
</event>
<event>
 5   0  0.6551489E-03  0.7792820E+03  0.7818609E-02  0.9590499E-01
        1   -1    0    0  501    0  0.00000000000E+00  0.00000000000E+00  0.17099069979E+04  0.17099069979E+04  0.50400001928E-02 0.  1.
       -1   -1    0    0    0  501  0.00000000000E+00  0.00000000000E+00 -0.88788510205E+02  0.88788510348E+02  0.50400001928E-02 0. -1.
    10030    2    1    2    0    0  0.00000000000E+00  0.00000000000E+00  0.16211184877E+04  0.17986955082E+04  0.77928196455E+03 0.  0.
        4    1    3    3  502    0 -0.64126954953E+02  0.40468019398E+02  0.16927071178E+04  0.16944051837E+04  0.12699999809E+01 0.  1.
       -4    1    3    3    0  502  0.64126954953E+02 -0.40468019398E+02 -0.71588630086E+02  0.10429032459E+03  0.12699999809E+01 0. -1.
</event>
<event>
 5   0  0.6557679E-03  0.7952119E+03  0.7818609E-02  0.9566974E-01
       -1   -1    0    0    0  501  0.00000000000E+00  0.00000000000E+00  0.24815656650E+03  0.24815656656E+03  0.50400001928E-02 0. -1.
        1   -1    0    0  501    0  0.00000000000E+00  0.00000000000E+00 -0.63705949774E+03  0.63705949776E+03  0.50400001928E-02 0.  1.
    10030    2    1    2    0    0  0.00000000000E+00  0.00000000000E+00 -0.38890293123E+03  0.88521606431E+03  0.79521191553E+03 0.  0.
        1    1    3    3  502    0  0.27402355062E+02 -0.39665841242E+03 -0.19590817022E+03  0.44324800777E+03  0.50400001928E-02 0. -1.
       -1    1    3    3    0  502 -0.27402355062E+02  0.39665841242E+03 -0.19299476101E+03  0.44196805655E+03  0.50400001928E-02 0.  1.
</event>
<event>
 5   0  0.6596225E-03  0.7992498E+03  0.7818609E-02  0.9561104E-01
        1   -1    0    0  501    0  0.00000000000E+00  0.00000000000E+00  0.63362093965E+03  0.63362093967E+03  0.50400001928E-02 0. -1.
       -1   -1    0    0    0  501  0.00000000000E+00  0.00000000000E+00 -0.25204356376E+03  0.25204356381E+03  0.50400001928E-02 0.  1.
    10030    2    1    2    0    0  0.00000000000E+00  0.00000000000E+00  0.38157737589E+03  0.88566450348E+03  0.79924984762E+03 0.  0.
        5    1    3    3  502    0 -0.37373488848E+03 -0.13832206734E+03  0.22342142188E+03  0.45689165339E+03  0.46999998093E+01 0. -1.
       -5    1    3    3    0  502  0.37373488848E+03  0.13832206734E+03  0.15815595401E+03  0.42877285009E+03  0.46999998093E+01 0.  1.
</event>
<event>
 5   0  0.1119792E-02  0.7970538E+03  0.7818609E-02  0.9564291E-01
        2   -1    0    0  501    0  0.00000000000E+00  0.00000000000E+00  0.24143378609E+04  0.24143378609E+04  0.25500000920E-02 0. -1.
       -2   -1    0    0    0  501  0.00000000000E+00  0.00000000000E+00 -0.65783546059E+02  0.65783546108E+02  0.25500000920E-02 0.  1.
    10030    2    1    2    0    0  0.00000000000E+00  0.00000000000E+00  0.23485543149E+04  0.24801214070E+04  0.79705383993E+03 0.  0.
        4    1    3    3  502    0  0.26450973096E+03  0.83144641199E+02  0.20650007831E+04  0.20835326434E+04  0.12699999809E+01 0. -1.
       -4    1    3    3    0  502 -0.26450973096E+03 -0.83144641199E+02  0.28355353174E+03  0.39658876358E+03  0.12699999809E+01 0.  1.
</event>
<event>
 5   0  0.6596225E-03  0.8001467E+03  0.7818609E-02  0.9559805E-01
       -1   -1    0    0    0  501  0.00000000000E+00  0.00000000000E+00  0.20561691326E+03  0.20561691332E+03  0.50400001928E-02 0.  1.
        1   -1    0    0  501    0  0.00000000000E+00  0.00000000000E+00 -0.77843155823E+03  0.77843155825E+03  0.50400001928E-02 0. -1.
    10030    2    1    2    0    0  0.00000000000E+00  0.00000000000E+00 -0.57281464497E+03  0.98404847157E+03  0.80014672211E+03 0.  0.
        5    1    3    3  502    0  0.18788004600E+03 -0.24373607219E+03 -0.60075089503E+03  0.67500363884E+03  0.46999998093E+01 0. -1.
       -5    1    3    3    0  502 -0.18788004600E+03  0.24373607219E+03  0.27936250060E+02  0.30904483273E+03  0.46999998093E+01 0.  1.
</event>
<event>
 5   0  0.1119792E-02  0.7976339E+03  0.7818609E-02  0.9563448E-01
       -2   -1    0    0    0  501  0.00000000000E+00  0.00000000000E+00  0.12497997840E+03  0.12497997843E+03  0.25500000920E-02 0. -1.
        2   -1    0    0  501    0  0.00000000000E+00  0.00000000000E+00 -0.12726435562E+04  0.12726435562E+04  0.25500000920E-02 0.  1.
    10030    2    1    2    0    0  0.00000000000E+00  0.00000000000E+00 -0.11476635778E+04  0.13976235346E+04  0.79763391149E+03 0.  0.
        4    1    3    3  502    0 -0.31451132159E+03 -0.24279683906E+03 -0.51349677829E+03  0.64926745697E+03  0.12699999809E+01 0. -1.
       -4    1    3    3    0  502  0.31451132159E+03  0.24279683906E+03 -0.63416679951E+03  0.74835607766E+03  0.12699999809E+01 0.  1.
</event>
<event>
 5   0  0.6557679E-03  0.8008177E+03  0.7818609E-02  0.9558834E-01
       -1   -1    0    0    0  501  0.00000000000E+00  0.00000000000E+00  0.25607559310E+03  0.25607559315E+03  0.50400001928E-02 0. -1.
        1   -1    0    0  501    0  0.00000000000E+00  0.00000000000E+00 -0.62609343860E+03  0.62609343862E+03  0.50400001928E-02 0.  1.
    10030    2    1    2    0    0  0.00000000000E+00  0.00000000000E+00 -0.37001784550E+03  0.88216903178E+03  0.80081770375E+03 0.  0.
        1    1    3    3  502    0  0.49547047638E+02  0.38570452326E+02  0.25061850523E+03  0.25836451945E+03  0.50400001928E-02 0. -1.
       -1    1    3    3    0  502 -0.49547047638E+02 -0.38570452326E+02 -0.62063635073E+03  0.62380451233E+03  0.50400001928E-02 0.  1.
</event>
<event>
 5   0  0.4385875E-03  0.7968814E+03  0.7818609E-02  0.9564542E-01
        3   -1    0    0  501    0  0.00000000000E+00  0.00000000000E+00  0.61626535874E+03  0.61626536702E+03  0.10100000352E+00 0. -1.
       -3   -1    0    0    0  501  0.00000000000E+00  0.00000000000E+00 -0.25760814050E+03  0.25760816030E+03  0.10100000352E+00 0.  1.
    10030    2    1    2    0    0  0.00000000000E+00  0.00000000000E+00  0.35865721825E+03  0.87387352732E+03  0.79688138487E+03 0.  0.
        1    1    3    3  502    0  0.33088548287E+03 -0.52702748716E+01 -0.64016584769E+02  0.33706245967E+03  0.50400001928E-02 0.  1.
       -1    1    3    3    0  502 -0.33088548287E+03  0.52702748716E+01  0.42267380301E+03  0.53681106765E+03  0.50400001928E-02 0. -1.
</event>
<event>
 5   0  0.1106332E-02  0.8064791E+03  0.7818609E-02  0.9550686E-01
       -2   -1    0    0    0  501  0.00000000000E+00  0.00000000000E+00  0.53117116371E+03  0.53117116372E+03  0.25500000920E-02 0. -1.
        2   -1    0    0  501    0  0.00000000000E+00  0.00000000000E+00 -0.30612001124E+03  0.30612001126E+03  0.25500000920E-02 0.  1.
    10030    2    1    2    0    0  0.00000000000E+00  0.00000000000E+00  0.22505115246E+03  0.83729117497E+03  0.80647907007E+03 0.  0.
        1    1    3    3  502    0 -0.12859006868E+03  0.28842237168E+03  0.37286329644E+03  0.48862041311E+03  0.50400001928E-02 0. -1.
       -1    1    3    3    0  502  0.12859006868E+03 -0.28842237168E+03 -0.14781214398E+03  0.34867076186E+03  0.50400001928E-02 0.  1.
</event>
<event>
 5   0  0.6517392E-03  0.8016812E+03  0.7818609E-02  0.9557587E-01
        1   -1    0    0  501    0  0.00000000000E+00  0.00000000000E+00  0.11908231254E+04  0.11908231254E+04  0.50400001928E-02 0. -1.
       -1   -1    0    0    0  501  0.00000000000E+00  0.00000000000E+00 -0.13492615961E+03  0.13492615970E+03  0.50400001928E-02 0.  1.
    10030    2    1    2    0    0  0.00000000000E+00  0.00000000000E+00  0.10558969658E+04  0.13257492851E+04  0.80168121135E+03 0.  0.
        3    1    3    3  502    0 -0.19996425661E+03  0.15882876703E+03  0.10388914882E+04  0.10698167205E+04  0.10100000352E+00 0. -1.
       -3    1    3    3    0  502  0.19996425661E+03 -0.15882876703E+03  0.17005477652E+02  0.25593256461E+03  0.10100000352E+00 0.  1.
</event>
<event>
 5   0  0.1121480E-02  0.8025056E+03  0.7818609E-02  0.9556397E-01
        2   -1    0    0  501    0  0.00000000000E+00  0.00000000000E+00  0.18900534944E+04  0.18900534945E+04  0.25500000920E-02 0.  1.
       -2   -1    0    0    0  501  0.00000000000E+00  0.00000000000E+00 -0.85184783890E+02  0.85184783928E+02  0.25500000920E-02 0. -1.
    10030    2    1    2    0    0  0.00000000000E+00  0.00000000000E+00  0.18048687106E+04  0.19752382784E+04  0.80250557258E+03 0.  0.
        2    1    3    3  502    0  0.16697140088E+03 -0.72309348587E+02  0.17826709533E+04  0.17919329837E+04  0.25500000920E-02 0.  1.
       -2    1    3    3    0  502 -0.16697140088E+03  0.72309348587E+02  0.22197757289E+02  0.18330529463E+03  0.25500000920E-02 0. -1.
</event>
<event>
 5   0  0.6557679E-03  0.7986707E+03  0.7818609E-02  0.9561943E-01
       -1   -1    0    0    0  501  0.00000000000E+00  0.00000000000E+00  0.99002057014E+02  0.99002057142E+02  0.50400001928E-02 0. -1.
        1   -1    0    0  501    0  0.00000000000E+00  0.00000000000E+00 -0.16107618027E+04  0.16107618028E+04  0.50400001928E-02 0.  1.
    10030    2    1    2    0    0  0.00000000000E+00  0.00000000000E+00 -0.15117597457E+04  0.17097638599E+04  0.79867072551E+03 0.  0.
        1    1    3    3  502    0 -0.12530079130E+03  0.11187676403E+03  0.19690814995E+02  0.16912843300E+03  0.50400001928E-02 0. -1.
       -1    1    3    3    0  502  0.12530079130E+03 -0.11187676403E+03 -0.15314505607E+04  0.15406354269E+04  0.50400001928E-02 0.  1.
</event>
<event>
 5   0  0.6517392E-03  0.7941228E+03  0.7818609E-02  0.9568563E-01
       -1   -1    0    0    0  501  0.00000000000E+00  0.00000000000E+00  0.55135093701E+03  0.55135093703E+03  0.50400001928E-02 0. -1.
        1   -1    0    0  501    0  0.00000000000E+00  0.00000000000E+00 -0.28594810262E+03  0.28594810266E+03  0.50400001928E-02 0.  1.
    10030    2    1    2    0    0  0.00000000000E+00  0.00000000000E+00  0.26540283439E+03  0.83729903970E+03  0.79412279741E+03 0.  0.
        3    1    3    3  502    0 -0.18054608811E+03 -0.15260414833E+03  0.46906490794E+03  0.52526832579E+03  0.10100000352E+00 0. -1.
       -3    1    3    3    0  502  0.18054608811E+03  0.15260414833E+03 -0.20366207355E+03  0.31203071391E+03  0.10100000352E+00 0.  1.
</event>
<event>
 5   0  0.6557679E-03  0.7965413E+03  0.7818609E-02  0.9565037E-01
       -1   -1    0    0    0  501  0.00000000000E+00  0.00000000000E+00  0.19007011602E+03  0.19007011609E+03  0.50400001928E-02 0. -1.
        1   -1    0    0  501    0  0.00000000000E+00  0.00000000000E+00 -0.83453147394E+03  0.83453147396E+03  0.50400001928E-02 0.  1.
    10030    2    1    2    0    0  0.00000000000E+00  0.00000000000E+00 -0.64446135792E+03  0.10246015900E+04  0.79654125848E+03 0.  0.
        1    1    3    3  502    0 -0.15025743887E+03  0.40869731518E+01 -0.79664403117E+03  0.81070075473E+03  0.50400001928E-02 0.  1.
       -1    1    3    3    0  502  0.15025743887E+03 -0.40869731518E+01  0.15218267325E+03  0.21390083531E+03  0.50400001928E-02 0. -1.
</event>
<event>
 5   0  0.1154714E-02  0.8034967E+03  0.7818609E-02  0.9554970E-01
        2   -1    0    0  501    0  0.00000000000E+00  0.00000000000E+00  0.47031528775E+03  0.47031528775E+03  0.25500000920E-02 0. -1.
       -2   -1    0    0    0  501  0.00000000000E+00  0.00000000000E+00 -0.34317774816E+03  0.34317774817E+03  0.25500000920E-02 0.  1.
    10030    2    1    2    0    0  0.00000000000E+00  0.00000000000E+00  0.12713753958E+03  0.81349303593E+03  0.80349671159E+03 0.  0.
        5    1    3    3  502    0 -0.19191919455E+03  0.10589562800E+03  0.40440639138E+03  0.46001465265E+03  0.46999998093E+01 0. -1.
       -5    1    3    3    0  502  0.19191919455E+03 -0.10589562800E+03 -0.27726885180E+03  0.35347838328E+03  0.46999998093E+01 0.  1.
</event>
<event>
 5   0  0.1092868E-02  0.7956158E+03  0.7818609E-02  0.9566385E-01
        2   -1    0    0  501    0  0.00000000000E+00  0.00000000000E+00  0.81690674067E+03  0.81690674068E+03  0.25500000920E-02 0. -1.
       -2   -1    0    0    0  501  0.00000000000E+00  0.00000000000E+00 -0.19371993952E+03  0.19371993953E+03  0.25500000920E-02 0.  1.
    10030    2    1    2    0    0  0.00000000000E+00  0.00000000000E+00  0.62318680116E+03  0.10106266802E+04  0.79561579774E+03 0.  0.
        3    1    3    3  502    0  0.68379621360E+02 -0.32826762935E+03  0.58348422325E+03  0.67297047341E+03  0.10100000352E+00 0. -1.
       -3    1    3    3    0  502 -0.68379621360E+02  0.32826762935E+03  0.39702577911E+02  0.33765620680E+03  0.10100000352E+00 0.  1.
</event>
<event>
 5   0  0.1106332E-02  0.7980509E+03  0.7818609E-02  0.9562843E-01
       -2   -1    0    0    0  501  0.00000000000E+00  0.00000000000E+00  0.13937256586E+04  0.13937256586E+04  0.25500000920E-02 0.  1.
        2   -1    0    0  501    0  0.00000000000E+00  0.00000000000E+00 -0.11424150453E+03  0.11424150455E+03  0.25500000920E-02 0. -1.
    10030    2    1    2    0    0  0.00000000000E+00  0.00000000000E+00  0.12794841540E+04  0.15079671631E+04  0.79805091605E+03 0.  0.
        1    1    3    3  502    0  0.12966813085E+03  0.26566412464E+03  0.11461662335E+04  0.11836757521E+04  0.50400001928E-02 0.  1.
       -1    1    3    3    0  502 -0.12966813085E+03 -0.26566412464E+03  0.13331792050E+03  0.32429141098E+03  0.50400001928E-02 0. -1.
</event>
<event>
 5   0  0.6600401E-03  0.7958307E+03  0.7818609E-02  0.9566072E-01
       -1   -1    0    0    0  501  0.00000000000E+00  0.00000000000E+00  0.54160446365E+03  0.54160446368E+03  0.50400001928E-02 0. -1.
        1   -1    0    0  501    0  0.00000000000E+00  0.00000000000E+00 -0.29234737066E+03  0.29234737071E+03  0.50400001928E-02 0.  1.
    10030    2    1    2    0    0  0.00000000000E+00  0.00000000000E+00  0.24925709299E+03  0.83395183438E+03  0.79583073807E+03 0.  0.
        2    1    3    3  502    0  0.50718540931E+02  0.37771428826E+03  0.24454884261E+03  0.45281849606E+03  0.25500000920E-02 0.  1.
       -2    1    3    3    0  502 -0.50718540931E+02 -0.37771428826E+03  0.47082503773E+01  0.38113333832E+03  0.25500000920E-02 0. -1.
</event>
<event>
 5   0  0.6557679E-03  0.7955582E+03  0.7818609E-02  0.9566469E-01
       -1   -1    0    0    0  501  0.00000000000E+00  0.00000000000E+00  0.19277843244E+03  0.19277843251E+03  0.50400001928E-02 0.  1.
        1   -1    0    0  501    0  0.00000000000E+00  0.00000000000E+00 -0.82077764659E+03  0.82077764660E+03  0.50400001928E-02 0. -1.
    10030    2    1    2    0    0  0.00000000000E+00  0.00000000000E+00 -0.62799921414E+03  0.10135560791E+04  0.79555823957E+03 0.  0.
        1    1    3    3  502    0  0.26126933943E+03 -0.13353769083E+03  0.28174034330E+02  0.29476729607E+03  0.50400001928E-02 0.  1.
       -1    1    3    3    0  502 -0.26126933943E+03  0.13353769083E+03 -0.65617324847E+03  0.71878878305E+03  0.50400001928E-02 0. -1.
</event>
<event>
 5   0  0.1154714E-02  0.8056334E+03  0.7818609E-02  0.9551899E-01
        2   -1    0    0  501    0  0.00000000000E+00  0.00000000000E+00  0.10937884817E+04  0.10937884817E+04  0.25500000920E-02 0.  1.
       -2   -1    0    0    0  501  0.00000000000E+00  0.00000000000E+00 -0.14834797786E+03  0.14834797788E+03  0.25500000920E-02 0. -1.
    10030    2    1    2    0    0  0.00000000000E+00  0.00000000000E+00  0.94544050383E+03  0.12421364596E+04  0.80563343893E+03 0.  0.
        5    1    3    3  502    0 -0.12455664437E+03  0.27471842914E+03  0.61155265321E+02  0.30780940441E+03  0.46999998093E+01 0. -1.
       -5    1    3    3    0  502  0.12455664437E+03 -0.27471842914E+03  0.88428523851E+03  0.93432705517E+03  0.46999998093E+01 0.  1.
</event>
<event>
 5   0  0.6517392E-03  0.7971426E+03  0.7818609E-02  0.9564162E-01
       -1   -1    0    0    0  501  0.00000000000E+00  0.00000000000E+00  0.94262268955E+03  0.94262268957E+03  0.50400001928E-02 0.  1.
        1   -1    0    0  501    0  0.00000000000E+00  0.00000000000E+00 -0.16852881096E+03  0.16852881104E+03  0.50400001928E-02 0. -1.
    10030    2    1    2    0    0  0.00000000000E+00  0.00000000000E+00  0.77409387859E+03  0.11111515006E+04  0.79714259980E+03 0.  0.
        3    1    3    3  502    0 -0.11542302691E+03  0.37877561686E+03  0.45039937206E+03  0.59971080333E+03  0.10100000352E+00 0.  1.
       -3    1    3    3    0  502  0.11542302691E+03 -0.37877561686E+03  0.32369450653E+03  0.51144069728E+03  0.10100000352E+00 0. -1.
</event>
<event>
 5   0  0.6551489E-03  0.7875469E+03  0.7818609E-02  0.9578219E-01
        1   -1    0    0  501    0  0.00000000000E+00  0.00000000000E+00  0.10021631280E+04  0.10021631280E+04  0.50400001928E-02 0.  1.
       -1   -1    0    0    0  501  0.00000000000E+00  0.00000000000E+00 -0.15472284658E+03  0.15472284666E+03  0.50400001928E-02 0. -1.
    10030    2    1    2    0    0  0.00000000000E+00  0.00000000000E+00  0.84744028137E+03  0.11568859746E+04  0.78754690513E+03 0.  0.
        4    1    3    3  502    0  0.13236564819E+03  0.36819381405E+03  0.35854387030E+03  0.53070016898E+03  0.12699999809E+01 0. -1.
       -4    1    3    3    0  502 -0.13236564819E+03 -0.36819381405E+03  0.48889641108E+03  0.62618580564E+03  0.12699999809E+01 0.  1.
</event>
<event>
 5   0  0.1154714E-02  0.8555911E+03  0.7818609E-02  0.9482863E-01
        2   -1    0    0  501    0  0.00000000000E+00  0.00000000000E+00  0.91846200910E+03  0.91846200910E+03  0.25500000920E-02 0.  1.
       -2   -1    0    0    0  501  0.00000000000E+00  0.00000000000E+00 -0.19925597954E+03  0.19925597955E+03  0.25500000920E-02 0. -1.
    10030    2    1    2    0    0  0.00000000000E+00  0.00000000000E+00  0.71920602956E+03  0.11177179887E+04  0.85559113437E+03 0.  0.
        5    1    3    3  502    0  0.89479600507E+01  0.33753527755E+03  0.16505499154E+02  0.33808970863E+03  0.46999998093E+01 0. -1.
       -5    1    3    3    0  502 -0.89479600507E+01 -0.33753527755E+03  0.70270053041E+03  0.77962828003E+03  0.46999998093E+01 0.  1.
</event>
<event>
 5   0  0.6596225E-03  0.7783646E+03  0.7818609E-02  0.9591872E-01
        1   -1    0    0  501    0  0.00000000000E+00  0.00000000000E+00  0.50644892892E+03  0.50644892895E+03  0.50400001928E-02 0. -1.
       -1   -1    0    0    0  501  0.00000000000E+00  0.00000000000E+00 -0.29906837488E+03  0.29906837492E+03  0.50400001928E-02 0.  1.
    10030    2    1    2    0    0  0.00000000000E+00  0.00000000000E+00  0.20738055404E+03  0.80551730387E+03  0.77836458850E+03 0.  0.
        5    1    3    3  502    0 -0.45813247854E+02 -0.51689973533E+02 -0.29264482785E+03  0.30072211809E+03  0.46999998093E+01 0.  1.
       -5    1    3    3    0  502  0.45813247854E+02  0.51689973533E+02  0.50002538190E+03  0.50479518578E+03  0.46999998093E+01 0. -1.
</event>
<event>
 5   0  0.1154714E-02  0.7968913E+03  0.7818609E-02  0.9564528E-01
        2   -1    0    0  501    0  0.00000000000E+00  0.00000000000E+00  0.18419001689E+04  0.18419001689E+04  0.25500000920E-02 0.  1.
       -2   -1    0    0    0  501  0.00000000000E+00  0.00000000000E+00 -0.86193015801E+02  0.86193015838E+02  0.25500000920E-02 0. -1.
    10030    2    1    2    0    0  0.00000000000E+00  0.00000000000E+00  0.17557071531E+04  0.19280931848E+04  0.79689128594E+03 0.  0.
        5    1    3    3  502    0 -0.23208281940E+02 -0.32701955829E+03  0.14256296970E+04  0.14628474079E+04  0.46999998093E+01 0.  1.
       -5    1    3    3    0  502  0.23208281940E+02  0.32701955829E+03  0.33007745616E+03  0.46524577689E+03  0.46999998093E+01 0. -1.
</event>
<event>
 5   0  0.1119792E-02  0.8042031E+03  0.7818609E-02  0.9553953E-01
       -2   -1    0    0    0  501  0.00000000000E+00  0.00000000000E+00  0.24323876533E+03  0.24323876534E+03  0.25500000920E-02 0.  1.
        2   -1    0    0  501    0  0.00000000000E+00  0.00000000000E+00 -0.66471990053E+03  0.66471990053E+03  0.25500000920E-02 0. -1.
    10030    2    1    2    0    0  0.00000000000E+00  0.00000000000E+00 -0.42148113520E+03  0.90795866587E+03  0.80420307858E+03 0.  0.
        4    1    3    3  502    0 -0.34086987846E+03  0.29918294355E+02 -0.44916540622E+03  0.56465790832E+03  0.12699999809E+01 0. -1.
       -4    1    3    3    0  502  0.34086987846E+03 -0.29918294355E+02  0.27684271021E+02  0.34330075756E+03  0.12699999809E+01 0.  1.
</event>
<event>
 5   0  0.1106332E-02  0.7974495E+03  0.7818609E-02  0.9563716E-01
        2   -1    0    0  501    0  0.00000000000E+00  0.00000000000E+00  0.10293477121E+04  0.10293477121E+04  0.25500000920E-02 0.  1.
       -2   -1    0    0    0  501  0.00000000000E+00  0.00000000000E+00 -0.15444871264E+03  0.15444871266E+03  0.25500000920E-02 0. -1.
    10030    2    1    2    0    0  0.00000000000E+00  0.00000000000E+00  0.87489899947E+03  0.11837964248E+04  0.79744950688E+03 0.  0.
        1    1    3    3  502    0  0.80751197470E+02 -0.38877352956E+03  0.38360127650E+03  0.55210103472E+03  0.50400001928E-02 0.  1.
       -1    1    3    3    0  502 -0.80751197470E+02  0.38877352956E+03  0.49129772297E+03  0.63169539004E+03  0.50400001928E-02 0. -1.
</event>
<event>
 5   0  0.1106332E-02  0.7560820E+03  0.7818609E-02  0.9625857E-01
        2   -1    0    0  501    0  0.00000000000E+00  0.00000000000E+00  0.11319118749E+04  0.11319118749E+04  0.25500000920E-02 0.  1.
       -2   -1    0    0    0  501  0.00000000000E+00  0.00000000000E+00 -0.12625984353E+03  0.12625984355E+03  0.25500000920E-02 0. -1.
    10030    2    1    2    0    0  0.00000000000E+00  0.00000000000E+00  0.10056520314E+04  0.12581717185E+04  0.75608204908E+03 0.  0.
        1    1    3    3  502    0 -0.33324591531E+03 -0.13602816593E+03  0.69515736130E+03  0.78281559706E+03  0.50400001928E-02 0.  1.
       -1    1    3    3    0  502  0.33324591531E+03  0.13602816593E+03  0.31049467011E+03  0.47535612144E+03  0.50400001928E-02 0. -1.
</event>
<event>
 5   0  0.6600401E-03  0.7902313E+03  0.7818609E-02  0.9574266E-01
       -1   -1    0    0    0  501  0.00000000000E+00  0.00000000000E+00  0.16984686274E+03  0.16984686281E+03  0.50400001928E-02 0. -1.
        1   -1    0    0  501    0  0.00000000000E+00  0.00000000000E+00 -0.91915959431E+03  0.91915959433E+03  0.50400001928E-02 0.  1.
    10030    2    1    2    0    0  0.00000000000E+00  0.00000000000E+00 -0.74931273158E+03  0.10890064571E+04  0.79023129145E+03 0.  0.
        2    1    3    3  502    0 -0.23961116428E+03  0.29431356420E+03 -0.52613544121E+03  0.64873144414E+03  0.25500000920E-02 0.  1.
       -2    1    3    3    0  502  0.23961116428E+03 -0.29431356420E+03 -0.22317729037E+03  0.44027501299E+03  0.25500000920E-02 0. -1.
</event>
<event>
 5   0  0.1106332E-02  0.7985735E+03  0.7818609E-02  0.9562084E-01
        2   -1    0    0  501    0  0.00000000000E+00  0.00000000000E+00  0.12420246730E+04  0.12420246730E+04  0.25500000920E-02 0. -1.
       -2   -1    0    0    0  501  0.00000000000E+00  0.00000000000E+00 -0.12836290145E+03  0.12836290147E+03  0.25500000920E-02 0.  1.
    10030    2    1    2    0    0  0.00000000000E+00  0.00000000000E+00  0.11136617716E+04  0.13703875745E+04  0.79857345491E+03 0.  0.
        1    1    3    3  502    0  0.68743290619E+02  0.36658151121E+03  0.31219824815E+03  0.48639016287E+03  0.50400001928E-02 0.  1.
       -1    1    3    3    0  502 -0.68743290619E+02 -0.36658151121E+03  0.80146352345E+03  0.88399741165E+03  0.50400001928E-02 0. -1.
</event>
<event>
 5   0  0.6596225E-03  0.8012601E+03  0.7818609E-02  0.9558195E-01
       -1   -1    0    0    0  501  0.00000000000E+00  0.00000000000E+00  0.57409796586E+03  0.57409796588E+03  0.50400001928E-02 0. -1.
        1   -1    0    0  501    0  0.00000000000E+00  0.00000000000E+00 -0.27957676613E+03  0.27957676617E+03  0.50400001928E-02 0.  1.
    10030    2    1    2    0    0  0.00000000000E+00  0.00000000000E+00  0.29452119973E+03  0.85367473206E+03  0.80126013944E+03 0.  0.
        5    1    3    3  502    0 -0.22714028111E+03  0.13007173569E+03 -0.17584489261E+03  0.31536467776E+03  0.46999998093E+01 0.  1.
       -5    1    3    3    0  502  0.22714028111E+03 -0.13007173569E+03  0.47036609234E+03  0.53831005429E+03  0.46999998093E+01 0. -1.
</event>
<event>
 5   0  0.6517392E-03  0.7999150E+03  0.7818609E-02  0.9560140E-01
       -1   -1    0    0    0  501  0.00000000000E+00  0.00000000000E+00  0.12276382198E+03  0.12276382208E+03  0.50400001928E-02 0. -1.
        1   -1    0    0  501    0  0.00000000000E+00  0.00000000000E+00 -0.13030386123E+04  0.13030386123E+04  0.50400001928E-02 0.  1.
    10030    2    1    2    0    0  0.00000000000E+00  0.00000000000E+00 -0.11802747903E+04  0.14258024344E+04  0.79991499625E+03 0.  0.
        3    1    3    3  502    0 -0.14403022496E+03 -0.12108317087E+03 -0.12192162313E+04  0.12336507078E+04  0.10100000352E+00 0.  1.
       -3    1    3    3    0  502  0.14403022496E+03  0.12108317087E+03  0.38941441056E+02  0.19215172652E+03  0.10100000352E+00 0. -1.
</event>
<event>
 5   0  0.1119792E-02  0.7958638E+03  0.7818609E-02  0.9566023E-01
        2   -1    0    0  501    0  0.00000000000E+00  0.00000000000E+00  0.65253204313E+03  0.65253204313E+03  0.25500000920E-02 0. -1.
       -2   -1    0    0    0  501  0.00000000000E+00  0.00000000000E+00 -0.24266976161E+03  0.24266976163E+03  0.25500000920E-02 0.  1.
    10030    2    1    2    0    0  0.00000000000E+00  0.00000000000E+00  0.40986228151E+03  0.89520180476E+03  0.79586379578E+03 0.  0.
        4    1    3    3  502    0 -0.29672350451E+02  0.62512029979E+02  0.64571047427E+03  0.64940883252E+03  0.12699999809E+01 0. -1.
       -4    1    3    3    0  502  0.29672350451E+02 -0.62512029979E+02 -0.23584819276E+03  0.24579297224E+03  0.12699999809E+01 0.  1.
</event>
<event>
 5   0  0.6551489E-03  0.8029673E+03  0.7818609E-02  0.9555732E-01
        1   -1    0    0  501    0  0.00000000000E+00  0.00000000000E+00  0.24124295486E+03  0.24124295491E+03  0.50400001928E-02 0.  1.
       -1   -1    0    0    0  501  0.00000000000E+00  0.00000000000E+00 -0.66816091741E+03  0.66816091743E+03  0.50400001928E-02 0. -1.
    10030    2    1    2    0    0  0.00000000000E+00  0.00000000000E+00 -0.42691796255E+03  0.90940387234E+03  0.80296728220E+03 0.  0.
        4    1    3    3  502    0  0.29396487063E+03  0.17490715223E+03  0.24592043750E+02  0.34294932363E+03  0.12699999809E+01 0.  1.
       -4    1    3    3    0  502 -0.29396487063E+03 -0.17490715223E+03 -0.45151000631E+03  0.56645454871E+03  0.12699999809E+01 0. -1.
</event>
<event>
 5   0  0.1092868E-02  0.8017754E+03  0.7818609E-02  0.9557451E-01
        2   -1    0    0  501    0  0.00000000000E+00  0.00000000000E+00  0.22427710944E+03  0.22427710945E+03  0.25500000920E-02 0.  1.
       -2   -1    0    0    0  501  0.00000000000E+00  0.00000000000E+00 -0.71657304873E+03  0.71657304873E+03  0.25500000920E-02 0. -1.
    10030    2    1    2    0    0  0.00000000000E+00  0.00000000000E+00 -0.49229593929E+03  0.94085015818E+03  0.80177536025E+03 0.  0.
        3    1    3    3  502    0  0.15796590425E+03  0.20497114195E+03  0.11313837825E+03  0.28242998915E+03  0.10100000352E+00 0.  1.
       -3    1    3    3    0  502 -0.15796590425E+03 -0.20497114195E+03 -0.60543431754E+03  0.65842016903E+03  0.10100000352E+00 0. -1.
</event>
<event>
 5   0  0.1092868E-02  0.7987702E+03  0.7818609E-02  0.9561799E-01
       -2   -1    0    0    0  501  0.00000000000E+00  0.00000000000E+00  0.96053468067E+02  0.96053468101E+02  0.25500000920E-02 0. -1.
        2   -1    0    0  501    0  0.00000000000E+00  0.00000000000E+00 -0.16606216969E+04  0.16606216969E+04  0.25500000920E-02 0.  1.
    10030    2    1    2    0    0  0.00000000000E+00  0.00000000000E+00 -0.15645682289E+04  0.17566751650E+04  0.79877023773E+03 0.  0.
        3    1    3    3  502    0 -0.59840731557E+02 -0.37936331721E+03 -0.10233077277E+04  0.10930032733E+04  0.10100000352E+00 0.  1.
       -3    1    3    3    0  502  0.59840731557E+02  0.37936331721E+03 -0.54126050116E+03  0.66367189176E+03  0.10100000352E+00 0. -1.
</event>
<event>
 5   0  0.1092868E-02  0.8015453E+03  0.7818609E-02  0.9557783E-01
        2   -1    0    0  501    0  0.00000000000E+00  0.00000000000E+00  0.22250331928E+04  0.22250331928E+04  0.25500000920E-02 0.  1.
       -2   -1    0    0    0  501  0.00000000000E+00  0.00000000000E+00 -0.72187118164E+02  0.72187118209E+02  0.25500000920E-02 0. -1.
    10030    2    1    2    0    0  0.00000000000E+00  0.00000000000E+00  0.21528460746E+04  0.22972203110E+04  0.80154534260E+03 0.  0.
        3    1    3    3  502    0  0.18754469666E+03 -0.27397968921E+03  0.43313236113E+03  0.54574860128E+03  0.10100000352E+00 0. -1.
       -3    1    3    3    0  502 -0.18754469666E+03  0.27397968921E+03  0.17197137135E+04  0.17514717097E+04  0.10100000352E+00 0.  1.
</event>
<event>
 5   0  0.6600401E-03  0.7985483E+03  0.7818609E-02  0.9562121E-01
       -1   -1    0    0    0  501  0.00000000000E+00  0.00000000000E+00  0.56324640586E+03  0.56324640588E+03  0.50400001928E-02 0. -1.
        1   -1    0    0  501    0  0.00000000000E+00  0.00000000000E+00 -0.28303749830E+03  0.28303749834E+03  0.50400001928E-02 0.  1.
    10030    2    1    2    0    0  0.00000000000E+00  0.00000000000E+00  0.28020890756E+03  0.84628390423E+03  0.79854831706E+03 0.  0.
        2    1    3    3  502    0  0.36154837795E+03  0.54522600313E+02  0.31009861962E+03  0.47942788555E+03  0.25500000920E-02 0. -1.
       -2    1    3    3    0  502 -0.36154837795E+03 -0.54522600313E+02 -0.29889712059E+02  0.36685601868E+03  0.25500000920E-02 0.  1.
</event>
<event>
 5   0  0.1154714E-02  0.8001704E+03  0.7818609E-02  0.9559770E-01
        2   -1    0    0  501    0  0.00000000000E+00  0.00000000000E+00  0.12220404934E+04  0.12220404934E+04  0.25500000920E-02 0. -1.
       -2   -1    0    0    0  501  0.00000000000E+00  0.00000000000E+00 -0.13098434591E+03  0.13098434594E+03  0.25500000920E-02 0.  1.
    10030    2    1    2    0    0  0.00000000000E+00  0.00000000000E+00  0.10910561475E+04  0.13530248394E+04  0.80017041868E+03 0.  0.
        5    1    3    3  502    0  0.36368705268E+02 -0.75534331690E+02 -0.11591807337E+03  0.14313353108E+03  0.46999998093E+01 0.  1.
       -5    1    3    3    0  502 -0.36368705268E+02  0.75534331690E+02  0.12069742209E+04  0.12098913083E+04  0.46999998093E+01 0. -1.
</event>
<event>
 5   0  0.1154714E-02  0.8108059E+03  0.7818609E-02  0.9544506E-01
       -2   -1    0    0    0  501  0.00000000000E+00  0.00000000000E+00  0.13524260438E+03  0.13524260440E+03  0.25500000920E-02 0.  1.
        2   -1    0    0  501    0  0.00000000000E+00  0.00000000000E+00 -0.12152351666E+04  0.12152351666E+04  0.25500000920E-02 0. -1.
    10030    2    1    2    0    0  0.00000000000E+00  0.00000000000E+00 -0.10799925622E+04  0.13504777710E+04  0.81080594196E+03 0.  0.
        5    1    3    3  502    0 -0.21043016140E+03  0.82138921091E+02 -0.11006425902E+04  0.11235941690E+04  0.46999998093E+01 0. -1.
       -5    1    3    3    0  502  0.21043016140E+03 -0.82138921091E+02  0.20650028047E+02  0.22688360197E+03  0.46999998093E+01 0.  1.
</event>
<event>
 5   0  0.1119792E-02  0.8030011E+03  0.7818609E-02  0.9555683E-01
       -2   -1    0    0    0  501  0.00000000000E+00  0.00000000000E+00  0.18138217403E+03  0.18138217405E+03  0.25500000920E-02 0.  1.
        2   -1    0    0  501    0  0.00000000000E+00  0.00000000000E+00 -0.88874611359E+03  0.88874611360E+03  0.25500000920E-02 0. -1.
    10030    2    1    2    0    0  0.00000000000E+00  0.00000000000E+00 -0.70736393956E+03  0.10701282876E+04  0.80300112642E+03 0.  0.
        4    1    3    3  502    0  0.21006411520E+03  0.23517476543E+03 -0.22476197763E+02  0.31613429924E+03  0.12699999809E+01 0.  1.
       -4    1    3    3    0  502 -0.21006411520E+03 -0.23517476543E+03 -0.68488774180E+03  0.75399398841E+03  0.12699999809E+01 0. -1.
</event>
<event>
 5   0  0.1119792E-02  0.7989905E+03  0.7818609E-02  0.9561479E-01
        2   -1    0    0  501    0  0.00000000000E+00  0.00000000000E+00  0.58777648151E+03  0.58777648151E+03  0.25500000920E-02 0.  1.
       -2   -1    0    0    0  501  0.00000000000E+00  0.00000000000E+00 -0.27152577092E+03  0.27152577093E+03  0.25500000920E-02 0. -1.
    10030    2    1    2    0    0  0.00000000000E+00  0.00000000000E+00  0.31625071059E+03  0.85930225244E+03  0.79899051878E+03 0.  0.
        4    1    3    3  502    0 -0.33704262986E+03 -0.18676211154E+03  0.27152160412E+03  0.47138457236E+03  0.12699999809E+01 0.  1.
       -4    1    3    3    0  502  0.33704262986E+03  0.18676211154E+03  0.44729106472E+02  0.38791768008E+03  0.12699999809E+01 0. -1.
</event>
<event>
 5   0  0.6600401E-03  0.8019399E+03  0.7818609E-02  0.9557213E-01
       -1   -1    0    0    0  501  0.00000000000E+00  0.00000000000E+00  0.45363029715E+03  0.45363029717E+03  0.50400001928E-02 0.  1.
        1   -1    0    0  501    0  0.00000000000E+00  0.00000000000E+00 -0.35442279359E+03  0.35442279363E+03  0.50400001928E-02 0. -1.
    10030    2    1    2    0    0  0.00000000000E+00  0.00000000000E+00  0.99207503552E+02  0.80805309080E+03  0.80193994089E+03 0.  0.
        2    1    3    3  502    0 -0.33642341069E+02  0.28782605362E+03 -0.22963922610E+03  0.36974290855E+03  0.25500000920E-02 0. -1.
       -2    1    3    3    0  502  0.33642341069E+02 -0.28782605362E+03  0.32884672966E+03  0.43831018225E+03  0.25500000920E-02 0.  1.
</event>
<event>
 5   0  0.1092868E-02  0.8021174E+03  0.7818609E-02  0.9556957E-01
        2   -1    0    0  501    0  0.00000000000E+00  0.00000000000E+00  0.23182828153E+03  0.23182828155E+03  0.25500000920E-02 0.  1.
       -2   -1    0    0    0  501  0.00000000000E+00  0.00000000000E+00 -0.69382430327E+03  0.69382430328E+03  0.25500000920E-02 0. -1.
    10030    2    1    2    0    0  0.00000000000E+00  0.00000000000E+00 -0.46199602174E+03  0.92565258483E+03  0.80211743759E+03 0.  0.
        3    1    3    3  502    0 -0.10206818071E+02 -0.27327013862E+03  0.10755699967E+03  0.29385245647E+03  0.10100000352E+00 0.  1.
       -3    1    3    3    0  502  0.10206818071E+02  0.27327013862E+03 -0.56955302141E+03  0.63180012836E+03  0.10100000352E+00 0. -1.
</event>
<event>
 5   0  0.6551489E-03  0.8024256E+03  0.7818609E-02  0.9556513E-01
        1   -1    0    0  501    0  0.00000000000E+00  0.00000000000E+00  0.64229185620E+03  0.64229185622E+03  0.50400001928E-02 0. -1.
       -1   -1    0    0    0  501  0.00000000000E+00  0.00000000000E+00 -0.25062083760E+03  0.25062083765E+03  0.50400001928E-02 0.  1.
    10030    2    1    2    0    0  0.00000000000E+00  0.00000000000E+00  0.39167101860E+03  0.89291269387E+03  0.80242563024E+03 0.  0.
        4    1    3    3  502    0 -0.30207293522E+02  0.35466646372E+03  0.40183066425E+03  0.53681493711E+03  0.12699999809E+01 0. -1.
       -4    1    3    3    0  502  0.30207293522E+02 -0.35466646372E+03 -0.10159645649E+02  0.35609775676E+03  0.12699999809E+01 0.  1.
</event>
<event>
 5   0  0.1106332E-02  0.7988023E+03  0.7818609E-02  0.9561752E-01
       -2   -1    0    0    0  501  0.00000000000E+00  0.00000000000E+00  0.22065916800E+03  0.22065916802E+03  0.25500000920E-02 0.  1.
        2   -1    0    0  501    0  0.00000000000E+00  0.00000000000E+00 -0.72293067941E+03  0.72293067941E+03  0.25500000920E-02 0. -1.
    10030    2    1    2    0    0  0.00000000000E+00  0.00000000000E+00 -0.50227151140E+03  0.94358984743E+03  0.79880230909E+03 0.  0.
        1    1    3    3  502    0  0.32702772498E+03 -0.14101114117E+02  0.19202335101E+02  0.32789434887E+03  0.50400001928E-02 0.  1.
       -1    1    3    3    0  502 -0.32702772498E+03  0.14101114117E+02 -0.52147384650E+03  0.61569549855E+03  0.50400001928E-02 0. -1.
</event>
<event>
 5   0  0.1121480E-02  0.8012068E+03  0.7818609E-02  0.9558272E-01
        2   -1    0    0  501    0  0.00000000000E+00  0.00000000000E+00  0.21758940538E+04  0.21758940538E+04  0.25500000920E-02 0.  1.
       -2   -1    0    0    0  501  0.00000000000E+00  0.00000000000E+00 -0.73755009888E+02  0.73755009932E+02  0.25500000920E-02 0. -1.
    10030    2    1    2    0    0  0.00000000000E+00  0.00000000000E+00  0.21021390439E+04  0.22496490637E+04  0.80120680851E+03 0.  0.
        2    1    3    3  502    0 -0.19701126736E+03  0.27299567921E+03  0.16607170047E+04  0.16944972853E+04  0.25500000920E-02 0.  1.
       -2    1    3    3    0  502  0.19701126736E+03 -0.27299567921E+03  0.44142203919E+03  0.55515177837E+03  0.25500000920E-02 0. -1.
</event>
<event>
 5   0  0.6551489E-03  0.7463964E+03  0.7818609E-02  0.9641021E-01
        1   -1    0    0  501    0  0.00000000000E+00  0.00000000000E+00  0.49645206659E+03  0.49645206661E+03  0.50400001928E-02 0. -1.
       -1   -1    0    0    0  501  0.00000000000E+00  0.00000000000E+00 -0.28054452601E+03  0.28054452606E+03  0.50400001928E-02 0.  1.
    10030    2    1    2    0    0  0.00000000000E+00  0.00000000000E+00  0.21590754058E+03  0.77699659267E+03  0.74639643551E+03 0.  0.
        4    1    3    3  502    0 -0.17367819783E+03 -0.21668175794E+02 -0.23516760596E+03  0.29315361508E+03  0.12699999809E+01 0.  1.
       -4    1    3    3    0  502  0.17367819783E+03  0.21668175794E+02  0.45107514654E+03  0.48384297759E+03  0.12699999809E+01 0. -1.
</event>
<event>
 5   0  0.6600401E-03  0.8005428E+03  0.7818609E-02  0.9559232E-01
        1   -1    0    0  501    0  0.00000000000E+00  0.00000000000E+00  0.10500427126E+04  0.10500427127E+04  0.50400001928E-02 0. -1.
       -1   -1    0    0    0  501  0.00000000000E+00  0.00000000000E+00 -0.15258160996E+03  0.15258161005E+03  0.50400001928E-02 0.  1.
    10030    2    1    2    0    0  0.00000000000E+00  0.00000000000E+00  0.89746110268E+03  0.12026243227E+04  0.80054283504E+03 0.  0.
        2    1    3    3  502    0  0.10434617053E+03  0.30749795537E+03  0.97143395630E+02  0.33893945651E+03  0.25500000920E-02 0.  1.
       -2    1    3    3    0  502 -0.10434617053E+03 -0.30749795537E+03  0.80031770705E+03  0.86368486619E+03  0.25500000920E-02 0. -1.
</event>
<event>
 5   0  0.1119792E-02  0.8137750E+03  0.7818609E-02  0.9540290E-01
        2   -1    0    0  501    0  0.00000000000E+00  0.00000000000E+00  0.12574311718E+04  0.12574311718E+04  0.25500000920E-02 0. -1.
       -2   -1    0    0    0  501  0.00000000000E+00  0.00000000000E+00 -0.13166321960E+03  0.13166321963E+03  0.25500000920E-02 0.  1.
    10030    2    1    2    0    0  0.00000000000E+00  0.00000000000E+00  0.11257679522E+04  0.13890943914E+04  0.81377499721E+03 0.  0.
        4    1    3    3  502    0  0.50985894030E+02  0.20322027742E+03 -0.32500300286E+02  0.21202812305E+03  0.12699999809E+01 0.  1.
       -4    1    3    3    0  502 -0.50985894030E+02 -0.20322027742E+03  0.11582682525E+04  0.11770662684E+04  0.12699999809E+01 0. -1.
</event>
<event>
 5   0  0.1119792E-02  0.8015291E+03  0.7818609E-02  0.9557806E-01
        2   -1    0    0  501    0  0.00000000000E+00  0.00000000000E+00  0.46486586605E+03  0.46486586606E+03  0.25500000920E-02 0. -1.
       -2   -1    0    0    0  501  0.00000000000E+00  0.00000000000E+00 -0.34550231182E+03  0.34550231183E+03  0.25500000920E-02 0.  1.
    10030    2    1    2    0    0  0.00000000000E+00  0.00000000000E+00  0.11936355423E+03  0.81036817789E+03  0.80152911716E+03 0.  0.
        4    1    3    3  502    0  0.36377099324E+03  0.11045264271E+03  0.18789307838E+03  0.42406903165E+03  0.12699999809E+01 0. -1.
       -4    1    3    3    0  502 -0.36377099324E+03 -0.11045264271E+03 -0.68529524149E+02  0.38629914624E+03  0.12699999809E+01 0.  1.
</event>
<event>
 5   0  0.6551489E-03  0.7989816E+03  0.7818609E-02  0.9561492E-01
        1   -1    0    0  501    0  0.00000000000E+00  0.00000000000E+00  0.10394522696E+04  0.10394522697E+04  0.50400001928E-02 0.  1.
       -1   -1    0    0    0  501  0.00000000000E+00  0.00000000000E+00 -0.15353555818E+03  0.15353555827E+03  0.50400001928E-02 0. -1.
    10030    2    1    2    0    0  0.00000000000E+00  0.00000000000E+00  0.88591671146E+03  0.11929878279E+04  0.79898156294E+03 0.  0.
        4    1    3    3  502    0  0.30701197949E+03 -0.14376693131E+03  0.75852254656E+03  0.83083292703E+03  0.12699999809E+01 0.  1.
       -4    1    3    3    0  502 -0.30701197949E+03  0.14376693131E+03  0.12739416489E+03  0.36215490089E+03  0.12699999809E+01 0. -1.
</event>
<event>
 5   0  0.6600401E-03  0.8014917E+03  0.7818609E-02  0.9557860E-01
       -1   -1    0    0    0  501  0.00000000000E+00  0.00000000000E+00  0.15277468867E+03  0.15277468876E+03  0.50400001928E-02 0.  1.
        1   -1    0    0  501    0  0.00000000000E+00  0.00000000000E+00 -0.10512031909E+04  0.10512031909E+04  0.50400001928E-02 0. -1.
    10030    2    1    2    0    0  0.00000000000E+00  0.00000000000E+00 -0.89842850223E+03  0.12039778797E+04  0.80149170995E+03 0.  0.
        2    1    3    3  502    0  0.26613664235E+03 -0.78428873082E+02 -0.88359233584E+03  0.92612915757E+03  0.25500000920E-02 0. -1.
       -2    1    3    3    0  502 -0.26613664235E+03  0.78428873082E+02 -0.14836166385E+02  0.27784872210E+03  0.25500000920E-02 0.  1.
</event>
<event>
 5   0  0.1154714E-02  0.8037896E+03  0.7818609E-02  0.9554548E-01
        2   -1    0    0  501    0  0.00000000000E+00  0.00000000000E+00  0.42889697134E+03  0.42889697135E+03  0.25500000920E-02 0.  1.
       -2   -1    0    0    0  501  0.00000000000E+00  0.00000000000E+00 -0.37659259097E+03  0.37659259098E+03  0.25500000920E-02 0. -1.
    10030    2    1    2    0    0  0.00000000000E+00  0.00000000000E+00  0.52304380368E+02  0.80548956232E+03  0.80378957869E+03 0.  0.
        5    1    3    3  502    0 -0.37710621052E+03 -0.13675992263E+03  0.50389314790E+02  0.40431861631E+03  0.46999998093E+01 0.  1.
       -5    1    3    3    0  502  0.37710621052E+03  0.13675992263E+03  0.19150655774E+01  0.40117094601E+03  0.46999998093E+01 0. -1.
</event>
<event>
 5   0  0.1154714E-02  0.7995860E+03  0.7818609E-02  0.9560617E-01
        2   -1    0    0  501    0  0.00000000000E+00  0.00000000000E+00  0.21874558761E+04  0.21874558761E+04  0.25500000920E-02 0. -1.
       -2   -1    0    0    0  501  0.00000000000E+00  0.00000000000E+00 -0.73068649528E+02  0.73068649572E+02  0.25500000920E-02 0.  1.
    10030    2    1    2    0    0  0.00000000000E+00  0.00000000000E+00  0.21143872266E+04  0.22605245257E+04  0.79958600993E+03 0.  0.
        5    1    3    3  502    0 -0.35691814381E+02 -0.11856597202E+03 -0.17411114276E+02  0.12512806333E+03  0.46999998093E+01 0.  1.
       -5    1    3    3    0  502  0.35691814381E+02  0.11856597202E+03  0.21317983408E+04  0.21353964623E+04  0.46999998093E+01 0. -1.
</event>
<event>
 5   0  0.6517392E-03  0.8020617E+03  0.7818609E-02  0.9557038E-01
       -1   -1    0    0    0  501  0.00000000000E+00  0.00000000000E+00  0.25589633358E+03  0.25589633363E+03  0.50400001928E-02 0.  1.
        1   -1    0    0  501    0  0.00000000000E+00  0.00000000000E+00 -0.62848001925E+03  0.62848001927E+03  0.50400001928E-02 0. -1.
    10030    2    1    2    0    0  0.00000000000E+00  0.00000000000E+00 -0.37258368567E+03  0.88437635291E+03  0.80206167515E+03 0.  0.
        3    1    3    3  502    0  0.15517220008E+03 -0.35323870013E+03 -0.30692635202E+03  0.49301093975E+03  0.10100000352E+00 0.  1.
       -3    1    3    3    0  502 -0.15517220008E+03  0.35323870013E+03 -0.65657333646E+02  0.39136541315E+03  0.10100000352E+00 0. -1.
</event>
<event>
 5   0  0.1121480E-02  0.8032654E+03  0.7818609E-02  0.9555303E-01
        2   -1    0    0  501    0  0.00000000000E+00  0.00000000000E+00  0.64061579545E+03  0.64061579546E+03  0.25500000920E-02 0.  1.
       -2   -1    0    0    0  501  0.00000000000E+00  0.00000000000E+00 -0.25180278931E+03  0.25180278932E+03  0.25500000920E-02 0. -1.
    10030    2    1    2    0    0  0.00000000000E+00  0.00000000000E+00  0.38881300614E+03  0.89241858478E+03  0.80326544599E+03 0.  0.
        2    1    3    3  502    0  0.32177097965E+03  0.17747578865E+03  0.37449160502E+03  0.52466959235E+03  0.25500000920E-02 0.  1.
       -2    1    3    3    0  502 -0.32177097965E+03 -0.17747578865E+03  0.14321401122E+02  0.36774899243E+03  0.25500000920E-02 0. -1.
</event>
<event>
 5   0  0.6551489E-03  0.7996414E+03  0.7818609E-02  0.9560536E-01
        1   -1    0    0  501    0  0.00000000000E+00  0.00000000000E+00  0.13393195037E+04  0.13393195037E+04  0.50400001928E-02 0.  1.
       -1   -1    0    0    0  501  0.00000000000E+00  0.00000000000E+00 -0.11935656540E+03  0.11935656551E+03  0.50400001928E-02 0. -1.
    10030    2    1    2    0    0  0.00000000000E+00  0.00000000000E+00  0.12199629383E+04  0.14586760693E+04  0.79964135969E+03 0.  0.
        4    1    3    3  502    0  0.39149507164E+03  0.16565815749E+02  0.46505352935E+03  0.60812763087E+03  0.12699999809E+01 0. -1.
       -4    1    3    3    0  502 -0.39149507164E+03 -0.16565815749E+02  0.75490940898E+03  0.85054843839E+03  0.12699999809E+01 0.  1.
</event>
<event>
 5   0  0.1092868E-02  0.7987138E+03  0.7818609E-02  0.9561881E-01
       -2   -1    0    0    0  501  0.00000000000E+00  0.00000000000E+00  0.20534316268E+03  0.20534316269E+03  0.25500000920E-02 0.  1.
        2   -1    0    0  501    0  0.00000000000E+00  0.00000000000E+00 -0.77668003001E+03  0.77668003001E+03  0.25500000920E-02 0. -1.
    10030    2    1    2    0    0  0.00000000000E+00  0.00000000000E+00 -0.57133686733E+03  0.98202319271E+03  0.79871380046E+03 0.  0.
        3    1    3    3  502    0  0.18194621978E+03  0.24800374207E+03  0.27495244956E+02  0.30881431585E+03  0.10100000352E+00 0.  1.
       -3    1    3    3    0  502 -0.18194621978E+03 -0.24800374207E+03 -0.59883211229E+03  0.67320887686E+03  0.10100000352E+00 0. -1.
</event>
<event>
 5   0  0.4385875E-03  0.8003668E+03  0.7818609E-02  0.9559486E-01
       -4   -1    0    0    0  501  0.00000000000E+00  0.00000000000E+00  0.22074526007E+03  0.22074891335E+03  0.12699999809E+01 0.  1.
        4   -1    0    0  501    0  0.00000000000E+00  0.00000000000E+00 -0.72547203276E+03  0.72547314438E+03  0.12699999809E+01 0. -1.
    10030    2    1    2    0    0  0.00000000000E+00  0.00000000000E+00 -0.50472677269E+03  0.94622205773E+03  0.80036683306E+03 0.  0.
        4    1    3    3  502    0 -0.48862030969E+02  0.32652004098E+03 -0.51972200690E+03  0.61572348712E+03  0.12699999809E+01 0. -1.
       -4    1    3    3    0  502  0.48862030969E+02 -0.32652004098E+03  0.14995234210E+02  0.33049857061E+03  0.12699999809E+01 0.  1.
</event>
<event>
 5   0  0.1121480E-02  0.8025154E+03  0.7818609E-02  0.9556383E-01
       -2   -1    0    0    0  501  0.00000000000E+00  0.00000000000E+00  0.37253666694E+03  0.37253666695E+03  0.25500000920E-02 0.  1.
        2   -1    0    0  501    0  0.00000000000E+00  0.00000000000E+00 -0.43219300282E+03  0.43219300282E+03  0.25500000920E-02 0. -1.
    10030    2    1    2    0    0  0.00000000000E+00  0.00000000000E+00 -0.59656335874E+02  0.80472966977E+03  0.80251539736E+03 0.  0.
        2    1    3    3  502    0  0.31391886352E+03 -0.14316040956E+03  0.17559747943E+03  0.38713619119E+03  0.25500000920E-02 0.  1.
       -2    1    3    3    0  502 -0.31391886352E+03  0.14316040956E+03 -0.23525381530E+03  0.41759347859E+03  0.25500000920E-02 0. -1.
</event>
<event>
 5   0  0.6517392E-03  0.8039939E+03  0.7818609E-02  0.9554254E-01
        1   -1    0    0  501    0  0.00000000000E+00  0.00000000000E+00  0.47390540101E+03  0.47390540104E+03  0.50400001928E-02 0. -1.
       -1   -1    0    0    0  501  0.00000000000E+00  0.00000000000E+00 -0.34099961224E+03  0.34099961227E+03  0.50400001928E-02 0.  1.
    10030    2    1    2    0    0  0.00000000000E+00  0.00000000000E+00  0.13290578877E+03  0.81490501331E+03  0.80399392537E+03 0.  0.
        3    1    3    3  502    0  0.22315571429E+03  0.26229868547E+03 -0.14373173153E+03  0.37317274025E+03  0.10100000352E+00 0.  1.
       -3    1    3    3    0  502 -0.22315571429E+03 -0.26229868547E+03  0.27663752030E+03  0.44173227306E+03  0.10100000352E+00 0. -1.
</event>
<event>
 5   0  0.1121480E-02  0.8024993E+03  0.7818609E-02  0.9556407E-01
       -2   -1    0    0    0  501  0.00000000000E+00  0.00000000000E+00  0.35142987625E+03  0.35142987626E+03  0.25500000920E-02 0. -1.
        2   -1    0    0  501    0  0.00000000000E+00  0.00000000000E+00 -0.45813202801E+03  0.45813202801E+03  0.25500000920E-02 0.  1.
    10030    2    1    2    0    0  0.00000000000E+00  0.00000000000E+00 -0.10670215176E+03  0.80956190427E+03  0.80249930072E+03 0.  0.
        2    1    3    3  502    0 -0.10176323482E+03 -0.86120646771E+02 -0.43513753126E+03  0.45510129958E+03  0.25500000920E-02 0.  1.
       -2    1    3    3    0  502  0.10176323482E+03  0.86120646771E+02  0.32843537950E+03  0.35446060469E+03  0.25500000920E-02 0. -1.
</event>
<event>
 5   0  0.6517392E-03  0.8020151E+03  0.7818609E-02  0.9557105E-01
       -1   -1    0    0    0  501  0.00000000000E+00  0.00000000000E+00  0.21632973645E+03  0.21632973651E+03  0.50400001928E-02 0. -1.
        1   -1    0    0  501    0  0.00000000000E+00  0.00000000000E+00 -0.74334239641E+03  0.74334239642E+03  0.50400001928E-02 0.  1.
    10030    2    1    2    0    0  0.00000000000E+00  0.00000000000E+00 -0.52701265996E+03  0.95967213293E+03  0.80201512390E+03 0.  0.
        3    1    3    3  502    0 -0.15238434591E+03 -0.83795373899E+02  0.16886084596E+03  0.24239770846E+03  0.10100000352E+00 0. -1.
       -3    1    3    3    0  502  0.15238434591E+03  0.83795373899E+02 -0.69587350592E+03  0.71727442447E+03  0.10100000352E+00 0.  1.
</event>
<event>
 5   0  0.6551489E-03  0.8154973E+03  0.7818609E-02  0.9537852E-01
        1   -1    0    0  501    0  0.00000000000E+00  0.00000000000E+00  0.57726385419E+03  0.57726385422E+03  0.50400001928E-02 0. -1.
       -1   -1    0    0    0  501  0.00000000000E+00  0.00000000000E+00 -0.28801204909E+03  0.28801204914E+03  0.50400001928E-02 0.  1.
    10030    2    1    2    0    0  0.00000000000E+00  0.00000000000E+00  0.28925180510E+03  0.86527590335E+03  0.81549726068E+03 0.  0.
        4    1    3    3  502    0 -0.29040365234E+03  0.30767168146E+02  0.44655948729E+03  0.53357088425E+03  0.12699999809E+01 0. -1.
       -4    1    3    3    0  502  0.29040365234E+03 -0.30767168146E+02 -0.15730768219E+03  0.33170501911E+03  0.12699999809E+01 0.  1.
</event>
<event>
 5   0  0.1092868E-02  0.8016301E+03  0.7818609E-02  0.9557661E-01
        2   -1    0    0  501    0  0.00000000000E+00  0.00000000000E+00  0.40477514674E+03  0.40477514675E+03  0.25500000920E-02 0.  1.
       -2   -1    0    0    0  501  0.00000000000E+00  0.00000000000E+00 -0.39689365598E+03  0.39689365599E+03  0.25500000920E-02 0. -1.
    10030    2    1    2    0    0  0.00000000000E+00  0.00000000000E+00  0.78814907571E+01  0.80166880274E+03  0.80163005894E+03 0.  0.
        3    1    3    3  502    0  0.10554650299E+03  0.38656756256E+03  0.12780456028E+02  0.40092130771E+03  0.10100000352E+00 0.  1.
       -3    1    3    3    0  502 -0.10554650299E+03 -0.38656756256E+03 -0.48989652714E+01  0.40074749504E+03  0.10100000352E+00 0. -1.
</event>
<event>
 5   0  0.6557679E-03  0.8000929E+03  0.7818609E-02  0.9559883E-01
       -1   -1    0    0    0  501  0.00000000000E+00  0.00000000000E+00  0.47000278739E+03  0.47000278742E+03  0.50400001928E-02 0.  1.
        1   -1    0    0  501    0  0.00000000000E+00  0.00000000000E+00 -0.34050259948E+03  0.34050259952E+03  0.50400001928E-02 0. -1.
    10030    2    1    2    0    0  0.00000000000E+00  0.00000000000E+00  0.12950018791E+03  0.81050538694E+03  0.80009292185E+03 0.  0.
        1    1    3    3  502    0  0.24180524371E+03 -0.13403294787E+02 -0.25780819958E+03  0.35371526966E+03  0.50400001928E-02 0. -1.
       -1    1    3    3    0  502 -0.24180524371E+03  0.13403294787E+02  0.38730838748E+03  0.45679011727E+03  0.50400001928E-02 0.  1.
</event>
<event>
 5   0  0.6600401E-03  0.7976563E+03  0.7818609E-02  0.9563416E-01
       -1   -1    0    0    0  501  0.00000000000E+00  0.00000000000E+00  0.11164223918E+03  0.11164223929E+03  0.50400001928E-02 0. -1.
        1   -1    0    0  501    0  0.00000000000E+00  0.00000000000E+00 -0.14247645598E+04  0.14247645598E+04  0.50400001928E-02 0.  1.
    10030    2    1    2    0    0  0.00000000000E+00  0.00000000000E+00 -0.13131223206E+04  0.15364067991E+04  0.79765633163E+03 0.  0.
        2    1    3    3  502    0 -0.36012757886E+02 -0.52489067514E+02  0.10179444666E+03  0.12005886188E+03  0.25500000920E-02 0. -1.
       -2    1    3    3    0  502  0.36012757886E+02  0.52489067514E+02 -0.14149167672E+04  0.14163479372E+04  0.25500000920E-02 0.  1.
</event>
<event>
 5   0  0.6600401E-03  0.7988280E+03  0.7818609E-02  0.9561715E-01
       -1   -1    0    0    0  501  0.00000000000E+00  0.00000000000E+00  0.75957959100E+02  0.75957959267E+02  0.50400001928E-02 0.  1.
        1   -1    0    0  501    0  0.00000000000E+00  0.00000000000E+00 -0.21002612567E+04  0.21002612568E+04  0.50400001928E-02 0. -1.
    10030    2    1    2    0    0  0.00000000000E+00  0.00000000000E+00 -0.20243032976E+04  0.21762192160E+04  0.79882803864E+03 0.  0.
        2    1    3    3  502    0  0.30139509574E+03  0.41029602855E+01 -0.29822933869E+03  0.42402426402E+03  0.25500000920E-02 0. -1.
       -2    1    3    3    0  502 -0.30139509574E+03 -0.41029602855E+01 -0.17260739590E+04  0.17521949520E+04  0.25500000920E-02 0.  1.
</event>
<event>
 5   0  0.1119792E-02  0.7991539E+03  0.7818609E-02  0.9561243E-01
        2   -1    0    0  501    0  0.00000000000E+00  0.00000000000E+00  0.31766485004E+03  0.31766485005E+03  0.25500000920E-02 0.  1.
       -2   -1    0    0    0  501  0.00000000000E+00  0.00000000000E+00 -0.50261064295E+03  0.50261064295E+03  0.25500000920E-02 0. -1.
    10030    2    1    2    0    0  0.00000000000E+00  0.00000000000E+00 -0.18494579291E+03  0.82027549300E+03  0.79915388888E+03 0.  0.
        4    1    3    3  502    0 -0.39424668767E+03  0.18175636157E+02 -0.28377978107E+02  0.39568639986E+03  0.12699999809E+01 0. -1.
       -4    1    3    3    0  502  0.39424668767E+03 -0.18175636157E+02 -0.15656781480E+03  0.42458909315E+03  0.12699999809E+01 0.  1.
</event>
<event>
 5   0  0.6551489E-03  0.8006229E+03  0.7818609E-02  0.9559116E-01
       -1   -1    0    0    0  501  0.00000000000E+00  0.00000000000E+00  0.31627047706E+03  0.31627047710E+03  0.50400001928E-02 0.  1.
        1   -1    0    0  501    0  0.00000000000E+00  0.00000000000E+00 -0.50668418785E+03  0.50668418787E+03  0.50400001928E-02 0. -1.
    10030    2    1    2    0    0  0.00000000000E+00  0.00000000000E+00 -0.19041371078E+03  0.82295466497E+03  0.80062288210E+03 0.  0.
        4    1    3    3  502    0  0.80096671420E+02 -0.54784130169E+02  0.30399542706E+03  0.31911065521E+03  0.12699999809E+01 0.  1.
       -4    1    3    3    0  502 -0.80096671420E+02  0.54784130169E+02 -0.49440913785E+03  0.50384400977E+03  0.12699999809E+01 0. -1.
</event>
<event>
 5   0  0.6557679E-03  0.7995308E+03  0.7818609E-02  0.9560697E-01
       -1   -1    0    0    0  501  0.00000000000E+00  0.00000000000E+00  0.19256890852E+03  0.19256890859E+03  0.50400001928E-02 0.  1.
        1   -1    0    0  501    0  0.00000000000E+00  0.00000000000E+00 -0.82989703944E+03  0.82989703945E+03  0.50400001928E-02 0. -1.
    10030    2    1    2    0    0  0.00000000000E+00  0.00000000000E+00 -0.63732813092E+03  0.10224659480E+04  0.79953078017E+03 0.  0.
        1    1    3    3  502    0 -0.37019786406E+03 -0.14602834828E+03 -0.27010832567E+03  0.48096698918E+03  0.50400001928E-02 0. -1.
       -1    1    3    3    0  502  0.37019786406E+03  0.14602834828E+03 -0.36721980524E+03  0.54149895886E+03  0.50400001928E-02 0.  1.
</event>
<event>
 5   0  0.1154714E-02  0.8057514E+03  0.7818609E-02  0.9551729E-01
       -2   -1    0    0    0  501  0.00000000000E+00  0.00000000000E+00  0.29399911147E+03  0.29399911148E+03  0.25500000920E-02 0. -1.
        2   -1    0    0  501    0  0.00000000000E+00  0.00000000000E+00 -0.55207252546E+03  0.55207252547E+03  0.25500000920E-02 0.  1.
    10030    2    1    2    0    0  0.00000000000E+00  0.00000000000E+00 -0.25807341400E+03  0.84607163695E+03  0.80575140573E+03 0.  0.
        5    1    3    3  502    0 -0.23204120023E+03  0.32691825500E+03 -0.17061722375E+03  0.43571893589E+03  0.46999998093E+01 0. -1.
       -5    1    3    3    0  502  0.23204120023E+03 -0.32691825500E+03 -0.87456190244E+02  0.41035270106E+03  0.46999998093E+01 0.  1.
</event>
<event>
 5   0  0.1106332E-02  0.8004678E+03  0.7818609E-02  0.9559340E-01
        2   -1    0    0  501    0  0.00000000000E+00  0.00000000000E+00  0.36603758396E+03  0.36603758397E+03  0.25500000920E-02 0. -1.
       -2   -1    0    0    0  501  0.00000000000E+00  0.00000000000E+00 -0.43762497584E+03  0.43762497585E+03  0.25500000920E-02 0.  1.
    10030    2    1    2    0    0  0.00000000000E+00  0.00000000000E+00 -0.71587391882E+02  0.80366255982E+03  0.80046783532E+03 0.  0.
        1    1    3    3  502    0  0.28396516358E+03 -0.71784767041E+02 -0.30964212455E+03  0.42622472033E+03  0.50400001928E-02 0.  1.
       -1    1    3    3    0  502 -0.28396516358E+03  0.71784767041E+02  0.23805473267E+03  0.37743783948E+03  0.50400001928E-02 0. -1.
</event>
<event>
 5   0  0.1106332E-02  0.8062782E+03  0.7818609E-02  0.9550974E-01
       -2   -1    0    0    0  501  0.00000000000E+00  0.00000000000E+00  0.39248759892E+03  0.39248759893E+03  0.25500000920E-02 0.  1.
        2   -1    0    0  501    0  0.00000000000E+00  0.00000000000E+00 -0.41407970387E+03  0.41407970388E+03  0.25500000920E-02 0. -1.
    10030    2    1    2    0    0  0.00000000000E+00  0.00000000000E+00 -0.21592104949E+02  0.80656730281E+03  0.80627823669E+03 0.  0.
        1    1    3    3  502    0 -0.16823083559E+03 -0.36593125342E+03 -0.28518285000E+02  0.40375808212E+03  0.50400001928E-02 0.  1.
       -1    1    3    3    0  502  0.16823083559E+03  0.36593125342E+03  0.69261800509E+01  0.40280922069E+03  0.50400001928E-02 0. -1.
</event>
<event>
 5   0  0.4385875E-03  0.8100173E+03  0.7818609E-02  0.9545630E-01
       -3   -1    0    0    0  501  0.00000000000E+00  0.00000000000E+00  0.23429443275E+03  0.23429445452E+03  0.10100000352E+00 0.  1.
        3   -1    0    0  501    0  0.00000000000E+00  0.00000000000E+00 -0.70011041670E+03  0.70011042399E+03  0.10100000352E+00 0. -1.
    10030    2    1    2    0    0  0.00000000000E+00  0.00000000000E+00 -0.46581598395E+03  0.93440487850E+03  0.81001725047E+03 0.  0.
        3    1    3    3  502    0  0.18818537262E+01 -0.72594769595E+02 -0.69253890819E+03  0.69633590421E+03  0.10100000352E+00 0. -1.
       -3    1    3    3    0  502 -0.18818537262E+01  0.72594769595E+02  0.22672292423E+03  0.23806897429E+03  0.10100000352E+00 0.  1.
</event>
<event>
 5   0  0.6517392E-03  0.7744052E+03  0.7818609E-02  0.9597822E-01
        1   -1    0    0  501    0  0.00000000000E+00  0.00000000000E+00  0.16752962273E+04  0.16752962273E+04  0.50400001928E-02 0. -1.
       -1   -1    0    0    0  501  0.00000000000E+00  0.00000000000E+00 -0.89492137301E+02  0.89492137443E+02  0.50400001928E-02 0.  1.
    10030    2    1    2    0    0  0.00000000000E+00  0.00000000000E+00  0.15858040900E+04  0.17647883648E+04  0.77440516560E+03 0.  0.
        3    1    3    3  502    0  0.25183831484E+03  0.26359162553E+03  0.10902323841E+04  0.11495693731E+04  0.10100000352E+00 0. -1.
       -3    1    3    3    0  502 -0.25183831484E+03 -0.26359162553E+03  0.49557170586E+03  0.61521899168E+03  0.10100000352E+00 0.  1.
</event>
<event>
 5   0  0.1154714E-02  0.7972978E+03  0.7818609E-02  0.9563937E-01
        2   -1    0    0  501    0  0.00000000000E+00  0.00000000000E+00  0.27565320143E+03  0.27565320144E+03  0.25500000920E-02 0.  1.
       -2   -1    0    0    0  501  0.00000000000E+00  0.00000000000E+00 -0.57652499681E+03  0.57652499682E+03  0.25500000920E-02 0. -1.
    10030    2    1    2    0    0  0.00000000000E+00  0.00000000000E+00 -0.30087179538E+03  0.85217819826E+03  0.79729783917E+03 0.  0.
        5    1    3    3  502    0  0.21085317338E+03 -0.16366842323E+03 -0.46687626563E+03  0.53781218924E+03  0.46999998093E+01 0. -1.
       -5    1    3    3    0  502 -0.21085317338E+03  0.16366842323E+03  0.16600447025E+03  0.31436600902E+03  0.46999998093E+01 0.  1.
</event>
<event>
 5   0  0.1121480E-02  0.8057130E+03  0.7818609E-02  0.9551784E-01
       -2   -1    0    0    0  501  0.00000000000E+00  0.00000000000E+00  0.87331791153E+03  0.87331791153E+03  0.25500000920E-02 0. -1.
        2   -1    0    0  501    0  0.00000000000E+00  0.00000000000E+00 -0.18583537860E+03  0.18583537862E+03  0.25500000920E-02 0.  1.
    10030    2    1    2    0    0  0.00000000000E+00  0.00000000000E+00  0.68748253293E+03  0.10591532902E+04  0.80571301278E+03 0.  0.
        2    1    3    3  502    0 -0.64143484342E+02 -0.30312390294E+03  0.68220990028E+03  0.74927220365E+03  0.25500000920E-02 0. -1.
       -2    1    3    3    0  502  0.64143484342E+02  0.30312390294E+03  0.52726326530E+01  0.30988108651E+03  0.25500000920E-02 0.  1.
</event>
<event>
 5   0  0.6596225E-03  0.8005970E+03  0.7818609E-02  0.9559153E-01
        1   -1    0    0  501    0  0.00000000000E+00  0.00000000000E+00  0.29767386012E+03  0.29767386016E+03  0.50400001928E-02 0. -1.
       -1   -1    0    0    0  501  0.00000000000E+00  0.00000000000E+00 -0.53830352434E+03  0.53830352436E+03  0.50400001928E-02 0.  1.
    10030    2    1    2    0    0  0.00000000000E+00  0.00000000000E+00 -0.24062966422E+03  0.83597738452E+03  0.80059699732E+03 0.  0.
        5    1    3    3  502    0 -0.36990616136E+03  0.20396099833E+02 -0.27857194320E+03  0.46354178521E+03  0.46999998093E+01 0.  1.
       -5    1    3    3    0  502  0.36990616136E+03 -0.20396099833E+02  0.37942278980E+02  0.37243559931E+03  0.46999998093E+01 0. -1.
</event>
<event>
 5   0  0.1106332E-02  0.7998737E+03  0.7818609E-02  0.9560200E-01
       -2   -1    0    0    0  501  0.00000000000E+00  0.00000000000E+00  0.13303239026E+03  0.13303239029E+03  0.25500000920E-02 0.  1.
        2   -1    0    0  501    0  0.00000000000E+00  0.00000000000E+00 -0.12023348001E+04  0.12023348001E+04  0.25500000920E-02 0. -1.
    10030    2    1    2    0    0  0.00000000000E+00  0.00000000000E+00 -0.10693024099E+04  0.13353671904E+04  0.79987367097E+03 0.  0.
        1    1    3    3  502    0  0.14841099855E+03 -0.34352958796E+03 -0.29907761506E+03  0.47904678493E+03  0.50400001928E-02 0.  1.
       -1    1    3    3    0  502 -0.14841099855E+03  0.34352958796E+03 -0.77022479482E+03  0.85632040550E+03  0.50400001928E-02 0. -1.
</event>
<event>
 5   0  0.1119792E-02  0.7993211E+03  0.7818609E-02  0.9561000E-01
        2   -1    0    0  501    0  0.00000000000E+00  0.00000000000E+00  0.96495229639E+03  0.96495229639E+03  0.25500000920E-02 0.  1.
       -2   -1    0    0    0  501  0.00000000000E+00  0.00000000000E+00 -0.16553000980E+03  0.16553000982E+03  0.25500000920E-02 0. -1.
    10030    2    1    2    0    0  0.00000000000E+00  0.00000000000E+00  0.79942228659E+03  0.11304823062E+04  0.79932111967E+03 0.  0.
        4    1    3    3  502    0  0.14132472667E+03 -0.36528579677E+03  0.51215098073E+03  0.64475315559E+03  0.12699999809E+01 0.  1.
       -4    1    3    3    0  502 -0.14132472667E+03  0.36528579677E+03  0.28727130586E+03  0.48572915062E+03  0.12699999809E+01 0. -1.
</event>
<event>
 5   0  0.1106332E-02  0.8021112E+03  0.7818609E-02  0.9556966E-01
        2   -1    0    0  501    0  0.00000000000E+00  0.00000000000E+00  0.10105576740E+04  0.10105576740E+04  0.25500000920E-02 0.  1.
       -2   -1    0    0    0  501  0.00000000000E+00  0.00000000000E+00 -0.15916517603E+03  0.15916517605E+03  0.25500000920E-02 0. -1.
    10030    2    1    2    0    0  0.00000000000E+00  0.00000000000E+00  0.85139249797E+03  0.11697228501E+04  0.80211118951E+03 0.  0.
        1    1    3    3  502    0 -0.35402304173E+03 -0.17707586939E+03  0.33166765202E+03  0.51642192926E+03  0.50400001928E-02 0.  1.
       -1    1    3    3    0  502  0.35402304173E+03  0.17707586939E+03  0.51972484594E+03  0.65330092079E+03  0.50400001928E-02 0. -1.
</event>
<event>
 5   0  0.1121480E-02  0.8016015E+03  0.7818609E-02  0.9557702E-01
        2   -1    0    0  501    0  0.00000000000E+00  0.00000000000E+00  0.11569264567E+04  0.11569264567E+04  0.25500000920E-02 0. -1.
       -2   -1    0    0    0  501  0.00000000000E+00  0.00000000000E+00 -0.13885173352E+03  0.13885173354E+03  0.25500000920E-02 0.  1.
    10030    2    1    2    0    0  0.00000000000E+00  0.00000000000E+00  0.10180747232E+04  0.12957781902E+04  0.80160150719E+03 0.  0.
        2    1    3    3  502    0  0.27126356208E+01 -0.35431315864E+02  0.11543750344E+04  0.11549218400E+04  0.25500000920E-02 0. -1.
       -2    1    3    3    0  502 -0.27126356208E+01  0.35431315864E+02 -0.13630031124E+03  0.14085635019E+03  0.25500000920E-02 0.  1.
</event>
<event>
 5   0  0.6600401E-03  0.7985468E+03  0.7818609E-02  0.9562123E-01
        1   -1    0    0  501    0  0.00000000000E+00  0.00000000000E+00  0.53607868287E+03  0.53607868289E+03  0.50400001928E-02 0.  1.
       -1   -1    0    0    0  501  0.00000000000E+00  0.00000000000E+00 -0.29738030364E+03  0.29738030369E+03  0.50400001928E-02 0. -1.
    10030    2    1    2    0    0  0.00000000000E+00  0.00000000000E+00  0.23869837922E+03  0.83345898658E+03  0.79854678389E+03 0.  0.
        2    1    3    3  502    0 -0.21686728949E+03  0.34678875366E+02 -0.22867333363E+03  0.31705762752E+03  0.25500000920E-02 0. -1.
       -2    1    3    3    0  502  0.21686728949E+03 -0.34678875366E+02  0.46737171285E+03  0.51640135905E+03  0.25500000920E-02 0.  1.
</event>
<event>
 5   0  0.6600401E-03  0.7997681E+03  0.7818609E-02  0.9560353E-01
        1   -1    0    0  501    0  0.00000000000E+00  0.00000000000E+00  0.50339558050E+03  0.50339558052E+03  0.50400001928E-02 0.  1.
       -1   -1    0    0    0  501  0.00000000000E+00  0.00000000000E+00 -0.31765724152E+03  0.31765724156E+03  0.50400001928E-02 0. -1.
    10030    2    1    2    0    0  0.00000000000E+00  0.00000000000E+00  0.18573833898E+03  0.82105282208E+03  0.79976809519E+03 0.  0.
        2    1    3    3  502    0  0.86290826672E+02 -0.60113562960E+02 -0.30320616878E+03  0.32092635918E+03  0.25500000920E-02 0. -1.
       -2    1    3    3    0  502 -0.86290826672E+02  0.60113562960E+02  0.48894450776E+03  0.50012646291E+03  0.25500000920E-02 0.  1.
</event>
<event>
 5   0  0.1106332E-02  0.8010291E+03  0.7818609E-02  0.9558529E-01
        2   -1    0    0  501    0  0.00000000000E+00  0.00000000000E+00  0.13967978612E+04  0.13967978612E+04  0.25500000920E-02 0. -1.
       -2   -1    0    0    0  501  0.00000000000E+00  0.00000000000E+00 -0.11484259384E+03  0.11484259387E+03  0.25500000920E-02 0.  1.
    10030    2    1    2    0    0  0.00000000000E+00  0.00000000000E+00  0.12819552673E+04  0.15116404551E+04  0.80102906183E+03 0.  0.
        1    1    3    3  502    0  0.23816968666E+03  0.11998398724E+03  0.77075272820E+02  0.27759962994E+03  0.50400001928E-02 0.  1.
       -1    1    3    3    0  502 -0.23816968666E+03 -0.11998398724E+03  0.12048799945E+04  0.12340408251E+04  0.50400001928E-02 0. -1.
</event>
<event>
 5   0  0.6557679E-03  0.8043935E+03  0.7818609E-02  0.9553679E-01
       -1   -1    0    0    0  501  0.00000000000E+00  0.00000000000E+00  0.21623602097E+03  0.21623602103E+03  0.50400001928E-02 0. -1.
        1   -1    0    0  501    0  0.00000000000E+00  0.00000000000E+00 -0.74808185230E+03  0.74808185232E+03  0.50400001928E-02 0.  1.
    10030    2    1    2    0    0  0.00000000000E+00  0.00000000000E+00 -0.53184583133E+03  0.96431787335E+03  0.80439354334E+03 0.  0.
        1    1    3    3  502    0  0.24504520093E+03  0.87719961470E+01 -0.64811351871E+03  0.69294677399E+03  0.50400001928E-02 0.  1.
       -1    1    3    3    0  502 -0.24504520093E+03 -0.87719961470E+01  0.11626768739E+03  0.27137109936E+03  0.50400001928E-02 0. -1.
</event>
<event>
 5   0  0.6596225E-03  0.8336386E+03  0.7818609E-02  0.9512564E-01
        1   -1    0    0  501    0  0.00000000000E+00  0.00000000000E+00  0.11936528624E+04  0.11936528624E+04  0.50400001928E-02 0. -1.
       -1   -1    0    0    0  501  0.00000000000E+00  0.00000000000E+00 -0.14555182188E+03  0.14555182197E+03  0.50400001928E-02 0.  1.
    10030    2    1    2    0    0  0.00000000000E+00  0.00000000000E+00  0.10481010405E+04  0.13392046843E+04  0.83363864804E+03 0.  0.
        5    1    3    3  502    0 -0.15936248166E+03 -0.25135781068E+03  0.55308734269E+02  0.30275121079E+03  0.46999998093E+01 0.  1.
       -5    1    3    3    0  502  0.15936248166E+03  0.25135781068E+03  0.99279230621E+03  0.10364534735E+04  0.46999998093E+01 0. -1.
</event>
<event>
 5   0  0.1092868E-02  0.8038098E+03  0.7818609E-02  0.9554519E-01
       -2   -1    0    0    0  501  0.00000000000E+00  0.00000000000E+00  0.22815299253E+03  0.22815299254E+03  0.25500000920E-02 0.  1.
        2   -1    0    0  501    0  0.00000000000E+00  0.00000000000E+00 -0.70797915336E+03  0.70797915337E+03  0.25500000920E-02 0. -1.
    10030    2    1    2    0    0  0.00000000000E+00  0.00000000000E+00 -0.47982616084E+03  0.93613214591E+03  0.80380983446E+03 0.  0.
        3    1    3    3  502    0 -0.53675131253E+02 -0.39774661745E+03 -0.21536859128E+03  0.45548549014E+03  0.10100000352E+00 0. -1.
       -3    1    3    3    0  502  0.53675131253E+02  0.39774661745E+03 -0.26445756955E+03  0.48064665577E+03  0.10100000352E+00 0.  1.
</event>
<event>
 5   0  0.6551489E-03  0.8002573E+03  0.7818609E-02  0.9559645E-01
       -1   -1    0    0    0  501  0.00000000000E+00  0.00000000000E+00  0.38191019036E+03  0.38191019040E+03  0.50400001928E-02 0.  1.
        1   -1    0    0  501    0  0.00000000000E+00  0.00000000000E+00 -0.41921621859E+03  0.41921621862E+03  0.50400001928E-02 0. -1.
    10030    2    1    2    0    0  0.00000000000E+00  0.00000000000E+00 -0.37306028230E+02  0.80112640902E+03  0.80025732330E+03 0.  0.
        4    1    3    3  502    0  0.33553715694E+03 -0.17073196134E+03  0.11701813677E+03  0.39424541030E+03  0.12699999809E+01 0.  1.
       -4    1    3    3    0  502 -0.33553715694E+03  0.17073196134E+03 -0.15432416500E+03  0.40688099872E+03  0.12699999809E+01 0. -1.
</event>
<event>
 5   0  0.1121480E-02  0.7985950E+03  0.7818609E-02  0.9562053E-01
       -2   -1    0    0    0  501  0.00000000000E+00  0.00000000000E+00  0.17894125156E+03  0.17894125158E+03  0.25500000920E-02 0.  1.
        2   -1    0    0  501    0  0.00000000000E+00  0.00000000000E+00 -0.89101038029E+03  0.89101038029E+03  0.25500000920E-02 0. -1.
    10030    2    1    2    0    0  0.00000000000E+00  0.00000000000E+00 -0.71206912873E+03  0.10699516319E+04  0.79859504785E+03 0.  0.
        2    1    3    3  502    0 -0.82464155724E+02 -0.31003921139E+03 -0.37530462330E+02  0.32300647856E+03  0.25500000920E-02 0.  1.
       -2    1    3    3    0  502  0.82464155724E+02  0.31003921139E+03 -0.67453866640E+03  0.74694515331E+03  0.25500000920E-02 0. -1.
</event>
<event>
 5   0  0.6551489E-03  0.7990243E+03  0.7818609E-02  0.9561430E-01
        1   -1    0    0  501    0  0.00000000000E+00  0.00000000000E+00  0.12211899374E+04  0.12211899374E+04  0.50400001928E-02 0. -1.
       -1   -1    0    0    0  501  0.00000000000E+00  0.00000000000E+00 -0.13070036201E+03  0.13070036210E+03  0.50400001928E-02 0.  1.
    10030    2    1    2    0    0  0.00000000000E+00  0.00000000000E+00  0.10904895753E+04  0.13518902995E+04  0.79902432244E+03 0.  0.
        4    1    3    3  502    0 -0.13491901815E+03  0.77825690826E+02  0.11676998085E+04  0.11780426288E+04  0.12699999809E+01 0. -1.
       -4    1    3    3    0  502  0.13491901815E+03 -0.77825690826E+02 -0.77210233117E+02  0.17384767070E+03  0.12699999809E+01 0.  1.
</event>
<event>
 5   0  0.6557679E-03  0.7991736E+03  0.7818609E-02  0.9561214E-01
       -1   -1    0    0    0  501  0.00000000000E+00  0.00000000000E+00  0.43774946560E+03  0.43774946563E+03  0.50400001928E-02 0. -1.
        1   -1    0    0  501    0  0.00000000000E+00  0.00000000000E+00 -0.36475114334E+03  0.36475114337E+03  0.50400001928E-02 0.  1.
    10030    2    1    2    0    0  0.00000000000E+00  0.00000000000E+00  0.72998322262E+02  0.80250060901E+03  0.79917361844E+03 0.  0.
        1    1    3    3  502    0  0.18447412320E+03 -0.12942247998E+03 -0.29485750590E+03  0.37110891833E+03  0.50400001928E-02 0.  1.
       -1    1    3    3    0  502 -0.18447412320E+03  0.12942247998E+03  0.36785582816E+03  0.43139169068E+03  0.50400001928E-02 0. -1.
</event>
<event>
 5   0  0.1154714E-02  0.8218229E+03  0.7818609E-02  0.9528956E-01
        2   -1    0    0  501    0  0.00000000000E+00  0.00000000000E+00  0.79692706343E+03  0.79692706343E+03  0.25500000920E-02 0.  1.
       -2   -1    0    0    0  501  0.00000000000E+00  0.00000000000E+00 -0.21187414311E+03  0.21187414312E+03  0.25500000920E-02 0. -1.
    10030    2    1    2    0    0  0.00000000000E+00  0.00000000000E+00  0.58505292032E+03  0.10088012066E+04  0.82182294612E+03 0.  0.
        5    1    3    3  502    0  0.81672767513E+02  0.28549275996E+03 -0.56074369691E+02  0.30223001485E+03  0.46999998093E+01 0. -1.
       -5    1    3    3    0  502 -0.81672767513E+02 -0.28549275996E+03  0.64112729001E+03  0.70657119170E+03  0.46999998093E+01 0.  1.
</event>
<event>
 5   0  0.6517392E-03  0.7992429E+03  0.7818609E-02  0.9561114E-01
        1   -1    0    0  501    0  0.00000000000E+00  0.00000000000E+00  0.51298023855E+03  0.51298023858E+03  0.50400001928E-02 0. -1.
       -1   -1    0    0    0  501  0.00000000000E+00  0.00000000000E+00 -0.31131277365E+03  0.31131277369E+03  0.50400001928E-02 0.  1.
    10030    2    1    2    0    0  0.00000000000E+00  0.00000000000E+00  0.20166746491E+03  0.82429301227E+03  0.79924289404E+03 0.  0.
        3    1    3    3  502    0 -0.23094019975E+03  0.28150280936E+02  0.43593504768E+03  0.49413074199E+03  0.10100000352E+00 0. -1.
       -3    1    3    3    0  502  0.23094019975E+03 -0.28150280936E+02 -0.23426758277E+03  0.33016227028E+03  0.10100000352E+00 0.  1.
</event>
<event>
 5   0  0.6517392E-03  0.8013796E+03  0.7818609E-02  0.9558022E-01
        1   -1    0    0  501    0  0.00000000000E+00  0.00000000000E+00  0.17891409722E+03  0.17891409729E+03  0.50400001928E-02 0.  1.
       -1   -1    0    0    0  501  0.00000000000E+00  0.00000000000E+00 -0.89737096774E+03  0.89737096775E+03  0.50400001928E-02 0. -1.
    10030    2    1    2    0    0  0.00000000000E+00  0.00000000000E+00 -0.71845687052E+03  0.10762850650E+04  0.80137960196E+03 0.  0.
        3    1    3    3  502    0  0.27769855041E+03  0.49192301356E+02 -0.74150199875E+03  0.79332313200E+03  0.10100000352E+00 0. -1.
       -3    1    3    3    0  502 -0.27769855041E+03 -0.49192301356E+02  0.23045128236E+02  0.28296193304E+03  0.10100000352E+00 0.  1.
</event>
<event>
 5   0  0.1121480E-02  0.7926439E+03  0.7818609E-02  0.9570726E-01
        2   -1    0    0  501    0  0.00000000000E+00  0.00000000000E+00  0.87400072936E+03  0.87400072937E+03  0.25500000920E-02 0.  1.
       -2   -1    0    0    0  501  0.00000000000E+00  0.00000000000E+00 -0.17971507464E+03  0.17971507466E+03  0.25500000920E-02 0. -1.
    10030    2    1    2    0    0  0.00000000000E+00  0.00000000000E+00  0.69428565473E+03  0.10537158040E+04  0.79264394610E+03 0.  0.
        2    1    3    3  502    0 -0.15850754160E+03  0.35826566910E+03  0.26746744700E+03  0.47436037525E+03  0.25500000920E-02 0. -1.
       -2    1    3    3    0  502  0.15850754160E+03 -0.35826566910E+03  0.42681820772E+03  0.57935542877E+03  0.25500000920E-02 0.  1.
</event>
<event>
 5   0  0.1119792E-02  0.7985924E+03  0.7818609E-02  0.9562057E-01
        2   -1    0    0  501    0  0.00000000000E+00  0.00000000000E+00  0.26486670703E+04  0.26486670703E+04  0.25500000920E-02 0.  1.
       -2   -1    0    0    0  501  0.00000000000E+00  0.00000000000E+00 -0.60195359743E+02  0.60195359798E+02  0.25500000920E-02 0. -1.
    10030    2    1    2    0    0  0.00000000000E+00  0.00000000000E+00  0.25884717105E+04  0.27088624301E+04  0.79859242975E+03 0.  0.
        4    1    3    3  502    0  0.16885413139E+03  0.22126963314E+03  0.22653561527E+04  0.22823917454E+04  0.12699999809E+01 0.  1.
       -4    1    3    3    0  502 -0.16885413139E+03 -0.22126963314E+03  0.32311555787E+03  0.42647068466E+03  0.12699999809E+01 0. -1.
</event>
<event>
 5   0  0.6517392E-03  0.8053266E+03  0.7818609E-02  0.9552339E-01
       -1   -1    0    0    0  501  0.00000000000E+00  0.00000000000E+00  0.99511785449E+03  0.99511785450E+03  0.50400001928E-02 0.  1.
        1   -1    0    0  501    0  0.00000000000E+00  0.00000000000E+00 -0.16293319917E+03  0.16293319924E+03  0.50400001928E-02 0. -1.
    10030    2    1    2    0    0  0.00000000000E+00  0.00000000000E+00  0.83218465532E+03  0.11580510537E+04  0.80532660612E+03 0.  0.
        3    1    3    3  502    0  0.36087648586E+03 -0.17056583930E+03  0.33982218444E+03  0.52421719814E+03  0.10100000352E+00 0.  1.
       -3    1    3    3    0  502 -0.36087648586E+03  0.17056583930E+03  0.49236247088E+03  0.63383385561E+03  0.10100000352E+00 0. -1.
</event>
<event>
 5   0  0.1121480E-02  0.8034401E+03  0.7818609E-02  0.9555051E-01
       -2   -1    0    0    0  501  0.00000000000E+00  0.00000000000E+00  0.58566542053E+03  0.58566542054E+03  0.25500000920E-02 0. -1.
        2   -1    0    0  501    0  0.00000000000E+00  0.00000000000E+00 -0.27554808696E+03  0.27554808697E+03  0.25500000920E-02 0.  1.
    10030    2    1    2    0    0  0.00000000000E+00  0.00000000000E+00  0.31011733357E+03  0.86121350751E+03  0.80344006929E+03 0.  0.
        2    1    3    3  502    0 -0.32525212589E+03 -0.11034630666E+03  0.37840093033E+03  0.51103083749E+03  0.25500000920E-02 0.  1.
       -2    1    3    3    0  502  0.32525212589E+03  0.11034630666E+03 -0.68283596760E+02  0.35018267002E+03  0.25500000920E-02 0. -1.
</event>
<event>
 5   0  0.1119792E-02  0.7739432E+03  0.7818609E-02  0.9598518E-01
        2   -1    0    0  501    0  0.00000000000E+00  0.00000000000E+00  0.38290691713E+03  0.38290691714E+03  0.25500000920E-02 0.  1.
       -2   -1    0    0    0  501  0.00000000000E+00  0.00000000000E+00 -0.39107938943E+03  0.39107938944E+03  0.25500000920E-02 0. -1.
    10030    2    1    2    0    0  0.00000000000E+00  0.00000000000E+00 -0.81724722946E+01  0.77398630658E+03  0.77394315907E+03 0.  0.
        4    1    3    3  502    0  0.28705663474E+03 -0.20578677033E+03 -0.16219528453E+03  0.38866261670E+03  0.12699999809E+01 0.  1.
       -4    1    3    3    0  502 -0.28705663474E+03  0.20578677033E+03  0.15402281224E+03  0.38532368988E+03  0.12699999809E+01 0. -1.
</event>
<event>
 5   0  0.1092868E-02  0.7969163E+03  0.7818609E-02  0.9564491E-01
        2   -1    0    0  501    0  0.00000000000E+00  0.00000000000E+00  0.10024977589E+04  0.10024977589E+04  0.25500000920E-02 0.  1.
       -2   -1    0    0    0  501  0.00000000000E+00  0.00000000000E+00 -0.15837331176E+03  0.15837331178E+03  0.25500000920E-02 0. -1.
    10030    2    1    2    0    0  0.00000000000E+00  0.00000000000E+00  0.84412444710E+03  0.11608710707E+04  0.79691628198E+03 0.  0.
        3    1    3    3  502    0 -0.13373432869E+02 -0.33730807610E+03  0.11369037967E+03  0.35620373320E+03  0.10100000352E+00 0. -1.
       -3    1    3    3    0  502  0.13373432869E+02  0.33730807610E+03  0.73043406743E+03  0.80466733746E+03  0.10100000352E+00 0.  1.
</event>
<event>
 5   0  0.6517392E-03  0.7901919E+03  0.7818609E-02  0.9574323E-01
       -1   -1    0    0    0  501  0.00000000000E+00  0.00000000000E+00  0.19291979901E+03  0.19291979908E+03  0.50400001928E-02 0. -1.
        1   -1    0    0  501    0  0.00000000000E+00  0.00000000000E+00 -0.80914867509E+03  0.80914867511E+03  0.50400001928E-02 0.  1.
    10030    2    1    2    0    0  0.00000000000E+00  0.00000000000E+00 -0.61622887608E+03  0.10020684742E+04  0.79019187496E+03 0.  0.
        3    1    3    3  502    0  0.62370143082E+02  0.50413975176E+02 -0.79871838477E+03  0.80273449659E+03  0.10100000352E+00 0.  1.
       -3    1    3    3    0  502 -0.62370143082E+02 -0.50413975176E+02  0.18248950869E+03  0.19933397760E+03  0.10100000352E+00 0. -1.
</event>
<event>
 5   0  0.1121480E-02  0.8144105E+03  0.7818609E-02  0.9539390E-01
        2   -1    0    0  501    0  0.00000000000E+00  0.00000000000E+00  0.49339130623E+03  0.49339130624E+03  0.25500000920E-02 0. -1.
       -2   -1    0    0    0  501  0.00000000000E+00  0.00000000000E+00 -0.33607423697E+03  0.33607423697E+03  0.25500000920E-02 0.  1.
    10030    2    1    2    0    0  0.00000000000E+00  0.00000000000E+00  0.15731706927E+03  0.82946554321E+03  0.81441047826E+03 0.  0.
        2    1    3    3  502    0 -0.30275470088E+03 -0.16791485954E+03 -0.13968805553E+03  0.37332099033E+03  0.25500000920E-02 0.  1.
       -2    1    3    3    0  502  0.30275470088E+03  0.16791485954E+03  0.29700512479E+03  0.45614455288E+03  0.25500000920E-02 0. -1.
</event>
<event>
 5   0  0.6596225E-03  0.7980827E+03  0.7818609E-02  0.9562796E-01
       -1   -1    0    0    0  501  0.00000000000E+00  0.00000000000E+00  0.11105553173E+03  0.11105553184E+03  0.50400001928E-02 0.  1.
        1   -1    0    0  501    0  0.00000000000E+00  0.00000000000E+00 -0.14338233560E+04  0.14338233560E+04  0.50400001928E-02 0. -1.
    10030    2    1    2    0    0  0.00000000000E+00  0.00000000000E+00 -0.13227678243E+04  0.15448788879E+04  0.79808274083E+03 0.  0.
        5    1    3    3  502    0 -0.13468653901E+03 -0.36380821615E+03 -0.84209354175E+03  0.92716800257E+03  0.46999998093E+01 0.  1.
       -5    1    3    3    0  502  0.13468653901E+03  0.36380821615E+03 -0.48067428256E+03  0.61771088532E+03  0.46999998093E+01 0. -1.
</event>
<event>
 5   0  0.6551489E-03  0.8045540E+03  0.7818609E-02  0.9553449E-01
        1   -1    0    0  501    0  0.00000000000E+00  0.00000000000E+00  0.53875575091E+03  0.53875575093E+03  0.50400001928E-02 0.  1.
       -1   -1    0    0    0  501  0.00000000000E+00  0.00000000000E+00 -0.30037133882E+03  0.30037133886E+03  0.50400001928E-02 0. -1.
    10030    2    1    2    0    0  0.00000000000E+00  0.00000000000E+00  0.23838441209E+03  0.83912708980E+03  0.80455400372E+03 0.  0.
        4    1    3    3  502    0 -0.30658615657E+03  0.14778642544E+03  0.34285864334E+03  0.48310408936E+03  0.12699999809E+01 0.  1.
       -4    1    3    3    0  502  0.30658615657E+03 -0.14778642544E+03 -0.10447423125E+03  0.35602300044E+03  0.12699999809E+01 0. -1.
</event>
<event>
 5   0  0.1121480E-02  0.8052855E+03  0.7818609E-02  0.9552398E-01
       -2   -1    0    0    0  501  0.00000000000E+00  0.00000000000E+00  0.88668091931E+02  0.88668091967E+02  0.25500000920E-02 0. -1.
        2   -1    0    0  501    0  0.00000000000E+00  0.00000000000E+00 -0.18284051671E+04  0.18284051671E+04  0.25500000920E-02 0.  1.
    10030    2    1    2    0    0  0.00000000000E+00  0.00000000000E+00 -0.17397370752E+04  0.19170732591E+04  0.80528553317E+03 0.  0.
        2    1    3    3  502    0 -0.35898604184E+03 -0.56436198404E+02 -0.45708660650E+03  0.58393851438E+03  0.25500000920E-02 0. -1.
       -2    1    3    3    0  502  0.35898604184E+03  0.56436198404E+02 -0.12826504687E+04  0.13331347447E+04  0.25500000920E-02 0.  1.
</event>
<event>
 5   0  0.6517392E-03  0.7968370E+03  0.7818609E-02  0.9564607E-01
        1   -1    0    0  501    0  0.00000000000E+00  0.00000000000E+00  0.13926127271E+04  0.13926127272E+04  0.50400001928E-02 0.  1.
       -1   -1    0    0    0  501  0.00000000000E+00  0.00000000000E+00 -0.11398524319E+03  0.11398524330E+03  0.50400001928E-02 0. -1.
    10030    2    1    2    0    0  0.00000000000E+00  0.00000000000E+00  0.12786274840E+04  0.15065979705E+04  0.79683699830E+03 0.  0.
        3    1    3    3  502    0 -0.31768344526E+03  0.16279374268E+03  0.97388471417E+03  0.10372444364E+04  0.10100000352E+00 0.  1.
       -3    1    3    3    0  502  0.31768344526E+03 -0.16279374268E+03  0.30474276979E+03  0.46935353411E+03  0.10100000352E+00 0. -1.
</event>
<event>
 5   0  0.6517392E-03  0.7987943E+03  0.7818609E-02  0.9561764E-01
        1   -1    0    0  501    0  0.00000000000E+00  0.00000000000E+00  0.44863673611E+03  0.44863673614E+03  0.50400001928E-02 0.  1.
       -1   -1    0    0    0  501  0.00000000000E+00  0.00000000000E+00 -0.35556183172E+03  0.35556183176E+03  0.50400001928E-02 0. -1.
    10030    2    1    2    0    0  0.00000000000E+00  0.00000000000E+00  0.93074904387E+02  0.80419856789E+03  0.79879434073E+03 0.  0.
        3    1    3    3  502    0 -0.23994450970E+03 -0.23365377071E+03 -0.17253674550E+03  0.37674446386E+03  0.10100000352E+00 0. -1.
       -3    1    3    3    0  502  0.23994450970E+03  0.23365377071E+03  0.26561164988E+03  0.42745410403E+03  0.10100000352E+00 0.  1.
</event>
<event>
 5   0  0.6517392E-03  0.8002693E+03  0.7818609E-02  0.9559627E-01
        1   -1    0    0  501    0  0.00000000000E+00  0.00000000000E+00  0.54814415860E+03  0.54814415863E+03  0.50400001928E-02 0. -1.
       -1   -1    0    0    0  501  0.00000000000E+00  0.00000000000E+00 -0.29209058252E+03  0.29209058256E+03  0.50400001928E-02 0.  1.
    10030    2    1    2    0    0  0.00000000000E+00  0.00000000000E+00  0.25605357608E+03  0.84023474119E+03  0.80026932121E+03 0.  0.
        3    1    3    3  502    0 -0.15762238135E+03  0.14107144601E+03  0.48463834909E+03  0.52879136490E+03  0.10100000352E+00 0. -1.
       -3    1    3    3    0  502  0.15762238135E+03 -0.14107144601E+03 -0.22858477301E+03  0.31144337629E+03  0.10100000352E+00 0.  1.
</event>
<event>
 5   0  0.6600401E-03  0.8007590E+03  0.7818609E-02  0.9558919E-01
       -1   -1    0    0    0  501  0.00000000000E+00  0.00000000000E+00  0.27217619706E+03  0.27217619711E+03  0.50400001928E-02 0. -1.
        1   -1    0    0  501    0  0.00000000000E+00  0.00000000000E+00 -0.58897046910E+03  0.58897046913E+03  0.50400001928E-02 0.  1.
    10030    2    1    2    0    0  0.00000000000E+00  0.00000000000E+00 -0.31679427204E+03  0.86114666623E+03  0.80075899618E+03 0.  0.
        2    1    3    3  502    0  0.85703675821E+02  0.17853262490E+03  0.21581681708E+03  0.29290940024E+03  0.25500000920E-02 0. -1.
       -2    1    3    3    0  502 -0.85703675821E+02 -0.17853262490E+03 -0.53261108912E+03  0.56823726600E+03  0.25500000920E-02 0.  1.
</event>
<event>
 5   0  0.1154714E-02  0.8049141E+03  0.7818609E-02  0.9552931E-01
       -2   -1    0    0    0  501  0.00000000000E+00  0.00000000000E+00  0.77941306168E+02  0.77941306210E+02  0.25500000920E-02 0. -1.
        2   -1    0    0  501    0  0.00000000000E+00  0.00000000000E+00 -0.20781235233E+04  0.20781235233E+04  0.25500000920E-02 0.  1.
    10030    2    1    2    0    0  0.00000000000E+00  0.00000000000E+00 -0.20001822171E+04  0.21560648295E+04  0.80491406207E+03 0.  0.
        5    1    3    3  502    0 -0.25804893818E+03 -0.17880222588E+03 -0.16744994840E+04  0.17036813383E+04  0.46999998093E+01 0.  1.
       -5    1    3    3    0  502  0.25804893818E+03  0.17880222588E+03 -0.32568273309E+03  0.45238349119E+03  0.46999998093E+01 0. -1.
</event>
<event>
 5   0  0.6551489E-03  0.8037667E+03  0.7818609E-02  0.9554581E-01
        1   -1    0    0  501    0  0.00000000000E+00  0.00000000000E+00  0.75040497825E+03  0.75040497827E+03  0.50400001928E-02 0. -1.
       -1   -1    0    0    0  501  0.00000000000E+00  0.00000000000E+00 -0.21523075383E+03  0.21523075389E+03  0.50400001928E-02 0.  1.
    10030    2    1    2    0    0  0.00000000000E+00  0.00000000000E+00  0.53517422443E+03  0.96563573216E+03  0.80376670541E+03 0.  0.
        4    1    3    3  502    0  0.29059145493E+03 -0.14352406140E+03  0.55306802904E+03  0.64103697828E+03  0.12699999809E+01 0. -1.
       -4    1    3    3    0  502 -0.29059145493E+03  0.14352406140E+03 -0.17893804612E+02  0.32459875388E+03  0.12699999809E+01 0.  1.
</event>
<event>
 5   0  0.6517392E-03  0.7973906E+03  0.7818609E-02  0.9563802E-01
       -1   -1    0    0    0  501  0.00000000000E+00  0.00000000000E+00  0.13675757084E+04  0.13675757084E+04  0.50400001928E-02 0.  1.
        1   -1    0    0  501    0  0.00000000000E+00  0.00000000000E+00 -0.11623338771E+03  0.11623338782E+03  0.50400001928E-02 0. -1.
    10030    2    1    2    0    0  0.00000000000E+00  0.00000000000E+00  0.12513423207E+04  0.14838090962E+04  0.79739063858E+03 0.  0.
        3    1    3    3  502    0  0.27383862107E+03  0.19998352821E+03  0.10159000579E+04  0.10709967039E+04  0.10100000352E+00 0.  1.
       -3    1    3    3    0  502 -0.27383862107E+03 -0.19998352821E+03  0.23544226279E+03  0.41281239233E+03  0.10100000352E+00 0. -1.
</event>
<event>
 5   0  0.1121480E-02  0.8011456E+03  0.7818609E-02  0.9558360E-01
       -2   -1    0    0    0  501  0.00000000000E+00  0.00000000000E+00  0.12145757933E+03  0.12145757936E+03  0.25500000920E-02 0. -1.
        2   -1    0    0  501    0  0.00000000000E+00  0.00000000000E+00 -0.13211077985E+04  0.13211077985E+04  0.25500000920E-02 0.  1.
    10030    2    1    2    0    0  0.00000000000E+00  0.00000000000E+00 -0.11996502192E+04  0.14425653779E+04  0.80114556796E+03 0.  0.
        2    1    3    3  502    0 -0.31401795747E+03 -0.24656968445E+03 -0.54134852115E+03  0.67265303705E+03  0.25500000920E-02 0. -1.
       -2    1    3    3    0  502  0.31401795747E+03  0.24656968445E+03 -0.65830169804E+03  0.76991234082E+03  0.25500000920E-02 0.  1.
</event>
<event>
 5   0  0.4385875E-03  0.7980215E+03  0.7818609E-02  0.9562885E-01
        4   -1    0    0  501    0  0.00000000000E+00  0.00000000000E+00  0.91805776843E+03  0.91805864686E+03  0.12699999809E+01 0.  1.
       -4   -1    0    0    0  501  0.00000000000E+00  0.00000000000E+00 -0.17341671407E+03  0.17342136437E+03  0.12699999809E+01 0. -1.
    10030    2    1    2    0    0  0.00000000000E+00  0.00000000000E+00  0.74464105436E+03  0.10914800112E+04  0.79802150038E+03 0.  0.
        3    1    3    3  502    0  0.53145914173E+02  0.22108021679E+03 -0.76138565756E+02  0.23978749309E+03  0.10100000352E+00 0. -1.
       -3    1    3    3    0  502 -0.53145914173E+02 -0.22108021679E+03  0.82077962012E+03  0.85169251814E+03  0.10100000352E+00 0.  1.
</event>
<event>
 5   0  0.1154714E-02  0.8086324E+03  0.7818609E-02  0.9547605E-01
        2   -1    0    0  501    0  0.00000000000E+00  0.00000000000E+00  0.17921606806E+04  0.17921606806E+04  0.25500000920E-02 0.  1.
       -2   -1    0    0    0  501  0.00000000000E+00  0.00000000000E+00 -0.91214815271E+02  0.91214815307E+02  0.25500000920E-02 0. -1.
    10030    2    1    2    0    0  0.00000000000E+00  0.00000000000E+00  0.17009458653E+04  0.18833754959E+04  0.80863243924E+03 0.  0.
        5    1    3    3  502    0  0.14189136217E+03 -0.37771804388E+03  0.90964440690E+03  0.99512768845E+03  0.46999998093E+01 0. -1.
       -5    1    3    3    0  502 -0.14189136217E+03  0.37771804388E+03  0.79130145839E+03  0.88824780742E+03  0.46999998093E+01 0.  1.
</event>
<event>
 5   0  0.6557679E-03  0.7936126E+03  0.7818609E-02  0.9569309E-01
       -1   -1    0    0    0  501  0.00000000000E+00  0.00000000000E+00  0.30388460041E+03  0.30388460045E+03  0.50400001928E-02 0. -1.
        1   -1    0    0  501    0  0.00000000000E+00  0.00000000000E+00 -0.51814151466E+03  0.51814151468E+03  0.50400001928E-02 0.  1.
    10030    2    1    2    0    0  0.00000000000E+00  0.00000000000E+00 -0.21425691424E+03  0.82202611513E+03  0.79361256836E+03 0.  0.
        1    1    3    3  502    0  0.20612227791E+03  0.30657170956E+03  0.42911503576E+02  0.37190590708E+03  0.50400001928E-02 0. -1.
       -1    1    3    3    0  502 -0.20612227791E+03 -0.30657170956E+03 -0.25716841782E+03  0.45012020806E+03  0.50400001928E-02 0.  1.
</event>
<event>
 5   0  0.1092868E-02  0.7964732E+03  0.7818609E-02  0.9565136E-01
        2   -1    0    0  501    0  0.00000000000E+00  0.00000000000E+00  0.10764774387E+04  0.10764774387E+04  0.25500000920E-02 0.  1.
       -2   -1    0    0    0  501  0.00000000000E+00  0.00000000000E+00 -0.14732532371E+03  0.14732532373E+03  0.25500000920E-02 0. -1.
    10030    2    1    2    0    0  0.00000000000E+00  0.00000000000E+00  0.92915211495E+03  0.12238027624E+04  0.79647319384E+03 0.  0.
        3    1    3    3  502    0 -0.25779541607E+03 -0.29691311967E+03  0.56146868755E+03  0.68546551663E+03  0.10100000352E+00 0. -1.
       -3    1    3    3    0  502  0.25779541607E+03  0.29691311967E+03  0.36768342739E+03  0.53833724575E+03  0.10100000352E+00 0.  1.
</event>
<event>
 5   0  0.1154714E-02  0.8104700E+03  0.7818609E-02  0.9544985E-01
       -2   -1    0    0    0  501  0.00000000000E+00  0.00000000000E+00  0.69783849555E+02  0.69783849602E+02  0.25500000920E-02 0.  1.
        2   -1    0    0  501    0  0.00000000000E+00  0.00000000000E+00 -0.23532005822E+04  0.23532005822E+04  0.25500000920E-02 0. -1.
    10030    2    1    2    0    0  0.00000000000E+00  0.00000000000E+00 -0.22834167326E+04  0.24229844318E+04  0.81046997590E+03 0.  0.
        5    1    3    3  502    0  0.28548171009E+03 -0.24431428988E+03 -0.15951439740E+04  0.16388092222E+04  0.46999998093E+01 0. -1.
       -5    1    3    3    0  502 -0.28548171009E+03  0.24431428988E+03 -0.68827275861E+03  0.78417520955E+03  0.46999998093E+01 0.  1.
</event>
<event>
 5   0  0.6557679E-03  0.7987908E+03  0.7818609E-02  0.9561769E-01
        1   -1    0    0  501    0  0.00000000000E+00  0.00000000000E+00  0.57676521450E+03  0.57676521452E+03  0.50400001928E-02 0.  1.
       -1   -1    0    0    0  501  0.00000000000E+00  0.00000000000E+00 -0.27657127191E+03  0.27657127195E+03  0.50400001928E-02 0. -1.
    10030    2    1    2    0    0  0.00000000000E+00  0.00000000000E+00  0.30019394259E+03  0.85333648648E+03  0.79879080865E+03 0.  0.
        1    1    3    3  502    0 -0.11404831365E+03  0.37125401676E+03  0.50567825855E+02  0.39165503679E+03  0.50400001928E-02 0.  1.
       -1    1    3    3    0  502  0.11404831365E+03 -0.37125401676E+03  0.24962611674E+03  0.46168144969E+03  0.50400001928E-02 0. -1.
</event>
<event>
 5   0  0.1121480E-02  0.7961286E+03  0.7818609E-02  0.9565638E-01
       -2   -1    0    0    0  501  0.00000000000E+00  0.00000000000E+00  0.37222420485E+03  0.37222420486E+03  0.25500000920E-02 0. -1.
        2   -1    0    0  501    0  0.00000000000E+00  0.00000000000E+00 -0.42569819083E+03  0.42569819083E+03  0.25500000920E-02 0.  1.
    10030    2    1    2    0    0  0.00000000000E+00  0.00000000000E+00 -0.53473985975E+02  0.79792239569E+03  0.79612855895E+03 0.  0.
        2    1    3    3  502    0  0.35845956558E+03  0.40079802445E+02  0.14203339875E+03  0.38765079271E+03  0.25500000920E-02 0. -1.
       -2    1    3    3    0  502 -0.35845956558E+03 -0.40079802445E+02 -0.19550738473E+03  0.41027160298E+03  0.25500000920E-02 0.  1.
</event>
<event>
 5   0  0.1154714E-02  0.7976098E+03  0.7818609E-02  0.9563483E-01
        2   -1    0    0  501    0  0.00000000000E+00  0.00000000000E+00  0.81368308758E+03  0.81368308758E+03  0.25500000920E-02 0.  1.
       -2   -1    0    0    0  501  0.00000000000E+00  0.00000000000E+00 -0.19546348711E+03  0.19546348713E+03  0.25500000920E-02 0. -1.
    10030    2    1    2    0    0  0.00000000000E+00  0.00000000000E+00  0.61821960046E+03  0.10091465747E+04  0.79760976352E+03 0.  0.
        5    1    3    3  502    0 -0.31822883359E+03 -0.20537247246E+03  0.15120730962E+03  0.40783965410E+03  0.46999998093E+01 0. -1.
       -5    1    3    3    0  502  0.31822883359E+03  0.20537247246E+03  0.46701229085E+03  0.60130692061E+03  0.46999998093E+01 0.  1.
</event>
<event>
 5   0  0.6600401E-03  0.7981761E+03  0.7818609E-02  0.9562661E-01
       -1   -1    0    0    0  501  0.00000000000E+00  0.00000000000E+00  0.19122858651E+04  0.19122858651E+04  0.50400001928E-02 0. -1.
        1   -1    0    0  501    0  0.00000000000E+00  0.00000000000E+00 -0.83288427688E+02  0.83288427840E+02  0.50400001928E-02 0.  1.
    10030    2    1    2    0    0  0.00000000000E+00  0.00000000000E+00  0.18289974374E+04  0.19955742929E+04  0.79817612881E+03 0.  0.
        2    1    3    3  502    0 -0.12200590274E+03 -0.33748641032E+03  0.47794359783E+03  0.59767265302E+03  0.25500000920E-02 0.  1.
       -2    1    3    3    0  502  0.12200590274E+03  0.33748641032E+03  0.13510538396E+04  0.13979016399E+04  0.25500000920E-02 0. -1.
</event>
<event>
 5   0  0.1154714E-02  0.7967523E+03  0.7818609E-02  0.9564730E-01
       -2   -1    0    0    0  501  0.00000000000E+00  0.00000000000E+00  0.13631332593E+03  0.13631332596E+03  0.25500000920E-02 0. -1.
        2   -1    0    0  501    0  0.00000000000E+00  0.00000000000E+00 -0.11642556191E+04  0.11642556191E+04  0.25500000920E-02 0.  1.
    10030    2    1    2    0    0  0.00000000000E+00  0.00000000000E+00 -0.10279422932E+04  0.13005689451E+04  0.79675229701E+03 0.  0.
        5    1    3    3  502    0 -0.20899010116E+03  0.31598033520E+03 -0.31298115844E+03  0.49142622046E+03  0.46999998093E+01 0. -1.
       -5    1    3    3    0  502  0.20899010116E+03 -0.31598033520E+03 -0.71496113477E+03  0.80914272465E+03  0.46999998093E+01 0.  1.
</event>
<event>
 5   0  0.6551489E-03  0.7995399E+03  0.7818609E-02  0.9560683E-01
        1   -1    0    0  501    0  0.00000000000E+00  0.00000000000E+00  0.16873590085E+04  0.16873590085E+04  0.50400001928E-02 0.  1.
       -1   -1    0    0    0  501  0.00000000000E+00  0.00000000000E+00 -0.94713705572E+02  0.94713705706E+02  0.50400001928E-02 0. -1.
    10030    2    1    2    0    0  0.00000000000E+00  0.00000000000E+00  0.15926453030E+04  0.17820727143E+04  0.79953992885E+03 0.  0.
        4    1    3    3  502    0  0.19062127333E+03 -0.14775238587E+03  0.15069352752E+04  0.15261136177E+04  0.12699999809E+01 0.  1.
       -4    1    3    3    0  502 -0.19062127333E+03  0.14775238587E+03  0.85710027743E+02  0.25595909660E+03  0.12699999809E+01 0. -1.
</event>
<event>
 5   0  0.6596225E-03  0.7975127E+03  0.7818609E-02  0.9563624E-01
       -1   -1    0    0    0  501  0.00000000000E+00  0.00000000000E+00  0.14519387863E+03  0.14519387872E+03  0.50400001928E-02 0.  1.
        1   -1    0    0  501    0  0.00000000000E+00  0.00000000000E+00 -0.10951330145E+04  0.10951330145E+04  0.50400001928E-02 0. -1.
    10030    2    1    2    0    0  0.00000000000E+00  0.00000000000E+00 -0.94993913584E+03  0.12403268932E+04  0.79751265833E+03 0.  0.
        5    1    3    3  502    0  0.34547389445E+03 -0.11283958779E+02 -0.78408771509E+03  0.85691024876E+03  0.46999998093E+01 0. -1.
       -5    1    3    3    0  502 -0.34547389445E+03  0.11283958779E+02 -0.16585142075E+03  0.38341664444E+03  0.46999998093E+01 0.  1.
</event>
<event>
 5   0  0.6596225E-03  0.7914958E+03  0.7818609E-02  0.9572409E-01
        1   -1    0    0  501    0  0.00000000000E+00  0.00000000000E+00  0.10624745590E+04  0.10624745590E+04  0.50400001928E-02 0. -1.
       -1   -1    0    0    0  501  0.00000000000E+00  0.00000000000E+00 -0.14740721467E+03  0.14740721476E+03  0.50400001928E-02 0.  1.
    10030    2    1    2    0    0  0.00000000000E+00  0.00000000000E+00  0.91506734434E+03  0.12098817738E+04  0.79149583818E+03 0.  0.
        5    1    3    3  502    0  0.19323418423E+03 -0.13451336684E+03 -0.28650615438E+02  0.23722614438E+03  0.46999998093E+01 0.  1.
       -5    1    3    3    0  502 -0.19323418423E+03  0.13451336684E+03  0.94371795977E+03  0.97265562940E+03  0.46999998093E+01 0. -1.
</event>
<event>
 5   0  0.6596225E-03  0.8049069E+03  0.7818609E-02  0.9552942E-01
       -1   -1    0    0    0  501  0.00000000000E+00  0.00000000000E+00  0.10673529023E+03  0.10673529035E+03  0.50400001928E-02 0.  1.
        1   -1    0    0  501    0  0.00000000000E+00  0.00000000000E+00 -0.15174811186E+04  0.15174811187E+04  0.50400001928E-02 0. -1.
    10030    2    1    2    0    0  0.00000000000E+00  0.00000000000E+00 -0.14107458284E+04  0.16242164090E+04  0.80490692065E+03 0.  0.
        5    1    3    3  502    0  0.27823707128E+03 -0.57576039811E+02 -0.12804400837E+04  0.13115943604E+04  0.46999998093E+01 0. -1.
       -5    1    3    3    0  502 -0.27823707128E+03  0.57576039811E+02 -0.13030574471E+03  0.31262204865E+03  0.46999998093E+01 0.  1.
</event>
<event>
 5   0  0.1092868E-02  0.8010191E+03  0.7818609E-02  0.9558543E-01
       -2   -1    0    0    0  501  0.00000000000E+00  0.00000000000E+00  0.21026683893E+03  0.21026683895E+03  0.25500000920E-02 0.  1.
        2   -1    0    0  501    0  0.00000000000E+00  0.00000000000E+00 -0.76287772805E+03  0.76287772806E+03  0.25500000920E-02 0. -1.
    10030    2    1    2    0    0  0.00000000000E+00  0.00000000000E+00 -0.55261088912E+03  0.97314456700E+03  0.80101907188E+03 0.  0.
        3    1    3    3  502    0  0.17930343143E+03 -0.11050538879E+03 -0.69016304423E+03  0.72158589184E+03  0.10100000352E+00 0. -1.
       -3    1    3    3    0  502 -0.17930343143E+03  0.11050538879E+03  0.13755215511E+03  0.25155867516E+03  0.10100000352E+00 0.  1.
</event>
<event>
 5   0  0.6596225E-03  0.8064715E+03  0.7818609E-02  0.9550697E-01
       -1   -1    0    0    0  501  0.00000000000E+00  0.00000000000E+00  0.25815373686E+03  0.25815373691E+03  0.50400001928E-02 0. -1.
        1   -1    0    0  501    0  0.00000000000E+00  0.00000000000E+00 -0.62985366437E+03  0.62985366439E+03  0.50400001928E-02 0.  1.
    10030    2    1    2    0    0  0.00000000000E+00  0.00000000000E+00 -0.37169992751E+03  0.88800740130E+03  0.80647151757E+03 0.  0.
        5    1    3    3  502    0 -0.83202945902E+02 -0.15025716464E+03  0.21582902979E+03  0.27586990744E+03  0.46999998093E+01 0. -1.
       -5    1    3    3    0  502  0.83202945902E+02  0.15025716464E+03 -0.58752895729E+03  0.61213749386E+03  0.46999998093E+01 0.  1.
</event>
<event>
 5   0  0.6596225E-03  0.8107840E+03  0.7818609E-02  0.9544538E-01
        1   -1    0    0  501    0  0.00000000000E+00  0.00000000000E+00  0.57389784014E+03  0.57389784016E+03  0.50400001928E-02 0.  1.
       -1   -1    0    0    0  501  0.00000000000E+00  0.00000000000E+00 -0.28636227680E+03  0.28636227684E+03  0.50400001928E-02 0. -1.
    10030    2    1    2    0    0  0.00000000000E+00  0.00000000000E+00  0.28753556334E+03  0.86026011701E+03  0.81078404568E+03 0.  0.
        5    1    3    3  502    0 -0.21112456402E+03  0.26837735585E+03  0.37554866463E+03  0.50760109945E+03  0.46999998093E+01 0.  1.
       -5    1    3    3    0  502  0.21112456402E+03 -0.26837735585E+03 -0.88013101288E+02  0.35265901755E+03  0.46999998093E+01 0. -1.
</event>
<event>
 5   0  0.1092868E-02  0.8011027E+03  0.7818609E-02  0.9558422E-01
       -2   -1    0    0    0  501  0.00000000000E+00  0.00000000000E+00  0.21467644536E+03  0.21467644537E+03  0.25500000920E-02 0.  1.
        2   -1    0    0  501    0  0.00000000000E+00  0.00000000000E+00 -0.74736367526E+03  0.74736367526E+03  0.25500000920E-02 0. -1.
    10030    2    1    2    0    0  0.00000000000E+00  0.00000000000E+00 -0.53268722990E+03  0.96204012063E+03  0.80110268306E+03 0.  0.
        3    1    3    3  502    0 -0.14286445273E+03  0.19703331753E+03  0.11570139951E+03  0.26947950594E+03  0.10100000352E+00 0.  1.
       -3    1    3    3    0  502  0.14286445273E+03 -0.19703331753E+03 -0.64838862942E+03  0.69256061470E+03  0.10100000352E+00 0. -1.
</event>
<event>
 5   0  0.1106332E-02  0.7945107E+03  0.7818609E-02  0.9567997E-01
        2   -1    0    0  501    0  0.00000000000E+00  0.00000000000E+00  0.66696633815E+03  0.66696633815E+03  0.25500000920E-02 0. -1.
       -2   -1    0    0    0  501  0.00000000000E+00  0.00000000000E+00 -0.23661133831E+03  0.23661133832E+03  0.25500000920E-02 0.  1.
    10030    2    1    2    0    0  0.00000000000E+00  0.00000000000E+00  0.43035499984E+03  0.90357767648E+03  0.79451066169E+03 0.  0.
        1    1    3    3  502    0 -0.24004976201E+03  0.20339426461E+02  0.57440942717E+03  0.62288343256E+03  0.50400001928E-02 0. -1.
       -1    1    3    3    0  502  0.24004976201E+03 -0.20339426461E+02 -0.14405442733E+03  0.28069424392E+03  0.50400001928E-02 0.  1.
</event>
<event>
 5   0  0.1119792E-02  0.7929225E+03  0.7818609E-02  0.9570318E-01
        2   -1    0    0  501    0  0.00000000000E+00  0.00000000000E+00  0.47230578613E+03  0.47230578614E+03  0.25500000920E-02 0. -1.
       -2   -1    0    0    0  501  0.00000000000E+00  0.00000000000E+00 -0.33279610758E+03  0.33279610759E+03  0.25500000920E-02 0.  1.
    10030    2    1    2    0    0  0.00000000000E+00  0.00000000000E+00  0.13950967855E+03  0.80510189373E+03  0.79292251127E+03 0.  0.
        4    1    3    3  502    0 -0.26315315900E+03  0.19167456069E+03  0.29948484407E+03  0.44235902504E+03  0.12699999809E+01 0. -1.
       -4    1    3    3    0  502  0.26315315900E+03 -0.19167456069E+03 -0.15997516552E+03  0.36274286869E+03  0.12699999809E+01 0.  1.
</event>
<event>
 5   0  0.6600401E-03  0.8020400E+03  0.7818609E-02  0.9557069E-01
       -1   -1    0    0    0  501  0.00000000000E+00  0.00000000000E+00  0.35210245924E+03  0.35210245927E+03  0.50400001928E-02 0.  1.
        1   -1    0    0  501    0  0.00000000000E+00  0.00000000000E+00 -0.45673369341E+03  0.45673369344E+03  0.50400001928E-02 0. -1.
    10030    2    1    2    0    0  0.00000000000E+00  0.00000000000E+00 -0.10463123417E+03  0.80883615271E+03  0.80204004062E+03 0.  0.
        2    1    3    3  502    0 -0.35542633889E+02 -0.39883476307E+03 -0.30115231203E+02  0.40154622924E+03  0.25500000920E-02 0.  1.
       -2    1    3    3    0  502  0.35542633889E+02  0.39883476307E+03 -0.74516002969E+02  0.40728992347E+03  0.25500000920E-02 0. -1.
</event>
<event>
 5   0  0.1154714E-02  0.7879982E+03  0.7818609E-02  0.9577554E-01
        2   -1    0    0  501    0  0.00000000000E+00  0.00000000000E+00  0.67746032258E+03  0.67746032259E+03  0.25500000920E-02 0.  1.
       -2   -1    0    0    0  501  0.00000000000E+00  0.00000000000E+00 -0.22914298930E+03  0.22914298931E+03  0.25500000920E-02 0. -1.
    10030    2    1    2    0    0  0.00000000000E+00  0.00000000000E+00  0.44831733329E+03  0.90660331190E+03  0.78799818136E+03 0.  0.
        5    1    3    3  502    0  0.35514073429E+03  0.45216409136E+01  0.28004191588E+02  0.35630283627E+03  0.46999998093E+01 0. -1.
       -5    1    3    3    0  502 -0.35514073429E+03 -0.45216409136E+01  0.42031314170E+03  0.55030047563E+03  0.46999998093E+01 0.  1.
</event>
<event>
 5   0  0.6551489E-03  0.7962598E+03  0.7818609E-02  0.9565447E-01
        1   -1    0    0  501    0  0.00000000000E+00  0.00000000000E+00  0.70290837367E+03  0.70290837369E+03  0.50400001928E-02 0.  1.
       -1   -1    0    0    0  501  0.00000000000E+00  0.00000000000E+00 -0.22550224828E+03  0.22550224834E+03  0.50400001928E-02 0. -1.
    10030    2    1    2    0    0  0.00000000000E+00  0.00000000000E+00  0.47740612539E+03  0.92841062203E+03  0.79625980341E+03 0.  0.
        4    1    3    3  502    0 -0.15664272551E+02  0.22563836789E+03 -0.14331316180E+03  0.26776541551E+03  0.12699999809E+01 0. -1.
       -4    1    3    3    0  502  0.15664272551E+02 -0.22563836789E+03  0.62071928719E+03  0.66064520651E+03  0.12699999809E+01 0.  1.
</event>
<event>
 5   0  0.1106332E-02  0.8015829E+03  0.7818609E-02  0.9557729E-01
       -2   -1    0    0    0  501  0.00000000000E+00  0.00000000000E+00  0.13447444713E+03  0.13447444715E+03  0.25500000920E-02 0. -1.
        2   -1    0    0  501    0  0.00000000000E+00  0.00000000000E+00 -0.11945301373E+04  0.11945301373E+04  0.25500000920E-02 0.  1.
    10030    2    1    2    0    0  0.00000000000E+00  0.00000000000E+00 -0.10600556901E+04  0.13290045844E+04  0.80158288356E+03 0.  0.
        1    1    3    3  502    0 -0.43173010648E+02 -0.29672962067E+03 -0.89114261781E+02  0.31281580572E+03  0.50400001928E-02 0. -1.
       -1    1    3    3    0  502  0.43173010648E+02  0.29672962067E+03 -0.97094142836E+03  0.10161887787E+04  0.50400001928E-02 0.  1.
</event>
<event>
 5   0  0.1154714E-02  0.7956189E+03  0.7818609E-02  0.9566380E-01
        2   -1    0    0  501    0  0.00000000000E+00  0.00000000000E+00  0.13598282227E+04  0.13598282227E+04  0.25500000920E-02 0. -1.
       -2   -1    0    0    0  501  0.00000000000E+00  0.00000000000E+00 -0.11637673267E+03  0.11637673270E+03  0.25500000920E-02 0.  1.
    10030    2    1    2    0    0  0.00000000000E+00  0.00000000000E+00  0.12434514900E+04  0.14762049554E+04  0.79561891774E+03 0.  0.
        5    1    3    3  502    0  0.16214026093E+03 -0.19697836561E+03  0.55472824015E+02  0.26113074300E+03  0.46999998093E+01 0.  1.
       -5    1    3    3    0  502 -0.16214026093E+03  0.19697836561E+03  0.11879786660E+04  0.12150742124E+04  0.46999998093E+01 0. -1.
</event>
<event>
 5   0  0.1121480E-02  0.8034140E+03  0.7818609E-02  0.9555089E-01
        2   -1    0    0  501    0  0.00000000000E+00  0.00000000000E+00  0.13505929757E+04  0.13505929757E+04  0.25500000920E-02 0.  1.
       -2   -1    0    0    0  501  0.00000000000E+00  0.00000000000E+00 -0.11947974768E+03  0.11947974770E+03  0.25500000920E-02 0. -1.
    10030    2    1    2    0    0  0.00000000000E+00  0.00000000000E+00  0.12311132280E+04  0.14700727234E+04  0.80341398537E+03 0.  0.
        2    1    3    3  502    0  0.35501275929E+03 -0.46733882797E+01  0.27171033437E+03  0.44708210166E+03  0.25500000920E-02 0.  1.
       -2    1    3    3    0  502 -0.35501275929E+03  0.46733882797E+01  0.95940289367E+03  0.10229906218E+04  0.25500000920E-02 0. -1.
</event>
<event>
 5   0  0.6557679E-03  0.7941702E+03  0.7818609E-02  0.9568494E-01
       -1   -1    0    0    0  501  0.00000000000E+00  0.00000000000E+00  0.12762232492E+03  0.12762232502E+03  0.50400001928E-02 0.  1.
        1   -1    0    0  501    0  0.00000000000E+00  0.00000000000E+00 -0.12354936251E+04  0.12354936251E+04  0.50400001928E-02 0. -1.
    10030    2    1    2    0    0  0.00000000000E+00  0.00000000000E+00 -0.11078713001E+04  0.13631159501E+04  0.79417018058E+03 0.  0.
        1    1    3    3  502    0  0.31264463852E+03  0.34021248162E+01 -0.13379079127E+03  0.34008560732E+03  0.50400001928E-02 0.  1.
       -1    1    3    3    0  502 -0.31264463852E+03 -0.34021248162E+01 -0.97408050887E+03  0.10230303428E+04  0.50400001928E-02 0. -1.
</event>
<event>
 5   0  0.6551489E-03  0.7997207E+03  0.7818609E-02  0.9560422E-01
        1   -1    0    0  501    0  0.00000000000E+00  0.00000000000E+00  0.20423694406E+04  0.20423694406E+04  0.50400001928E-02 0.  1.
       -1   -1    0    0    0  501  0.00000000000E+00  0.00000000000E+00 -0.78285684520E+02  0.78285684682E+02  0.50400001928E-02 0. -1.
    10030    2    1    2    0    0  0.00000000000E+00  0.00000000000E+00  0.19640837561E+04  0.21206551253E+04  0.79972067593E+03 0.  0.
        4    1    3    3  502    0 -0.24084259632E+03  0.22286990219E+03  0.15879555645E+04  0.16215056698E+04  0.12699999809E+01 0.  1.
       -4    1    3    3    0  502  0.24084259632E+03 -0.22286990219E+03  0.37612819161E+03  0.49914945550E+03  0.12699999809E+01 0. -1.
</event>
<event>
 5   0  0.1121480E-02  0.8108330E+03  0.7818609E-02  0.9544468E-01
       -2   -1    0    0    0  501  0.00000000000E+00  0.00000000000E+00  0.20754076236E+03  0.20754076237E+03  0.25500000920E-02 0. -1.
        2   -1    0    0  501    0  0.00000000000E+00  0.00000000000E+00 -0.79195311532E+03  0.79195311532E+03  0.25500000920E-02 0.  1.
    10030    2    1    2    0    0  0.00000000000E+00  0.00000000000E+00 -0.58441235296E+03  0.99949387770E+03  0.81083303661E+03 0.  0.
        2    1    3    3  502    0  0.87189782738E+02 -0.13975810312E+03 -0.74884237425E+03  0.76674590776E+03  0.25500000920E-02 0.  1.
       -2    1    3    3    0  502 -0.87189782738E+02  0.13975810312E+03  0.16443002128E+03  0.23274796993E+03  0.25500000920E-02 0. -1.
</event>
<event>
 5   0  0.1154714E-02  0.8154256E+03  0.7818609E-02  0.9537954E-01
       -2   -1    0    0    0  501  0.00000000000E+00  0.00000000000E+00  0.11986427598E+03  0.11986427601E+03  0.25500000920E-02 0. -1.
        2   -1    0    0  501    0  0.00000000000E+00  0.00000000000E+00 -0.13868162116E+04  0.13868162116E+04  0.25500000920E-02 0.  1.
    10030    2    1    2    0    0  0.00000000000E+00  0.00000000000E+00 -0.12669519356E+04  0.15066804876E+04  0.81542558496E+03 0.  0.
        5    1    3    3  502    0 -0.19998733423E+01  0.23941355718E+03 -0.12431818988E+04  0.12660356134E+04  0.46999998093E+01 0.  1.
       -5    1    3    3    0  502  0.19998733423E+01 -0.23941355718E+03 -0.23770036838E+02  0.24064487425E+03  0.46999998093E+01 0. -1.
</event>
<event>
 5   0  0.6551489E-03  0.7929272E+03  0.7818609E-02  0.9570311E-01
        1   -1    0    0  501    0  0.00000000000E+00  0.00000000000E+00  0.33923484297E+03  0.33923484301E+03  0.50400001928E-02 0. -1.
       -1   -1    0    0    0  501  0.00000000000E+00  0.00000000000E+00 -0.46334687780E+03  0.46334687782E+03  0.50400001928E-02 0.  1.
    10030    2    1    2    0    0  0.00000000000E+00  0.00000000000E+00 -0.12411203483E+03  0.80258172083E+03  0.79292724850E+03 0.  0.
        4    1    3    3  502    0 -0.21671875924E+03 -0.68409752062E+02 -0.39087276355E+03  0.45213940878E+03  0.12699999809E+01 0.  1.
       -4    1    3    3    0  502  0.21671875924E+03  0.68409752062E+02  0.26676072873E+03  0.35044231205E+03  0.12699999809E+01 0. -1.
</event>
<event>
 5   0  0.6600401E-03  0.8001423E+03  0.7818609E-02  0.9559811E-01
       -1   -1    0    0    0  501  0.00000000000E+00  0.00000000000E+00  0.17112039437E+03  0.17112039445E+03  0.50400001928E-02 0. -1.
        1   -1    0    0  501    0  0.00000000000E+00  0.00000000000E+00 -0.93534682469E+03  0.93534682471E+03  0.50400001928E-02 0.  1.
    10030    2    1    2    0    0  0.00000000000E+00  0.00000000000E+00 -0.76422643032E+03  0.11064672192E+04  0.80014228126E+03 0.  0.
        2    1    3    3  502    0  0.10767949639E+02 -0.14123822158E+03 -0.89951042059E+03  0.91059495975E+03  0.25500000920E-02 0.  1.
       -2    1    3    3    0  502 -0.10767949639E+02  0.14123822158E+03  0.13528399027E+03  0.19587225940E+03  0.25500000920E-02 0. -1.
</event>
<event>
 5   0  0.4385875E-03  0.8131500E+03  0.7818609E-02  0.9541176E-01
        3   -1    0    0  501    0  0.00000000000E+00  0.00000000000E+00  0.24582124581E+03  0.24582126656E+03  0.10100000352E+00 0. -1.
       -3   -1    0    0    0  501  0.00000000000E+00  0.00000000000E+00 -0.67245295223E+03  0.67245295982E+03  0.10100000352E+00 0.  1.
    10030    2    1    2    0    0  0.00000000000E+00  0.00000000000E+00 -0.42663170642E+03  0.91827422638E+03  0.81315001193E+03 0.  0.
        3    1    3    3  502    0  0.20186171844E+03 -0.27728407656E+03  0.33241511254E+02  0.34458615868E+03  0.10100000352E+00 0. -1.
       -3    1    3    3    0  502 -0.20186171844E+03  0.27728407656E+03 -0.45987321768E+03  0.57368806770E+03  0.10100000352E+00 0.  1.
</event>
<event>
 5   0  0.1119792E-02  0.8048492E+03  0.7818609E-02  0.9553024E-01
       -2   -1    0    0    0  501  0.00000000000E+00  0.00000000000E+00  0.18912388191E+03  0.18912388193E+03  0.25500000920E-02 0. -1.
        2   -1    0    0  501    0  0.00000000000E+00  0.00000000000E+00 -0.85629364697E+03  0.85629364698E+03  0.25500000920E-02 0.  1.
    10030    2    1    2    0    0  0.00000000000E+00  0.00000000000E+00 -0.66716976506E+03  0.10454175289E+04  0.80484924945E+03 0.  0.
        4    1    3    3  502    0 -0.38075107857E+02  0.19303256592E+03 -0.78955688994E+03  0.81370325101E+03  0.12699999809E+01 0.  1.
       -4    1    3    3    0  502  0.38075107857E+02 -0.19303256592E+03  0.12238712488E+03  0.23171427790E+03  0.12699999809E+01 0. -1.
</event>
<event>
 5   0  0.6596225E-03  0.8031020E+03  0.7818609E-02  0.9555538E-01
        1   -1    0    0  501    0  0.00000000000E+00  0.00000000000E+00  0.73266729697E+03  0.73266729698E+03  0.50400001928E-02 0. -1.
       -1   -1    0    0    0  501  0.00000000000E+00  0.00000000000E+00 -0.22007699327E+03  0.22007699332E+03  0.50400001928E-02 0.  1.
    10030    2    1    2    0    0  0.00000000000E+00  0.00000000000E+00  0.51259030370E+03  0.95274429031E+03  0.80310202544E+03 0.  0.
        5    1    3    3  502    0  0.15734690752E+03  0.20407705631E+03  0.62159173059E+03  0.67290702460E+03  0.46999998093E+01 0. -1.
       -5    1    3    3    0  502 -0.15734690752E+03 -0.20407705631E+03 -0.10900142689E+03  0.27983726571E+03  0.46999998093E+01 0.  1.
</event>
<event>
 5   0  0.1119792E-02  0.8000246E+03  0.7818609E-02  0.9559982E-01
       -2   -1    0    0    0  501  0.00000000000E+00  0.00000000000E+00  0.37938522037E+03  0.37938522037E+03  0.25500000920E-02 0.  1.
        2   -1    0    0  501    0  0.00000000000E+00  0.00000000000E+00 -0.42176086532E+03  0.42176086533E+03  0.25500000920E-02 0. -1.
    10030    2    1    2    0    0  0.00000000000E+00  0.00000000000E+00 -0.42375644956E+02  0.80114608570E+03  0.80002459672E+03 0.  0.
        4    1    3    3  502    0  0.11075941974E+03  0.17309189841E+03 -0.36485948944E+03  0.41875113646E+03  0.12699999809E+01 0. -1.
       -4    1    3    3    0  502 -0.11075941974E+03 -0.17309189841E+03  0.32248384448E+03  0.38239494924E+03  0.12699999809E+01 0.  1.
</event>
<event>
 5   0  0.1119792E-02  0.7989499E+03  0.7818609E-02  0.9561538E-01
       -2   -1    0    0    0  501  0.00000000000E+00  0.00000000000E+00  0.14588638107E+03  0.14588638109E+03  0.25500000920E-02 0.  1.
        2   -1    0    0  501    0  0.00000000000E+00  0.00000000000E+00 -0.10938664466E+04  0.10938664466E+04  0.25500000920E-02 0. -1.
    10030    2    1    2    0    0  0.00000000000E+00  0.00000000000E+00 -0.94798006555E+03  0.12397528277E+04  0.79894985396E+03 0.  0.
        4    1    3    3  502    0 -0.20419399608E+03  0.88053552611E+02 -0.98894396906E+03  0.10136372147E+04  0.12699999809E+01 0. -1.
       -4    1    3    3    0  502  0.20419399608E+03 -0.88053552611E+02  0.40963903511E+02  0.22611561303E+03  0.12699999809E+01 0.  1.
</event>
<event>
 5   0  0.1092868E-02  0.7922674E+03  0.7818609E-02  0.9571278E-01
       -2   -1    0    0    0  501  0.00000000000E+00  0.00000000000E+00  0.17238596578E+03  0.17238596580E+03  0.25500000920E-02 0. -1.
        2   -1    0    0  501    0  0.00000000000E+00  0.00000000000E+00 -0.91029392228E+03  0.91029392229E+03  0.25500000920E-02 0.  1.
    10030    2    1    2    0    0  0.00000000000E+00  0.00000000000E+00 -0.73790795650E+03  0.10826798881E+04  0.79226737141E+03 0.  0.
        3    1    3    3  502    0  0.19999013047E+03  0.31260179143E+03 -0.17956868692E+03  0.41226309053E+03  0.10100000352E+00 0. -1.
       -3    1    3    3    0  502 -0.19999013047E+03 -0.31260179143E+03 -0.55833926958E+03  0.67041679756E+03  0.10100000352E+00 0.  1.
</event>
<event>
 5   0  0.6600401E-03  0.8034910E+03  0.7818609E-02  0.9554978E-01
        1   -1    0    0  501    0  0.00000000000E+00  0.00000000000E+00  0.42337830397E+03  0.42337830400E+03  0.50400001928E-02 0. -1.
       -1   -1    0    0    0  501  0.00000000000E+00  0.00000000000E+00 -0.38121799598E+03  0.38121799602E+03  0.50400001928E-02 0.  1.
    10030    2    1    2    0    0  0.00000000000E+00  0.00000000000E+00  0.42160307985E+02  0.80459630001E+03  0.80349095479E+03 0.  0.
        2    1    3    3  502    0 -0.21912052303E+03  0.15153091178E+03  0.32219967779E+03  0.41807661166E+03  0.25500000920E-02 0. -1.
       -2    1    3    3    0  502  0.21912052303E+03 -0.15153091178E+03 -0.28003936981E+03  0.38651968836E+03  0.25500000920E-02 0.  1.
</event>
<event>
 5   0  0.6551489E-03  0.8032314E+03  0.7818609E-02  0.9555352E-01
        1   -1    0    0  501    0  0.00000000000E+00  0.00000000000E+00  0.53091619854E+03  0.53091619857E+03  0.50400001928E-02 0. -1.
       -1   -1    0    0    0  501  0.00000000000E+00  0.00000000000E+00 -0.30380532360E+03  0.30380532364E+03  0.50400001928E-02 0.  1.
    10030    2    1    2    0    0  0.00000000000E+00  0.00000000000E+00  0.22711087495E+03  0.83472152221E+03  0.80323139263E+03 0.  0.
        4    1    3    3  502    0 -0.28789858316E+03 -0.14938009953E+03  0.35968137674E+03  0.48432666042E+03  0.12699999809E+01 0. -1.
       -4    1    3    3    0  502  0.28789858316E+03  0.14938009953E+03 -0.13257050180E+03  0.35039486178E+03  0.12699999809E+01 0.  1.
</event>
<event>
 5   0  0.6596225E-03  0.7988512E+03  0.7818609E-02  0.9561681E-01
       -1   -1    0    0    0  501  0.00000000000E+00  0.00000000000E+00  0.61301225376E+03  0.61301225378E+03  0.50400001928E-02 0.  1.
        1   -1    0    0  501    0  0.00000000000E+00  0.00000000000E+00 -0.26025715290E+03  0.26025715295E+03  0.50400001928E-02 0. -1.
    10030    2    1    2    0    0  0.00000000000E+00  0.00000000000E+00  0.35275510087E+03  0.87326940673E+03  0.79885123493E+03 0.  0.
        5    1    3    3  502    0  0.39427221922E+03 -0.56706102645E+02  0.20829638996E+03  0.44952824271E+03  0.46999998093E+01 0.  1.
       -5    1    3    3    0  502 -0.39427221922E+03  0.56706102645E+02  0.14445871091E+03  0.42374116402E+03  0.46999998093E+01 0. -1.
</event>
<event>
 5   0  0.1106332E-02  0.8061120E+03  0.7818609E-02  0.9551212E-01
        2   -1    0    0  501    0  0.00000000000E+00  0.00000000000E+00  0.18789422427E+04  0.18789422427E+04  0.25500000920E-02 0. -1.
       -2   -1    0    0    0  501  0.00000000000E+00  0.00000000000E+00 -0.86460419281E+02  0.86460419318E+02  0.25500000920E-02 0.  1.
    10030    2    1    2    0    0  0.00000000000E+00  0.00000000000E+00  0.17924818234E+04  0.19654026620E+04  0.80611198763E+03 0.  0.
        1    1    3    3  502    0 -0.11209805765E+02  0.20116750446E+03  0.45128463547E+02  0.20647179673E+03  0.50400001928E-02 0.  1.
       -1    1    3    3    0  502  0.11209805765E+02 -0.20116750446E+03  0.17473533599E+04  0.17589308653E+04  0.50400001928E-02 0. -1.
</event>
<event>
 5   0  0.1154714E-02  0.7997313E+03  0.7818609E-02  0.9560406E-01
        2   -1    0    0  501    0  0.00000000000E+00  0.00000000000E+00  0.19987754587E+04  0.19987754587E+04  0.25500000920E-02 0. -1.
       -2   -1    0    0    0  501  0.00000000000E+00  0.00000000000E+00 -0.79995252898E+02  0.79995252939E+02  0.25500000920E-02 0.  1.
    10030    2    1    2    0    0  0.00000000000E+00  0.00000000000E+00  0.19187802058E+04  0.20787707116E+04  0.79973132575E+03 0.  0.
        5    1    3    3  502    0  0.20246509331E+03  0.34010015871E+03  0.11066655369E+04  0.11753258835E+04  0.46999998093E+01 0. -1.
       -5    1    3    3    0  502 -0.20246509331E+03 -0.34010015871E+03  0.81211466889E+03  0.90344482808E+03  0.46999998093E+01 0.  1.
</event>
<event>
 5   0  0.1119792E-02  0.7938227E+03  0.7818609E-02  0.9569002E-01
        2   -1    0    0  501    0  0.00000000000E+00  0.00000000000E+00  0.90475940175E+03  0.90475940175E+03  0.25500000920E-02 0. -1.
       -2   -1    0    0    0  501  0.00000000000E+00  0.00000000000E+00 -0.17412213186E+03  0.17412213188E+03  0.25500000920E-02 0.  1.
    10030    2    1    2    0    0  0.00000000000E+00  0.00000000000E+00  0.73063726989E+03  0.10788815336E+04  0.79382274059E+03 0.  0.
        4    1    3    3  502    0 -0.97064631500E+02 -0.29832762762E+03  0.69576664169E+03  0.76322588312E+03  0.12699999809E+01 0. -1.
       -4    1    3    3    0  502  0.97064631500E+02  0.29832762762E+03  0.34870628200E+02  0.31565565051E+03  0.12699999809E+01 0.  1.
</event>
<event>
 5   0  0.6596225E-03  0.8027383E+03  0.7818609E-02  0.9556062E-01
       -1   -1    0    0    0  501  0.00000000000E+00  0.00000000000E+00  0.12441669869E+03  0.12441669879E+03  0.50400001928E-02 0.  1.
        1   -1    0    0  501    0  0.00000000000E+00  0.00000000000E+00 -0.12948197872E+04  0.12948197872E+04  0.50400001928E-02 0. -1.
    10030    2    1    2    0    0  0.00000000000E+00  0.00000000000E+00 -0.11704030885E+04  0.14192364860E+04  0.80273832201E+03 0.  0.
        5    1    3    3  502    0  0.15977888204E+02  0.34435828119E+03 -0.94855417082E+03  0.10092645955E+04  0.46999998093E+01 0.  1.
       -5    1    3    3    0  502 -0.15977888204E+02 -0.34435828119E+03 -0.22184891768E+03  0.40997189051E+03  0.46999998093E+01 0. -1.
</event>
<event>
 5   0  0.6557679E-03  0.8004853E+03  0.7818609E-02  0.9559315E-01
        1   -1    0    0  501    0  0.00000000000E+00  0.00000000000E+00  0.25724637068E+03  0.25724637073E+03  0.50400001928E-02 0. -1.
       -1   -1    0    0    0  501  0.00000000000E+00  0.00000000000E+00 -0.62272665772E+03  0.62272665774E+03  0.50400001928E-02 0.  1.
    10030    2    1    2    0    0  0.00000000000E+00  0.00000000000E+00 -0.36548028703E+03  0.87997302847E+03  0.80048528445E+03 0.  0.
        1    1    3    3  502    0  0.20921115662E+03 -0.29145889463E+03 -0.37777388829E+03  0.52099012084E+03  0.50400001928E-02 0.  1.
       -1    1    3    3    0  502 -0.20921115662E+03  0.29145889463E+03  0.12293601254E+02  0.35898290763E+03  0.50400001928E-02 0. -1.
</event>
<event>
 5   0  0.4385875E-03  0.7788839E+03  0.7818609E-02  0.9591095E-01
        4   -1    0    0  501    0  0.00000000000E+00  0.00000000000E+00  0.37358711504E+03  0.37358927370E+03  0.12699999809E+01 0. -1.
       -4   -1    0    0    0  501  0.00000000000E+00  0.00000000000E+00 -0.40596537678E+03  0.40596736327E+03  0.12699999809E+01 0.  1.
    10030    2    1    2    0    0  0.00000000000E+00  0.00000000000E+00 -0.32378261741E+02  0.77955663697E+03  0.77888394412E+03 0.  0.
        5    1    3    3  502    0 -0.32276491856E+03  0.45693595639E+02  0.19701564964E+03  0.38092302836E+03  0.46999998093E+01 0. -1.
       -5    1    3    3    0  502  0.32276491856E+03 -0.45693595639E+02 -0.22939391139E+03  0.39863360861E+03  0.46999998093E+01 0.  1.
</event>
<event>
 5   0  0.6600401E-03  0.8161094E+03  0.7818609E-02  0.9536988E-01
        1   -1    0    0  501    0  0.00000000000E+00  0.00000000000E+00  0.59303400868E+03  0.59303400870E+03  0.50400001928E-02 0.  1.
       -1   -1    0    0    0  501  0.00000000000E+00  0.00000000000E+00 -0.28077419394E+03  0.28077419399E+03  0.50400001928E-02 0. -1.
    10030    2    1    2    0    0  0.00000000000E+00  0.00000000000E+00  0.31225981474E+03  0.87380820269E+03  0.81610941864E+03 0.  0.
        2    1    3    3  502    0 -0.17219407206E+03  0.28624134406E+03  0.40705712998E+03  0.52657422324E+03  0.25500000920E-02 0.  1.
       -2    1    3    3    0  502  0.17219407206E+03 -0.28624134406E+03 -0.94797315245E+02  0.34723397945E+03  0.25500000920E-02 0. -1.
</event>
<event>
 5   0  0.6517392E-03  0.8003567E+03  0.7818609E-02  0.9559501E-01
       -1   -1    0    0    0  501  0.00000000000E+00  0.00000000000E+00  0.91095986597E+02  0.91095986737E+02  0.50400001928E-02 0.  1.
        1   -1    0    0  501    0  0.00000000000E+00  0.00000000000E+00 -0.17579559418E+04  0.17579559418E+04  0.50400001928E-02 0. -1.
    10030    2    1    2    0    0  0.00000000000E+00  0.00000000000E+00 -0.16668599552E+04  0.18490519285E+04  0.80035674807E+03 0.  0.
        3    1    3    3  502    0  0.24402207451E+03 -0.46018272355E+02 -0.10843383672E+03  0.27096560923E+03  0.10100000352E+00 0.  1.
       -3    1    3    3    0  502 -0.24402207451E+03  0.46018272355E+02 -0.15584261184E+04  0.15780863193E+04  0.10100000352E+00 0. -1.
</event>
<event>
 5   0  0.1106332E-02  0.8078368E+03  0.7818609E-02  0.9548742E-01
       -2   -1    0    0    0  501  0.00000000000E+00  0.00000000000E+00  0.16351308317E+03  0.16351308319E+03  0.25500000920E-02 0.  1.
        2   -1    0    0  501    0  0.00000000000E+00  0.00000000000E+00 -0.99778002497E+03  0.99778002497E+03  0.25500000920E-02 0. -1.
    10030    2    1    2    0    0  0.00000000000E+00  0.00000000000E+00 -0.83426694180E+03  0.11612931082E+04  0.80783683555E+03 0.  0.
        1    1    3    3  502    0 -0.35488812745E+03  0.15755273831E+03 -0.25717498672E+03  0.46573320923E+03  0.50400001928E-02 0.  1.
       -1    1    3    3    0  502  0.35488812745E+03 -0.15755273831E+03 -0.57709195508E+03  0.69555989893E+03  0.50400001928E-02 0. -1.
</event>
<event>
 5   0  0.6600401E-03  0.8017566E+03  0.7818609E-02  0.9557478E-01
        1   -1    0    0  501    0  0.00000000000E+00  0.00000000000E+00  0.44950141933E+03  0.44950141936E+03  0.50400001928E-02 0. -1.
       -1   -1    0    0    0  501  0.00000000000E+00  0.00000000000E+00 -0.35751478642E+03  0.35751478646E+03  0.50400001928E-02 0.  1.
    10030    2    1    2    0    0  0.00000000000E+00  0.00000000000E+00  0.91986632908E+02  0.80701620582E+03  0.80175658140E+03 0.  0.
        2    1    3    3  502    0  0.26484784332E+03 -0.60533172635E+02 -0.25071964175E+03  0.36968768423E+03  0.25500000920E-02 0.  1.
       -2    1    3    3    0  502 -0.26484784332E+03  0.60533172635E+02  0.34270627466E+03  0.43732852159E+03  0.25500000920E-02 0. -1.
</event>
<event>
 5   0  0.6551489E-03  0.7998426E+03  0.7818609E-02  0.9560245E-01
       -1   -1    0    0    0  501  0.00000000000E+00  0.00000000000E+00  0.41720369837E+03  0.41720369840E+03  0.50400001928E-02 0. -1.
        1   -1    0    0  501    0  0.00000000000E+00  0.00000000000E+00 -0.38335482134E+03  0.38335482137E+03  0.50400001928E-02 0.  1.
    10030    2    1    2    0    0  0.00000000000E+00  0.00000000000E+00  0.33848877032E+02  0.80055851977E+03  0.79984260770E+03 0.  0.
        4    1    3    3  502    0  0.96271568891E+02  0.12539792243E+03  0.38459855460E+03  0.41582510149E+03  0.12699999809E+01 0. -1.
       -4    1    3    3    0  502 -0.96271568891E+02 -0.12539792243E+03 -0.35074967757E+03  0.38473341828E+03  0.12699999809E+01 0.  1.
</event>
<event>
 5   0  0.1119792E-02  0.7976345E+03  0.7818609E-02  0.9563447E-01
       -2   -1    0    0    0  501  0.00000000000E+00  0.00000000000E+00  0.87196358187E+02  0.87196358224E+02  0.25500000920E-02 0. -1.
        2   -1    0    0  501    0  0.00000000000E+00  0.00000000000E+00 -0.18241034916E+04  0.18241034916E+04  0.25500000920E-02 0.  1.
    10030    2    1    2    0    0  0.00000000000E+00  0.00000000000E+00 -0.17369071334E+04  0.19112998498E+04  0.79763445627E+03 0.  0.
        4    1    3    3  502    0  0.44073074109E+01  0.10684714155E+03 -0.17891030875E+04  0.17922966291E+04  0.12699999809E+01 0.  1.
       -4    1    3    3    0  502 -0.44073074109E+01 -0.10684714155E+03  0.52195954111E+02  0.11900322072E+03  0.12699999809E+01 0. -1.
</event>
<event>
 5   0  0.6596225E-03  0.7739243E+03  0.7818609E-02  0.9598547E-01
       -1   -1    0    0    0  501  0.00000000000E+00  0.00000000000E+00  0.10098466961E+03  0.10098466974E+03  0.50400001928E-02 0.  1.
        1   -1    0    0  501    0  0.00000000000E+00  0.00000000000E+00 -0.14827962174E+04  0.14827962174E+04  0.50400001928E-02 0. -1.
    10030    2    1    2    0    0  0.00000000000E+00  0.00000000000E+00 -0.13818115478E+04  0.15837808871E+04  0.77392425010E+03 0.  0.
        5    1    3    3  502    0  0.28704901029E+03  0.22864499946E+03 -0.43992042618E+03  0.57291163495E+03  0.46999998093E+01 0.  1.
       -5    1    3    3    0  502 -0.28704901029E+03 -0.22864499946E+03 -0.94189112159E+03  0.10108692522E+04  0.46999998093E+01 0. -1.
</event>
<event>
 5   0  0.6596225E-03  0.8032478E+03  0.7818609E-02  0.9555328E-01
        1   -1    0    0  501    0  0.00000000000E+00  0.00000000000E+00  0.82173164510E+03  0.82173164512E+03  0.50400001928E-02 0. -1.
       -1   -1    0    0    0  501  0.00000000000E+00  0.00000000000E+00 -0.19629492219E+03  0.19629492225E+03  0.50400001928E-02 0.  1.
    10030    2    1    2    0    0  0.00000000000E+00  0.00000000000E+00  0.62543672292E+03  0.10180265674E+04  0.80324778089E+03 0.  0.
        5    1    3    3  502    0  0.67920213743E+02  0.39581092931E+03  0.31213456148E+03  0.50865461923E+03  0.46999998093E+01 0. -1.
       -5    1    3    3    0  502 -0.67920213743E+02 -0.39581092931E+03  0.31330216144E+03  0.50937194815E+03  0.46999998093E+01 0.  1.
</event>
<event>
 5   0  0.4385875E-03  0.8005867E+03  0.7818609E-02  0.9559168E-01
       -3   -1    0    0    0  501  0.00000000000E+00  0.00000000000E+00  0.29185884084E+03  0.29185885831E+03  0.10100000352E+00 0. -1.
        3   -1    0    0  501    0  0.00000000000E+00  0.00000000000E+00 -0.54901462848E+03  0.54901463777E+03  0.10100000352E+00 0.  1.
    10030    2    1    2    0    0  0.00000000000E+00  0.00000000000E+00 -0.25715578764E+03  0.84087349609E+03  0.80058674564E+03 0.  0.
        3    1    3    3  502    0  0.53227056496E+02  0.13758625828E+01  0.28812287650E+03  0.29300139028E+03  0.10100000352E+00 0. -1.
       -3    1    3    3    0  502 -0.53227056496E+02 -0.13758625828E+01 -0.54527866415E+03  0.54787210580E+03  0.10100000352E+00 0.  1.
</event>
<event>
 5   0  0.6600401E-03  0.7969508E+03  0.7818609E-02  0.9564441E-01
        1   -1    0    0  501    0  0.00000000000E+00  0.00000000000E+00  0.85286797313E+03  0.85286797314E+03  0.50400001928E-02 0.  1.
       -1   -1    0    0    0  501  0.00000000000E+00  0.00000000000E+00 -0.18617492208E+03  0.18617492215E+03  0.50400001928E-02 0. -1.
    10030    2    1    2    0    0  0.00000000000E+00  0.00000000000E+00  0.66669305105E+03  0.10390428953E+04  0.79695076004E+03 0.  0.
        2    1    3    3  502    0 -0.72034086564E+02  0.93145854734E+02  0.82966736124E+03  0.83798149753E+03  0.25500000920E-02 0.  1.
       -2    1    3    3    0  502  0.72034086564E+02 -0.93145854734E+02 -0.16297431019E+03  0.20106139776E+03  0.25500000920E-02 0. -1.
</event>
<event>
 5   0  0.1106332E-02  0.7828675E+03  0.7818609E-02  0.9585152E-01
        2   -1    0    0  501    0  0.00000000000E+00  0.00000000000E+00  0.10973919013E+04  0.10973919013E+04  0.25500000920E-02 0.  1.
       -2   -1    0    0    0  501  0.00000000000E+00  0.00000000000E+00 -0.13962229056E+03  0.13962229059E+03  0.25500000920E-02 0. -1.
    10030    2    1    2    0    0  0.00000000000E+00  0.00000000000E+00  0.95776961075E+03  0.12370141919E+04  0.78286747518E+03 0.  0.
        1    1    3    3  502    0 -0.23411629130E+03 -0.32326271936E+02  0.97193115039E+03  0.10002527615E+04  0.50400001928E-02 0.  1.
       -1    1    3    3    0  502  0.23411629130E+03  0.32326271936E+02 -0.14161539638E+02  0.23676143043E+03  0.50400001928E-02 0. -1.
</event>
<event>
 5   0  0.6600401E-03  0.8106557E+03  0.7818609E-02  0.9544720E-01
       -1   -1    0    0    0  501  0.00000000000E+00  0.00000000000E+00  0.24109678509E+03  0.24109678515E+03  0.50400001928E-02 0. -1.
        1   -1    0    0  501    0  0.00000000000E+00  0.00000000000E+00 -0.68143030209E+03  0.68143030211E+03  0.50400001928E-02 0.  1.
    10030    2    1    2    0    0  0.00000000000E+00  0.00000000000E+00 -0.44033351700E+03  0.92252708726E+03  0.81065567322E+03 0.  0.
        2    1    3    3  502    0 -0.19506940081E+03  0.30132719052E+02 -0.62304263688E+03  0.65356115190E+03  0.25500000920E-02 0.  1.
       -2    1    3    3    0  502  0.19506940081E+03 -0.30132719052E+02  0.18270911988E+03  0.26896593536E+03  0.25500000920E-02 0. -1.
</event>
<event>
 5   0  0.1106332E-02  0.8073944E+03  0.7818609E-02  0.9549375E-01
        2   -1    0    0  501    0  0.00000000000E+00  0.00000000000E+00  0.32273510496E+03  0.32273510497E+03  0.25500000920E-02 0.  1.
       -2   -1    0    0    0  501  0.00000000000E+00  0.00000000000E+00 -0.50496961137E+03  0.50496961138E+03  0.25500000920E-02 0. -1.
    10030    2    1    2    0    0  0.00000000000E+00  0.00000000000E+00 -0.18223450641E+03  0.82770471635E+03  0.80739437832E+03 0.  0.
        1    1    3    3  502    0  0.25128133144E+03  0.18920890284E+03 -0.35052229999E+03  0.47096517840E+03  0.50400001928E-02 0. -1.
       -1    1    3    3    0  502 -0.25128133144E+03 -0.18920890284E+03  0.16828779358E+03  0.35673953795E+03  0.50400001928E-02 0.  1.
</event>
<event>
 5   0  0.1092868E-02  0.7962137E+03  0.7818609E-02  0.9565514E-01
        2   -1    0    0  501    0  0.00000000000E+00  0.00000000000E+00  0.82126993245E+03  0.82126993245E+03  0.25500000920E-02 0. -1.
       -2   -1    0    0    0  501  0.00000000000E+00  0.00000000000E+00 -0.19298047101E+03  0.19298047102E+03  0.25500000920E-02 0.  1.
    10030    2    1    2    0    0  0.00000000000E+00  0.00000000000E+00  0.62828946144E+03  0.10142504035E+04  0.79621368588E+03 0.  0.
        3    1    3    3  502    0 -0.10060069502E+02 -0.39638441665E+03  0.26879814973E+03  0.47903472344E+03  0.10100000352E+00 0. -1.
       -3    1    3    3    0  502  0.10060069502E+02  0.39638441665E+03  0.35949131171E+03  0.53521568003E+03  0.10100000352E+00 0.  1.
</event>
<event>
 5   0  0.1092868E-02  0.8097047E+03  0.7818609E-02  0.9546075E-01
        2   -1    0    0  501    0  0.00000000000E+00  0.00000000000E+00  0.77567263015E+03  0.77567263016E+03  0.25500000920E-02 0.  1.
       -2   -1    0    0    0  501  0.00000000000E+00  0.00000000000E+00 -0.21130747779E+03  0.21130747780E+03  0.25500000920E-02 0. -1.
    10030    2    1    2    0    0  0.00000000000E+00  0.00000000000E+00  0.56436515236E+03  0.98698010796E+03  0.80970470439E+03 0.  0.
        3    1    3    3  502    0 -0.69472029770E+02  0.15023322782E+03  0.73254529214E+03  0.75101198453E+03  0.10100000352E+00 0.  1.
       -3    1    3    3    0  502  0.69472029770E+02 -0.15023322782E+03 -0.16818013978E+03  0.23596812344E+03  0.10100000352E+00 0. -1.
</event>
<event>
 5   0  0.6557679E-03  0.7896514E+03  0.7818609E-02  0.9575118E-01
       -1   -1    0    0    0  501  0.00000000000E+00  0.00000000000E+00  0.48690126079E+03  0.48690126082E+03  0.50400001928E-02 0.  1.
        1   -1    0    0  501    0  0.00000000000E+00  0.00000000000E+00 -0.32016209136E+03  0.32016209140E+03  0.50400001928E-02 0. -1.
    10030    2    1    2    0    0  0.00000000000E+00  0.00000000000E+00  0.16673916944E+03  0.80706335222E+03  0.78965138122E+03 0.  0.
        1    1    3    3  502    0 -0.38015795208E+03 -0.89504231649E+02  0.24158996658E+02  0.39129877735E+03  0.50400001928E-02 0. -1.
       -1    1    3    3    0  502  0.38015795208E+03  0.89504231649E+02  0.14258017278E+03  0.41576457486E+03  0.50400001928E-02 0.  1.
</event>
<event>
 5   0  0.6517392E-03  0.8206190E+03  0.7818609E-02  0.9530642E-01
       -1   -1    0    0    0  501  0.00000000000E+00  0.00000000000E+00  0.42692541308E+03  0.42692541311E+03  0.50400001928E-02 0.  1.
        1   -1    0    0  501    0  0.00000000000E+00  0.00000000000E+00 -0.39434025182E+03  0.39434025185E+03  0.50400001928E-02 0. -1.
    10030    2    1    2    0    0  0.00000000000E+00  0.00000000000E+00  0.32585161260E+02  0.82126566496E+03  0.82061897352E+03 0.  0.
        3    1    3    3  502    0  0.11778956166E+01  0.27772555664E+03  0.31855872680E+03  0.42262577403E+03  0.10100000352E+00 0.  1.
       -3    1    3    3    0  502 -0.11778956166E+01 -0.27772555664E+03 -0.28597356554E+03  0.39863989093E+03  0.10100000352E+00 0. -1.
</event>
<event>
 5   0  0.1092868E-02  0.8111048E+03  0.7818609E-02  0.9544081E-01
       -2   -1    0    0    0  501  0.00000000000E+00  0.00000000000E+00  0.30953171347E+03  0.30953171348E+03  0.25500000920E-02 0. -1.
        2   -1    0    0  501    0  0.00000000000E+00  0.00000000000E+00 -0.53135998942E+03  0.53135998943E+03  0.25500000920E-02 0.  1.
    10030    2    1    2    0    0  0.00000000000E+00  0.00000000000E+00 -0.22182827595E+03  0.84089170291E+03  0.81110484649E+03 0.  0.
        3    1    3    3  502    0  0.30577895658E+03 -0.10074874852E+03  0.14476321819E+03  0.35299784724E+03  0.10100000352E+00 0. -1.
       -3    1    3    3    0  502 -0.30577895658E+03  0.10074874852E+03 -0.36659149415E+03  0.48789385567E+03  0.10100000352E+00 0.  1.
</event>
<event>
 5   0  0.6596225E-03  0.7977801E+03  0.7818609E-02  0.9563236E-01
       -1   -1    0    0    0  501  0.00000000000E+00  0.00000000000E+00  0.92926420225E+02  0.92926420362E+02  0.50400001928E-02 0.  1.
        1   -1    0    0  501    0  0.00000000000E+00  0.00000000000E+00 -0.17122502962E+04  0.17122502962E+04  0.50400001928E-02 0. -1.
    10030    2    1    2    0    0  0.00000000000E+00  0.00000000000E+00 -0.16193238759E+04  0.18051767165E+04  0.79778014686E+03 0.  0.
        5    1    3    3  502    0 -0.69055118031E+02 -0.34799270582E+03 -0.12221014727E+04  0.12725649816E+04  0.46999998093E+01 0.  1.
       -5    1    3    3    0  502  0.69055118031E+02  0.34799270582E+03 -0.39722240320E+03  0.53261173497E+03  0.46999998093E+01 0. -1.
</event>
<event>
 5   0  0.1121480E-02  0.8024617E+03  0.7818609E-02  0.9556461E-01
        2   -1    0    0  501    0  0.00000000000E+00  0.00000000000E+00  0.13572886804E+04  0.13572886804E+04  0.25500000920E-02 0. -1.
       -2   -1    0    0    0  501  0.00000000000E+00  0.00000000000E+00 -0.11860866161E+03  0.11860866164E+03  0.25500000920E-02 0.  1.
    10030    2    1    2    0    0  0.00000000000E+00  0.00000000000E+00  0.12386800188E+04  0.14758973420E+04  0.80246169710E+03 0.  0.
        2    1    3    3  502    0 -0.32119769038E+02 -0.13111163842E+03  0.13142708352E+04  0.13211849869E+04  0.25500000920E-02 0. -1.
       -2    1    3    3    0  502  0.32119769038E+02  0.13111163842E+03 -0.75590816446E+02  0.15471235513E+03  0.25500000920E-02 0.  1.
</event>
<event>
 5   0  0.6557679E-03  0.7464695E+03  0.7818609E-02  0.9640905E-01
       -1   -1    0    0    0  501  0.00000000000E+00  0.00000000000E+00  0.45089343956E+03  0.45089343959E+03  0.50400001928E-02 0. -1.
        1   -1    0    0  501    0  0.00000000000E+00  0.00000000000E+00 -0.30895146241E+03  0.30895146245E+03  0.50400001928E-02 0.  1.
    10030    2    1    2    0    0  0.00000000000E+00  0.00000000000E+00  0.14194197715E+03  0.75984490205E+03  0.74646952402E+03 0.  0.
        1    1    3    3  502    0  0.12976303522E+03  0.34992788522E+03  0.75070227631E+02  0.38068820479E+03  0.50400001928E-02 0. -1.
       -1    1    3    3    0  502 -0.12976303522E+03 -0.34992788522E+03  0.66871749518E+02  0.37915669726E+03  0.50400001928E-02 0.  1.
</event>
<event>
 5   0  0.6557679E-03  0.8136841E+03  0.7818609E-02  0.9540418E-01
       -1   -1    0    0    0  501  0.00000000000E+00  0.00000000000E+00  0.23671151926E+03  0.23671151931E+03  0.50400001928E-02 0. -1.
        1   -1    0    0  501    0  0.00000000000E+00  0.00000000000E+00 -0.69924973009E+03  0.69924973011E+03  0.50400001928E-02 0.  1.
    10030    2    1    2    0    0  0.00000000000E+00  0.00000000000E+00 -0.46253821084E+03  0.93596124942E+03  0.81368413032E+03 0.  0.
        1    1    3    3  502    0 -0.18189106881E+02  0.38895831635E+03 -0.36688975901E+03  0.53500234650E+03  0.50400001928E-02 0.  1.
       -1    1    3    3    0  502  0.18189106881E+02 -0.38895831635E+03 -0.95648451822E+02  0.40095890292E+03  0.50400001928E-02 0. -1.
</event>
<event>
 5   0  0.6600401E-03  0.7913622E+03  0.7818609E-02  0.9572605E-01
        1   -1    0    0  501    0  0.00000000000E+00  0.00000000000E+00  0.25207608560E+04  0.25207608560E+04  0.50400001928E-02 0. -1.
       -1   -1    0    0    0  501  0.00000000000E+00  0.00000000000E+00 -0.62109640703E+02  0.62109640907E+02  0.50400001928E-02 0.  1.
    10030    2    1    2    0    0  0.00000000000E+00  0.00000000000E+00  0.24586512153E+04  0.25828704969E+04  0.79136224660E+03 0.  0.
        2    1    3    3  502    0 -0.22573183145E+03 -0.16019336937E+03  0.21521685205E+04  0.21698954159E+04  0.25500000920E-02 0. -1.
       -2    1    3    3    0  502  0.22573183145E+03  0.16019336937E+03  0.30648269481E+03  0.41297508103E+03  0.25500000920E-02 0.  1.
</event>
<event>
 5   0  0.1119792E-02  0.7561837E+03  0.7818609E-02  0.9625699E-01
        2   -1    0    0  501    0  0.00000000000E+00  0.00000000000E+00  0.14729581975E+03  0.14729581977E+03  0.25500000920E-02 0. -1.
       -2   -1    0    0    0  501  0.00000000000E+00  0.00000000000E+00 -0.97051949183E+03  0.97051949183E+03  0.25500000920E-02 0.  1.
    10030    2    1    2    0    0  0.00000000000E+00  0.00000000000E+00 -0.82322367208E+03  0.11178153116E+04  0.75618374524E+03 0.  0.
        4    1    3    3  502    0 -0.20465843854E+03  0.23459302520E+03 -0.94452993324E+02  0.32533359001E+03  0.12699999809E+01 0. -1.
       -4    1    3    3    0  502  0.20465843854E+03 -0.23459302520E+03 -0.72877067876E+03  0.79248172159E+03  0.12699999809E+01 0.  1.
</event>
<event>
 5   0  0.6517392E-03  0.8001640E+03  0.7818609E-02  0.9559780E-01
       -1   -1    0    0    0  501  0.00000000000E+00  0.00000000000E+00  0.67382467280E+02  0.67382467469E+02  0.50400001928E-02 0. -1.
        1   -1    0    0  501    0  0.00000000000E+00  0.00000000000E+00 -0.23754787585E+04  0.23754787585E+04  0.50400001928E-02 0.  1.
    10030    2    1    2    0    0  0.00000000000E+00  0.00000000000E+00 -0.23080962912E+04  0.24428612260E+04  0.80016403307E+03 0.  0.
        3    1    3    3  502    0  0.21608377679E+03 -0.12119830156E+02 -0.21813400166E+04  0.21920500376E+04  0.10100000352E+00 0.  1.
       -3    1    3    3    0  502 -0.21608377679E+03  0.12119830156E+02 -0.12675627459E+03  0.25081118840E+03  0.10100000352E+00 0. -1.
</event>
<event>
 5   0  0.6596225E-03  0.7946064E+03  0.7818609E-02  0.9567857E-01
       -1   -1    0    0    0  501  0.00000000000E+00  0.00000000000E+00  0.17534919512E+03  0.17534919519E+03  0.50400001928E-02 0.  1.
        1   -1    0    0  501    0  0.00000000000E+00  0.00000000000E+00 -0.90020286349E+03  0.90020286350E+03  0.50400001928E-02 0. -1.
    10030    2    1    2    0    0  0.00000000000E+00  0.00000000000E+00 -0.72485366837E+03  0.10755520587E+04  0.79460643743E+03 0.  0.
        5    1    3    3  502    0 -0.22140425872E+03 -0.20432478338E+03 -0.71294364170E+03  0.77400206016E+03  0.46999998093E+01 0. -1.
       -5    1    3    3    0  502  0.22140425872E+03  0.20432478338E+03 -0.11910026669E+02  0.30154999854E+03  0.46999998093E+01 0.  1.
</event>
<event>
 5   0  0.6600401E-03  0.7994083E+03  0.7818609E-02  0.9560874E-01
       -1   -1    0    0    0  501  0.00000000000E+00  0.00000000000E+00  0.11923045327E+04  0.11923045327E+04  0.50400001928E-02 0.  1.
        1   -1    0    0  501    0  0.00000000000E+00  0.00000000000E+00 -0.13399546048E+03  0.13399546058E+03  0.50400001928E-02 0. -1.
    10030    2    1    2    0    0  0.00000000000E+00  0.00000000000E+00  0.10583090722E+04  0.13262999933E+04  0.79940826856E+03 0.  0.
        2    1    3    3  502    0  0.11676849925E+03 -0.22735647345E+03  0.10390081233E+04  0.10699830506E+04  0.25500000920E-02 0.  1.
       -2    1    3    3    0  502 -0.11676849925E+03  0.22735647345E+03  0.19300948929E+02  0.25631694262E+03  0.25500000920E-02 0. -1.
</event>
<event>
 5   0  0.1121480E-02  0.7993495E+03  0.7818609E-02  0.9560959E-01
        2   -1    0    0  501    0  0.00000000000E+00  0.00000000000E+00  0.17104376774E+04  0.17104376774E+04  0.25500000920E-02 0. -1.
       -2   -1    0    0    0  501  0.00000000000E+00  0.00000000000E+00 -0.93391236338E+02  0.93391236373E+02  0.25500000920E-02 0.  1.
    10030    2    1    2    0    0  0.00000000000E+00  0.00000000000E+00  0.16170464411E+04  0.18038289138E+04  0.79934945901E+03 0.  0.
        2    1    3    3  502    0 -0.15211631483E+03  0.35067790403E+03  0.54511139890E+03  0.66577834362E+03  0.25500000920E-02 0.  1.
       -2    1    3    3    0  502  0.15211631483E+03 -0.35067790403E+03  0.10719350422E+04  0.11380505702E+04  0.25500000920E-02 0. -1.
</event>
<event>
 5   0  0.4385875E-03  0.7964723E+03  0.7818609E-02  0.9565137E-01
        3   -1    0    0  501    0  0.00000000000E+00  0.00000000000E+00  0.13658116340E+04  0.13658116378E+04  0.10100000352E+00 0.  1.
       -3   -1    0    0    0  501  0.00000000000E+00  0.00000000000E+00 -0.11611558286E+03  0.11611562678E+03  0.10100000352E+00 0. -1.
    10030    2    1    2    0    0  0.00000000000E+00  0.00000000000E+00  0.12496960512E+04  0.14819272646E+04  0.79647234547E+03 0.  0.
        4    1    3    3  502    0 -0.14649256120E+03 -0.16396492838E+03  0.70630416632E+01  0.21999106273E+03  0.12699999809E+01 0. -1.
       -4    1    3    3    0  502  0.14649256120E+03  0.16396492838E+03  0.12426330095E+04  0.12619362018E+04  0.12699999809E+01 0.  1.
</event>
<event>
 5   0  0.1119792E-02  0.8021921E+03  0.7818609E-02  0.9556849E-01
        2   -1    0    0  501    0  0.00000000000E+00  0.00000000000E+00  0.46190690844E+03  0.46190690845E+03  0.25500000920E-02 0. -1.
       -2   -1    0    0    0  501  0.00000000000E+00  0.00000000000E+00 -0.34829108914E+03  0.34829108915E+03  0.25500000920E-02 0.  1.
    10030    2    1    2    0    0  0.00000000000E+00  0.00000000000E+00  0.11361581930E+03  0.81019799760E+03  0.80219214713E+03 0.  0.
        4    1    3    3  502    0 -0.39380688774E+03  0.34248207666E+02  0.12545418153E+03  0.41472541413E+03  0.12699999809E+01 0.  1.
       -4    1    3    3    0  502  0.39380688774E+03 -0.34248207666E+02 -0.11838362235E+02  0.39547258347E+03  0.12699999809E+01 0. -1.
</event>
<event>
 5   0  0.1119792E-02  0.7952715E+03  0.7818609E-02  0.9566887E-01
        2   -1    0    0  501    0  0.00000000000E+00  0.00000000000E+00  0.99365024672E+03  0.99365024672E+03  0.25500000920E-02 0.  1.
       -2   -1    0    0    0  501  0.00000000000E+00  0.00000000000E+00 -0.15912460238E+03  0.15912460240E+03  0.25500000920E-02 0. -1.
    10030    2    1    2    0    0  0.00000000000E+00  0.00000000000E+00  0.83452564434E+03  0.11527748491E+04  0.79527152703E+03 0.  0.
        4    1    3    3  502    0 -0.69997223402E+02 -0.40452861243E+02  0.98160830962E+03  0.98493275490E+03  0.12699999809E+01 0.  1.
       -4    1    3    3    0  502  0.69997223402E+02  0.40452861243E+02 -0.14708266528E+03  0.16784209422E+03  0.12699999809E+01 0. -1.
</event>
<event>
 5   0  0.6551489E-03  0.7986313E+03  0.7818609E-02  0.9562000E-01
        1   -1    0    0  501    0  0.00000000000E+00  0.00000000000E+00  0.92784650157E+03  0.92784650159E+03  0.50400001928E-02 0. -1.
       -1   -1    0    0    0  501  0.00000000000E+00  0.00000000000E+00 -0.17185274880E+03  0.17185274887E+03  0.50400001928E-02 0.  1.
    10030    2    1    2    0    0  0.00000000000E+00  0.00000000000E+00  0.75599375277E+03  0.10996992505E+04  0.79863125861E+03 0.  0.
        4    1    3    3  502    0 -0.34681690064E+03 -0.17229818549E+03  0.24390750523E+03  0.45766921603E+03  0.12699999809E+01 0.  1.
       -4    1    3    3    0  502  0.34681690064E+03  0.17229818549E+03  0.51208624754E+03  0.64203003443E+03  0.12699999809E+01 0. -1.
</event>
<event>
 5   0  0.1121480E-02  0.8085471E+03  0.7818609E-02  0.9547727E-01
        2   -1    0    0  501    0  0.00000000000E+00  0.00000000000E+00  0.10168080125E+04  0.10168080125E+04  0.25500000920E-02 0. -1.
       -2   -1    0    0    0  501  0.00000000000E+00  0.00000000000E+00 -0.16073544275E+03  0.16073544277E+03  0.25500000920E-02 0.  1.
    10030    2    1    2    0    0  0.00000000000E+00  0.00000000000E+00  0.85607256977E+03  0.11775434553E+04  0.80854705763E+03 0.  0.
        2    1    3    3  502    0  0.28069043448E+03 -0.27602700177E+03  0.56198319648E+03  0.68615095922E+03  0.25500000920E-02 0.  1.
       -2    1    3    3    0  502 -0.28069043448E+03  0.27602700177E+03  0.29408937330E+03  0.49139249608E+03  0.25500000920E-02 0. -1.
</event>
<event>
 5   0  0.4385875E-03  0.8009267E+03  0.7818609E-02  0.9558677E-01
        3   -1    0    0  501    0  0.00000000000E+00  0.00000000000E+00  0.93739803159E+03  0.93739803703E+03  0.10100000352E+00 0.  1.
       -3   -1    0    0    0  501  0.00000000000E+00  0.00000000000E+00 -0.17108088485E+03  0.17108091467E+03  0.10100000352E+00 0. -1.
    10030    2    1    2    0    0  0.00000000000E+00  0.00000000000E+00  0.76631714674E+03  0.11084789517E+04  0.80092672385E+03 0.  0.
        1    1    3    3  502    0  0.52483103811E+02  0.39684994348E+03  0.39872777759E+03  0.56500282696E+03  0.50400001928E-02 0.  1.
       -1    1    3    3    0  502 -0.52483103811E+02 -0.39684994348E+03  0.36758936914E+03  0.54347612474E+03  0.50400001928E-02 0. -1.
</event>
<event>
 5   0  0.1119792E-02  0.7958041E+03  0.7818609E-02  0.9566110E-01
        2   -1    0    0  501    0  0.00000000000E+00  0.00000000000E+00  0.49043136760E+03  0.49043136760E+03  0.25500000920E-02 0. -1.
       -2   -1    0    0    0  501  0.00000000000E+00  0.00000000000E+00 -0.32283017525E+03  0.32283017526E+03  0.25500000920E-02 0.  1.
    10030    2    1    2    0    0  0.00000000000E+00  0.00000000000E+00  0.16760119235E+03  0.81326154286E+03  0.79580410745E+03 0.  0.
        4    1    3    3  502    0 -0.58017806948E+02  0.31072143074E+03  0.33078511789E+03  0.45753063347E+03  0.12699999809E+01 0. -1.
       -4    1    3    3    0  502  0.58017806948E+02 -0.31072143074E+03 -0.16318392554E+03  0.35573090940E+03  0.12699999809E+01 0.  1.
</event>
<event>
 5   0  0.1154714E-02  0.7963017E+03  0.7818609E-02  0.9565386E-01
        2   -1    0    0  501    0  0.00000000000E+00  0.00000000000E+00  0.74700437815E+03  0.74700437816E+03  0.25500000920E-02 0.  1.
       -2   -1    0    0    0  501  0.00000000000E+00  0.00000000000E+00 -0.21221305389E+03  0.21221305391E+03  0.25500000920E-02 0. -1.
    10030    2    1    2    0    0  0.00000000000E+00  0.00000000000E+00  0.53479132426E+03  0.95921743206E+03  0.79630165231E+03 0.  0.
        5    1    3    3  502    0 -0.28776684593E+03 -0.11938910826E+03 -0.31183609618E+02  0.31314217904E+03  0.46999998093E+01 0. -1.
       -5    1    3    3    0  502  0.28776684593E+03  0.11938910826E+03  0.56597493388E+03  0.64607525302E+03  0.46999998093E+01 0.  1.
</event>
<event>
 5   0  0.4385875E-03  0.7984761E+03  0.7818609E-02  0.9562226E-01
       -4   -1    0    0    0  501  0.00000000000E+00  0.00000000000E+00  0.94093958683E+03  0.94094044390E+03  0.12699999809E+01 0. -1.
        4   -1    0    0  501    0  0.00000000000E+00  0.00000000000E+00 -0.16939227552E+03  0.16939703630E+03  0.12699999809E+01 0.  1.
    10030    2    1    2    0    0  0.00000000000E+00  0.00000000000E+00  0.77154731130E+03  0.11103374802E+04  0.79847609003E+03 0.  0.
        4    1    3    3  502    0  0.15563876277E+03 -0.33666361088E+03  0.18034727992E+03  0.41242279961E+03  0.12699999809E+01 0.  1.
       -4    1    3    3    0  502 -0.15563876277E+03  0.33666361088E+03  0.59120003139E+03  0.69791468059E+03  0.12699999809E+01 0. -1.
</event>
<event>
 5   0  0.1154714E-02  0.8024035E+03  0.7818609E-02  0.9556545E-01
       -2   -1    0    0    0  501  0.00000000000E+00  0.00000000000E+00  0.25930391612E+03  0.25930391614E+03  0.25500000920E-02 0. -1.
        2   -1    0    0  501    0  0.00000000000E+00  0.00000000000E+00 -0.62074976862E+03  0.62074976863E+03  0.25500000920E-02 0.  1.
    10030    2    1    2    0    0  0.00000000000E+00  0.00000000000E+00 -0.36144585250E+03  0.88005368476E+03  0.80240350434E+03 0.  0.
        5    1    3    3  502    0  0.68908006893E+02  0.25331037139E+03  0.15199203130E+03  0.30337785886E+03  0.46999998093E+01 0. -1.
       -5    1    3    3    0  502 -0.68908006893E+02 -0.25331037139E+03 -0.51343788380E+03  0.57667582591E+03  0.46999998093E+01 0.  1.
</event>
<event>
 5   0  0.6596225E-03  0.8043768E+03  0.7818609E-02  0.9553703E-01
       -1   -1    0    0    0  501  0.00000000000E+00  0.00000000000E+00  0.16100558945E+03  0.16100558952E+03  0.50400001928E-02 0. -1.
        1   -1    0    0  501    0  0.00000000000E+00  0.00000000000E+00 -0.10046577847E+04  0.10046577847E+04  0.50400001928E-02 0.  1.
    10030    2    1    2    0    0  0.00000000000E+00  0.00000000000E+00 -0.84365219527E+03  0.11656633742E+04  0.80437682431E+03 0.  0.
        5    1    3    3  502    0  0.31371011719E+03 -0.17714433027E+03 -0.68081201264E+03  0.77027348256E+03  0.46999998093E+01 0.  1.
       -5    1    3    3    0  502 -0.31371011719E+03  0.17714433027E+03 -0.16284018263E+03  0.39538989169E+03  0.46999998093E+01 0. -1.
</event>
<event>
 5   0  0.6600401E-03  0.8067586E+03  0.7818609E-02  0.9550286E-01
        1   -1    0    0  501    0  0.00000000000E+00  0.00000000000E+00  0.10773449909E+04  0.10773449909E+04  0.50400001928E-02 0.  1.
       -1   -1    0    0    0  501  0.00000000000E+00  0.00000000000E+00 -0.15103319776E+03  0.15103319785E+03  0.50400001928E-02 0. -1.
    10030    2    1    2    0    0  0.00000000000E+00  0.00000000000E+00  0.92631179311E+03  0.12283781887E+04  0.80675859864E+03 0.  0.
        2    1    3    3  502    0  0.30986736307E+03  0.24714193695E+03  0.57727990556E+03  0.70024924781E+03  0.25500000920E-02 0.  1.
       -2    1    3    3    0  502 -0.30986736307E+03 -0.24714193695E+03  0.34903188755E+03  0.52812894091E+03  0.25500000920E-02 0. -1.
</event>
<event>
 5   0  0.1106332E-02  0.7976455E+03  0.7818609E-02  0.9563431E-01
        2   -1    0    0  501    0  0.00000000000E+00  0.00000000000E+00  0.57576960986E+03  0.57576960986E+03  0.25500000920E-02 0.  1.
       -2   -1    0    0    0  501  0.00000000000E+00  0.00000000000E+00 -0.27625563553E+03  0.27625563554E+03  0.25500000920E-02 0. -1.
    10030    2    1    2    0    0  0.00000000000E+00  0.00000000000E+00  0.29951397433E+03  0.85202524540E+03  0.79764553404E+03 0.  0.
        1    1    3    3  502    0  0.34491119212E+03  0.19435404301E+03  0.20123345007E+03  0.44410823674E+03  0.50400001928E-02 0.  1.
       -1    1    3    3    0  502 -0.34491119212E+03 -0.19435404301E+03  0.98280524260E+02  0.40791700866E+03  0.50400001928E-02 0. -1.
</event>
<event>
 5   0  0.6551489E-03  0.7990024E+03  0.7818609E-02  0.9561462E-01
       -1   -1    0    0    0  501  0.00000000000E+00  0.00000000000E+00  0.12192428004E+03  0.12192428014E+03  0.50400001928E-02 0. -1.
        1   -1    0    0  501    0  0.00000000000E+00  0.00000000000E+00 -0.13090190706E+04  0.13090190707E+04  0.50400001928E-02 0.  1.
    10030    2    1    2    0    0  0.00000000000E+00  0.00000000000E+00 -0.11870947906E+04  0.14309433508E+04  0.79900239756E+03 0.  0.
        4    1    3    3  502    0 -0.75142537862E+02  0.33767780501E+03 -0.23569236904E+03  0.41859910023E+03  0.12699999809E+01 0. -1.
       -4    1    3    3    0  502  0.75142537862E+02 -0.33767780501E+03 -0.95140242157E+03  0.10123442506E+04  0.12699999809E+01 0.  1.
</event>
<event>
 5   0  0.1092868E-02  0.7878997E+03  0.7818609E-02  0.9577699E-01
        2   -1    0    0  501    0  0.00000000000E+00  0.00000000000E+00  0.34756868799E+03  0.34756868800E+03  0.25500000920E-02 0.  1.
       -2   -1    0    0    0  501  0.00000000000E+00  0.00000000000E+00 -0.44652034608E+03  0.44652034609E+03  0.25500000920E-02 0. -1.
    10030    2    1    2    0    0  0.00000000000E+00  0.00000000000E+00 -0.98951658095E+02  0.79408903409E+03  0.78789971660E+03 0.  0.
        3    1    3    3  502    0 -0.42535265325E+01  0.16914207085E+03  0.30908473795E+03  0.35236418385E+03  0.10100000352E+00 0.  1.
       -3    1    3    3    0  502  0.42535265325E+01 -0.16914207085E+03 -0.40803639605E+03  0.44172485024E+03  0.10100000352E+00 0. -1.
</event>
<event>
 5   0  0.6517392E-03  0.7948269E+03  0.7818609E-02  0.9567535E-01
        1   -1    0    0  501    0  0.00000000000E+00  0.00000000000E+00  0.94821981836E+03  0.94821981838E+03  0.50400001928E-02 0.  1.
       -1   -1    0    0    0  501  0.00000000000E+00  0.00000000000E+00 -0.16656205004E+03  0.16656205011E+03  0.50400001928E-02 0. -1.
    10030    2    1    2    0    0  0.00000000000E+00  0.00000000000E+00  0.78165776833E+03  0.11147818685E+04  0.79482686638E+03 0.  0.
        3    1    3    3  502    0  0.73948273685E+02  0.10016654385E+03  0.92015930113E+03  0.92854447031E+03  0.10100000352E+00 0.  1.
       -3    1    3    3    0  502 -0.73948273685E+02 -0.10016654385E+03 -0.13850153281E+03  0.18623739817E+03  0.10100000352E+00 0. -1.
</event>
<event>
 5   0  0.6517392E-03  0.8009452E+03  0.7818609E-02  0.9558650E-01
       -1   -1    0    0    0  501  0.00000000000E+00  0.00000000000E+00  0.64137402281E+03  0.64137402283E+03  0.50400001928E-02 0.  1.
        1   -1    0    0  501    0  0.00000000000E+00  0.00000000000E+00 -0.25005425893E+03  0.25005425898E+03  0.50400001928E-02 0. -1.
    10030    2    1    2    0    0  0.00000000000E+00  0.00000000000E+00  0.39131976388E+03  0.89142828181E+03  0.80094520662E+03 0.  0.
        3    1    3    3  502    0 -0.25240406817E+03 -0.26675900808E+03  0.37342223883E+03  0.52374837534E+03  0.10100000352E+00 0.  1.
       -3    1    3    3    0  502  0.25240406817E+03  0.26675900808E+03  0.17897525055E+02  0.36767990647E+03  0.10100000352E+00 0. -1.
</event>
<event>
 5   0  0.6596225E-03  0.8006218E+03  0.7818609E-02  0.9559118E-01
       -1   -1    0    0    0  501  0.00000000000E+00  0.00000000000E+00  0.39851275763E+03  0.39851275766E+03  0.50400001928E-02 0.  1.
        1   -1    0    0  501    0  0.00000000000E+00  0.00000000000E+00 -0.40211715863E+03  0.40211715866E+03  0.50400001928E-02 0. -1.
    10030    2    1    2    0    0  0.00000000000E+00  0.00000000000E+00 -0.36044009924E+01  0.80062991632E+03  0.80062180285E+03 0.  0.
        5    1    3    3  502    0 -0.16992324044E+03  0.80918963514E+02  0.35147880813E+03  0.39872450246E+03  0.46999998093E+01 0.  1.
       -5    1    3    3    0  502  0.16992324044E+03 -0.80918963514E+02 -0.35508320912E+03  0.40190541387E+03  0.46999998093E+01 0. -1.
</event>
<event>
 5   0  0.1121480E-02  0.7992557E+03  0.7818609E-02  0.9561095E-01
        2   -1    0    0  501    0  0.00000000000E+00  0.00000000000E+00  0.14958011173E+04  0.14958011173E+04  0.25500000920E-02 0.  1.
       -2   -1    0    0    0  501  0.00000000000E+00  0.00000000000E+00 -0.10676716055E+03  0.10676716058E+03  0.25500000920E-02 0. -1.
    10030    2    1    2    0    0  0.00000000000E+00  0.00000000000E+00  0.13890339567E+04  0.16025682779E+04  0.79925574898E+03 0.  0.
        2    1    3    3  502    0  0.20804337090E+03  0.29940287720E+03  0.10226291669E+04  0.10856769962E+04  0.25500000920E-02 0. -1.
       -2    1    3    3    0  502 -0.20804337090E+03 -0.29940287720E+03  0.36640478978E+03  0.51689128164E+03  0.25500000920E-02 0.  1.
</event>
<event>
 5   0  0.1154714E-02  0.7854174E+03  0.7818609E-02  0.9581368E-01
        2   -1    0    0  501    0  0.00000000000E+00  0.00000000000E+00  0.18150606295E+04  0.18150606295E+04  0.25500000920E-02 0. -1.
       -2   -1    0    0    0  501  0.00000000000E+00  0.00000000000E+00 -0.84966924577E+02  0.84966924616E+02  0.25500000920E-02 0.  1.
    10030    2    1    2    0    0  0.00000000000E+00  0.00000000000E+00  0.17300937050E+04  0.19000275541E+04  0.78541739133E+03 0.  0.
        5    1    3    3  502    0  0.66361844894E+02 -0.38063780021E+03  0.10345414704E+04  0.11043492081E+04  0.46999998093E+01 0. -1.
       -5    1    3    3    0  502 -0.66361844894E+02  0.38063780021E+03  0.69555223452E+03  0.79567834604E+03  0.46999998093E+01 0.  1.
</event>
<event>
 5   0  0.6551489E-03  0.7871819E+03  0.7818609E-02  0.9578758E-01
        1   -1    0    0  501    0  0.00000000000E+00  0.00000000000E+00  0.21033020209E+03  0.21033020215E+03  0.50400001928E-02 0.  1.
       -1   -1    0    0    0  501  0.00000000000E+00  0.00000000000E+00 -0.73652689744E+03  0.73652689746E+03  0.50400001928E-02 0. -1.
    10030    2    1    2    0    0  0.00000000000E+00  0.00000000000E+00 -0.52619669535E+03  0.94685709961E+03  0.78718193887E+03 0.  0.
        4    1    3    3  502    0  0.36059151734E+03  0.63603300003E+02 -0.43674427282E+03  0.56992876299E+03  0.12699999809E+01 0. -1.
       -4    1    3    3    0  502 -0.36059151734E+03 -0.63603300003E+02 -0.89452422533E+02  0.37692833662E+03  0.12699999809E+01 0.  1.
</event>
<event>
 5   0  0.1119792E-02  0.8314737E+03  0.7818609E-02  0.9515545E-01
        2   -1    0    0  501    0  0.00000000000E+00  0.00000000000E+00  0.13536854261E+03  0.13536854263E+03  0.25500000920E-02 0.  1.
       -2   -1    0    0    0  501  0.00000000000E+00  0.00000000000E+00 -0.12767895516E+04  0.12767895516E+04  0.25500000920E-02 0. -1.
    10030    2    1    2    0    0  0.00000000000E+00  0.00000000000E+00 -0.11414210090E+04  0.14121580942E+04  0.83147372979E+03 0.  0.
        4    1    3    3  502    0 -0.38292608806E+03  0.13043424074E+03 -0.73352522719E+03  0.83767914615E+03  0.12699999809E+01 0. -1.
       -4    1    3    3    0  502  0.38292608806E+03 -0.13043424074E+03 -0.40789578180E+03  0.57447894808E+03  0.12699999809E+01 0.  1.
</event>
<event>
 5   0  0.6596225E-03  0.8025580E+03  0.7818609E-02  0.9556322E-01
       -1   -1    0    0    0  501  0.00000000000E+00  0.00000000000E+00  0.22482873923E+03  0.22482873929E+03  0.50400001928E-02 0. -1.
        1   -1    0    0  501    0  0.00000000000E+00  0.00000000000E+00 -0.71621111383E+03  0.71621111385E+03  0.50400001928E-02 0.  1.
    10030    2    1    2    0    0  0.00000000000E+00  0.00000000000E+00 -0.49138237460E+03  0.94103985313E+03  0.80255801480E+03 0.  0.
        5    1    3    3  502    0  0.16430316179E+03  0.23636831051E+03  0.82072341106E+02  0.29937178618E+03  0.46999998093E+01 0. -1.
       -5    1    3    3    0  502 -0.16430316179E+03 -0.23636831051E+03 -0.57345471571E+03  0.64166806696E+03  0.46999998093E+01 0.  1.
</event>
<event>
 5   0  0.1121480E-02  0.8059534E+03  0.7818609E-02  0.9551440E-01
       -2   -1    0    0    0  501  0.00000000000E+00  0.00000000000E+00  0.17422213265E+03  0.17422213267E+03  0.25500000920E-02 0. -1.
        2   -1    0    0  501    0  0.00000000000E+00  0.00000000000E+00 -0.93208714076E+03  0.93208714077E+03  0.25500000920E-02 0.  1.
    10030    2    1    2    0    0  0.00000000000E+00  0.00000000000E+00 -0.75786500812E+03  0.11063092734E+04  0.80595337207E+03 0.  0.
        2    1    3    3  502    0  0.82421802444E+02 -0.39416665966E+03 -0.35813753211E+03  0.53890926974E+03  0.25500000920E-02 0.  1.
       -2    1    3    3    0  502 -0.82421802444E+02  0.39416665966E+03 -0.39972747601E+03  0.56740000369E+03  0.25500000920E-02 0. -1.
</event>
<event>
 5   0  0.1092868E-02  0.7989408E+03  0.7818609E-02  0.9561552E-01
        2   -1    0    0  501    0  0.00000000000E+00  0.00000000000E+00  0.79033134118E+03  0.79033134118E+03  0.25500000920E-02 0.  1.
       -2   -1    0    0    0  501  0.00000000000E+00  0.00000000000E+00 -0.20191099380E+03  0.20191099382E+03  0.25500000920E-02 0. -1.
    10030    2    1    2    0    0  0.00000000000E+00  0.00000000000E+00  0.58842034738E+03  0.99224233500E+03  0.79894076511E+03 0.  0.
        3    1    3    3  502    0  0.21225467007E+02  0.34845053059E+02 -0.19931643300E+03  0.20344962235E+03  0.10100000352E+00 0. -1.
       -3    1    3    3    0  502 -0.21225467007E+02 -0.34845053059E+02  0.78773678037E+03  0.78879271265E+03  0.10100000352E+00 0.  1.
</event>
<event>
 5   0  0.6600401E-03  0.8100147E+03  0.7818609E-02  0.9545633E-01
       -1   -1    0    0    0  501  0.00000000000E+00  0.00000000000E+00  0.29100910641E+03  0.29100910645E+03  0.50400001928E-02 0. -1.
        1   -1    0    0  501    0  0.00000000000E+00  0.00000000000E+00 -0.56366260191E+03  0.56366260193E+03  0.50400001928E-02 0.  1.
    10030    2    1    2    0    0  0.00000000000E+00  0.00000000000E+00 -0.27265349550E+03  0.85467170839E+03  0.81001469154E+03 0.  0.
        2    1    3    3  502    0  0.20063008104E+03 -0.33993070101E+03 -0.40631304031E+02  0.39680752738E+03  0.25500000920E-02 0.  1.
       -2    1    3    3    0  502 -0.20063008104E+03  0.33993070101E+03 -0.23202219147E+03  0.45786418101E+03  0.25500000920E-02 0. -1.
</event>
<event>
 5   0  0.6596225E-03  0.7920578E+03  0.7818609E-02  0.9571585E-01
        1   -1    0    0  501    0  0.00000000000E+00  0.00000000000E+00  0.15942903807E+04  0.15942903807E+04  0.50400001928E-02 0. -1.
       -1   -1    0    0    0  501  0.00000000000E+00  0.00000000000E+00 -0.98375355198E+02  0.98375355327E+02  0.50400001928E-02 0.  1.
    10030    2    1    2    0    0  0.00000000000E+00  0.00000000000E+00  0.14959150255E+04  0.16926657360E+04  0.79205778225E+03 0.  0.
        5    1    3    3  502    0  0.61220579772E+02 -0.12738845304E+03  0.15384950227E+04  0.15449805184E+04  0.46999998093E+01 0.  1.
       -5    1    3    3    0  502 -0.61220579772E+02  0.12738845304E+03 -0.42579997181E+02  0.14768521765E+03  0.46999998093E+01 0. -1.
</event>
<event>
 5   0  0.1092868E-02  0.7961291E+03  0.7818609E-02  0.9565637E-01
       -2   -1    0    0    0  501  0.00000000000E+00  0.00000000000E+00  0.29802575341E+03  0.29802575342E+03  0.25500000920E-02 0.  1.
        2   -1    0    0  501    0  0.00000000000E+00  0.00000000000E+00 -0.53168355575E+03  0.53168355576E+03  0.25500000920E-02 0. -1.
    10030    2    1    2    0    0  0.00000000000E+00  0.00000000000E+00 -0.23365780234E+03  0.82970930918E+03  0.79612911587E+03 0.  0.
        3    1    3    3  502    0 -0.45898180826E+02 -0.35924788680E+03  0.55334881398E+02  0.36637091380E+03  0.10100000352E+00 0. -1.
       -3    1    3    3    0  502  0.45898180826E+02  0.35924788680E+03 -0.28899268374E+03  0.46333839538E+03  0.10100000352E+00 0.  1.
</event>
<event>
 5   0  0.1092868E-02  0.8046780E+03  0.7818609E-02  0.9553270E-01
       -2   -1    0    0    0  501  0.00000000000E+00  0.00000000000E+00  0.14261181502E+03  0.14261181504E+03  0.25500000920E-02 0.  1.
        2   -1    0    0  501    0  0.00000000000E+00  0.00000000000E+00 -0.11350859926E+04  0.11350859926E+04  0.25500000920E-02 0. -1.
    10030    2    1    2    0    0  0.00000000000E+00  0.00000000000E+00 -0.99247417763E+03  0.12776978077E+04  0.80467800672E+03 0.  0.
        3    1    3    3  502    0  0.21865723463E+03  0.15225209670E+03 -0.17549610577E+02  0.26702001093E+03  0.10100000352E+00 0.  1.
       -3    1    3    3    0  502 -0.21865723463E+03 -0.15225209670E+03 -0.97492456705E+03  0.10106777968E+04  0.10100000352E+00 0. -1.
</event>
<event>
 5   0  0.1121480E-02  0.8057328E+03  0.7818609E-02  0.9551756E-01
       -2   -1    0    0    0  501  0.00000000000E+00  0.00000000000E+00  0.91190130651E+02  0.91190130686E+02  0.25500000920E-02 0.  1.
        2   -1    0    0  501    0  0.00000000000E+00  0.00000000000E+00 -0.17798127305E+04  0.17798127305E+04  0.25500000920E-02 0. -1.
    10030    2    1    2    0    0  0.00000000000E+00  0.00000000000E+00 -0.16886225999E+04  0.18710028612E+04  0.80573284770E+03 0.  0.
        2    1    3    3  502    0  0.22768238564E+03  0.11479544013E+03 -0.15685876447E+04  0.15891772905E+04  0.25500000920E-02 0. -1.
       -2    1    3    3    0  502 -0.22768238564E+03 -0.11479544013E+03 -0.12003495523E+03  0.28182557068E+03  0.25500000920E-02 0.  1.
</event>
<event>
 5   0  0.6557679E-03  0.7975465E+03  0.7818609E-02  0.9563575E-01
        1   -1    0    0  501    0  0.00000000000E+00  0.00000000000E+00  0.36863518675E+03  0.36863518678E+03  0.50400001928E-02 0. -1.
       -1   -1    0    0    0  501  0.00000000000E+00  0.00000000000E+00 -0.43137528386E+03  0.43137528389E+03  0.50400001928E-02 0.  1.
    10030    2    1    2    0    0  0.00000000000E+00  0.00000000000E+00 -0.62740097108E+02  0.80001047067E+03  0.79754650861E+03 0.  0.
        1    1    3    3  502    0 -0.91360644927E+02 -0.22350740271E+03  0.28697106359E+03  0.37503962173E+03  0.50400001928E-02 0. -1.
       -1    1    3    3    0  502  0.91360644927E+02  0.22350740271E+03 -0.34971116069E+03  0.42497084894E+03  0.50400001928E-02 0.  1.
</event>
<event>
 5   0  0.1119792E-02  0.7997140E+03  0.7818609E-02  0.9560431E-01
       -2   -1    0    0    0  501  0.00000000000E+00  0.00000000000E+00  0.44609538638E+03  0.44609538639E+03  0.25500000920E-02 0.  1.
        2   -1    0    0  501    0  0.00000000000E+00  0.00000000000E+00 -0.35841132020E+03  0.35841132021E+03  0.25500000920E-02 0. -1.
    10030    2    1    2    0    0  0.00000000000E+00  0.00000000000E+00  0.87684066181E+02  0.80450670659E+03  0.79971403982E+03 0.  0.
        4    1    3    3  502    0  0.23190463081E+03  0.30091636861E+03  0.16930353378E+03  0.41592753953E+03  0.12699999809E+01 0.  1.
       -4    1    3    3    0  502 -0.23190463081E+03 -0.30091636861E+03 -0.81619467604E+02  0.38857916707E+03  0.12699999809E+01 0. -1.
</event>
<event>
 5   0  0.1092868E-02  0.7789393E+03  0.7818609E-02  0.9591012E-01
       -2   -1    0    0    0  501  0.00000000000E+00  0.00000000000E+00  0.15221430331E+03  0.15221430333E+03  0.25500000920E-02 0.  1.
        2   -1    0    0  501    0  0.00000000000E+00  0.00000000000E+00 -0.99653317180E+03  0.99653317180E+03  0.25500000920E-02 0. -1.
    10030    2    1    2    0    0  0.00000000000E+00  0.00000000000E+00 -0.84431886849E+03  0.11487474751E+04  0.77893928515E+03 0.  0.
        3    1    3    3  502    0  0.13221655172E+03  0.19384842833E+03  0.36270346608E+02  0.23743204914E+03  0.10100000352E+00 0.  1.
       -3    1    3    3    0  502 -0.13221655172E+03 -0.19384842833E+03 -0.88058921510E+03  0.91131542600E+03  0.10100000352E+00 0. -1.
</event>
<event>
 5   0  0.4385875E-03  0.7994047E+03  0.7818609E-02  0.9560879E-01
        4   -1    0    0  501    0  0.00000000000E+00  0.00000000000E+00  0.30753325245E+03  0.30753587476E+03  0.12699999809E+01 0. -1.
       -4   -1    0    0    0  501  0.00000000000E+00  0.00000000000E+00 -0.51948938322E+03  0.51949093561E+03  0.12699999809E+01 0.  1.
    10030    2    1    2    0    0  0.00000000000E+00  0.00000000000E+00 -0.21195613077E+03  0.82702681037E+03  0.79940474336E+03 0.  0.
        5    1    3    3  502    0  0.13995961729E+03  0.22499700221E+03  0.20357222715E+03  0.33417972282E+03  0.46999998093E+01 0. -1.
       -5    1    3    3    0  502 -0.13995961729E+03 -0.22499700221E+03 -0.41552835792E+03  0.49284708755E+03  0.46999998093E+01 0.  1.
</event>
<event>
 5   0  0.6557679E-03  0.8049350E+03  0.7818609E-02  0.9552901E-01
        1   -1    0    0  501    0  0.00000000000E+00  0.00000000000E+00  0.71677439037E+03  0.71677439039E+03  0.50400001928E-02 0. -1.
       -1   -1    0    0    0  501  0.00000000000E+00  0.00000000000E+00 -0.22598476464E+03  0.22598476470E+03  0.50400001928E-02 0.  1.
    10030    2    1    2    0    0  0.00000000000E+00  0.00000000000E+00  0.49078962573E+03  0.94275915508E+03  0.80493500841E+03 0.  0.
        1    1    3    3  502    0  0.38302337971E+03  0.22189135046E+02  0.38778802165E+03  0.54550785226E+03  0.50400001928E-02 0. -1.
       -1    1    3    3    0  502 -0.38302337971E+03 -0.22189135046E+02  0.10300160408E+03  0.39725130282E+03  0.50400001928E-02 0.  1.
</event>
<event>
 5   0  0.1106332E-02  0.7951141E+03  0.7818609E-02  0.9567116E-01
        2   -1    0    0  501    0  0.00000000000E+00  0.00000000000E+00  0.58682663488E+03  0.58682663489E+03  0.25500000920E-02 0. -1.
       -2   -1    0    0    0  501  0.00000000000E+00  0.00000000000E+00 -0.26933267977E+03  0.26933267979E+03  0.25500000920E-02 0.  1.
    10030    2    1    2    0    0  0.00000000000E+00  0.00000000000E+00  0.31749395511E+03  0.85615931467E+03  0.79511405507E+03 0.  0.
        1    1    3    3  502    0 -0.90440610326E+02 -0.33723512092E+03 -0.45966588067E+02  0.35216467458E+03  0.50400001928E-02 0.  1.
       -1    1    3    3    0  502  0.90440610326E+02  0.33723512092E+03  0.36346054318E+03  0.50399464010E+03  0.50400001928E-02 0. -1.
</event>
<event>
 5   0  0.6596225E-03  0.8246083E+03  0.7818609E-02  0.9525065E-01
        1   -1    0    0  501    0  0.00000000000E+00  0.00000000000E+00  0.39804350843E+03  0.39804350846E+03  0.50400001928E-02 0. -1.
       -1   -1    0    0    0  501  0.00000000000E+00  0.00000000000E+00 -0.42707567967E+03  0.42707567970E+03  0.50400001928E-02 0.  1.
    10030    2    1    2    0    0  0.00000000000E+00  0.00000000000E+00 -0.29032171237E+02  0.82511918816E+03  0.82460827531E+03 0.  0.
        5    1    3    3  502    0  0.39933331164E+03  0.87506477543E+02 -0.67917068111E+02  0.41443853047E+03  0.46999998093E+01 0.  1.
       -5    1    3    3    0  502 -0.39933331164E+03 -0.87506477543E+02  0.38884896873E+02  0.41068065769E+03  0.46999998093E+01 0. -1.
</event>
<event>
 5   0  0.6551489E-03  0.8001536E+03  0.7818609E-02  0.9559795E-01
        1   -1    0    0  501    0  0.00000000000E+00  0.00000000000E+00  0.14191602405E+04  0.14191602405E+04  0.50400001928E-02 0.  1.
       -1   -1    0    0    0  501  0.00000000000E+00  0.00000000000E+00 -0.11278602173E+03  0.11278602184E+03  0.50400001928E-02 0. -1.
    10030    2    1    2    0    0  0.00000000000E+00  0.00000000000E+00  0.13063742188E+04  0.15319462623E+04  0.80015357980E+03 0.  0.
        4    1    3    3  502    0  0.37553844783E+03 -0.27934840286E+02  0.91183307226E+03  0.98653466521E+03  0.12699999809E+01 0.  1.
       -4    1    3    3    0  502 -0.37553844783E+03  0.27934840286E+02  0.39454114651E+03  0.54541159713E+03  0.12699999809E+01 0. -1.
</event>
<event>
 5   0  0.1092868E-02  0.7945745E+03  0.7818609E-02  0.9567904E-01
        2   -1    0    0  501    0  0.00000000000E+00  0.00000000000E+00  0.52817990325E+03  0.52817990325E+03  0.25500000920E-02 0.  1.
       -2   -1    0    0    0  501  0.00000000000E+00  0.00000000000E+00 -0.29883220345E+03  0.29883220346E+03  0.25500000920E-02 0. -1.
    10030    2    1    2    0    0  0.00000000000E+00  0.00000000000E+00  0.22934769980E+03  0.82701210671E+03  0.79457451334E+03 0.  0.
        3    1    3    3  502    0 -0.37394279670E+03  0.11548177673E+03  0.43562663815E+02  0.39378543884E+03  0.10100000352E+00 0. -1.
       -3    1    3    3    0  502  0.37394279670E+03 -0.11548177673E+03  0.18578503599E+03  0.43322666787E+03  0.10100000352E+00 0.  1.
</event>
<event>
 5   0  0.6551489E-03  0.7982003E+03  0.7818609E-02  0.9562626E-01
       -1   -1    0    0    0  501  0.00000000000E+00  0.00000000000E+00  0.23433284196E+03  0.23433284202E+03  0.50400001928E-02 0. -1.
        1   -1    0    0  501    0  0.00000000000E+00  0.00000000000E+00 -0.67972097398E+03  0.67972097400E+03  0.50400001928E-02 0.  1.
    10030    2    1    2    0    0  0.00000000000E+00  0.00000000000E+00 -0.44538813202E+03  0.91405381602E+03  0.79820034480E+03 0.  0.
        4    1    3    3  502    0  0.67936619581E+02 -0.21614252651E+03 -0.59893310246E+03  0.64035572159E+03  0.12699999809E+01 0.  1.
       -4    1    3    3    0  502 -0.67936619581E+02  0.21614252651E+03  0.15354497044E+03  0.27369809443E+03  0.12699999809E+01 0. -1.
</event>
<event>
 5   0  0.6557679E-03  0.8007885E+03  0.7818609E-02  0.9558876E-01
        1   -1    0    0  501    0  0.00000000000E+00  0.00000000000E+00  0.40766064847E+03  0.40766064851E+03  0.50400001928E-02 0.  1.
       -1   -1    0    0    0  501  0.00000000000E+00  0.00000000000E+00 -0.39325740941E+03  0.39325740944E+03  0.50400001928E-02 0. -1.
    10030    2    1    2    0    0  0.00000000000E+00  0.00000000000E+00  0.14403239066E+02  0.80091805795E+03  0.80078853779E+03 0.  0.
        1    1    3    3  502    0 -0.15527070485E+03 -0.20503006176E+02  0.37575301808E+03  0.40708684046E+03  0.50400001928E-02 0.  1.
       -1    1    3    3    0  502  0.15527070485E+03  0.20503006176E+02 -0.36134977902E+03  0.39383121749E+03  0.50400001928E-02 0. -1.
</event>
<event>
 5   0  0.6600401E-03  0.7994645E+03  0.7818609E-02  0.9560793E-01
       -1   -1    0    0    0  501  0.00000000000E+00  0.00000000000E+00  0.63756747516E+03  0.63756747518E+03  0.50400001928E-02 0.  1.
        1   -1    0    0  501    0  0.00000000000E+00  0.00000000000E+00 -0.25061797730E+03  0.25061797736E+03  0.50400001928E-02 0. -1.
    10030    2    1    2    0    0  0.00000000000E+00  0.00000000000E+00  0.38694949785E+03  0.88818545253E+03  0.79946449840E+03 0.  0.
        2    1    3    3  502    0  0.30448171164E+03  0.21592832421E+03  0.34594701306E+02  0.37487457541E+03  0.25500000920E-02 0. -1.
       -2    1    3    3    0  502 -0.30448171164E+03 -0.21592832421E+03  0.35235479654E+03  0.51331087713E+03  0.25500000920E-02 0.  1.
</event>
<event>
 5   0  0.1106332E-02  0.7971861E+03  0.7818609E-02  0.9564099E-01
        2   -1    0    0  501    0  0.00000000000E+00  0.00000000000E+00  0.17807159410E+03  0.17807159412E+03  0.25500000920E-02 0. -1.
       -2   -1    0    0    0  501  0.00000000000E+00  0.00000000000E+00 -0.89220526482E+03  0.89220526482E+03  0.25500000920E-02 0.  1.
    10030    2    1    2    0    0  0.00000000000E+00  0.00000000000E+00 -0.71413367072E+03  0.10702768589E+04  0.79718608564E+03 0.  0.
        1    1    3    3  502    0 -0.18443064122E+03  0.35282558776E+03 -0.33103842025E+03  0.51777117775E+03  0.50400001928E-02 0. -1.
       -1    1    3    3    0  502  0.18443064122E+03 -0.35282558776E+03 -0.38309525047E+03  0.55250568119E+03  0.50400001928E-02 0.  1.
</event>
<event>
 5   0  0.6596225E-03  0.8047620E+03  0.7818609E-02  0.9553150E-01
       -1   -1    0    0    0  501  0.00000000000E+00  0.00000000000E+00  0.18681148939E+03  0.18681148946E+03  0.50400001928E-02 0.  1.
        1   -1    0    0  501    0  0.00000000000E+00  0.00000000000E+00 -0.86670508448E+03  0.86670508450E+03  0.50400001928E-02 0. -1.
    10030    2    1    2    0    0  0.00000000000E+00  0.00000000000E+00 -0.67989359509E+03  0.10535165740E+04  0.80476199647E+03 0.  0.
        5    1    3    3  502    0 -0.30218361571E+03  0.20401414283E+03 -0.56269321122E+03  0.67050909615E+03  0.46999998093E+01 0. -1.
       -5    1    3    3    0  502  0.30218361571E+03 -0.20401414283E+03 -0.11720038388E+03  0.38300747781E+03  0.46999998093E+01 0.  1.
</event>
<event>
 5   0  0.1092868E-02  0.8022805E+03  0.7818609E-02  0.9556722E-01
        2   -1    0    0  501    0  0.00000000000E+00  0.00000000000E+00  0.27776251674E+03  0.27776251675E+03  0.25500000920E-02 0.  1.
       -2   -1    0    0    0  501  0.00000000000E+00  0.00000000000E+00 -0.57932039255E+03  0.57932039255E+03  0.25500000920E-02 0. -1.
    10030    2    1    2    0    0  0.00000000000E+00  0.00000000000E+00 -0.30155787581E+03  0.85708290931E+03  0.80228047525E+03 0.  0.
        3    1    3    3  502    0  0.31870183516E+03 -0.48075254655E+02 -0.40590427472E+03  0.51830529640E+03  0.10100000352E+00 0. -1.
       -3    1    3    3    0  502 -0.31870183516E+03  0.48075254655E+02  0.10434639891E+03  0.33877761291E+03  0.10100000352E+00 0.  1.
</event>
<event>
 5   0  0.1121480E-02  0.7935434E+03  0.7818609E-02  0.9569410E-01
       -2   -1    0    0    0  501  0.00000000000E+00  0.00000000000E+00  0.26862628170E+03  0.26862628171E+03  0.25500000920E-02 0. -1.
        2   -1    0    0  501    0  0.00000000000E+00  0.00000000000E+00 -0.58604762506E+03  0.58604762507E+03  0.25500000920E-02 0.  1.
    10030    2    1    2    0    0  0.00000000000E+00  0.00000000000E+00 -0.31742134337E+03  0.85467390677E+03  0.79354343151E+03 0.  0.
        2    1    3    3  502    0 -0.18398842192E+03  0.79291041803E+02  0.21014660822E+03  0.29034532141E+03  0.25500000920E-02 0. -1.
       -2    1    3    3    0  502  0.18398842192E+03 -0.79291041803E+02 -0.52756795159E+03  0.56432858536E+03  0.25500000920E-02 0.  1.
</event>
<event>
 5   0  0.1106332E-02  0.7997666E+03  0.7818609E-02  0.9560355E-01
       -2   -1    0    0    0  501  0.00000000000E+00  0.00000000000E+00  0.83014822656E+02  0.83014822695E+02  0.25500000920E-02 0. -1.
        2   -1    0    0  501    0  0.00000000000E+00  0.00000000000E+00 -0.19262421969E+04  0.19262421969E+04  0.25500000920E-02 0.  1.
    10030    2    1    2    0    0  0.00000000000E+00  0.00000000000E+00 -0.18432273742E+04  0.20092570196E+04  0.79976660198E+03 0.  0.
        1    1    3    3  502    0 -0.28810056197E+03  0.26604574944E+03 -0.72500473563E+03  0.82426581957E+03  0.50400001928E-02 0. -1.
       -1    1    3    3    0  502  0.28810056197E+03 -0.26604574944E+03 -0.11182226386E+04  0.11849912000E+04  0.50400001928E-02 0.  1.
</event>
<event>
 5   0  0.1092868E-02  0.7943856E+03  0.7818609E-02  0.9568179E-01
        2   -1    0    0  501    0  0.00000000000E+00  0.00000000000E+00  0.43600180320E+03  0.43600180321E+03  0.25500000920E-02 0.  1.
       -2   -1    0    0    0  501  0.00000000000E+00  0.00000000000E+00 -0.36183822395E+03  0.36183822396E+03  0.25500000920E-02 0. -1.
    10030    2    1    2    0    0  0.00000000000E+00  0.00000000000E+00  0.74163579255E+02  0.79784002717E+03  0.79438559432E+03 0.  0.
        3    1    3    3  502    0  0.99707741845E+02 -0.33063701080E+03 -0.15998470979E+03  0.38060160833E+03  0.10100000352E+00 0. -1.
       -3    1    3    3    0  502 -0.99707741845E+02  0.33063701080E+03  0.23414828905E+03  0.41723841884E+03  0.10100000352E+00 0.  1.
</event>
<event>
 5   0  0.6557679E-03  0.8015753E+03  0.7818609E-02  0.9557740E-01
        1   -1    0    0  501    0  0.00000000000E+00  0.00000000000E+00  0.29043427673E+04  0.29043427673E+04  0.50400001928E-02 0.  1.
       -1   -1    0    0    0  501  0.00000000000E+00  0.00000000000E+00 -0.55307087301E+02  0.55307087530E+02  0.50400001928E-02 0. -1.
    10030    2    1    2    0    0  0.00000000000E+00  0.00000000000E+00  0.28490356800E+04  0.29596498548E+04  0.80157529734E+03 0.  0.
        1    1    3    3  502    0 -0.11471483929E+02  0.12031846777E+03  0.28354497766E+04  0.28380245884E+04  0.50400001928E-02 0.  1.
       -1    1    3    3    0  502  0.11471483929E+02 -0.12031846777E+03  0.13585903341E+02  0.12162526639E+03  0.50400001928E-02 0. -1.
</event>
<event>
 5   0  0.6596225E-03  0.8095429E+03  0.7818609E-02  0.9546306E-01
        1   -1    0    0  501    0  0.00000000000E+00  0.00000000000E+00  0.31421518118E+03  0.31421518122E+03  0.50400001928E-02 0.  1.
       -1   -1    0    0    0  501  0.00000000000E+00  0.00000000000E+00 -0.52142583441E+03  0.52142583444E+03  0.50400001928E-02 0. -1.
    10030    2    1    2    0    0  0.00000000000E+00  0.00000000000E+00 -0.20721065323E+03  0.83564101566E+03  0.80954286622E+03 0.  0.
        5    1    3    3  502    0  0.17837329890E+03  0.30854636481E+03  0.94412092065E+02  0.36871889852E+03  0.46999998093E+01 0.  1.
       -5    1    3    3    0  502 -0.17837329890E+03 -0.30854636481E+03 -0.30162274530E+03  0.46692211714E+03  0.46999998093E+01 0. -1.
</event>
<event>
 5   0  0.4385875E-03  0.7831506E+03  0.7818609E-02  0.9584731E-01
        3   -1    0    0  501    0  0.00000000000E+00  0.00000000000E+00  0.13140217244E+03  0.13140221125E+03  0.10100000352E+00 0. -1.
       -3   -1    0    0    0  501  0.00000000000E+00  0.00000000000E+00 -0.11668847385E+04  0.11668847428E+04  0.10100000352E+00 0.  1.
    10030    2    1    2    0    0  0.00000000000E+00  0.00000000000E+00 -0.10354825660E+04  0.12982869541E+04  0.78315060532E+03 0.  0.
        2    1    3    3  502    0  0.22085305790E+03 -0.23488903139E+03 -0.14934859087E+03  0.35532229293E+03  0.25500000920E-02 0. -1.
       -2    1    3    3    0  502 -0.22085305790E+03  0.23488903139E+03 -0.88613397516E+03  0.94296466116E+03  0.25500000920E-02 0.  1.
</event>
<event>
 5   0  0.1119792E-02  0.7967650E+03  0.7818609E-02  0.9564712E-01
        2   -1    0    0  501    0  0.00000000000E+00  0.00000000000E+00  0.14113134705E+04  0.14113134705E+04  0.25500000920E-02 0. -1.
       -2   -1    0    0    0  501  0.00000000000E+00  0.00000000000E+00 -0.11245453557E+03  0.11245453560E+03  0.25500000920E-02 0.  1.
    10030    2    1    2    0    0  0.00000000000E+00  0.00000000000E+00  0.12988589350E+04  0.15237680061E+04  0.79676496133E+03 0.  0.
        4    1    3    3  502    0  0.33132680015E+03 -0.12551919526E+03  0.99775926506E+03  0.10588001137E+04  0.12699999809E+01 0. -1.
       -4    1    3    3    0  502 -0.33132680015E+03  0.12551919526E+03  0.30109966989E+03  0.46496789242E+03  0.12699999809E+01 0.  1.
</event>
<event>
 5   0  0.1121480E-02  0.7942254E+03  0.7818609E-02  0.9568413E-01
        2   -1    0    0  501    0  0.00000000000E+00  0.00000000000E+00  0.95231171981E+03  0.95231171981E+03  0.25500000920E-02 0.  1.
       -2   -1    0    0    0  501  0.00000000000E+00  0.00000000000E+00 -0.16559546180E+03  0.16559546182E+03  0.25500000920E-02 0. -1.
    10030    2    1    2    0    0  0.00000000000E+00  0.00000000000E+00  0.78671625800E+03  0.11179071816E+04  0.79422540638E+03 0.  0.
        2    1    3    3  502    0  0.19160929138E+03  0.26603008464E+03  0.70876223430E+03  0.78091614867E+03  0.25500000920E-02 0.  1.
       -2    1    3    3    0  502 -0.19160929138E+03 -0.26603008464E+03  0.77954023701E+02  0.33699103296E+03  0.25500000920E-02 0. -1.
</event>
<event>
 5   0  0.6600401E-03  0.7985929E+03  0.7818609E-02  0.9562056E-01
        1   -1    0    0  501    0  0.00000000000E+00  0.00000000000E+00  0.15809759644E+04  0.15809759644E+04  0.50400001928E-02 0.  1.
       -1   -1    0    0    0  501  0.00000000000E+00  0.00000000000E+00 -0.10084762196E+03  0.10084762208E+03  0.50400001928E-02 0. -1.
    10030    2    1    2    0    0  0.00000000000E+00  0.00000000000E+00  0.14801283425E+04  0.16818235865E+04  0.79859292883E+03 0.  0.
        2    1    3    3  502    0  0.37020225494E+03 -0.10777036024E+03  0.52147254800E+03  0.64853510193E+03  0.25500000920E-02 0.  1.
       -2    1    3    3    0  502 -0.37020225494E+03  0.10777036024E+03  0.95865579447E+03  0.10332884846E+04  0.25500000920E-02 0. -1.
</event>
<event>
 5   0  0.4385875E-03  0.7796326E+03  0.7818609E-02  0.9589975E-01
        4   -1    0    0  501    0  0.00000000000E+00  0.00000000000E+00  0.47389777723E+03  0.47389947897E+03  0.12699999809E+01 0.  1.
       -4   -1    0    0    0  501  0.00000000000E+00  0.00000000000E+00 -0.32064944710E+03  0.32065196214E+03  0.12699999809E+01 0. -1.
    10030    2    1    2    0    0  0.00000000000E+00  0.00000000000E+00  0.15324833013E+03  0.79455144111E+03  0.77963256851E+03 0.  0.
        1    1    3    3  502    0 -0.21429116451E+03 -0.23642990064E+03  0.30482169236E+03  0.44128909488E+03  0.50400001928E-02 0.  1.
       -1    1    3    3    0  502  0.21429116451E+03  0.23642990064E+03 -0.15157336223E+03  0.35326234623E+03  0.50400001928E-02 0. -1.
</event>
<event>
 5   0  0.1106332E-02  0.8038244E+03  0.7818609E-02  0.9554498E-01
        2   -1    0    0  501    0  0.00000000000E+00  0.00000000000E+00  0.69890434598E+03  0.69890434598E+03  0.25500000920E-02 0.  1.
       -2   -1    0    0    0  501  0.00000000000E+00  0.00000000000E+00 -0.23112380312E+03  0.23112380313E+03  0.25500000920E-02 0. -1.
    10030    2    1    2    0    0  0.00000000000E+00  0.00000000000E+00  0.46778054286E+03  0.93002814912E+03  0.80382443473E+03 0.  0.
        1    1    3    3  502    0 -0.27461414689E+03 -0.22436989243E+02  0.57243425608E+03  0.63529310221E+03  0.50400001928E-02 0.  1.
       -1    1    3    3    0  502  0.27461414689E+03  0.22436989243E+02 -0.10465371322E+03  0.29473504691E+03  0.50400001928E-02 0. -1.
</event>
<event>
 5   0  0.6551489E-03  0.7916232E+03  0.7818609E-02  0.9572222E-01
       -1   -1    0    0    0  501  0.00000000000E+00  0.00000000000E+00  0.23550208465E+03  0.23550208471E+03  0.50400001928E-02 0.  1.
        1   -1    0    0  501    0  0.00000000000E+00  0.00000000000E+00 -0.66524603505E+03  0.66524603507E+03  0.50400001928E-02 0. -1.
    10030    2    1    2    0    0  0.00000000000E+00  0.00000000000E+00 -0.42974395040E+03  0.90074811977E+03  0.79162321364E+03 0.  0.
        4    1    3    3  502    0 -0.19820313956E+03  0.19645289131E+03 -0.53425520146E+03  0.60275074137E+03  0.12699999809E+01 0. -1.
       -4    1    3    3    0  502  0.19820313956E+03 -0.19645289131E+03  0.10451125106E+03  0.29799737840E+03  0.12699999809E+01 0.  1.
</event>
<event>
 5   0  0.6596225E-03  0.8043550E+03  0.7818609E-02  0.9553735E-01
       -1   -1    0    0    0  501  0.00000000000E+00  0.00000000000E+00  0.17578710059E+03  0.17578710066E+03  0.50400001928E-02 0. -1.
        1   -1    0    0  501    0  0.00000000000E+00  0.00000000000E+00 -0.92012867500E+03  0.92012867502E+03  0.50400001928E-02 0.  1.
    10030    2    1    2    0    0  0.00000000000E+00  0.00000000000E+00 -0.74434157441E+03  0.10959157757E+04  0.80435502608E+03 0.  0.
        5    1    3    3  502    0  0.23747896537E+03  0.11090391984E+03  0.43393224174E+02  0.26570848751E+03  0.46999998093E+01 0. -1.
       -5    1    3    3    0  502 -0.23747896537E+03 -0.11090391984E+03 -0.78773479859E+03  0.83020728817E+03  0.46999998093E+01 0.  1.
</event>
<event>
 5   0  0.6557679E-03  0.7986712E+03  0.7818609E-02  0.9561942E-01
       -1   -1    0    0    0  501  0.00000000000E+00  0.00000000000E+00  0.96619120693E+02  0.96619120825E+02  0.50400001928E-02 0. -1.
        1   -1    0    0  501    0  0.00000000000E+00  0.00000000000E+00 -0.16504904812E+04  0.16504904812E+04  0.50400001928E-02 0.  1.
    10030    2    1    2    0    0  0.00000000000E+00  0.00000000000E+00 -0.15538713605E+04  0.17471096020E+04  0.79867124432E+03 0.  0.
        1    1    3    3  502    0 -0.41980077919E+02 -0.93339413639E+02  0.67442545854E+02  0.12256863423E+03  0.50400001928E-02 0. -1.
       -1    1    3    3    0  502  0.41980077919E+02  0.93339413639E+02 -0.16213139063E+04  0.16245409678E+04  0.50400001928E-02 0.  1.
</event>
<event>
 5   0  0.6517392E-03  0.7929365E+03  0.7818609E-02  0.9570298E-01
        1   -1    0    0  501    0  0.00000000000E+00  0.00000000000E+00  0.17463686223E+03  0.17463686230E+03  0.50400001928E-02 0. -1.
       -1   -1    0    0    0  501  0.00000000000E+00  0.00000000000E+00 -0.90007948961E+03  0.90007948962E+03  0.50400001928E-02 0.  1.
    10030    2    1    2    0    0  0.00000000000E+00  0.00000000000E+00 -0.72544262738E+03  0.10747163519E+04  0.79293646119E+03 0.  0.
        3    1    3    3  502    0 -0.27261441287E+03  0.11492312788E+03 -0.72044742847E+03  0.77882632905E+03  0.10100000352E+00 0.  1.
       -3    1    3    3    0  502  0.27261441287E+03 -0.11492312788E+03 -0.49951989049E+01  0.29589002288E+03  0.10100000352E+00 0. -1.
</event>
<event>
 5   0  0.1092868E-02  0.7982825E+03  0.7818609E-02  0.9562506E-01
        2   -1    0    0  501    0  0.00000000000E+00  0.00000000000E+00  0.85244818024E+03  0.85244818024E+03  0.25500000920E-02 0.  1.
       -2   -1    0    0    0  501  0.00000000000E+00  0.00000000000E+00 -0.18688964203E+03  0.18688964204E+03  0.25500000920E-02 0. -1.
    10030    2    1    2    0    0  0.00000000000E+00  0.00000000000E+00  0.66555853821E+03  0.10393378223E+04  0.79828249452E+03 0.  0.
        3    1    3    3  502    0 -0.29052725493E+03  0.21318235969E+03  0.55625135556E+03  0.66277325316E+03  0.10100000352E+00 0.  1.
       -3    1    3    3    0  502  0.29052725493E+03 -0.21318235969E+03  0.10930718265E+03  0.37656456913E+03  0.10100000352E+00 0. -1.
</event>
<event>
 5   0  0.1106332E-02  0.7997826E+03  0.7818609E-02  0.9560332E-01
        2   -1    0    0  501    0  0.00000000000E+00  0.00000000000E+00  0.95254973083E+03  0.95254973083E+03  0.25500000920E-02 0.  1.
       -2   -1    0    0    0  501  0.00000000000E+00  0.00000000000E+00 -0.16787893577E+03  0.16787893579E+03  0.25500000920E-02 0. -1.
    10030    2    1    2    0    0  0.00000000000E+00  0.00000000000E+00  0.78467079506E+03  0.11204286666E+04  0.79978255819E+03 0.  0.
        1    1    3    3  502    0 -0.11859168992E+03  0.16714950920E+03 -0.88711883653E+02  0.22332206714E+03  0.50400001928E-02 0. -1.
       -1    1    3    3    0  502  0.11859168992E+03 -0.16714950920E+03  0.87338267871E+03  0.89710659949E+03  0.50400001928E-02 0.  1.
</event>
<event>
 5   0  0.6596225E-03  0.8035486E+03  0.7818609E-02  0.9554895E-01
       -1   -1    0    0    0  501  0.00000000000E+00  0.00000000000E+00  0.45632839639E+03  0.45632839642E+03  0.50400001928E-02 0. -1.
        1   -1    0    0  501    0  0.00000000000E+00  0.00000000000E+00 -0.35374211940E+03  0.35374211944E+03  0.50400001928E-02 0.  1.
    10030    2    1    2    0    0  0.00000000000E+00  0.00000000000E+00  0.10258627699E+03  0.81007051586E+03  0.80354856507E+03 0.  0.
        5    1    3    3  502    0 -0.26952933828E+03  0.23535676729E+03 -0.13284095547E+03  0.38171675565E+03  0.46999998093E+01 0.  1.
       -5    1    3    3    0  502  0.26952933828E+03 -0.23535676729E+03  0.23542723245E+03  0.42835376020E+03  0.46999998093E+01 0. -1.
</event>
<event>
 5   0  0.1119792E-02  0.8007168E+03  0.7818609E-02  0.9558980E-01
        2   -1    0    0  501    0  0.00000000000E+00  0.00000000000E+00  0.50399257655E+03  0.50399257656E+03  0.25500000920E-02 0.  1.
       -2   -1    0    0    0  501  0.00000000000E+00  0.00000000000E+00 -0.31803414933E+03  0.31803414934E+03  0.25500000920E-02 0. -1.
    10030    2    1    2    0    0  0.00000000000E+00  0.00000000000E+00  0.18595842722E+03  0.82202672590E+03  0.80071680477E+03 0.  0.
        4    1    3    3  502    0  0.25817435838E+00 -0.28891733010E+03 -0.19154640858E+03  0.34664813547E+03  0.12699999809E+01 0. -1.
       -4    1    3    3    0  502 -0.25817435838E+00  0.28891733010E+03  0.37750483581E+03  0.47537859043E+03  0.12699999809E+01 0.  1.
</event>
<event>
 5   0  0.6600401E-03  0.8028215E+03  0.7818609E-02  0.9555942E-01
       -1   -1    0    0    0  501  0.00000000000E+00  0.00000000000E+00  0.15703531495E+03  0.15703531503E+03  0.50400001928E-02 0.  1.
        1   -1    0    0  501    0  0.00000000000E+00  0.00000000000E+00 -0.10260786328E+04  0.10260786328E+04  0.50400001928E-02 0. -1.
    10030    2    1    2    0    0  0.00000000000E+00  0.00000000000E+00 -0.86904331783E+03  0.11831139478E+04  0.80282147783E+03 0.  0.
        2    1    3    3  502    0 -0.66930516740E+02 -0.69572671408E+02  0.13967219669E+03  0.16978920228E+03  0.25500000920E-02 0.  1.
       -2    1    3    3    0  502  0.66930516740E+02  0.69572671408E+02 -0.10087155145E+04  0.10133247455E+04  0.25500000920E-02 0. -1.
</event>
<event>
 5   0  0.1154714E-02  0.7971024E+03  0.7818609E-02  0.9564221E-01
        2   -1    0    0  501    0  0.00000000000E+00  0.00000000000E+00  0.57325331493E+03  0.57325331494E+03  0.25500000920E-02 0.  1.
       -2   -1    0    0    0  501  0.00000000000E+00  0.00000000000E+00 -0.27709048547E+03  0.27709048549E+03  0.25500000920E-02 0. -1.
    10030    2    1    2    0    0  0.00000000000E+00  0.00000000000E+00  0.29616282946E+03  0.85034380043E+03  0.79710235062E+03 0.  0.
        5    1    3    3  502    0 -0.28044840716E+03 -0.77277652871E+02 -0.14250545569E+03  0.32396456536E+03  0.46999998093E+01 0. -1.
       -5    1    3    3    0  502  0.28044840716E+03  0.77277652871E+02  0.43866828515E+03  0.52637923506E+03  0.46999998093E+01 0.  1.
</event>
<event>
 5   0  0.1154714E-02  0.7991791E+03  0.7818609E-02  0.9561206E-01
        2   -1    0    0  501    0  0.00000000000E+00  0.00000000000E+00  0.68719649161E+03  0.68719649161E+03  0.25500000920E-02 0.  1.
       -2   -1    0    0    0  501  0.00000000000E+00  0.00000000000E+00 -0.23235245866E+03  0.23235245868E+03  0.25500000920E-02 0. -1.
    10030    2    1    2    0    0  0.00000000000E+00  0.00000000000E+00  0.45484403294E+03  0.91954895029E+03  0.79917906484E+03 0.  0.
        5    1    3    3  502    0  0.22256637390E+03 -0.27118367208E+03  0.73762566118E+01  0.35093143768E+03  0.46999998093E+01 0. -1.
       -5    1    3    3    0  502 -0.22256637390E+03  0.27118367208E+03  0.44746777633E+03  0.56861751261E+03  0.46999998093E+01 0.  1.
</event>
<event>
 5   0  0.1092868E-02  0.7991594E+03  0.7818609E-02  0.9561235E-01
       -2   -1    0    0    0  501  0.00000000000E+00  0.00000000000E+00  0.27097062861E+03  0.27097062862E+03  0.25500000920E-02 0. -1.
        2   -1    0    0  501    0  0.00000000000E+00  0.00000000000E+00 -0.58922972040E+03  0.58922972041E+03  0.25500000920E-02 0.  1.
    10030    2    1    2    0    0  0.00000000000E+00  0.00000000000E+00 -0.31825909179E+03  0.86020034903E+03  0.79915942775E+03 0.  0.
        3    1    3    3  502    0  0.37461005098E+03 -0.13243510979E+03 -0.20469734828E+03  0.44695946482E+03  0.10100000352E+00 0. -1.
       -3    1    3    3    0  502 -0.37461005098E+03  0.13243510979E+03 -0.11356174351E+03  0.41324088422E+03  0.10100000352E+00 0.  1.
</event>
<event>
 5   0  0.1154714E-02  0.8017607E+03  0.7818609E-02  0.9557472E-01
        2   -1    0    0  501    0  0.00000000000E+00  0.00000000000E+00  0.43875442120E+03  0.43875442120E+03  0.25500000920E-02 0. -1.
       -2   -1    0    0    0  501  0.00000000000E+00  0.00000000000E+00 -0.36627560378E+03  0.36627560379E+03  0.25500000920E-02 0.  1.
    10030    2    1    2    0    0  0.00000000000E+00  0.00000000000E+00  0.72478817419E+02  0.80503002499E+03  0.80176066389E+03 0.  0.
        5    1    3    3  502    0 -0.22197209268E+01 -0.13254640120E+03 -0.34360131745E+03  0.36831702511E+03  0.46999998093E+01 0.  1.
       -5    1    3    3    0  502  0.22197209268E+01  0.13254640120E+03  0.41608013487E+03  0.43671299988E+03  0.46999998093E+01 0. -1.
</event>
<event>
 5   0  0.1121480E-02  0.7997472E+03  0.7818609E-02  0.9560383E-01
        2   -1    0    0  501    0  0.00000000000E+00  0.00000000000E+00  0.65810990220E+03  0.65810990221E+03  0.25500000920E-02 0.  1.
       -2   -1    0    0    0  501  0.00000000000E+00  0.00000000000E+00 -0.24296687042E+03  0.24296687044E+03  0.25500000920E-02 0. -1.
    10030    2    1    2    0    0  0.00000000000E+00  0.00000000000E+00  0.41514303178E+03  0.90107677264E+03  0.79974721841E+03 0.  0.
        2    1    3    3  502    0  0.38132062550E+03 -0.10125130057E+03  0.13419165522E+03  0.41673090315E+03  0.25500000920E-02 0.  1.
       -2    1    3    3    0  502 -0.38132062550E+03  0.10125130057E+03  0.28095137656E+03  0.48434586950E+03  0.25500000920E-02 0. -1.
</event>
<event>
 5   0  0.1154714E-02  0.7995443E+03  0.7818609E-02  0.9560677E-01
       -2   -1    0    0    0  501  0.00000000000E+00  0.00000000000E+00  0.14900951644E+03  0.14900951647E+03  0.25500000920E-02 0.  1.
        2   -1    0    0  501    0  0.00000000000E+00  0.00000000000E+00 -0.10725338788E+04  0.10725338788E+04  0.25500000920E-02 0. -1.
    10030    2    1    2    0    0  0.00000000000E+00  0.00000000000E+00 -0.92352436234E+03  0.12215433953E+04  0.79954425684E+03 0.  0.
        5    1    3    3  502    0 -0.38002415619E+03  0.67461324495E+02 -0.62072879397E+03  0.73095534422E+03  0.46999998093E+01 0. -1.
       -5    1    3    3    0  502  0.38002415619E+03 -0.67461324495E+02 -0.30279556837E+03  0.49058805103E+03  0.46999998093E+01 0.  1.
</event>
<event>
 5   0  0.1121480E-02  0.8014809E+03  0.7818609E-02  0.9557876E-01
       -2   -1    0    0    0  501  0.00000000000E+00  0.00000000000E+00  0.47466149256E+03  0.47466149256E+03  0.25500000920E-02 0.  1.
        2   -1    0    0  501    0  0.00000000000E+00  0.00000000000E+00 -0.33833146486E+03  0.33833146487E+03  0.25500000920E-02 0. -1.
    10030    2    1    2    0    0  0.00000000000E+00  0.00000000000E+00  0.13633002769E+03  0.81299295743E+03  0.80148092453E+03 0.  0.
        2    1    3    3  502    0 -0.13764500967E+03 -0.31610141418E+03  0.27537010996E+03  0.44124250724E+03  0.25500000920E-02 0. -1.
       -2    1    3    3    0  502  0.13764500967E+03  0.31610141418E+03 -0.13904008226E+03  0.37175045019E+03  0.25500000920E-02 0.  1.
</event>
<event>
 5   0  0.1119792E-02  0.7966500E+03  0.7818609E-02  0.9564879E-01
        2   -1    0    0  501    0  0.00000000000E+00  0.00000000000E+00  0.35673279100E+03  0.35673279101E+03  0.25500000920E-02 0.  1.
       -2   -1    0    0    0  501  0.00000000000E+00  0.00000000000E+00 -0.44476650461E+03  0.44476650462E+03  0.25500000920E-02 0. -1.
    10030    2    1    2    0    0  0.00000000000E+00  0.00000000000E+00 -0.88033713606E+02  0.80149929563E+03  0.79664997719E+03 0.  0.
        4    1    3    3  502    0 -0.23257696246E+02  0.14670613206E+03  0.32782398549E+03  0.35990802712E+03  0.12699999809E+01 0.  1.
       -4    1    3    3    0  502  0.23257696246E+02 -0.14670613206E+03 -0.41585769910E+03  0.44159126851E+03  0.12699999809E+01 0. -1.
</event>
<event>
 5   0  0.1106332E-02  0.8092451E+03  0.7818609E-02  0.9546731E-01
       -2   -1    0    0    0  501  0.00000000000E+00  0.00000000000E+00  0.13972497325E+03  0.13972497327E+03  0.25500000920E-02 0.  1.
        2   -1    0    0  501    0  0.00000000000E+00  0.00000000000E+00 -0.11717261567E+04  0.11717261567E+04  0.25500000920E-02 0. -1.
    10030    2    1    2    0    0  0.00000000000E+00  0.00000000000E+00 -0.10320011835E+04  0.13114511300E+04  0.80924509494E+03 0.  0.
        1    1    3    3  502    0  0.20200313011E+03 -0.14518514415E+03  0.11552743573E+01  0.24876761312E+03  0.50400001928E-02 0.  1.
       -1    1    3    3    0  502 -0.20200313011E+03  0.14518514415E+03 -0.10331564578E+04  0.10626835169E+04  0.50400001928E-02 0. -1.
</event>
<event>
 5   0  0.6557679E-03  0.8041466E+03  0.7818609E-02  0.9554034E-01
        1   -1    0    0  501    0  0.00000000000E+00  0.00000000000E+00  0.11741182847E+04  0.11741182847E+04  0.50400001928E-02 0. -1.
       -1   -1    0    0    0  501  0.00000000000E+00  0.00000000000E+00 -0.13768878771E+03  0.13768878780E+03  0.50400001928E-02 0.  1.
    10030    2    1    2    0    0  0.00000000000E+00  0.00000000000E+00  0.10364294970E+04  0.13118070725E+04  0.80414656205E+03 0.  0.
        1    1    3    3  502    0  0.19365117360E+03 -0.31722901981E+03  0.76843721309E+03  0.85359872220E+03  0.50400001928E-02 0. -1.
       -1    1    3    3    0  502 -0.19365117360E+03  0.31722901981E+03  0.26799228392E+03  0.45820835033E+03  0.50400001928E-02 0.  1.
</event>
<event>
 5   0  0.6596225E-03  0.8043728E+03  0.7818609E-02  0.9553709E-01
        1   -1    0    0  501    0  0.00000000000E+00  0.00000000000E+00  0.16153314580E+04  0.16153314580E+04  0.50400001928E-02 0.  1.
       -1   -1    0    0    0  501  0.00000000000E+00  0.00000000000E+00 -0.10013666824E+03  0.10013666837E+03  0.50400001928E-02 0. -1.
    10030    2    1    2    0    0  0.00000000000E+00  0.00000000000E+00  0.15151947898E+04  0.17154681264E+04  0.80437282506E+03 0.  0.
        5    1    3    3  502    0  0.87750566509E+02  0.31978143088E+03  0.27234172756E+03  0.42912985451E+03  0.46999998093E+01 0. -1.
       -5    1    3    3    0  502 -0.87750566509E+02 -0.31978143088E+03  0.12428530622E+04  0.12863382719E+04  0.46999998093E+01 0.  1.
</event>
<event>
 5   0  0.6600401E-03  0.8037698E+03  0.7818609E-02  0.9554576E-01
       -1   -1    0    0    0  501  0.00000000000E+00  0.00000000000E+00  0.76241916444E+02  0.76241916610E+02  0.50400001928E-02 0. -1.
        1   -1    0    0  501    0  0.00000000000E+00  0.00000000000E+00 -0.21184080600E+04  0.21184080600E+04  0.50400001928E-02 0.  1.
    10030    2    1    2    0    0  0.00000000000E+00  0.00000000000E+00 -0.20421661436E+04  0.21946499766E+04  0.80376984391E+03 0.  0.
        2    1    3    3  502    0 -0.15714185613E+03 -0.31934791195E+03 -0.51147011847E+03  0.62311983913E+03  0.25500000920E-02 0. -1.
       -2    1    3    3    0  502  0.15714185613E+03  0.31934791195E+03 -0.15306960251E+04  0.15715301375E+04  0.25500000920E-02 0.  1.
</event>
<event>
 5   0  0.6596225E-03  0.8012330E+03  0.7818609E-02  0.9558234E-01
       -1   -1    0    0    0  501  0.00000000000E+00  0.00000000000E+00  0.30935695833E+03  0.30935695837E+03  0.50400001928E-02 0.  1.
        1   -1    0    0  501    0  0.00000000000E+00  0.00000000000E+00 -0.51879737643E+03  0.51879737646E+03  0.50400001928E-02 0. -1.
    10030    2    1    2    0    0  0.00000000000E+00  0.00000000000E+00 -0.20944041810E+03  0.82815433483E+03  0.80123299580E+03 0.  0.
        5    1    3    3  502    0 -0.16313394712E+03  0.29700064829E+03  0.11611589612E+03  0.35822766660E+03  0.46999998093E+01 0.  1.
       -5    1    3    3    0  502  0.16313394712E+03 -0.29700064829E+03 -0.32555631421E+03  0.46992666823E+03  0.46999998093E+01 0. -1.
</event>
<event>
 5   0  0.1106332E-02  0.8124021E+03  0.7818609E-02  0.9542237E-01
        2   -1    0    0  501    0  0.00000000000E+00  0.00000000000E+00  0.62657835363E+03  0.62657835363E+03  0.25500000920E-02 0. -1.
       -2   -1    0    0    0  501  0.00000000000E+00  0.00000000000E+00 -0.26333384392E+03  0.26333384393E+03  0.25500000920E-02 0.  1.
    10030    2    1    2    0    0  0.00000000000E+00  0.00000000000E+00  0.36324450971E+03  0.88991219756E+03  0.81240208366E+03 0.  0.
        1    1    3    3  502    0  0.15658946770E+03 -0.17370411415E+03  0.54543299285E+03  0.59345642669E+03  0.50400001928E-02 0. -1.
       -1    1    3    3    0  502 -0.15658946770E+03  0.17370411415E+03 -0.18218848314E+03  0.29645577087E+03  0.50400001928E-02 0.  1.
</event>
<event>
 5   0  0.1119792E-02  0.8027562E+03  0.7818609E-02  0.9556036E-01
        2   -1    0    0  501    0  0.00000000000E+00  0.00000000000E+00  0.64222390737E+03  0.64222390737E+03  0.25500000920E-02 0.  1.
       -2   -1    0    0    0  501  0.00000000000E+00  0.00000000000E+00 -0.25085389148E+03  0.25085389150E+03  0.25500000920E-02 0. -1.
    10030    2    1    2    0    0  0.00000000000E+00  0.00000000000E+00  0.39137001588E+03  0.89307779887E+03  0.80275616815E+03 0.  0.
        4    1    3    3  502    0 -0.29271805867E+03 -0.27122015849E+03  0.24364608619E+03  0.46755669652E+03  0.12699999809E+01 0.  1.
       -4    1    3    3    0  502  0.29271805867E+03  0.27122015849E+03  0.14772392970E+03  0.42552110235E+03  0.12699999809E+01 0. -1.
</event>
<event>
 5   0  0.6551489E-03  0.8024096E+03  0.7818609E-02  0.9556536E-01
        1   -1    0    0  501    0  0.00000000000E+00  0.00000000000E+00  0.28908018191E+03  0.28908018195E+03  0.50400001928E-02 0. -1.
       -1   -1    0    0    0  501  0.00000000000E+00  0.00000000000E+00 -0.55681880604E+03  0.55681880606E+03  0.50400001928E-02 0.  1.
    10030    2    1    2    0    0  0.00000000000E+00  0.00000000000E+00 -0.26773862413E+03  0.84589898802E+03  0.80240957564E+03 0.  0.
        4    1    3    3  502    0 -0.11726222647E+03  0.32771124814E+03  0.76491709009E+02  0.35636734750E+03  0.12699999809E+01 0. -1.
       -4    1    3    3    0  502  0.11726222647E+03 -0.32771124814E+03 -0.34423033314E+03  0.48953164052E+03  0.12699999809E+01 0.  1.
</event>
<event>
 5   0  0.6600401E-03  0.7934082E+03  0.7818609E-02  0.9569608E-01
       -1   -1    0    0    0  501  0.00000000000E+00  0.00000000000E+00  0.78960367068E+02  0.78960367229E+02  0.50400001928E-02 0.  1.
        1   -1    0    0  501    0  0.00000000000E+00  0.00000000000E+00 -0.19930776996E+04  0.19930776996E+04  0.50400001928E-02 0. -1.
    10030    2    1    2    0    0  0.00000000000E+00  0.00000000000E+00 -0.19141173325E+04  0.20720380668E+04  0.79340821001E+03 0.  0.
        2    1    3    3  502    0  0.31720925231E+03  0.15669061817E+03 -0.14256910132E+04  0.14689344862E+04  0.25500000920E-02 0. -1.
       -2    1    3    3    0  502 -0.31720925231E+03 -0.15669061817E+03 -0.48842631934E+03  0.60310358066E+03  0.25500000920E-02 0.  1.
</event>
<event>
 5   0  0.6600401E-03  0.8062360E+03  0.7818609E-02  0.9551034E-01
        1   -1    0    0  501    0  0.00000000000E+00  0.00000000000E+00  0.19912558721E+03  0.19912558727E+03  0.50400001928E-02 0.  1.
       -1   -1    0    0    0  501  0.00000000000E+00  0.00000000000E+00 -0.81608857764E+03  0.81608857766E+03  0.50400001928E-02 0. -1.
    10030    2    1    2    0    0  0.00000000000E+00  0.00000000000E+00 -0.61696299043E+03  0.10152141649E+04  0.80623598848E+03 0.  0.
        2    1    3    3  502    0  0.83366345632E+02  0.30706178557E+03 -0.62016197926E+03  0.69702063690E+03  0.25500000920E-02 0. -1.
       -2    1    3    3    0  502 -0.83366345632E+02 -0.30706178557E+03  0.31989888319E+01  0.31819352803E+03  0.25500000920E-02 0.  1.
</event>
<event>
 5   0  0.1121480E-02  0.7997027E+03  0.7818609E-02  0.9560448E-01
       -2   -1    0    0    0  501  0.00000000000E+00  0.00000000000E+00  0.39749461231E+03  0.39749461232E+03  0.25500000920E-02 0. -1.
        2   -1    0    0  501    0  0.00000000000E+00  0.00000000000E+00 -0.40222205716E+03  0.40222205717E+03  0.25500000920E-02 0.  1.
    10030    2    1    2    0    0  0.00000000000E+00  0.00000000000E+00 -0.47274448479E+01  0.79971666948E+03  0.79970269645E+03 0.  0.
        2    1    3    3  502    0  0.20806841786E+03  0.89320314807E+02  0.32720313121E+03  0.39791013335E+03  0.25500000920E-02 0. -1.
       -2    1    3    3    0  502 -0.20806841786E+03 -0.89320314807E+02 -0.33193057605E+03  0.40180653613E+03  0.25500000920E-02 0.  1.
</event>
<event>
 5   0  0.6551489E-03  0.8352716E+03  0.7818609E-02  0.9510321E-01
       -1   -1    0    0    0  501  0.00000000000E+00  0.00000000000E+00  0.20744338550E+03  0.20744338556E+03  0.50400001928E-02 0. -1.
        1   -1    0    0  501    0  0.00000000000E+00  0.00000000000E+00 -0.84080605323E+03  0.84080605325E+03  0.50400001928E-02 0.  1.
    10030    2    1    2    0    0  0.00000000000E+00  0.00000000000E+00 -0.63336266773E+03  0.10482494388E+04  0.83527158283E+03 0.  0.
        4    1    3    3  502    0  0.24538309303E+03 -0.90511833933E+02  0.91935315335E+02  0.27723450279E+03  0.12699999809E+01 0. -1.
       -4    1    3    3    0  502 -0.24538309303E+03  0.90511833933E+02 -0.72529798307E+03  0.77101493602E+03  0.12699999809E+01 0.  1.
</event>
<event>
 5   0  0.6600401E-03  0.7980139E+03  0.7818609E-02  0.9562896E-01
        1   -1    0    0  501    0  0.00000000000E+00  0.00000000000E+00  0.14294441909E+04  0.14294441909E+04  0.50400001928E-02 0.  1.
       -1   -1    0    0    0  501  0.00000000000E+00  0.00000000000E+00 -0.11137654251E+03  0.11137654262E+03  0.50400001928E-02 0. -1.
    10030    2    1    2    0    0  0.00000000000E+00  0.00000000000E+00  0.13180676484E+04  0.15408207335E+04  0.79801391412E+03 0.  0.
        2    1    3    3  502    0  0.30862546639E+03 -0.11816419617E+03  0.10907526727E+04  0.11397165651E+04  0.25500000920E-02 0.  1.
       -2    1    3    3    0  502 -0.30862546639E+03  0.11816419617E+03  0.22731497573E+03  0.40110416846E+03  0.25500000920E-02 0. -1.
</event>
<event>
 5   0  0.6517392E-03  0.8193654E+03  0.7818609E-02  0.9532402E-01
        1   -1    0    0  501    0  0.00000000000E+00  0.00000000000E+00  0.23215568399E+03  0.23215568404E+03  0.50400001928E-02 0. -1.
       -1   -1    0    0    0  501  0.00000000000E+00  0.00000000000E+00 -0.72296272564E+03  0.72296272566E+03  0.50400001928E-02 0.  1.
    10030    2    1    2    0    0  0.00000000000E+00  0.00000000000E+00 -0.49080704166E+03  0.95511840970E+03  0.81936537906E+03 0.  0.
        3    1    3    3  502    0  0.60939604341E+02 -0.38378176182E+03 -0.94144064396E+02  0.39983145342E+03  0.10100000352E+00 0. -1.
       -3    1    3    3    0  502 -0.60939604341E+02  0.38378176182E+03 -0.39666297726E+03  0.55528695628E+03  0.10100000352E+00 0.  1.
</event>
<event>
 5   0  0.6551489E-03  0.8010742E+03  0.7818609E-02  0.9558464E-01
       -1   -1    0    0    0  501  0.00000000000E+00  0.00000000000E+00  0.22054050447E+03  0.22054050453E+03  0.50400001928E-02 0. -1.
        1   -1    0    0  501    0  0.00000000000E+00  0.00000000000E+00 -0.72743993028E+03  0.72743993030E+03  0.50400001928E-02 0.  1.
    10030    2    1    2    0    0  0.00000000000E+00  0.00000000000E+00 -0.50689942581E+03  0.94798043483E+03  0.80107420190E+03 0.  0.
        4    1    3    3  502    0 -0.18415292783E+02 -0.27723360968E+03  0.87954248353E+02  0.29143637393E+03  0.12699999809E+01 0. -1.
       -4    1    3    3    0  502  0.18415292783E+02  0.27723360968E+03 -0.59485367416E+03  0.65654406091E+03  0.12699999809E+01 0.  1.
</event>
<event>
 5   0  0.1119792E-02  0.7924337E+03  0.7818609E-02  0.9571034E-01
        2   -1    0    0  501    0  0.00000000000E+00  0.00000000000E+00  0.48460082906E+03  0.48460082906E+03  0.25500000920E-02 0.  1.
       -2   -1    0    0    0  501  0.00000000000E+00  0.00000000000E+00 -0.32395276488E+03  0.32395276489E+03  0.25500000920E-02 0. -1.
    10030    2    1    2    0    0  0.00000000000E+00  0.00000000000E+00  0.16064806418E+03  0.80855359395E+03  0.79243366522E+03 0.  0.
        4    1    3    3  502    0 -0.36271420717E+03 -0.11363435586E+03 -0.33807549801E+02  0.38160047987E+03  0.12699999809E+01 0.  1.
       -4    1    3    3    0  502  0.36271420717E+03  0.11363435586E+03  0.19445561398E+03  0.42695311408E+03  0.12699999809E+01 0. -1.
</event>
<event>
 5   0  0.1121480E-02  0.8018803E+03  0.7818609E-02  0.9557299E-01
        2   -1    0    0  501    0  0.00000000000E+00  0.00000000000E+00  0.52478574245E+03  0.52478574245E+03  0.25500000920E-02 0.  1.
       -2   -1    0    0    0  501  0.00000000000E+00  0.00000000000E+00 -0.30632124528E+03  0.30632124529E+03  0.25500000920E-02 0. -1.
    10030    2    1    2    0    0  0.00000000000E+00  0.00000000000E+00  0.21846449717E+03  0.83110698774E+03  0.80188034553E+03 0.  0.
        2    1    3    3  502    0  0.13919107458E+02 -0.21100924620E+03  0.46228589824E+03  0.50835705489E+03  0.25500000920E-02 0.  1.
       -2    1    3    3    0  502 -0.13919107458E+02  0.21100924620E+03 -0.24382140107E+03  0.32274993285E+03  0.25500000920E-02 0. -1.
</event>
<event>
 5   0  0.1154714E-02  0.7985245E+03  0.7818609E-02  0.9562155E-01
        2   -1    0    0  501    0  0.00000000000E+00  0.00000000000E+00  0.23409012444E+04  0.23409012444E+04  0.25500000920E-02 0.  1.
       -2   -1    0    0    0  501  0.00000000000E+00  0.00000000000E+00 -0.68097857154E+02  0.68097857201E+02  0.25500000920E-02 0. -1.
    10030    2    1    2    0    0  0.00000000000E+00  0.00000000000E+00  0.22728033872E+04  0.24089991016E+04  0.79852453591E+03 0.  0.
        5    1    3    3  502    0  0.29598721111E+03 -0.26770497759E+03  0.11685961115E+04  0.12348738179E+04  0.46999998093E+01 0.  1.
       -5    1    3    3    0  502 -0.29598721111E+03  0.26770497759E+03  0.11042072757E+04  0.11741252837E+04  0.46999998093E+01 0. -1.
</event>
<event>
 5   0  0.1092868E-02  0.8018507E+03  0.7818609E-02  0.9557342E-01
        2   -1    0    0  501    0  0.00000000000E+00  0.00000000000E+00  0.36075681900E+03  0.36075681901E+03  0.25500000920E-02 0. -1.
       -2   -1    0    0    0  501  0.00000000000E+00  0.00000000000E+00 -0.44556648600E+03  0.44556648601E+03  0.25500000920E-02 0.  1.
    10030    2    1    2    0    0  0.00000000000E+00  0.00000000000E+00 -0.84809667002E+02  0.80632330502E+03  0.80185072962E+03 0.  0.
        3    1    3    3  502    0  0.26966823699E+03  0.49712924001E+02 -0.33652354692E+03  0.43409727100E+03  0.10100000352E+00 0.  1.
       -3    1    3    3    0  502 -0.26966823699E+03 -0.49712924001E+02  0.25171387992E+03  0.37222603402E+03  0.10100000352E+00 0. -1.
</event>
<event>
 5   0  0.1106332E-02  0.7978211E+03  0.7818609E-02  0.9563176E-01
        2   -1    0    0  501    0  0.00000000000E+00  0.00000000000E+00  0.93373333244E+03  0.93373333244E+03  0.25500000920E-02 0. -1.
       -2   -1    0    0    0  501  0.00000000000E+00  0.00000000000E+00 -0.17042299200E+03  0.17042299202E+03  0.25500000920E-02 0.  1.
    10030    2    1    2    0    0  0.00000000000E+00  0.00000000000E+00  0.76331034043E+03  0.11041563245E+04  0.79782110341E+03 0.  0.
        1    1    3    3  502    0 -0.34770596825E+03 -0.17156028773E+02  0.11209854947E+03  0.36573194350E+03  0.50400001928E-02 0.  1.
       -1    1    3    3    0  502  0.34770596825E+03  0.17156028773E+02  0.65121179096E+03  0.73842438096E+03  0.50400001928E-02 0. -1.
</event>
<event>
 5   0  0.6517392E-03  0.7876591E+03  0.7818609E-02  0.9578054E-01
        1   -1    0    0  501    0  0.00000000000E+00  0.00000000000E+00  0.52884095436E+03  0.52884095438E+03  0.50400001928E-02 0. -1.
       -1   -1    0    0    0  501  0.00000000000E+00  0.00000000000E+00 -0.29328610358E+03  0.29328610362E+03  0.50400001928E-02 0.  1.
    10030    2    1    2    0    0  0.00000000000E+00  0.00000000000E+00  0.23555485078E+03  0.82212705801E+03  0.78765907078E+03 0.  0.
        3    1    3    3  502    0  0.12787733657E+03 -0.33297637908E+03 -0.56489277769E+02  0.36113284389E+03  0.10100000352E+00 0. -1.
       -3    1    3    3    0  502 -0.12787733657E+03  0.33297637908E+03  0.29204412855E+03  0.46099421412E+03  0.10100000352E+00 0.  1.
</event>
<event>
 5   0  0.6517392E-03  0.8009060E+03  0.7818609E-02  0.9558707E-01
       -1   -1    0    0    0  501  0.00000000000E+00  0.00000000000E+00  0.34561251173E+03  0.34561251176E+03  0.50400001928E-02 0. -1.
        1   -1    0    0  501    0  0.00000000000E+00  0.00000000000E+00 -0.46399536554E+03  0.46399536557E+03  0.50400001928E-02 0.  1.
    10030    2    1    2    0    0  0.00000000000E+00  0.00000000000E+00 -0.11838285382E+03  0.80960787733E+03  0.80090599633E+03 0.  0.
        3    1    3    3  502    0  0.35226689441E+03 -0.34259336915E+02  0.13018578695E+03  0.37711273697E+03  0.10100000352E+00 0. -1.
       -3    1    3    3    0  502 -0.35226689441E+03  0.34259336915E+02 -0.24856864076E+03  0.43249514036E+03  0.10100000352E+00 0.  1.
</event>
<event>
 5   0  0.1154714E-02  0.8010534E+03  0.7818609E-02  0.9558494E-01
       -2   -1    0    0    0  501  0.00000000000E+00  0.00000000000E+00  0.18097105580E+03  0.18097105581E+03  0.25500000920E-02 0. -1.
        2   -1    0    0  501    0  0.00000000000E+00  0.00000000000E+00 -0.88644919104E+03  0.88644919105E+03  0.25500000920E-02 0.  1.
    10030    2    1    2    0    0  0.00000000000E+00  0.00000000000E+00 -0.70547813525E+03  0.10674202469E+04  0.80105342150E+03 0.  0.
        5    1    3    3  502    0  0.23651844030E+03 -0.32193267250E+03 -0.39084864185E+03  0.55889745844E+03  0.46999998093E+01 0.  1.
       -5    1    3    3    0  502 -0.23651844030E+03  0.32193267250E+03 -0.31462949340E+03  0.50852278841E+03  0.46999998093E+01 0. -1.
</event>
<event>
 5   0  0.6551489E-03  0.8011682E+03  0.7818609E-02  0.9558328E-01
       -1   -1    0    0    0  501  0.00000000000E+00  0.00000000000E+00  0.10546060386E+04  0.10546060387E+04  0.50400001928E-02 0. -1.
        1   -1    0    0  501    0  0.00000000000E+00  0.00000000000E+00 -0.15215883535E+03  0.15215883543E+03  0.50400001928E-02 0.  1.
    10030    2    1    2    0    0  0.00000000000E+00  0.00000000000E+00  0.90244720329E+03  0.12067648741E+04  0.80116821367E+03 0.  0.
        4    1    3    3  502    0  0.16556638221E+03  0.27356426239E+03  0.81465425335E+03  0.87516444053E+03  0.12699999809E+01 0. -1.
       -4    1    3    3    0  502 -0.16556638221E+03 -0.27356426239E+03  0.87792949946E+02  0.33160043356E+03  0.12699999809E+01 0.  1.
</event>
<event>
 5   0  0.1106332E-02  0.7706568E+03  0.7818609E-02  0.9603489E-01
        2   -1    0    0  501    0  0.00000000000E+00  0.00000000000E+00  0.11226318744E+04  0.11226318744E+04  0.25500000920E-02 0. -1.
       -2   -1    0    0    0  501  0.00000000000E+00  0.00000000000E+00 -0.13225884326E+03  0.13225884328E+03  0.25500000920E-02 0.  1.
    10030    2    1    2    0    0  0.00000000000E+00  0.00000000000E+00  0.99037303113E+03  0.12548907177E+04  0.77065684484E+03 0.  0.
        1    1    3    3  502    0 -0.13848815927E+03 -0.30866778346E+03  0.79553994019E+03  0.86448745929E+03  0.50400001928E-02 0. -1.
       -1    1    3    3    0  502  0.13848815927E+03  0.30866778346E+03  0.19483309093E+03  0.39040325838E+03  0.50400001928E-02 0.  1.
</event>
<event>
 5   0  0.1092868E-02  0.7943874E+03  0.7818609E-02  0.9568177E-01
        2   -1    0    0  501    0  0.00000000000E+00  0.00000000000E+00  0.86322030411E+03  0.86322030412E+03  0.25500000920E-02 0.  1.
       -2   -1    0    0    0  501  0.00000000000E+00  0.00000000000E+00 -0.18276079872E+03  0.18276079874E+03  0.25500000920E-02 0. -1.
    10030    2    1    2    0    0  0.00000000000E+00  0.00000000000E+00  0.68045950539E+03  0.10459811029E+04  0.79438739230E+03 0.  0.
        3    1    3    3  502    0  0.18430964392E+03 -0.16515921994E+03  0.74929197552E+03  0.78910461128E+03  0.10100000352E+00 0.  1.
       -3    1    3    3    0  502 -0.18430964392E+03  0.16515921994E+03 -0.68832470124E+02  0.25687649157E+03  0.10100000352E+00 0. -1.
</event>
<event>
 5   0  0.4385875E-03  0.7986034E+03  0.7818609E-02  0.9562041E-01
       -3   -1    0    0    0  501  0.00000000000E+00  0.00000000000E+00  0.28648123995E+03  0.28648125775E+03  0.10100000352E+00 0. -1.
        3   -1    0    0  501    0  0.00000000000E+00  0.00000000000E+00 -0.55655239997E+03  0.55655240913E+03  0.10100000352E+00 0.  1.
    10030    2    1    2    0    0  0.00000000000E+00  0.00000000000E+00 -0.27007116002E+03  0.84303366689E+03  0.79860336340E+03 0.  0.
        3    1    3    3  502    0 -0.17436345233E+03  0.24762692793E+03  0.13967325275E+03  0.33351212373E+03  0.10100000352E+00 0. -1.
       -3    1    3    3    0  502  0.17436345233E+03 -0.24762692793E+03 -0.40974441276E+03  0.50952154315E+03  0.10100000352E+00 0.  1.
</event>
<event>
 5   0  0.6557679E-03  0.8029810E+03  0.7818609E-02  0.9555712E-01
        1   -1    0    0  501    0  0.00000000000E+00  0.00000000000E+00  0.58987105109E+03  0.58987105111E+03  0.50400001928E-02 0.  1.
       -1   -1    0    0    0  501  0.00000000000E+00  0.00000000000E+00 -0.27327097872E+03  0.27327097877E+03  0.50400001928E-02 0. -1.
    10030    2    1    2    0    0  0.00000000000E+00  0.00000000000E+00  0.31660007236E+03  0.86314202988E+03  0.80298104456E+03 0.  0.
        1    1    3    3  502    0 -0.19341293500E+03  0.19400672005E+03  0.47379921385E+03  0.54729595826E+03  0.50400001928E-02 0.  1.
       -1    1    3    3    0  502  0.19341293500E+03 -0.19400672005E+03 -0.15719914149E+03  0.31584607162E+03  0.50400001928E-02 0. -1.
</event>
<event>
 5   0  0.1092868E-02  0.8084104E+03  0.7818609E-02  0.9547923E-01
        2   -1    0    0  501    0  0.00000000000E+00  0.00000000000E+00  0.12454747252E+04  0.12454747252E+04  0.25500000920E-02 0.  1.
       -2   -1    0    0    0  501  0.00000000000E+00  0.00000000000E+00 -0.13118038567E+03  0.13118038569E+03  0.25500000920E-02 0. -1.
    10030    2    1    2    0    0  0.00000000000E+00  0.00000000000E+00  0.11142943395E+04  0.13766551108E+04  0.80841042745E+03 0.  0.
        3    1    3    3  502    0 -0.26113451825E+03  0.88421681646E+02  0.10605085776E+04  0.10957591358E+04  0.10100000352E+00 0.  1.
       -3    1    3    3    0  502  0.26113451825E+03 -0.88421681646E+02  0.53785761923E+02  0.28089597504E+03  0.10100000352E+00 0. -1.
</event>
<event>
 5   0  0.1106332E-02  0.7968435E+03  0.7818609E-02  0.9564597E-01
        2   -1    0    0  501    0  0.00000000000E+00  0.00000000000E+00  0.71228512488E+03  0.71228512489E+03  0.25500000920E-02 0.  1.
       -2   -1    0    0    0  501  0.00000000000E+00  0.00000000000E+00 -0.22286004810E+03  0.22286004811E+03  0.25500000920E-02 0. -1.
    10030    2    1    2    0    0  0.00000000000E+00  0.00000000000E+00  0.48942507679E+03  0.93514517300E+03  0.79684351588E+03 0.  0.
        1    1    3    3  502    0  0.32695039865E+03 -0.22442785079E+03  0.28979127568E+03  0.49116535594E+03  0.50400001928E-02 0. -1.
       -1    1    3    3    0  502 -0.32695039865E+03  0.22442785079E+03  0.19963380110E+03  0.44397981706E+03  0.50400001928E-02 0.  1.
</event>
<event>
 5   0  0.6600401E-03  0.7969458E+03  0.7818609E-02  0.9564449E-01
       -1   -1    0    0    0  501  0.00000000000E+00  0.00000000000E+00  0.85520471132E+02  0.85520471281E+02  0.50400001928E-02 0.  1.
        1   -1    0    0  501    0  0.00000000000E+00  0.00000000000E+00 -0.18566390474E+04  0.18566390474E+04  0.50400001928E-02 0. -1.
    10030    2    1    2    0    0  0.00000000000E+00  0.00000000000E+00 -0.17711185763E+04  0.19421595187E+04  0.79694578538E+03 0.  0.
        2    1    3    3  502    0 -0.37447138453E+03 -0.17177146171E+02 -0.55627717554E+03  0.67079666682E+03  0.25500000920E-02 0.  1.
       -2    1    3    3    0  502  0.37447138453E+03  0.17177146171E+02 -0.12148414007E+04  0.12713628519E+04  0.25500000920E-02 0. -1.
</event>
<event>
 5   0  0.1119792E-02  0.8118810E+03  0.7818609E-02  0.9542977E-01
       -2   -1    0    0    0  501  0.00000000000E+00  0.00000000000E+00  0.28842158761E+03  0.28842158762E+03  0.25500000920E-02 0. -1.
        2   -1    0    0  501    0  0.00000000000E+00  0.00000000000E+00 -0.57134306662E+03  0.57134306662E+03  0.25500000920E-02 0.  1.
    10030    2    1    2    0    0  0.00000000000E+00  0.00000000000E+00 -0.28292147900E+03  0.85976465425E+03  0.81188096259E+03 0.  0.
        4    1    3    3  502    0  0.16423037016E+03  0.18110266428E+03  0.20171416966E+03  0.31695426899E+03  0.12699999809E+01 0. -1.
       -4    1    3    3    0  502 -0.16423037016E+03 -0.18110266428E+03 -0.48463564866E+03  0.54281038526E+03  0.12699999809E+01 0.  1.
</event>
<event>
 5   0  0.1121480E-02  0.8022638E+03  0.7818609E-02  0.9556746E-01
       -2   -1    0    0    0  501  0.00000000000E+00  0.00000000000E+00  0.48346850790E+03  0.48346850791E+03  0.25500000920E-02 0.  1.
        2   -1    0    0  501    0  0.00000000000E+00  0.00000000000E+00 -0.33281751925E+03  0.33281751926E+03  0.25500000920E-02 0. -1.
    10030    2    1    2    0    0  0.00000000000E+00  0.00000000000E+00  0.15065098866E+03  0.81628602717E+03  0.80226377069E+03 0.  0.
        2    1    3    3  502    0 -0.14840975527E+03  0.30623954428E+03 -0.14075077638E+03  0.36826470779E+03  0.25500000920E-02 0. -1.
       -2    1    3    3    0  502  0.14840975527E+03 -0.30623954428E+03  0.29140176504E+03  0.44802131938E+03  0.25500000920E-02 0.  1.
</event>
<event>
 5   0  0.6517392E-03  0.7599660E+03  0.7818609E-02  0.9619844E-01
        1   -1    0    0  501    0  0.00000000000E+00  0.00000000000E+00  0.20706108707E+04  0.20706108707E+04  0.50400001928E-02 0. -1.
       -1   -1    0    0    0  501  0.00000000000E+00  0.00000000000E+00 -0.69731627788E+02  0.69731627970E+02  0.50400001928E-02 0.  1.
    10030    2    1    2    0    0  0.00000000000E+00  0.00000000000E+00  0.20008792429E+04  0.21403424986E+04  0.75996596431E+03 0.  0.
        3    1    3    3  502    0 -0.81269117430E+02 -0.36658522145E+03  0.11646041224E+04  0.12236389035E+04  0.10100000352E+00 0.  1.
       -3    1    3    3    0  502  0.81269117430E+02  0.36658522145E+03  0.83627512052E+03  0.91670359519E+03  0.10100000352E+00 0. -1.
</event>
<event>
 5   0  0.6551489E-03  0.7989947E+03  0.7818609E-02  0.9561473E-01
       -1   -1    0    0    0  501  0.00000000000E+00  0.00000000000E+00  0.18738598181E+03  0.18738598188E+03  0.50400001928E-02 0. -1.
        1   -1    0    0  501    0  0.00000000000E+00  0.00000000000E+00 -0.85170787713E+03  0.85170787715E+03  0.50400001928E-02 0.  1.
    10030    2    1    2    0    0  0.00000000000E+00  0.00000000000E+00 -0.66432189532E+03  0.10390938590E+04  0.79899466034E+03 0.  0.
        4    1    3    3  502    0 -0.18190818044E+03 -0.13877376603E+03 -0.75805837397E+03  0.79183511888E+03  0.12699999809E+01 0.  1.
       -4    1    3    3    0  502  0.18190818044E+03  0.13877376603E+03  0.93736478648E+02  0.24725874014E+03  0.12699999809E+01 0. -1.
</event>
<event>
 5   0  0.6596225E-03  0.8012625E+03  0.7818609E-02  0.9558191E-01
       -1   -1    0    0    0  501  0.00000000000E+00  0.00000000000E+00  0.18261993984E+04  0.18261993984E+04  0.50400001928E-02 0. -1.
        1   -1    0    0  501    0  0.00000000000E+00  0.00000000000E+00 -0.87890400014E+02  0.87890400159E+02  0.50400001928E-02 0.  1.
    10030    2    1    2    0    0  0.00000000000E+00  0.00000000000E+00  0.17383089984E+04  0.19140897986E+04  0.80126249326E+03 0.  0.
        5    1    3    3  502    0  0.17846297394E+03  0.20817243260E+03  0.15668376256E+04  0.15906561632E+04  0.46999998093E+01 0. -1.
       -5    1    3    3    0  502 -0.17846297394E+03 -0.20817243260E+03  0.17147137282E+03  0.32343363533E+03  0.46999998093E+01 0.  1.
</event>
<event>
 5   0  0.6551489E-03  0.7975823E+03  0.7818609E-02  0.9563523E-01
       -1   -1    0    0    0  501  0.00000000000E+00  0.00000000000E+00  0.14962190861E+03  0.14962190869E+03  0.50400001928E-02 0.  1.
        1   -1    0    0  501    0  0.00000000000E+00  0.00000000000E+00 -0.10629083545E+04  0.10629083545E+04  0.50400001928E-02 0. -1.
    10030    2    1    2    0    0  0.00000000000E+00  0.00000000000E+00 -0.91328644588E+03  0.12125302632E+04  0.79758228849E+03 0.  0.
        4    1    3    3  502    0  0.31021804808E+03 -0.21854574119E+03 -0.64305481900E+03  0.74667167583E+03  0.12699999809E+01 0.  1.
       -4    1    3    3    0  502 -0.31021804808E+03  0.21854574119E+03 -0.27023162688E+03  0.46585858736E+03  0.12699999809E+01 0. -1.
</event>
<event>
 5   0  0.6557679E-03  0.8325906E+03  0.7818609E-02  0.9514006E-01
       -1   -1    0    0    0  501  0.00000000000E+00  0.00000000000E+00  0.32791232312E+03  0.32791232315E+03  0.50400001928E-02 0. -1.
        1   -1    0    0  501    0  0.00000000000E+00  0.00000000000E+00 -0.52850038302E+03  0.52850038304E+03  0.50400001928E-02 0.  1.
    10030    2    1    2    0    0  0.00000000000E+00  0.00000000000E+00 -0.20058805990E+03  0.85641270620E+03  0.83259062784E+03 0.  0.
        1    1    3    3  502    0 -0.35211200945E+02 -0.18172387028E+03 -0.48384135356E+03  0.51804039335E+03  0.50400001928E-02 0.  1.
       -1    1    3    3    0  502  0.35211200945E+02  0.18172387028E+03  0.28325329366E+03  0.33837231284E+03  0.50400001928E-02 0. -1.
</event>
<event>
 5   0  0.1154714E-02  0.7948143E+03  0.7818609E-02  0.9567554E-01
        2   -1    0    0  501    0  0.00000000000E+00  0.00000000000E+00  0.71450167621E+03  0.71450167621E+03  0.25500000920E-02 0. -1.
       -2   -1    0    0    0  501  0.00000000000E+00  0.00000000000E+00 -0.22103860249E+03  0.22103860250E+03  0.25500000920E-02 0.  1.
    10030    2    1    2    0    0  0.00000000000E+00  0.00000000000E+00  0.49346307372E+03  0.93554027872E+03  0.79481432296E+03 0.  0.
        5    1    3    3  502    0  0.21624221238E+03 -0.27929763941E+03  0.46101537333E+03  0.58079697850E+03  0.46999998093E+01 0. -1.
       -5    1    3    3    0  502 -0.21624221238E+03  0.27929763941E+03  0.32447700396E+02  0.35474330022E+03  0.46999998093E+01 0.  1.
</event>
<event>
 5   0  0.6551489E-03  0.8111422E+03  0.7818609E-02  0.9544028E-01
        1   -1    0    0  501    0  0.00000000000E+00  0.00000000000E+00  0.71953784817E+03  0.71953784818E+03  0.50400001928E-02 0. -1.
       -1   -1    0    0    0  501  0.00000000000E+00  0.00000000000E+00 -0.22860219132E+03  0.22860219137E+03  0.50400001928E-02 0.  1.
    10030    2    1    2    0    0  0.00000000000E+00  0.00000000000E+00  0.49093565685E+03  0.94814003956E+03  0.81114222887E+03 0.  0.
        4    1    3    3  502    0  0.18930368981E+03  0.96854667759E+02  0.64915073563E+03  0.68309223690E+03  0.12699999809E+01 0. -1.
       -4    1    3    3    0  502 -0.18930368981E+03 -0.96854667759E+02 -0.15821507878E+03  0.26504780266E+03  0.12699999809E+01 0.  1.
</event>
<event>
 5   0  0.4385875E-03  0.8030302E+03  0.7818609E-02  0.9555641E-01
        4   -1    0    0  501    0  0.00000000000E+00  0.00000000000E+00  0.34838973316E+03  0.34839204794E+03  0.12699999809E+01 0. -1.
       -4   -1    0    0    0  501  0.00000000000E+00  0.00000000000E+00 -0.46273672648E+03  0.46273846926E+03  0.12699999809E+01 0.  1.
    10030    2    1    2    0    0  0.00000000000E+00  0.00000000000E+00 -0.11434699332E+03  0.81113051720E+03  0.80303018689E+03 0.  0.
        4    1    3    3  502    0  0.15484815254E+02  0.38513380333E+03  0.56410490214E+02  0.38955305451E+03  0.12699999809E+01 0. -1.
       -4    1    3    3    0  502 -0.15484815254E+02 -0.38513380333E+03 -0.17075748353E+03  0.42157746269E+03  0.12699999809E+01 0.  1.
</event>
<event>
 5   0  0.1092868E-02  0.7902280E+03  0.7818609E-02  0.9574270E-01
        2   -1    0    0  501    0  0.00000000000E+00  0.00000000000E+00  0.11394750216E+04  0.11394750216E+04  0.25500000920E-02 0. -1.
       -2   -1    0    0    0  501  0.00000000000E+00  0.00000000000E+00 -0.13700613631E+03  0.13700613634E+03  0.25500000920E-02 0.  1.
    10030    2    1    2    0    0  0.00000000000E+00  0.00000000000E+00  0.10024688853E+04  0.12764811580E+04  0.79022799281E+03 0.  0.
        3    1    3    3  502    0 -0.31945156565E+03  0.37596471690E+02  0.87189000124E+03  0.92933039440E+03  0.10100000352E+00 0. -1.
       -3    1    3    3    0  502  0.31945156565E+03 -0.37596471690E+02  0.13057888408E+03  0.34715076358E+03  0.10100000352E+00 0.  1.
</event>
<event>
 5   0  0.1092868E-02  0.8077980E+03  0.7818609E-02  0.9548798E-01
        2   -1    0    0  501    0  0.00000000000E+00  0.00000000000E+00  0.71496407685E+03  0.71496407686E+03  0.25500000920E-02 0.  1.
       -2   -1    0    0    0  501  0.00000000000E+00  0.00000000000E+00 -0.22817147165E+03  0.22817147166E+03  0.25500000920E-02 0. -1.
    10030    2    1    2    0    0  0.00000000000E+00  0.00000000000E+00  0.48679260521E+03  0.94313554851E+03  0.80779800841E+03 0.  0.
        3    1    3    3  502    0  0.78407783086E+02 -0.83870222407E+02  0.69551039898E+03  0.70492320145E+03  0.10100000352E+00 0.  1.
       -3    1    3    3    0  502 -0.78407783086E+02  0.83870222407E+02 -0.20871779377E+03  0.23821234706E+03  0.10100000352E+00 0. -1.
</event>
<event>
 5   0  0.6596225E-03  0.8129393E+03  0.7818609E-02  0.9541475E-01
       -1   -1    0    0    0  501  0.00000000000E+00  0.00000000000E+00  0.15180202904E+03  0.15180202913E+03  0.50400001928E-02 0.  1.
        1   -1    0    0  501    0  0.00000000000E+00  0.00000000000E+00 -0.10883753289E+04  0.10883753289E+04  0.50400001928E-02 0. -1.
    10030    2    1    2    0    0  0.00000000000E+00  0.00000000000E+00 -0.93657329985E+03  0.12401773580E+04  0.81293931716E+03 0.  0.
        5    1    3    3  502    0  0.80338679511E+02  0.14596061092E+03 -0.10338444719E+04  0.10471940057E+04  0.46999998093E+01 0. -1.
       -5    1    3    3    0  502 -0.80338679511E+02 -0.14596061092E+03  0.97271172094E+02  0.19298335235E+03  0.46999998093E+01 0.  1.
</event>
<event>
 5   0  0.1154714E-02  0.8070682E+03  0.7818609E-02  0.9549842E-01
        2   -1    0    0  501    0  0.00000000000E+00  0.00000000000E+00  0.94375087681E+03  0.94375087681E+03  0.25500000920E-02 0. -1.
       -2   -1    0    0    0  501  0.00000000000E+00  0.00000000000E+00 -0.17254527121E+03  0.17254527123E+03  0.25500000920E-02 0.  1.
    10030    2    1    2    0    0  0.00000000000E+00  0.00000000000E+00  0.77120560560E+03  0.11162961480E+04  0.80706815327E+03 0.  0.
        5    1    3    3  502    0  0.35553381156E+01 -0.12484048475E+03 -0.14510128938E+03  0.19150525121E+03  0.46999998093E+01 0.  1.
       -5    1    3    3    0  502 -0.35553381156E+01  0.12484048475E+03  0.91630689499E+03  0.92479089683E+03  0.46999998093E+01 0. -1.
</event>
<event>
 5   0  0.1092868E-02  0.7987123E+03  0.7818609E-02  0.9561883E-01
       -2   -1    0    0    0  501  0.00000000000E+00  0.00000000000E+00  0.10391028475E+03  0.10391028478E+03  0.25500000920E-02 0.  1.
        2   -1    0    0  501    0  0.00000000000E+00  0.00000000000E+00 -0.15348367677E+04  0.15348367677E+04  0.25500000920E-02 0. -1.
    10030    2    1    2    0    0  0.00000000000E+00  0.00000000000E+00 -0.14309264829E+04  0.16387470525E+04  0.79871227760E+03 0.  0.
        3    1    3    3  502    0  0.33424288114E+03  0.56505072279E+02 -0.11486381441E+04  0.11976145970E+04  0.10100000352E+00 0. -1.
       -3    1    3    3    0  502 -0.33424288114E+03 -0.56505072279E+02 -0.28228833886E+03  0.44113245544E+03  0.10100000352E+00 0.  1.
</event>
<event>
 5   0  0.6557679E-03  0.7999154E+03  0.7818609E-02  0.9560140E-01
       -1   -1    0    0    0  501  0.00000000000E+00  0.00000000000E+00  0.36794432145E+03  0.36794432149E+03  0.50400001928E-02 0. -1.
        1   -1    0    0  501    0  0.00000000000E+00  0.00000000000E+00 -0.43475644377E+03  0.43475644379E+03  0.50400001928E-02 0.  1.
    10030    2    1    2    0    0  0.00000000000E+00  0.00000000000E+00 -0.66812122311E+02  0.80270076528E+03  0.79991540734E+03 0.  0.
        1    1    3    3  502    0  0.65325545508E+01 -0.23056478336E+03  0.29447833877E+03  0.37405920070E+03  0.50400001928E-02 0. -1.
       -1    1    3    3    0  502 -0.65325545508E+01  0.23056478336E+03 -0.36129046108E+03  0.42864156459E+03  0.50400001928E-02 0.  1.
</event>
<event>
 5   0  0.6517392E-03  0.7971805E+03  0.7818609E-02  0.9564107E-01
        1   -1    0    0  501    0  0.00000000000E+00  0.00000000000E+00  0.66067649642E+03  0.66067649644E+03  0.50400001928E-02 0.  1.
       -1   -1    0    0    0  501  0.00000000000E+00  0.00000000000E+00 -0.24047199688E+03  0.24047199693E+03  0.50400001928E-02 0. -1.
    10030    2    1    2    0    0  0.00000000000E+00  0.00000000000E+00  0.42020449954E+03  0.90114849337E+03  0.79718052264E+03 0.  0.
        3    1    3    3  502    0  0.38037833388E+03 -0.10198287331E+03  0.14054696198E+03  0.41814069649E+03  0.10100000352E+00 0. -1.
       -3    1    3    3    0  502 -0.38037833388E+03  0.10198287331E+03  0.27965753756E+03  0.48300779688E+03  0.10100000352E+00 0.  1.
</event>
<event>
 5   0  0.6551489E-03  0.8016687E+03  0.7818609E-02  0.9557605E-01
       -1   -1    0    0    0  501  0.00000000000E+00  0.00000000000E+00  0.13750699919E+03  0.13750699929E+03  0.50400001928E-02 0. -1.
        1   -1    0    0  501    0  0.00000000000E+00  0.00000000000E+00 -0.11684364327E+04  0.11684364328E+04  0.50400001928E-02 0.  1.
    10030    2    1    2    0    0  0.00000000000E+00  0.00000000000E+00 -0.10309294335E+04  0.13059434320E+04  0.80166872880E+03 0.  0.
        4    1    3    3  502    0  0.31110672830E+03  0.24457204143E+03 -0.41161866925E+03  0.57099423957E+03  0.12699999809E+01 0. -1.
       -4    1    3    3    0  502 -0.31110672830E+03 -0.24457204143E+03 -0.61931076429E+03  0.73494919247E+03  0.12699999809E+01 0.  1.
</event>
<event>
 5   0  0.4385875E-03  0.8007021E+03  0.7818609E-02  0.9559001E-01
        3   -1    0    0  501    0  0.00000000000E+00  0.00000000000E+00  0.30509002923E+03  0.30509004595E+03  0.10100000352E+00 0.  1.
       -3   -1    0    0    0  501  0.00000000000E+00  0.00000000000E+00 -0.52535624800E+03  0.52535625771E+03  0.10100000352E+00 0. -1.
    10030    2    1    2    0    0  0.00000000000E+00  0.00000000000E+00 -0.22026621877E+03  0.83044630366E+03  0.80070210199E+03 0.  0.
        3    1    3    3  502    0 -0.20801890468E+03  0.20614732104E+03  0.17297661026E+03  0.34013159303E+03  0.10100000352E+00 0.  1.
       -3    1    3    3    0  502  0.20801890468E+03 -0.20614732104E+03 -0.39324282903E+03  0.49031471063E+03  0.10100000352E+00 0. -1.
</event>
<event>
 5   0  0.1106332E-02  0.8062895E+03  0.7818609E-02  0.9550958E-01
        2   -1    0    0  501    0  0.00000000000E+00  0.00000000000E+00  0.10036784597E+04  0.10036784597E+04  0.25500000920E-02 0. -1.
       -2   -1    0    0    0  501  0.00000000000E+00  0.00000000000E+00 -0.16193002716E+03  0.16193002718E+03  0.25500000920E-02 0.  1.
    10030    2    1    2    0    0  0.00000000000E+00  0.00000000000E+00  0.84174843250E+03  0.11656084869E+04  0.80628947718E+03 0.  0.
        1    1    3    3  502    0  0.26863982036E+03  0.29259176062E+02  0.85336676706E+03  0.89513032102E+03  0.50400001928E-02 0. -1.
       -1    1    3    3    0  502 -0.26863982036E+03 -0.29259176062E+02 -0.11618334559E+02  0.27047816583E+03  0.50400001928E-02 0.  1.
</event>
<event>
 5   0  0.4385875E-03  0.7904951E+03  0.7818609E-02  0.9573878E-01
        4   -1    0    0  501    0  0.00000000000E+00  0.00000000000E+00  0.21328166464E+03  0.21328544575E+03  0.12699999809E+01 0.  1.
       -4   -1    0    0    0  501  0.00000000000E+00  0.00000000000E+00 -0.73245073814E+03  0.73245183917E+03  0.12699999809E+01 0. -1.
    10030    2    1    2    0    0  0.00000000000E+00  0.00000000000E+00 -0.51916907350E+03  0.94573728492E+03  0.79049508867E+03 0.  0.
        2    1    3    3  502    0 -0.72901465048E+02  0.25218817513E+03  0.93920960094E+02  0.27880933635E+03  0.25500000920E-02 0.  1.
       -2    1    3    3    0  502  0.72901465048E+02 -0.25218817513E+03 -0.61309003360E+03  0.66692794857E+03  0.25500000920E-02 0. -1.
</event>
<event>
 5   0  0.1121480E-02  0.8062419E+03  0.7818609E-02  0.9551026E-01
        2   -1    0    0  501    0  0.00000000000E+00  0.00000000000E+00  0.37413848492E+03  0.37413848493E+03  0.25500000920E-02 0. -1.
       -2   -1    0    0    0  501  0.00000000000E+00  0.00000000000E+00 -0.43434851923E+03  0.43434851923E+03  0.25500000920E-02 0.  1.
    10030    2    1    2    0    0  0.00000000000E+00  0.00000000000E+00 -0.60210034308E+02  0.80848700416E+03  0.80624189154E+03 0.  0.
        2    1    3    3  502    0  0.28068691953E+03 -0.85546807955E+02 -0.30728582472E+03  0.42488584494E+03  0.25500000920E-02 0.  1.
       -2    1    3    3    0  502 -0.28068691953E+03  0.85546807955E+02  0.24707579041E+03  0.38360115923E+03  0.25500000920E-02 0. -1.
</event>
<event>
 5   0  0.1092868E-02  0.8033617E+03  0.7818609E-02  0.9555164E-01
       -2   -1    0    0    0  501  0.00000000000E+00  0.00000000000E+00  0.10784819328E+03  0.10784819331E+03  0.25500000920E-02 0. -1.
        2   -1    0    0  501    0  0.00000000000E+00  0.00000000000E+00 -0.14960612783E+04  0.14960612783E+04  0.25500000920E-02 0.  1.
    10030    2    1    2    0    0  0.00000000000E+00  0.00000000000E+00 -0.13882130851E+04  0.16039094716E+04  0.80336170168E+03 0.  0.
        3    1    3    3  502    0  0.34314153061E+03 -0.12547470394E+03 -0.10273331532E+04  0.10903684833E+04  0.10100000352E+00 0.  1.
       -3    1    3    3    0  502 -0.34314153061E+03  0.12547470394E+03 -0.36087993183E+03  0.51354098839E+03  0.10100000352E+00 0. -1.
</event>
<event>
 5   0  0.6600401E-03  0.7982045E+03  0.7818609E-02  0.9562620E-01
        1   -1    0    0  501    0  0.00000000000E+00  0.00000000000E+00  0.28026217141E+03  0.28026217145E+03  0.50400001928E-02 0.  1.
       -1   -1    0    0    0  501  0.00000000000E+00  0.00000000000E+00 -0.56833426156E+03  0.56833426159E+03  0.50400001928E-02 0. -1.
    10030    2    1    2    0    0  0.00000000000E+00  0.00000000000E+00 -0.28807209015E+03  0.84859643304E+03  0.79820447070E+03 0.  0.
        2    1    3    3  502    0  0.21944414611E+03 -0.13135840143E+03 -0.46976374409E+03  0.53487263732E+03  0.25500000920E-02 0. -1.
       -2    1    3    3    0  502 -0.21944414611E+03  0.13135840143E+03  0.18169165393E+03  0.31372379572E+03  0.25500000920E-02 0.  1.
</event>
<event>
 5   0  0.6557679E-03  0.8010992E+03  0.7818609E-02  0.9558427E-01
        1   -1    0    0  501    0  0.00000000000E+00  0.00000000000E+00  0.62925467272E+03  0.62925467274E+03  0.50400001928E-02 0.  1.
       -1   -1    0    0    0  501  0.00000000000E+00  0.00000000000E+00 -0.25496830704E+03  0.25496830709E+03  0.50400001928E-02 0. -1.
    10030    2    1    2    0    0  0.00000000000E+00  0.00000000000E+00  0.37428636569E+03  0.88422297983E+03  0.80109924137E+03 0.  0.
        1    1    3    3  502    0  0.19095034999E+03  0.30481687753E+03  0.38168304103E+03  0.52445906305E+03  0.50400001928E-02 0.  1.
       -1    1    3    3    0  502 -0.19095034999E+03 -0.30481687753E+03 -0.73966753414E+01  0.35976391678E+03  0.50400001928E-02 0. -1.
</event>
<event>
 5   0  0.1092868E-02  0.8015037E+03  0.7818609E-02  0.9557843E-01
       -2   -1    0    0    0  501  0.00000000000E+00  0.00000000000E+00  0.16094834452E+03  0.16094834454E+03  0.25500000920E-02 0.  1.
        2   -1    0    0  501    0  0.00000000000E+00  0.00000000000E+00 -0.99784835301E+03  0.99784835301E+03  0.25500000920E-02 0. -1.
    10030    2    1    2    0    0  0.00000000000E+00  0.00000000000E+00 -0.83690000848E+03  0.11587966976E+04  0.80150368812E+03 0.  0.
        3    1    3    3  502    0  0.21590460239E+03 -0.32119247291E+03 -0.56885702045E+03  0.68802450676E+03  0.10100000352E+00 0.  1.
       -3    1    3    3    0  502 -0.21590460239E+03  0.32119247291E+03 -0.26804298803E+03  0.47077219079E+03  0.10100000352E+00 0. -1.
</event>
<event>
 5   0  0.1154714E-02  0.7887710E+03  0.7818609E-02  0.9576414E-01
        2   -1    0    0  501    0  0.00000000000E+00  0.00000000000E+00  0.80676326321E+03  0.80676326322E+03  0.25500000920E-02 0.  1.
       -2   -1    0    0    0  501  0.00000000000E+00  0.00000000000E+00 -0.19279497734E+03  0.19279497735E+03  0.25500000920E-02 0. -1.
    10030    2    1    2    0    0  0.00000000000E+00  0.00000000000E+00  0.61396828588E+03  0.99955824057E+03  0.78877095549E+03 0.  0.
        5    1    3    3  502    0  0.21807937841E+03 -0.31958415083E+03  0.21026520762E+03  0.44037051704E+03  0.46999998093E+01 0. -1.
       -5    1    3    3    0  502 -0.21807937841E+03  0.31958415083E+03  0.40370307825E+03  0.55918772352E+03  0.46999998093E+01 0.  1.
</event>
<event>
 5   0  0.6517392E-03  0.8033407E+03  0.7818609E-02  0.9555194E-01
       -1   -1    0    0    0  501  0.00000000000E+00  0.00000000000E+00  0.23471058618E+03  0.23471058624E+03  0.50400001928E-02 0.  1.
        1   -1    0    0  501    0  0.00000000000E+00  0.00000000000E+00 -0.68739586760E+03  0.68739586762E+03  0.50400001928E-02 0. -1.
    10030    2    1    2    0    0  0.00000000000E+00  0.00000000000E+00 -0.45268528141E+03  0.92210645386E+03  0.80334074230E+03 0.  0.
        3    1    3    3  502    0  0.37047355899E+02  0.98277826601E+02 -0.67135530758E+03  0.67952115272E+03  0.10100000352E+00 0. -1.
       -3    1    3    3    0  502 -0.37047355899E+02 -0.98277826601E+02  0.21867002617E+03  0.24258530113E+03  0.10100000352E+00 0.  1.
</event>
<event>
 5   0  0.6600401E-03  0.7067946E+03  0.7818609E-02  0.9705683E-01
        1   -1    0    0  501    0  0.00000000000E+00  0.00000000000E+00  0.36609142490E+03  0.36609142493E+03  0.50400001928E-02 0.  1.
       -1   -1    0    0    0  501  0.00000000000E+00  0.00000000000E+00 -0.34114330789E+03  0.34114330793E+03  0.50400001928E-02 0. -1.
    10030    2    1    2    0    0  0.00000000000E+00  0.00000000000E+00  0.24948117008E+02  0.70723473286E+03  0.70679456621E+03 0.  0.
        2    1    3    3  502    0  0.13039649640E+03 -0.16259681515E+03 -0.27309580583E+03  0.34354372319E+03  0.25500000920E-02 0. -1.
       -2    1    3    3    0  502 -0.13039649640E+03  0.16259681515E+03  0.29804392284E+03  0.36369100968E+03  0.25500000920E-02 0.  1.
</event>
<event>
 5   0  0.6600401E-03  0.8072094E+03  0.7818609E-02  0.9549640E-01
       -1   -1    0    0    0  501  0.00000000000E+00  0.00000000000E+00  0.11020886716E+03  0.11020886728E+03  0.50400001928E-02 0.  1.
        1   -1    0    0  501    0  0.00000000000E+00  0.00000000000E+00 -0.14780728876E+04  0.14780728876E+04  0.50400001928E-02 0. -1.
    10030    2    1    2    0    0  0.00000000000E+00  0.00000000000E+00 -0.13678640204E+04  0.15882817549E+04  0.80720936225E+03 0.  0.
        2    1    3    3  502    0 -0.33552059550E+03 -0.15859410312E+03 -0.37176431337E+03  0.52529502592E+03  0.25500000920E-02 0.  1.
       -2    1    3    3    0  502  0.33552059550E+03  0.15859410312E+03 -0.99609970704E+03  0.10629867289E+04  0.25500000920E-02 0. -1.
</event>
<event>
 5   0  0.1119792E-02  0.8127174E+03  0.7818609E-02  0.9541789E-01
       -2   -1    0    0    0  501  0.00000000000E+00  0.00000000000E+00  0.12139586483E+03  0.12139586486E+03  0.25500000920E-02 0. -1.
        2   -1    0    0  501    0  0.00000000000E+00  0.00000000000E+00 -0.13602390409E+04  0.13602390409E+04  0.25500000920E-02 0.  1.
    10030    2    1    2    0    0  0.00000000000E+00  0.00000000000E+00 -0.12388431761E+04  0.14816349058E+04  0.81271740420E+03 0.  0.
        4    1    3    3  502    0  0.10752883266E+03 -0.57807998318E+02  0.87168897535E+02  0.15001414640E+03  0.12699999809E+01 0. -1.
       -4    1    3    3    0  502 -0.10752883266E+03  0.57807998318E+02 -0.13260120736E+04  0.13316207594E+04  0.12699999809E+01 0.  1.
</event>
<event>
 5   0  0.6596225E-03  0.8004035E+03  0.7818609E-02  0.9559433E-01
        1   -1    0    0  501    0  0.00000000000E+00  0.00000000000E+00  0.48207247590E+03  0.48207247592E+03  0.50400001928E-02 0. -1.
       -1   -1    0    0    0  501  0.00000000000E+00  0.00000000000E+00 -0.33223517964E+03  0.33223517968E+03  0.50400001928E-02 0.  1.
    10030    2    1    2    0    0  0.00000000000E+00  0.00000000000E+00  0.14983729626E+03  0.81430765560E+03  0.80040348739E+03 0.  0.
        5    1    3    3  502    0 -0.14564492587E+03  0.20875856821E+03  0.38906536023E+03  0.46495863124E+03  0.46999998093E+01 0. -1.
       -5    1    3    3    0  502  0.14564492587E+03 -0.20875856821E+03 -0.23922806397E+03  0.34934902436E+03  0.46999998093E+01 0.  1.
</event>
<event>
 5   0  0.1154714E-02  0.8008478E+03  0.7818609E-02  0.9558791E-01
       -2   -1    0    0    0  501  0.00000000000E+00  0.00000000000E+00  0.98100563556E+02  0.98100563589E+02  0.25500000920E-02 0. -1.
        2   -1    0    0  501    0  0.00000000000E+00  0.00000000000E+00 -0.16344382263E+04  0.16344382263E+04  0.25500000920E-02 0.  1.
    10030    2    1    2    0    0  0.00000000000E+00  0.00000000000E+00 -0.15363376628E+04  0.17325387899E+04  0.80084782857E+03 0.  0.
        5    1    3    3  502    0  0.62841763482E+02  0.39193370864E+03 -0.88174327075E+03  0.96698211189E+03  0.46999998093E+01 0.  1.
       -5    1    3    3    0  502 -0.62841763482E+02 -0.39193370864E+03 -0.65459439203E+03  0.76555667804E+03  0.46999998093E+01 0. -1.
</event>
<event>
 5   0  0.6600401E-03  0.8110754E+03  0.7818609E-02  0.9544123E-01
       -1   -1    0    0    0  501  0.00000000000E+00  0.00000000000E+00  0.11961898151E+03  0.11961898161E+03  0.50400001928E-02 0.  1.
        1   -1    0    0  501    0  0.00000000000E+00  0.00000000000E+00 -0.13748721704E+04  0.13748721704E+04  0.50400001928E-02 0. -1.
    10030    2    1    2    0    0  0.00000000000E+00  0.00000000000E+00 -0.12552531888E+04  0.14944911520E+04  0.81107535731E+03 0.  0.
        2    1    3    3  502    0  0.98519681380E+02 -0.15228332400E+03  0.40719558555E+02  0.18588819447E+03  0.25500000920E-02 0.  1.
       -2    1    3    3    0  502 -0.98519681380E+02  0.15228332400E+03 -0.12959727474E+04  0.13086029575E+04  0.25500000920E-02 0. -1.
</event>
<event>
 5   0  0.4385875E-03  0.7985768E+03  0.7818609E-02  0.9562079E-01
       -3   -1    0    0    0  501  0.00000000000E+00  0.00000000000E+00  0.46412257890E+03  0.46412258989E+03  0.10100000352E+00 0. -1.
        3   -1    0    0  501    0  0.00000000000E+00  0.00000000000E+00 -0.34351098540E+03  0.34351100025E+03  0.10100000352E+00 0.  1.
    10030    2    1    2    0    0  0.00000000000E+00  0.00000000000E+00  0.12061159350E+03  0.80763359015E+03  0.79857677116E+03 0.  0.
        5    1    3    3  502    0 -0.50197872695E+02  0.19286034791E+03 -0.28958637443E+03  0.35156407449E+03  0.46999998093E+01 0.  1.
       -5    1    3    3    0  502  0.50197872695E+02 -0.19286034791E+03  0.41019796793E+03  0.45606951566E+03  0.46999998093E+01 0. -1.
</event>
<event>
 5   0  0.1106332E-02  0.7895503E+03  0.7818609E-02  0.9575267E-01
        2   -1    0    0  501    0  0.00000000000E+00  0.00000000000E+00  0.78290341354E+03  0.78290341354E+03  0.25500000920E-02 0.  1.
       -2   -1    0    0    0  501  0.00000000000E+00  0.00000000000E+00 -0.19906342622E+03  0.19906342624E+03  0.25500000920E-02 0. -1.
    10030    2    1    2    0    0  0.00000000000E+00  0.00000000000E+00  0.58383998732E+03  0.98196683978E+03  0.78955034269E+03 0.  0.
        1    1    3    3  502    0 -0.19577071010E+03  0.11933023432E+03  0.69161469475E+03  0.72862662714E+03  0.50400001928E-02 0.  1.
       -1    1    3    3    0  502  0.19577071010E+03 -0.11933023432E+03 -0.10777470743E+03  0.25334021264E+03  0.50400001928E-02 0. -1.
</event>
<event>
 5   0  0.6517392E-03  0.7902190E+03  0.7818609E-02  0.9574284E-01
       -1   -1    0    0    0  501  0.00000000000E+00  0.00000000000E+00  0.14057715564E+03  0.14057715573E+03  0.50400001928E-02 0. -1.
        1   -1    0    0  501    0  0.00000000000E+00  0.00000000000E+00 -0.11105042756E+04  0.11105042756E+04  0.50400001928E-02 0.  1.
    10030    2    1    2    0    0  0.00000000000E+00  0.00000000000E+00 -0.96992711996E+03  0.12510814314E+04  0.79021903915E+03 0.  0.
        3    1    3    3  502    0  0.26878259098E+03 -0.13964245910E+03 -0.83291932594E+02  0.31413636184E+03  0.10100000352E+00 0. -1.
       -3    1    3    3    0  502 -0.26878259098E+03  0.13964245910E+03 -0.88663518737E+03  0.93694506951E+03  0.10100000352E+00 0.  1.
</event>
<event>
 5   0  0.4385875E-03  0.7997992E+03  0.7818609E-02  0.9560308E-01
       -4   -1    0    0    0  501  0.00000000000E+00  0.00000000000E+00  0.35449012001E+03  0.35449239496E+03  0.12699999809E+01 0.  1.
        4   -1    0    0  501    0  0.00000000000E+00  0.00000000000E+00 -0.45112129160E+03  0.45112307925E+03  0.12699999809E+01 0. -1.
    10030    2    1    2    0    0  0.00000000000E+00  0.00000000000E+00 -0.96631171591E+02  0.80561547421E+03  0.79979916789E+03 0.  0.
        3    1    3    3  502    0  0.12236877660E+03 -0.35376865289E+03 -0.19002732989E+03  0.41980563784E+03  0.10100000352E+00 0. -1.
       -3    1    3    3    0  502 -0.12236877660E+03  0.35376865289E+03  0.93396158303E+02  0.38580983637E+03  0.10100000352E+00 0.  1.
</event>
<event>
 5   0  0.1121480E-02  0.7868929E+03  0.7818609E-02  0.9579185E-01
       -2   -1    0    0    0  501  0.00000000000E+00  0.00000000000E+00  0.15958525714E+03  0.15958525716E+03  0.25500000920E-02 0.  1.
        2   -1    0    0  501    0  0.00000000000E+00  0.00000000000E+00 -0.97001516252E+03  0.97001516252E+03  0.25500000920E-02 0. -1.
    10030    2    1    2    0    0  0.00000000000E+00  0.00000000000E+00 -0.81042990538E+03  0.11296004197E+04  0.78689292575E+03 0.  0.
        2    1    3    3  502    0 -0.68792515291E+02  0.96389904818E+02 -0.94382516923E+03  0.95122519625E+03  0.25500000920E-02 0. -1.
       -2    1    3    3    0  502  0.68792515291E+02 -0.96389904818E+02  0.13339526384E+03  0.17837522343E+03  0.25500000920E-02 0.  1.
</event>
<event>
 5   0  0.1121480E-02  0.8024516E+03  0.7818609E-02  0.9556475E-01
       -2   -1    0    0    0  501  0.00000000000E+00  0.00000000000E+00  0.46618658357E+03  0.46618658358E+03  0.25500000920E-02 0.  1.
        2   -1    0    0  501    0  0.00000000000E+00  0.00000000000E+00 -0.34531694380E+03  0.34531694381E+03  0.25500000920E-02 0. -1.
    10030    2    1    2    0    0  0.00000000000E+00  0.00000000000E+00  0.12086963977E+03  0.81150352739E+03  0.80245155938E+03 0.  0.
        2    1    3    3  502    0  0.16152380033E+03 -0.58510911469E+02  0.42711100741E+03  0.46036646000E+03  0.25500000920E-02 0.  1.
       -2    1    3    3    0  502 -0.16152380033E+03  0.58510911469E+02 -0.30624136764E+03  0.35113706739E+03  0.25500000920E-02 0. -1.
</event>
<event>
 5   0  0.1119792E-02  0.7997923E+03  0.7818609E-02  0.9560318E-01
        2   -1    0    0  501    0  0.00000000000E+00  0.00000000000E+00  0.65429501118E+03  0.65429501119E+03  0.25500000920E-02 0. -1.
       -2   -1    0    0    0  501  0.00000000000E+00  0.00000000000E+00 -0.24441107221E+03  0.24441107222E+03  0.25500000920E-02 0.  1.
    10030    2    1    2    0    0  0.00000000000E+00  0.00000000000E+00  0.40988393898E+03  0.89870608341E+03  0.79979233613E+03 0.  0.
        4    1    3    3  502    0 -0.29746031066E+03 -0.17914308543E+03  0.42781632976E+03  0.55100209291E+03  0.12699999809E+01 0. -1.
       -4    1    3    3    0  502  0.29746031066E+03  0.17914308543E+03 -0.17932390786E+02  0.34770399051E+03  0.12699999809E+01 0.  1.
</event>
<event>
 5   0  0.1121480E-02  0.8025928E+03  0.7818609E-02  0.9556272E-01
       -2   -1    0    0    0  501  0.00000000000E+00  0.00000000000E+00  0.32215231549E+03  0.32215231550E+03  0.25500000920E-02 0.  1.
        2   -1    0    0  501    0  0.00000000000E+00  0.00000000000E+00 -0.49988409627E+03  0.49988409628E+03  0.25500000920E-02 0. -1.
    10030    2    1    2    0    0  0.00000000000E+00  0.00000000000E+00 -0.17773178078E+03  0.82203641178E+03  0.80259284596E+03 0.  0.
        2    1    3    3  502    0  0.18433698951E+03  0.52790153780E+02 -0.44992825966E+03  0.48908318810E+03  0.25500000920E-02 0. -1.
       -2    1    3    3    0  502 -0.18433698951E+03 -0.52790153780E+02  0.27219647888E+03  0.33295322368E+03  0.25500000920E-02 0.  1.
</event>
<event>
 5   0  0.1121480E-02  0.8158182E+03  0.7818609E-02  0.9537399E-01
        2   -1    0    0  501    0  0.00000000000E+00  0.00000000000E+00  0.60993566184E+03  0.60993566184E+03  0.25500000920E-02 0.  1.
       -2   -1    0    0    0  501  0.00000000000E+00  0.00000000000E+00 -0.27279896999E+03  0.27279897000E+03  0.25500000920E-02 0. -1.
    10030    2    1    2    0    0  0.00000000000E+00  0.00000000000E+00  0.33713669185E+03  0.88273463185E+03  0.81581816679E+03 0.  0.
        2    1    3    3  502    0 -0.28740508322E+03  0.28112605401E+03  0.24319096877E+03  0.46986741470E+03  0.25500000920E-02 0. -1.
       -2    1    3    3    0  502  0.28740508322E+03 -0.28112605401E+03  0.93945723079E+02  0.41286721714E+03  0.25500000920E-02 0.  1.
</event>
<event>
 5   0  0.1092868E-02  0.7930563E+03  0.7818609E-02  0.9570123E-01
        2   -1    0    0  501    0  0.00000000000E+00  0.00000000000E+00  0.21635447107E+04  0.21635447107E+04  0.25500000920E-02 0.  1.
       -2   -1    0    0    0  501  0.00000000000E+00  0.00000000000E+00 -0.72674523832E+02  0.72674523877E+02  0.25500000920E-02 0. -1.
    10030    2    1    2    0    0  0.00000000000E+00  0.00000000000E+00  0.20908701869E+04  0.22362192346E+04  0.79305632005E+03 0.  0.
        3    1    3    3  502    0  0.33236493235E+03 -0.93281570249E+02  0.15955872283E+04  0.16325031433E+04  0.10100000352E+00 0.  1.
       -3    1    3    3    0  502 -0.33236493235E+03  0.93281570249E+02  0.49528295855E+03  0.60371609125E+03  0.10100000352E+00 0. -1.
</event>
<event>
 5   0  0.6551489E-03  0.7996336E+03  0.7818609E-02  0.9560548E-01
        1   -1    0    0  501    0  0.00000000000E+00  0.00000000000E+00  0.10914236821E+04  0.10914236821E+04  0.50400001928E-02 0. -1.
       -1   -1    0    0    0  501  0.00000000000E+00  0.00000000000E+00 -0.14646325582E+03  0.14646325590E+03  0.50400001928E-02 0.  1.
    10030    2    1    2    0    0  0.00000000000E+00  0.00000000000E+00  0.94496042631E+03  0.12378869380E+04  0.79963358114E+03 0.  0.
        4    1    3    3  502    0  0.20024329937E+03  0.27201886094E+03  0.80363724163E+03  0.87173738516E+03  0.12699999809E+01 0. -1.
       -4    1    3    3    0  502 -0.20024329937E+03 -0.27201886094E+03  0.14132318468E+03  0.36614955289E+03  0.12699999809E+01 0.  1.
</event>
<event>
 5   0  0.6557679E-03  0.8009069E+03  0.7818609E-02  0.9558705E-01
       -1   -1    0    0    0  501  0.00000000000E+00  0.00000000000E+00  0.13139788370E+03  0.13139788379E+03  0.50400001928E-02 0.  1.
        1   -1    0    0  501    0  0.00000000000E+00  0.00000000000E+00 -0.12204379659E+04  0.12204379659E+04  0.50400001928E-02 0. -1.
    10030    2    1    2    0    0  0.00000000000E+00  0.00000000000E+00 -0.10890400822E+04  0.13518358497E+04  0.80090690089E+03 0.  0.
        1    1    3    3  502    0  0.37330582315E+03 -0.12222031716E+03 -0.41303936349E+03  0.56999698187E+03  0.50400001928E-02 0. -1.
       -1    1    3    3    0  502 -0.37330582315E+03  0.12222031716E+03 -0.67600071869E+03  0.78183886782E+03  0.50400001928E-02 0.  1.
</event>
<event>
 5   0  0.6517392E-03  0.8186604E+03  0.7818609E-02  0.9533393E-01
        1   -1    0    0  501    0  0.00000000000E+00  0.00000000000E+00  0.65281954537E+03  0.65281954539E+03  0.50400001928E-02 0. -1.
       -1   -1    0    0    0  501  0.00000000000E+00  0.00000000000E+00 -0.25665778489E+03  0.25665778494E+03  0.50400001928E-02 0.  1.
    10030    2    1    2    0    0  0.00000000000E+00  0.00000000000E+00  0.39616176048E+03  0.90947733033E+03  0.81866041428E+03 0.  0.
        3    1    3    3  502    0  0.12890354552E+03  0.38565919563E+03  0.25021278034E+03  0.47744694456E+03  0.10100000352E+00 0.  1.
       -3    1    3    3    0  502 -0.12890354552E+03 -0.38565919563E+03  0.14594898014E+03  0.43203038577E+03  0.10100000352E+00 0. -1.
</event>
<event>
 5   0  0.4385875E-03  0.7947734E+03  0.7818609E-02  0.9567613E-01
       -3   -1    0    0    0  501  0.00000000000E+00  0.00000000000E+00  0.10432972090E+03  0.10432976979E+03  0.10100000352E+00 0. -1.
        3   -1    0    0  501    0  0.00000000000E+00  0.00000000000E+00 -0.15136256340E+04  0.15136256374E+04  0.10100000352E+00 0.  1.
    10030    2    1    2    0    0  0.00000000000E+00  0.00000000000E+00 -0.14092959131E+04  0.16179554071E+04  0.79477338209E+03 0.  0.
        1    1    3    3  502    0 -0.19955687254E+03 -0.26838475131E+03 -0.26773120743E+03  0.42840788925E+03  0.50400001928E-02 0. -1.
       -1    1    3    3    0  502  0.19955687254E+03  0.26838475131E+03 -0.11415647057E+04  0.11895475179E+04  0.50400001928E-02 0.  1.
</event>
<event>
 5   0  0.6600401E-03  0.8005168E+03  0.7818609E-02  0.9559269E-01
        1   -1    0    0  501    0  0.00000000000E+00  0.00000000000E+00  0.12564349862E+04  0.12564349862E+04  0.50400001928E-02 0.  1.
       -1   -1    0    0    0  501  0.00000000000E+00  0.00000000000E+00 -0.12750902375E+03  0.12750902385E+03  0.50400001928E-02 0. -1.
    10030    2    1    2    0    0  0.00000000000E+00  0.00000000000E+00  0.11289259624E+04  0.13839440100E+04  0.80051682946E+03 0.  0.
        2    1    3    3  502    0  0.21598261320E+01  0.25191229835E+03  0.11021831421E+04  0.11306069828E+04  0.25500000920E-02 0.  1.
       -2    1    3    3    0  502 -0.21598261320E+01 -0.25191229835E+03  0.26742820347E+02  0.25333702721E+03  0.25500000920E-02 0. -1.
</event>
<event>
 5   0  0.6557679E-03  0.7777501E+03  0.7818609E-02  0.9592793E-01
        1   -1    0    0  501    0  0.00000000000E+00  0.00000000000E+00  0.85539883125E+03  0.85539883126E+03  0.50400001928E-02 0.  1.
       -1   -1    0    0    0  501  0.00000000000E+00  0.00000000000E+00 -0.17678746821E+03  0.17678746828E+03  0.50400001928E-02 0. -1.
    10030    2    1    2    0    0  0.00000000000E+00  0.00000000000E+00  0.67861136303E+03  0.10321862995E+04  0.77775007228E+03 0.  0.
        1    1    3    3  502    0  0.35308759975E+03  0.13646161249E+03  0.22111407655E+03  0.43838802408E+03  0.50400001928E-02 0. -1.
       -1    1    3    3    0  502 -0.35308759975E+03 -0.13646161249E+03  0.45749728648E+03  0.59379827547E+03  0.50400001928E-02 0.  1.
</event>
<event>
 5   0  0.1119792E-02  0.7991346E+03  0.7818609E-02  0.9561271E-01
        2   -1    0    0  501    0  0.00000000000E+00  0.00000000000E+00  0.70989432659E+03  0.70989432660E+03  0.25500000920E-02 0. -1.
       -2   -1    0    0    0  501  0.00000000000E+00  0.00000000000E+00 -0.22489831536E+03  0.22489831538E+03  0.25500000920E-02 0.  1.
    10030    2    1    2    0    0  0.00000000000E+00  0.00000000000E+00  0.48499601123E+03  0.93479264197E+03  0.79913462732E+03 0.  0.
        4    1    3    3  502    0  0.25000511505E+03 -0.21640660667E+03  0.50489401723E+03  0.60353455452E+03  0.12699999809E+01 0. -1.
       -4    1    3    3    0  502 -0.25000511505E+03  0.21640660667E+03 -0.19898005996E+02  0.33125808746E+03  0.12699999809E+01 0.  1.
</event>
<event>
 5   0  0.1119792E-02  0.7998522E+03  0.7818609E-02  0.9560231E-01
       -2   -1    0    0    0  501  0.00000000000E+00  0.00000000000E+00  0.10119265239E+03  0.10119265242E+03  0.25500000920E-02 0. -1.
        2   -1    0    0  501    0  0.00000000000E+00  0.00000000000E+00 -0.15805581241E+04  0.15805581241E+04  0.25500000920E-02 0.  1.
    10030    2    1    2    0    0  0.00000000000E+00  0.00000000000E+00 -0.14793654717E+04  0.16817507765E+04  0.79985215849E+03 0.  0.
        4    1    3    3  502    0  0.45033948061E+02  0.12537276759E+03 -0.15325323582E+04  0.15383118765E+04  0.12699999809E+01 0.  1.
       -4    1    3    3    0  502 -0.45033948061E+02 -0.12537276759E+03  0.53166886513E+02  0.14343890006E+03  0.12699999809E+01 0. -1.
</event>
<event>
 5   0  0.1121480E-02  0.8055251E+03  0.7818609E-02  0.9552054E-01
       -2   -1    0    0    0  501  0.00000000000E+00  0.00000000000E+00  0.74575799832E+03  0.74575799832E+03  0.25500000920E-02 0.  1.
        2   -1    0    0  501    0  0.00000000000E+00  0.00000000000E+00 -0.21752050603E+03  0.21752050605E+03  0.25500000920E-02 0. -1.
    10030    2    1    2    0    0  0.00000000000E+00  0.00000000000E+00  0.52823749229E+03  0.96327850437E+03  0.80552506400E+03 0.  0.
        2    1    3    3  502    0  0.39482838330E+03  0.48280299505E+02  0.18851353920E+03  0.44017927489E+03  0.25500000920E-02 0.  1.
       -2    1    3    3    0  502 -0.39482838330E+03 -0.48280299505E+02  0.33972395309E+03  0.52309922948E+03  0.25500000920E-02 0. -1.
</event>
<event>
 5   0  0.6596225E-03  0.8134280E+03  0.7818609E-02  0.9540781E-01
       -1   -1    0    0    0  501  0.00000000000E+00  0.00000000000E+00  0.25940380978E+03  0.25940380983E+03  0.50400001928E-02 0.  1.
        1   -1    0    0  501    0  0.00000000000E+00  0.00000000000E+00 -0.63767874838E+03  0.63767874840E+03  0.50400001928E-02 0. -1.
    10030    2    1    2    0    0  0.00000000000E+00  0.00000000000E+00 -0.37827493860E+03  0.89708255822E+03  0.81342804666E+03 0.  0.
        5    1    3    3  502    0 -0.15157165280E+03 -0.26345950214E+03 -0.48712799505E+03  0.57419565372E+03  0.46999998093E+01 0. -1.
       -5    1    3    3    0  502  0.15157165280E+03  0.26345950214E+03  0.10885305645E+03  0.32288690450E+03  0.46999998093E+01 0.  1.
</event>
<event>
 5   0  0.6551489E-03  0.7992111E+03  0.7818609E-02  0.9561160E-01
       -1   -1    0    0    0  501  0.00000000000E+00  0.00000000000E+00  0.11250470339E+03  0.11250470350E+03  0.50400001928E-02 0. -1.
        1   -1    0    0  501    0  0.00000000000E+00  0.00000000000E+00 -0.14193594034E+04  0.14193594034E+04  0.50400001928E-02 0.  1.
    10030    2    1    2    0    0  0.00000000000E+00  0.00000000000E+00 -0.13068547000E+04  0.15318641069E+04  0.79921113299E+03 0.  0.
        4    1    3    3  502    0  0.27272224032E+03  0.26950825153E+03 -0.86918294547E+03  0.94999617031E+03  0.12699999809E+01 0.  1.
       -4    1    3    3    0  502 -0.27272224032E+03 -0.26950825153E+03 -0.43767175451E+03  0.58186793657E+03  0.12699999809E+01 0. -1.
</event>
<event>
 5   0  0.6517392E-03  0.7996384E+03  0.7818609E-02  0.9560541E-01
        1   -1    0    0  501    0  0.00000000000E+00  0.00000000000E+00  0.61279764491E+03  0.61279764494E+03  0.50400001928E-02 0.  1.
       -1   -1    0    0    0  501  0.00000000000E+00  0.00000000000E+00 -0.26086165183E+03  0.26086165188E+03  0.50400001928E-02 0. -1.
    10030    2    1    2    0    0  0.00000000000E+00  0.00000000000E+00  0.35193599309E+03  0.87365929681E+03  0.79963843309E+03 0.  0.
        3    1    3    3  502    0 -0.15974435644E+03  0.28384488765E+03 -0.77378729020E+02  0.33477403956E+03  0.10100000352E+00 0. -1.
       -3    1    3    3    0  502  0.15974435644E+03 -0.28384488765E+03  0.42931472211E+03  0.53888525725E+03  0.10100000352E+00 0.  1.
</event>
<event>
 5   0  0.4385875E-03  0.7943071E+03  0.7818609E-02  0.9568294E-01
        3   -1    0    0  501    0  0.00000000000E+00  0.00000000000E+00  0.97197816605E+03  0.97197817129E+03  0.10100000352E+00 0. -1.
       -3   -1    0    0    0  501  0.00000000000E+00  0.00000000000E+00 -0.16227826639E+03  0.16227829782E+03  0.10100000352E+00 0.  1.
    10030    2    1    2    0    0  0.00000000000E+00  0.00000000000E+00  0.80969989966E+03  0.11342564691E+04  0.79430712587E+03 0.  0.
        1    1    3    3  502    0 -0.13910371455E+03 -0.32698506624E+03  0.65813823916E+03  0.74794051823E+03  0.50400001928E-02 0. -1.
       -1    1    3    3    0  502  0.13910371455E+03  0.32698506624E+03  0.15156166050E+03  0.38631595088E+03  0.50400001928E-02 0.  1.
</event>
<event>
 5   0  0.6551489E-03  0.7990068E+03  0.7818609E-02  0.9561456E-01
       -1   -1    0    0    0  501  0.00000000000E+00  0.00000000000E+00  0.24314157096E+03  0.24314157101E+03  0.50400001928E-02 0.  1.
        1   -1    0    0  501    0  0.00000000000E+00  0.00000000000E+00 -0.65641983333E+03  0.65641983335E+03  0.50400001928E-02 0. -1.
    10030    2    1    2    0    0  0.00000000000E+00  0.00000000000E+00 -0.41327826237E+03  0.89956140436E+03  0.79900675721E+03 0.  0.
        4    1    3    3  502    0 -0.23254818186E+02 -0.35325953082E+03 -0.41505287250E+03  0.54553055144E+03  0.12699999809E+01 0. -1.
       -4    1    3    3    0  502  0.23254818186E+02  0.35325953082E+03  0.17746101291E+01  0.35403085292E+03  0.12699999809E+01 0.  1.
</event>
<event>
 5   0  0.6600401E-03  0.8039661E+03  0.7818609E-02  0.9554294E-01
        1   -1    0    0  501    0  0.00000000000E+00  0.00000000000E+00  0.21165881640E+04  0.21165881640E+04  0.50400001928E-02 0.  1.
       -1   -1    0    0    0  501  0.00000000000E+00  0.00000000000E+00 -0.76344732093E+02  0.76344732260E+02  0.50400001928E-02 0. -1.
    10030    2    1    2    0    0  0.00000000000E+00  0.00000000000E+00  0.20402434319E+04  0.21929328963E+04  0.80396606028E+03 0.  0.
        2    1    3    3  502    0 -0.21060642901E+03 -0.68329573821E+02  0.10497245232E+03  0.24503716933E+03  0.25500000920E-02 0. -1.
       -2    1    3    3    0  502  0.21060642901E+03  0.68329573821E+02  0.19352709796E+04  0.19478957269E+04  0.25500000920E-02 0.  1.
</event>
<event>
 5   0  0.1106332E-02  0.7973414E+03  0.7818609E-02  0.9563873E-01
       -2   -1    0    0    0  501  0.00000000000E+00  0.00000000000E+00  0.31202313966E+03  0.31202313967E+03  0.25500000920E-02 0.  1.
        2   -1    0    0  501    0  0.00000000000E+00  0.00000000000E+00 -0.50937992448E+03  0.50937992448E+03  0.25500000920E-02 0. -1.
    10030    2    1    2    0    0  0.00000000000E+00  0.00000000000E+00 -0.19735678481E+03  0.82140306416E+03  0.79734139068E+03 0.  0.
        1    1    3    3  502    0  0.34271943513E+03  0.10334934258E+03  0.82118839636E+02  0.36726176179E+03  0.50400001928E-02 0.  1.
       -1    1    3    3    0  502 -0.34271943513E+03 -0.10334934258E+03 -0.27947562445E+03  0.45414130236E+03  0.50400001928E-02 0. -1.
</event>
<event>
 5   0  0.1121480E-02  0.7926869E+03  0.7818609E-02  0.9570663E-01
        2   -1    0    0  501    0  0.00000000000E+00  0.00000000000E+00  0.45178874564E+03  0.45178874565E+03  0.25500000920E-02 0.  1.
       -2   -1    0    0    0  501  0.00000000000E+00  0.00000000000E+00 -0.34770257803E+03  0.34770257804E+03  0.25500000920E-02 0. -1.
    10030    2    1    2    0    0  0.00000000000E+00  0.00000000000E+00  0.10408616761E+03  0.79949132369E+03  0.79268685265E+03 0.  0.
        2    1    3    3  502    0  0.37483370943E+02  0.36157791451E+03  0.21133717903E+03  0.42048423824E+03  0.25500000920E-02 0.  1.
       -2    1    3    3    0  502 -0.37483370943E+02 -0.36157791451E+03 -0.10725101142E+03  0.37900708545E+03  0.25500000920E-02 0. -1.
</event>
<event>
 5   0  0.1092868E-02  0.8071753E+03  0.7818609E-02  0.9549689E-01
        2   -1    0    0  501    0  0.00000000000E+00  0.00000000000E+00  0.18159997136E+04  0.18159997136E+04  0.25500000920E-02 0. -1.
       -2   -1    0    0    0  501  0.00000000000E+00  0.00000000000E+00 -0.89693280727E+02  0.89693280763E+02  0.25500000920E-02 0.  1.
    10030    2    1    2    0    0  0.00000000000E+00  0.00000000000E+00  0.17263064328E+04  0.19056929943E+04  0.80717525271E+03 0.  0.
        3    1    3    3  502    0 -0.83393444132E+02 -0.94387689070E+02  0.17684115053E+04  0.17728910753E+04  0.10100000352E+00 0. -1.
       -3    1    3    3    0  502  0.83393444132E+02  0.94387689070E+02 -0.42105072505E+02  0.13280191905E+03  0.10100000352E+00 0.  1.
</event>
<event>
 5   0  0.1154714E-02  0.7997820E+03  0.7818609E-02  0.9560333E-01
        2   -1    0    0  501    0  0.00000000000E+00  0.00000000000E+00  0.14866621759E+04  0.14866621759E+04  0.25500000920E-02 0. -1.
       -2   -1    0    0    0  501  0.00000000000E+00  0.00000000000E+00 -0.10756500872E+03  0.10756500875E+03  0.25500000920E-02 0.  1.
    10030    2    1    2    0    0  0.00000000000E+00  0.00000000000E+00  0.13790971672E+04  0.15942271846E+04  0.79978204514E+03 0.  0.
        5    1    3    3  502    0 -0.33149982697E+03 -0.16973737690E+03  0.39939911807E+03  0.54611780589E+03  0.46999998093E+01 0.  1.
       -5    1    3    3    0  502  0.33149982697E+03  0.16973737690E+03  0.97969804912E+03  0.10481093788E+04  0.46999998093E+01 0. -1.
</event>
<event>
 5   0  0.4385875E-03  0.8013463E+03  0.7818609E-02  0.9558070E-01
        3   -1    0    0  501    0  0.00000000000E+00  0.00000000000E+00  0.86542495708E+03  0.86542496298E+03  0.10100000352E+00 0.  1.
       -3   -1    0    0    0  501  0.00000000000E+00  0.00000000000E+00 -0.18550303924E+03  0.18550306673E+03  0.10100000352E+00 0. -1.
    10030    2    1    2    0    0  0.00000000000E+00  0.00000000000E+00  0.67992191785E+03  0.10509280297E+04  0.80134631044E+03 0.  0.
        3    1    3    3  502    0 -0.68380236196E+02  0.24312286597E+03 -0.67971305738E+02  0.26154290903E+03  0.10100000352E+00 0. -1.
       -3    1    3    3    0  502  0.68380236196E+02 -0.24312286597E+03  0.74789322358E+03  0.78938512068E+03  0.10100000352E+00 0.  1.
</event>
<event>
 5   0  0.6596225E-03  0.7883421E+03  0.7818609E-02  0.9577046E-01
       -1   -1    0    0    0  501  0.00000000000E+00  0.00000000000E+00  0.90386233110E+02  0.90386233251E+02  0.50400001928E-02 0.  1.
        1   -1    0    0  501    0  0.00000000000E+00  0.00000000000E+00 -0.17189655826E+04  0.17189655827E+04  0.50400001928E-02 0. -1.
    10030    2    1    2    0    0  0.00000000000E+00  0.00000000000E+00 -0.16285793495E+04  0.18093518159E+04  0.78834211861E+03 0.  0.
        5    1    3    3  502    0  0.84597186418E+02  0.28142008597E+03 -0.21142973739E+03  0.36204774905E+03  0.46999998093E+01 0. -1.
       -5    1    3    3    0  502 -0.84597186418E+02 -0.28142008597E+03 -0.14171496121E+04  0.14473040669E+04  0.46999998093E+01 0.  1.
</event>
<event>
 5   0  0.6600401E-03  0.8013701E+03  0.7818609E-02  0.9558036E-01
       -1   -1    0    0    0  501  0.00000000000E+00  0.00000000000E+00  0.77134676251E+02  0.77134676416E+02  0.50400001928E-02 0. -1.
        1   -1    0    0  501    0  0.00000000000E+00  0.00000000000E+00 -0.20814050883E+04  0.20814050883E+04  0.50400001928E-02 0.  1.
    10030    2    1    2    0    0  0.00000000000E+00  0.00000000000E+00 -0.20042704121E+04  0.21585397648E+04  0.80137009633E+03 0.  0.
        2    1    3    3  502    0  0.12877912029E+03  0.10035986290E+03 -0.16525904465E+02  0.16410139983E+03  0.25500000920E-02 0. -1.
       -2    1    3    3    0  502 -0.12877912029E+03 -0.10035986290E+03 -0.19877445076E+04  0.19944383649E+04  0.25500000920E-02 0.  1.
</event>
<event>
 5   0  0.6517392E-03  0.7917933E+03  0.7818609E-02  0.9571973E-01
       -1   -1    0    0    0  501  0.00000000000E+00  0.00000000000E+00  0.38306900692E+03  0.38306900696E+03  0.50400001928E-02 0. -1.
        1   -1    0    0  501    0  0.00000000000E+00  0.00000000000E+00 -0.40915380330E+03  0.40915380333E+03  0.50400001928E-02 0.  1.
    10030    2    1    2    0    0  0.00000000000E+00  0.00000000000E+00 -0.26084796378E+02  0.79222281029E+03  0.79179325871E+03 0.  0.
        3    1    3    3  502    0  0.38908341912E+03  0.24257123292E+02  0.55986448783E+02  0.39383855539E+03  0.10100000352E+00 0. -1.
       -3    1    3    3    0  502 -0.38908341912E+03 -0.24257123292E+02 -0.82071245161E+02  0.39838425490E+03  0.10100000352E+00 0.  1.
</event>
<event>
 5   0  0.1121480E-02  0.8019980E+03  0.7818609E-02  0.9557130E-01
       -2   -1    0    0    0  501  0.00000000000E+00  0.00000000000E+00  0.15949175128E+03  0.15949175130E+03  0.25500000920E-02 0.  1.
        2   -1    0    0  501    0  0.00000000000E+00  0.00000000000E+00 -0.10082039396E+04  0.10082039396E+04  0.25500000920E-02 0. -1.
    10030    2    1    2    0    0  0.00000000000E+00  0.00000000000E+00 -0.84871218829E+03  0.11676956909E+04  0.80199803488E+03 0.  0.
        2    1    3    3  502    0 -0.34181509366E+03  0.54945332267E+02 -0.71896761544E+03  0.79797931041E+03  0.25500000920E-02 0.  1.
       -2    1    3    3    0  502  0.34181509366E+03 -0.54945332267E+02 -0.12974457285E+03  0.36971638046E+03  0.25500000920E-02 0. -1.
</event>
<event>
 5   0  0.1106332E-02  0.7984664E+03  0.7818609E-02  0.9562240E-01
       -2   -1    0    0    0  501  0.00000000000E+00  0.00000000000E+00  0.11844161742E+03  0.11844161745E+03  0.25500000920E-02 0. -1.
        2   -1    0    0  501    0  0.00000000000E+00  0.00000000000E+00 -0.13457020663E+04  0.13457020663E+04  0.25500000920E-02 0.  1.
    10030    2    1    2    0    0  0.00000000000E+00  0.00000000000E+00 -0.12272604489E+04  0.14641436838E+04  0.79846635327E+03 0.  0.
        1    1    3    3  502    0  0.23377424764E+03  0.37401894569E+02 -0.12030934882E+04  0.12261660744E+04  0.50400001928E-02 0.  1.
       -1    1    3    3    0  502 -0.23377424764E+03 -0.37401894569E+02 -0.24166960739E+02  0.23797760943E+03  0.50400001928E-02 0. -1.
</event>
<event>
 5   0  0.1106332E-02  0.8110233E+03  0.7818609E-02  0.9544197E-01
       -2   -1    0    0    0  501  0.00000000000E+00  0.00000000000E+00  0.67155334723E+03  0.67155334723E+03  0.25500000920E-02 0. -1.
        2   -1    0    0  501    0  0.00000000000E+00  0.00000000000E+00 -0.24486471125E+03  0.24486471126E+03  0.25500000920E-02 0.  1.
    10030    2    1    2    0    0  0.00000000000E+00  0.00000000000E+00  0.42668863598E+03  0.91641805849E+03  0.81102334483E+03 0.  0.
        1    1    3    3  502    0  0.35737688324E+03 -0.42701022200E+02  0.22574626500E+01  0.35992597869E+03  0.50400001928E-02 0.  1.
       -1    1    3    3    0  502 -0.35737688324E+03  0.42701022200E+02  0.42443117333E+03  0.55649207981E+03  0.50400001928E-02 0. -1.
</event>
<event>
 5   0  0.1092868E-02  0.7889467E+03  0.7818609E-02  0.9576156E-01
       -2   -1    0    0    0  501  0.00000000000E+00  0.00000000000E+00  0.20529703628E+03  0.20529703630E+03  0.25500000920E-02 0.  1.
        2   -1    0    0  501    0  0.00000000000E+00  0.00000000000E+00 -0.75797114591E+03  0.75797114591E+03  0.25500000920E-02 0. -1.
    10030    2    1    2    0    0  0.00000000000E+00  0.00000000000E+00 -0.55267410963E+03  0.96326818221E+03  0.78894671519E+03 0.  0.
        3    1    3    3  502    0 -0.19485962599E+03 -0.29391027758E+03 -0.60481057288E+02  0.35778693884E+03  0.10100000352E+00 0.  1.
       -3    1    3    3    0  502  0.19485962599E+03  0.29391027758E+03 -0.49219305234E+03  0.60548124338E+03  0.10100000352E+00 0. -1.
</event>
<event>
 5   0  0.6551489E-03  0.7980445E+03  0.7818609E-02  0.9562852E-01
       -1   -1    0    0    0  501  0.00000000000E+00  0.00000000000E+00  0.31680482232E+03  0.31680482236E+03  0.50400001928E-02 0.  1.
        1   -1    0    0  501    0  0.00000000000E+00  0.00000000000E+00 -0.50257677394E+03  0.50257677397E+03  0.50400001928E-02 0. -1.
    10030    2    1    2    0    0  0.00000000000E+00  0.00000000000E+00 -0.18577195162E+03  0.81938159632E+03  0.79804447394E+03 0.  0.
        4    1    3    3  502    0 -0.14393487026E+03 -0.20670336846E+03 -0.41063338943E+03  0.48173117278E+03  0.12699999809E+01 0. -1.
       -4    1    3    3    0  502  0.14393487026E+03  0.20670336846E+03  0.22486143781E+03  0.33765042355E+03  0.12699999809E+01 0.  1.
</event>
<event>
 5   0  0.1092868E-02  0.8009625E+03  0.7818609E-02  0.9558625E-01
        2   -1    0    0  501    0  0.00000000000E+00  0.00000000000E+00  0.59841729057E+03  0.59841729057E+03  0.25500000920E-02 0.  1.
       -2   -1    0    0    0  501  0.00000000000E+00  0.00000000000E+00 -0.26801568866E+03  0.26801568867E+03  0.25500000920E-02 0. -1.
    10030    2    1    2    0    0  0.00000000000E+00  0.00000000000E+00  0.33040160190E+03  0.86643297925E+03  0.80096247664E+03 0.  0.
        3    1    3    3  502    0  0.19339670329E+03 -0.12469110912E+03  0.51976575601E+03  0.56842467299E+03  0.10100000352E+00 0.  1.
       -3    1    3    3    0  502 -0.19339670329E+03  0.12469110912E+03 -0.18936415411E+03  0.29800830626E+03  0.10100000352E+00 0. -1.
</event>
<event>
 5   0  0.6600401E-03  0.7740310E+03  0.7818609E-02  0.9598386E-01
        1   -1    0    0  501    0  0.00000000000E+00  0.00000000000E+00  0.10373122532E+03  0.10373122544E+03  0.50400001928E-02 0.  1.
       -1   -1    0    0    0  501  0.00000000000E+00  0.00000000000E+00 -0.14439336608E+04  0.14439336609E+04  0.50400001928E-02 0. -1.
    10030    2    1    2    0    0  0.00000000000E+00  0.00000000000E+00 -0.13402024355E+04  0.15476648863E+04  0.77403102785E+03 0.  0.
        2    1    3    3  502    0 -0.11333920029E+03  0.35258849118E+03 -0.44551166676E+03  0.57934882728E+03  0.25500000920E-02 0. -1.
       -2    1    3    3    0  502  0.11333920029E+03 -0.35258849118E+03 -0.89469076876E+03  0.96831605902E+03  0.25500000920E-02 0.  1.
</event>
<event>
 5   0  0.4385875E-03  0.7865643E+03  0.7818609E-02  0.9579671E-01
       -4   -1    0    0    0  501  0.00000000000E+00  0.00000000000E+00  0.48051342615E+03  0.48051510446E+03  0.12699999809E+01 0. -1.
        4   -1    0    0  501    0  0.00000000000E+00  0.00000000000E+00 -0.32188312584E+03  0.32188563124E+03  0.12699999809E+01 0.  1.
    10030    2    1    2    0    0  0.00000000000E+00  0.00000000000E+00  0.15863030031E+03  0.80240073570E+03  0.78656428121E+03 0.  0.
        2    1    3    3  502    0  0.25615033694E+02 -0.24622426930E+03  0.39106293918E+03  0.46283122534E+03  0.25500000920E-02 0. -1.
       -2    1    3    3    0  502 -0.25615033694E+02  0.24622426930E+03 -0.23243263887E+03  0.33956951035E+03  0.25500000920E-02 0.  1.
</event>
<event>
 5   0  0.1092868E-02  0.8164692E+03  0.7818609E-02  0.9536480E-01
       -2   -1    0    0    0  501  0.00000000000E+00  0.00000000000E+00  0.24252262454E+03  0.24252262456E+03  0.25500000920E-02 0. -1.
        2   -1    0    0  501    0  0.00000000000E+00  0.00000000000E+00 -0.68717505086E+03  0.68717505086E+03  0.25500000920E-02 0.  1.
    10030    2    1    2    0    0  0.00000000000E+00  0.00000000000E+00 -0.44465242631E+03  0.92969767542E+03  0.81646922015E+03 0.  0.
        3    1    3    3  502    0  0.30959779269E+03  0.22822046122E+03 -0.66530257888E+02  0.39033531428E+03  0.10100000352E+00 0. -1.
       -3    1    3    3    0  502 -0.30959779269E+03 -0.22822046122E+03 -0.37812216843E+03  0.53936236114E+03  0.10100000352E+00 0.  1.
</event>
<event>
 5   0  0.6600401E-03  0.7993062E+03  0.7818609E-02  0.9561022E-01
        1   -1    0    0  501    0  0.00000000000E+00  0.00000000000E+00  0.95619155585E+03  0.95619155587E+03  0.50400001928E-02 0.  1.
       -1   -1    0    0    0  501  0.00000000000E+00  0.00000000000E+00 -0.16704037152E+03  0.16704037160E+03  0.50400001928E-02 0. -1.
    10030    2    1    2    0    0  0.00000000000E+00  0.00000000000E+00  0.78915118433E+03  0.11232319275E+04  0.79930618110E+03 0.  0.
        2    1    3    3  502    0 -0.74287604838E+02 -0.20342352269E+03 -0.77438248935E+02  0.22999230470E+03  0.25500000920E-02 0. -1.
       -2    1    3    3    0  502  0.74287604838E+02  0.20342352269E+03  0.86658943327E+03  0.89323962276E+03  0.25500000920E-02 0.  1.
</event>
<event>
 5   0  0.6600401E-03  0.8031088E+03  0.7818609E-02  0.9555528E-01
       -1   -1    0    0    0  501  0.00000000000E+00  0.00000000000E+00  0.30885056822E+03  0.30885056826E+03  0.50400001928E-02 0.  1.
        1   -1    0    0  501    0  0.00000000000E+00  0.00000000000E+00 -0.52208399326E+03  0.52208399328E+03  0.50400001928E-02 0. -1.
    10030    2    1    2    0    0  0.00000000000E+00  0.00000000000E+00 -0.21323342504E+03  0.83093456154E+03  0.80310880459E+03 0.  0.
        2    1    3    3  502    0  0.35167405311E+03 -0.14664603760E+03 -0.23776104727E+03  0.44912138179E+03  0.25500000920E-02 0. -1.
       -2    1    3    3    0  502 -0.35167405311E+03  0.14664603760E+03  0.24527622229E+02  0.38181317975E+03  0.25500000920E-02 0.  1.
</event>
<event>
 5   0  0.4385875E-03  0.7976756E+03  0.7818609E-02  0.9563388E-01
        3   -1    0    0  501    0  0.00000000000E+00  0.00000000000E+00  0.26028255279E+03  0.26028257238E+03  0.10100000352E+00 0. -1.
       -3   -1    0    0    0  501  0.00000000000E+00  0.00000000000E+00 -0.61114964989E+03  0.61114965824E+03  0.10100000352E+00 0.  1.
    10030    2    1    2    0    0  0.00000000000E+00  0.00000000000E+00 -0.35086709710E+03  0.87143223062E+03  0.79767563128E+03 0.  0.
        3    1    3    3  502    0  0.25246457481E+03  0.27216485627E+03 -0.33472191058E+03  0.49985081589E+03  0.10100000352E+00 0.  1.
       -3    1    3    3    0  502 -0.25246457481E+03 -0.27216485627E+03 -0.16145186525E+02  0.37158141473E+03  0.10100000352E+00 0. -1.
</event>
<event>
 5   0  0.6596225E-03  0.8044759E+03  0.7818609E-02  0.9553561E-01
       -1   -1    0    0    0  501  0.00000000000E+00  0.00000000000E+00  0.43380769490E+03  0.43380769493E+03  0.50400001928E-02 0. -1.
        1   -1    0    0  501    0  0.00000000000E+00  0.00000000000E+00 -0.37296569356E+03  0.37296569359E+03  0.50400001928E-02 0.  1.
    10030    2    1    2    0    0  0.00000000000E+00  0.00000000000E+00  0.60842001338E+02  0.80677338852E+03  0.80447594824E+03 0.  0.
        5    1    3    3  502    0 -0.14840483061E+03 -0.32142567293E+03  0.22184524382E+03  0.41782276048E+03  0.46999998093E+01 0. -1.
       -5    1    3    3    0  502  0.14840483061E+03  0.32142567293E+03 -0.16100324248E+03  0.38895062805E+03  0.46999998093E+01 0.  1.
</event>
<event>
 5   0  0.1121480E-02  0.7981020E+03  0.7818609E-02  0.9562768E-01
       -2   -1    0    0    0  501  0.00000000000E+00  0.00000000000E+00  0.32561644019E+03  0.32561644020E+03  0.25500000920E-02 0. -1.
        2   -1    0    0  501    0  0.00000000000E+00  0.00000000000E+00 -0.48904691951E+03  0.48904691952E+03  0.25500000920E-02 0.  1.
    10030    2    1    2    0    0  0.00000000000E+00  0.00000000000E+00 -0.16343047932E+03  0.81466335972E+03  0.79810204116E+03 0.  0.
        2    1    3    3  502    0  0.19334486711E+03  0.32065219053E+03 -0.22257017720E+03  0.43558873805E+03  0.25500000920E-02 0.  1.
       -2    1    3    3    0  502 -0.19334486711E+03 -0.32065219053E+03  0.59139697878E+02  0.37907462168E+03  0.25500000920E-02 0. -1.
</event>
<event>
 5   0  0.1121480E-02  0.8014323E+03  0.7818609E-02  0.9557946E-01
        2   -1    0    0  501    0  0.00000000000E+00  0.00000000000E+00  0.16967453511E+04  0.16967453511E+04  0.25500000920E-02 0. -1.
       -2   -1    0    0    0  501  0.00000000000E+00  0.00000000000E+00 -0.94636130926E+02  0.94636130961E+02  0.25500000920E-02 0.  1.
    10030    2    1    2    0    0  0.00000000000E+00  0.00000000000E+00  0.16021092201E+04  0.17913814820E+04  0.80143225597E+03 0.  0.
        2    1    3    3  502    0  0.30447868625E+03 -0.17411657202E+03  0.36791917709E+03  0.50831916343E+03  0.25500000920E-02 0.  1.
       -2    1    3    3    0  502 -0.30447868625E+03  0.17411657202E+03  0.12341900431E+04  0.12830623186E+04  0.25500000920E-02 0. -1.
</event>
<event>
 5   0  0.6517392E-03  0.7853841E+03  0.7818609E-02  0.9581417E-01
       -1   -1    0    0    0  501  0.00000000000E+00  0.00000000000E+00  0.38268015430E+03  0.38268015433E+03  0.50400001928E-02 0.  1.
        1   -1    0    0  501    0  0.00000000000E+00  0.00000000000E+00 -0.40296590789E+03  0.40296590792E+03  0.50400001928E-02 0. -1.
    10030    2    1    2    0    0  0.00000000000E+00  0.00000000000E+00 -0.20285753586E+02  0.78564606225E+03  0.78538412470E+03 0.  0.
        3    1    3    3  502    0 -0.13501104113E+03  0.33826326273E+03  0.13672921410E+03  0.38903072415E+03  0.10100000352E+00 0.  1.
       -3    1    3    3    0  502  0.13501104113E+03 -0.33826326273E+03 -0.15701496769E+03  0.39661533811E+03  0.10100000352E+00 0. -1.
</event>
<event>
 5   0  0.1119792E-02  0.8006600E+03  0.7818609E-02  0.9559062E-01
       -2   -1    0    0    0  501  0.00000000000E+00  0.00000000000E+00  0.52821485199E+03  0.52821485200E+03  0.25500000920E-02 0. -1.
        2   -1    0    0  501    0  0.00000000000E+00  0.00000000000E+00 -0.30340701000E+03  0.30340701002E+03  0.25500000920E-02 0.  1.
    10030    2    1    2    0    0  0.00000000000E+00  0.00000000000E+00  0.22480784199E+03  0.83162186201E+03  0.80065995002E+03 0.  0.
        4    1    3    3  502    0 -0.90906067032E+02 -0.12210087296E+03  0.49697851077E+03  0.51977090075E+03  0.12699999809E+01 0. -1.
       -4    1    3    3    0  502  0.90906067032E+02  0.12210087296E+03 -0.27217066878E+03  0.31185096127E+03  0.12699999809E+01 0.  1.
</event>
<event>
 5   0  0.6557679E-03  0.8065023E+03  0.7818609E-02  0.9550653E-01
        1   -1    0    0  501    0  0.00000000000E+00  0.00000000000E+00  0.82242207615E+03  0.82242207617E+03  0.50400001928E-02 0.  1.
       -1   -1    0    0    0  501  0.00000000000E+00  0.00000000000E+00 -0.19772269034E+03  0.19772269040E+03  0.50400001928E-02 0. -1.
    10030    2    1    2    0    0  0.00000000000E+00  0.00000000000E+00  0.62469938582E+03  0.10201447666E+04  0.80650233857E+03 0.  0.
        1    1    3    3  502    0  0.11935278603E+03 -0.22328562686E+03 -0.84655527182E+02  0.26696089040E+03  0.50400001928E-02 0. -1.
       -1    1    3    3    0  502 -0.11935278603E+03  0.22328562686E+03  0.70935491300E+03  0.75318387617E+03  0.50400001928E-02 0.  1.
</event>
<event>
 5   0  0.1121480E-02  0.8116801E+03  0.7818609E-02  0.9543263E-01
        2   -1    0    0  501    0  0.00000000000E+00  0.00000000000E+00  0.82905646328E+03  0.82905646329E+03  0.25500000920E-02 0.  1.
       -2   -1    0    0    0  501  0.00000000000E+00  0.00000000000E+00 -0.19866696188E+03  0.19866696190E+03  0.25500000920E-02 0. -1.
    10030    2    1    2    0    0  0.00000000000E+00  0.00000000000E+00  0.63038950140E+03  0.10277234252E+04  0.81168005717E+03 0.  0.
        2    1    3    3  502    0  0.74176803238E+02  0.12157921425E+03  0.79637600183E+03  0.80901077853E+03  0.25500000920E-02 0.  1.
       -2    1    3    3    0  502 -0.74176803238E+02 -0.12157921425E+03 -0.16598650043E+03  0.21871264666E+03  0.25500000920E-02 0. -1.
</event>
<event>
 5   0  0.6517392E-03  0.7852241E+03  0.7818609E-02  0.9581654E-01
        1   -1    0    0  501    0  0.00000000000E+00  0.00000000000E+00  0.41767102365E+03  0.41767102368E+03  0.50400001928E-02 0. -1.
       -1   -1    0    0    0  501  0.00000000000E+00  0.00000000000E+00 -0.36905652151E+03  0.36905652155E+03  0.50400001928E-02 0.  1.
    10030    2    1    2    0    0  0.00000000000E+00  0.00000000000E+00  0.48614502141E+02  0.78672754523E+03  0.78522408305E+03 0.  0.
        3    1    3    3  502    0  0.28821154874E+03  0.17591461108E+03 -0.17640694139E+03  0.38096097752E+03  0.10100000352E+00 0. -1.
       -3    1    3    3    0  502 -0.28821154874E+03 -0.17591461108E+03  0.22502144353E+03  0.40576656771E+03  0.10100000352E+00 0.  1.
</event>
<event>
 5   0  0.4385875E-03  0.7959526E+03  0.7818609E-02  0.9565894E-01
       -3   -1    0    0    0  501  0.00000000000E+00  0.00000000000E+00  0.76109342229E+03  0.76109342899E+03  0.10100000352E+00 0.  1.
        3   -1    0    0  501    0  0.00000000000E+00  0.00000000000E+00 -0.20810208165E+03  0.20810210616E+03  0.10100000352E+00 0. -1.
    10030    2    1    2    0    0  0.00000000000E+00  0.00000000000E+00  0.55299134064E+03  0.96919553516E+03  0.79595261325E+03 0.  0.
        3    1    3    3  502    0  0.11903821923E+03 -0.18991168439E+03 -0.12394171087E+03  0.25612126698E+03  0.10100000352E+00 0. -1.
       -3    1    3    3    0  502 -0.11903821923E+03  0.18991168439E+03  0.67693305151E+03  0.71307426817E+03  0.10100000352E+00 0.  1.
</event>
<event>
 5   0  0.1106332E-02  0.7950025E+03  0.7818609E-02  0.9567279E-01
       -2   -1    0    0    0  501  0.00000000000E+00  0.00000000000E+00  0.49996096379E+02  0.49996096444E+02  0.25500000920E-02 0. -1.
        2   -1    0    0  501    0  0.00000000000E+00  0.00000000000E+00 -0.31603919794E+04  0.31603919794E+04  0.25500000920E-02 0.  1.
    10030    2    1    2    0    0  0.00000000000E+00  0.00000000000E+00 -0.31103958830E+04  0.32103880759E+04  0.79500254617E+03 0.  0.
        1    1    3    3  502    0 -0.76872723202E+02 -0.32292981984E+03 -0.24382114772E+04  0.24607048363E+04  0.50400001928E-02 0.  1.
       -1    1    3    3    0  502  0.76872723202E+02  0.32292981984E+03 -0.67218440585E+03  0.74968323951E+03  0.50400001928E-02 0. -1.
</event>
<event>
 5   0  0.4385875E-03  0.7988546E+03  0.7818609E-02  0.9561677E-01
        4   -1    0    0  501    0  0.00000000000E+00  0.00000000000E+00  0.69261669883E+03  0.69261786318E+03  0.12699999809E+01 0.  1.
       -4   -1    0    0    0  501  0.00000000000E+00  0.00000000000E+00 -0.23034386006E+03  0.23034736111E+03  0.12699999809E+01 0. -1.
    10030    2    1    2    0    0  0.00000000000E+00  0.00000000000E+00  0.46227283877E+03  0.92296522429E+03  0.79885457236E+03 0.  0.
        2    1    3    3  502    0 -0.31364238350E+03  0.24407929331E+03  0.27729175543E+03  0.48459979756E+03  0.25500000920E-02 0.  1.
       -2    1    3    3    0  502  0.31364238350E+03 -0.24407929331E+03  0.18498108334E+03  0.43836542673E+03  0.25500000920E-02 0. -1.
</event>
<event>
 5   0  0.6557679E-03  0.8028285E+03  0.7818609E-02  0.9555932E-01
       -1   -1    0    0    0  501  0.00000000000E+00  0.00000000000E+00  0.24433374426E+03  0.24433374431E+03  0.50400001928E-02 0. -1.
        1   -1    0    0  501    0  0.00000000000E+00  0.00000000000E+00 -0.65948068092E+03  0.65948068094E+03  0.50400001928E-02 0.  1.
    10030    2    1    2    0    0  0.00000000000E+00  0.00000000000E+00 -0.41514693666E+03  0.90381442525E+03  0.80282846006E+03 0.  0.
        1    1    3    3  502    0  0.24256491984E+03 -0.18200465360E+03 -0.50365767267E+03  0.58790686807E+03  0.50400001928E-02 0.  1.
       -1    1    3    3    0  502 -0.24256491984E+03  0.18200465360E+03  0.88510736008E+02  0.31590755718E+03  0.50400001928E-02 0. -1.
</event>
<event>
 5   0  0.6600401E-03  0.7977303E+03  0.7818609E-02  0.9563308E-01
       -1   -1    0    0    0  501  0.00000000000E+00  0.00000000000E+00  0.45599242276E+03  0.45599242279E+03  0.50400001928E-02 0. -1.
        1   -1    0    0  501    0  0.00000000000E+00  0.00000000000E+00 -0.34889486581E+03  0.34889486585E+03  0.50400001928E-02 0.  1.
    10030    2    1    2    0    0  0.00000000000E+00  0.00000000000E+00  0.10709755695E+03  0.80488728864E+03  0.79773031828E+03 0.  0.
        2    1    3    3  502    0  0.28034230474E+03  0.24529528731E+03  0.19741776984E+03  0.42158671903E+03  0.25500000920E-02 0. -1.
       -2    1    3    3    0  502 -0.28034230474E+03 -0.24529528731E+03 -0.90320212887E+02  0.38330056961E+03  0.25500000920E-02 0.  1.
</event>
<event>
 5   0  0.6551489E-03  0.7953931E+03  0.7818609E-02  0.9566710E-01
        1   -1    0    0  501    0  0.00000000000E+00  0.00000000000E+00  0.41667617953E+03  0.41667617956E+03  0.50400001928E-02 0. -1.
       -1   -1    0    0    0  501  0.00000000000E+00  0.00000000000E+00 -0.37958140511E+03  0.37958140514E+03  0.50400001928E-02 0.  1.
    10030    2    1    2    0    0  0.00000000000E+00  0.00000000000E+00  0.37094774425E+02  0.79625758471E+03  0.79539305938E+03 0.  0.
        4    1    3    3  502    0  0.35162956735E+03 -0.27400116509E+01 -0.16742335338E+03  0.38946508502E+03  0.12699999809E+01 0.  1.
       -4    1    3    3    0  502 -0.35162956735E+03  0.27400116509E+01  0.20451812780E+03  0.40679249968E+03  0.12699999809E+01 0. -1.
</event>
<event>
 5   0  0.1121480E-02  0.7998684E+03  0.7818609E-02  0.9560208E-01
       -2   -1    0    0    0  501  0.00000000000E+00  0.00000000000E+00  0.61177609495E+03  0.61177609495E+03  0.25500000920E-02 0. -1.
        2   -1    0    0  501    0  0.00000000000E+00  0.00000000000E+00 -0.26144753930E+03  0.26144753931E+03  0.25500000920E-02 0.  1.
    10030    2    1    2    0    0  0.00000000000E+00  0.00000000000E+00  0.35032855565E+03  0.87322363426E+03  0.79986837575E+03 0.  0.
        2    1    3    3  502    0 -0.27721368062E+03  0.11523025199E+03 -0.11330717735E+03  0.32087996532E+03  0.25500000920E-02 0.  1.
       -2    1    3    3    0  502  0.27721368062E+03 -0.11523025199E+03  0.46363573300E+03  0.55234366894E+03  0.25500000920E-02 0. -1.
</event>
<event>
 5   0  0.1121480E-02  0.8029570E+03  0.7818609E-02  0.9555747E-01
        2   -1    0    0  501    0  0.00000000000E+00  0.00000000000E+00  0.11173927995E+04  0.11173927995E+04  0.25500000920E-02 0. -1.
       -2   -1    0    0    0  501  0.00000000000E+00  0.00000000000E+00 -0.14425094620E+03  0.14425094622E+03  0.25500000920E-02 0.  1.
    10030    2    1    2    0    0  0.00000000000E+00  0.00000000000E+00  0.97314185330E+03  0.12616437457E+04  0.80295695681E+03 0.  0.
        2    1    3    3  502    0  0.97949436893E+02 -0.31794374830E+03  0.13346780683E+03  0.35846335202E+03  0.25500000920E-02 0. -1.
       -2    1    3    3    0  502 -0.97949436893E+02  0.31794374830E+03  0.83967404647E+03  0.90318039371E+03  0.25500000920E-02 0.  1.
</event>
<event>
 5   0  0.1119792E-02  0.7978512E+03  0.7818609E-02  0.9563133E-01
       -2   -1    0    0    0  501  0.00000000000E+00  0.00000000000E+00  0.46891757435E+03  0.46891757436E+03  0.25500000920E-02 0. -1.
        2   -1    0    0  501    0  0.00000000000E+00  0.00000000000E+00 -0.33938080238E+03  0.33938080239E+03  0.25500000920E-02 0.  1.
    10030    2    1    2    0    0  0.00000000000E+00  0.00000000000E+00  0.12953677197E+03  0.80829837675E+03  0.79785117068E+03 0.  0.
        4    1    3    3  502    0  0.83257366869E+02  0.15681567658E+03 -0.29714462353E+03  0.34614951358E+03  0.12699999809E+01 0.  1.
       -4    1    3    3    0  502 -0.83257366869E+02 -0.15681567658E+03  0.42668139550E+03  0.46214886317E+03  0.12699999809E+01 0. -1.
</event>
<event>
 5   0  0.1154714E-02  0.7992260E+03  0.7818609E-02  0.9561138E-01
       -2   -1    0    0    0  501  0.00000000000E+00  0.00000000000E+00  0.81295300784E+02  0.81295300824E+02  0.25500000920E-02 0. -1.
        2   -1    0    0  501    0  0.00000000000E+00  0.00000000000E+00 -0.19643267646E+04  0.19643267646E+04  0.25500000920E-02 0.  1.
    10030    2    1    2    0    0  0.00000000000E+00  0.00000000000E+00 -0.18830314638E+04  0.20456220654E+04  0.79922596356E+03 0.  0.
        5    1    3    3  502    0  0.19143886447E+03 -0.30607789225E+03 -0.50313066906E+03  0.61926979185E+03  0.46999998093E+01 0. -1.
       -5    1    3    3    0  502 -0.19143886447E+03  0.30607789225E+03 -0.13799007947E+04  0.14263522735E+04  0.46999998093E+01 0.  1.
</event>
<event>
 5   0  0.1121480E-02  0.8266185E+03  0.7818609E-02  0.9522267E-01
        2   -1    0    0  501    0  0.00000000000E+00  0.00000000000E+00  0.52967638745E+03  0.52967638745E+03  0.25500000920E-02 0. -1.
       -2   -1    0    0    0  501  0.00000000000E+00  0.00000000000E+00 -0.32250739865E+03  0.32250739866E+03  0.25500000920E-02 0.  1.
    10030    2    1    2    0    0  0.00000000000E+00  0.00000000000E+00  0.20716898880E+03  0.85218378611E+03  0.82661854286E+03 0.  0.
        2    1    3    3  502    0 -0.14049847546E+03  0.66485925641E+01 -0.29707447717E+03  0.32869023470E+03  0.25500000920E-02 0.  1.
       -2    1    3    3    0  502  0.14049847546E+03 -0.66485925641E+01  0.50424346597E+03  0.52349355141E+03  0.25500000920E-02 0. -1.
</event>
<event>
 5   0  0.1106332E-02  0.8006858E+03  0.7818609E-02  0.9559025E-01
       -2   -1    0    0    0  501  0.00000000000E+00  0.00000000000E+00  0.29925033942E+03  0.29925033943E+03  0.25500000920E-02 0. -1.
        2   -1    0    0  501    0  0.00000000000E+00  0.00000000000E+00 -0.53558652888E+03  0.53558652889E+03  0.25500000920E-02 0.  1.
    10030    2    1    2    0    0  0.00000000000E+00  0.00000000000E+00 -0.23633618947E+03  0.83483686831E+03  0.80068583242E+03 0.  0.
        1    1    3    3  502    0  0.23250783414E+03 -0.21455265297E+03  0.13761495558E+03  0.34500813014E+03  0.50400001928E-02 0. -1.
       -1    1    3    3    0  502 -0.23250783414E+03  0.21455265297E+03 -0.37395114505E+03  0.48982873818E+03  0.50400001928E-02 0.  1.
</event>
<event>
 5   0  0.1119792E-02  0.7933286E+03  0.7818609E-02  0.9569724E-01
       -2   -1    0    0    0  501  0.00000000000E+00  0.00000000000E+00  0.20613691707E+03  0.20613691709E+03  0.25500000920E-02 0. -1.
        2   -1    0    0  501    0  0.00000000000E+00  0.00000000000E+00 -0.76329156322E+03  0.76329156323E+03  0.25500000920E-02 0.  1.
    10030    2    1    2    0    0  0.00000000000E+00  0.00000000000E+00 -0.55715464615E+03  0.96942848032E+03  0.79332860702E+03 0.  0.
        4    1    3    3  502    0  0.90863366642E+02 -0.26299944257E+03  0.66868381205E+02  0.28617800665E+03  0.12699999809E+01 0. -1.
       -4    1    3    3    0  502 -0.90863366642E+02  0.26299944257E+03 -0.62402302736E+03  0.68325047366E+03  0.12699999809E+01 0.  1.
</event>
<event>
 5   0  0.1119792E-02  0.7963407E+03  0.7818609E-02  0.9565329E-01
       -2   -1    0    0    0  501  0.00000000000E+00  0.00000000000E+00  0.11488185240E+03  0.11488185242E+03  0.25500000920E-02 0. -1.
        2   -1    0    0  501    0  0.00000000000E+00  0.00000000000E+00 -0.13800232372E+04  0.13800232372E+04  0.25500000920E-02 0.  1.
    10030    2    1    2    0    0  0.00000000000E+00  0.00000000000E+00 -0.12651413848E+04  0.14949050896E+04  0.79634069559E+03 0.  0.
        4    1    3    3  502    0 -0.18854709475E+02  0.28806062999E+03 -0.11777608808E+03  0.31178076664E+03  0.12699999809E+01 0. -1.
       -4    1    3    3    0  502  0.18854709475E+02 -0.28806062999E+03 -0.11473652967E+04  0.11831243230E+04  0.12699999809E+01 0.  1.
</event>
<event>
 5   0  0.1154714E-02  0.8124584E+03  0.7818609E-02  0.9542157E-01
       -2   -1    0    0    0  501  0.00000000000E+00  0.00000000000E+00  0.13077644616E+03  0.13077644619E+03  0.25500000920E-02 0. -1.
        2   -1    0    0  501    0  0.00000000000E+00  0.00000000000E+00 -0.12618646556E+04  0.12618646556E+04  0.25500000920E-02 0.  1.
    10030    2    1    2    0    0  0.00000000000E+00  0.00000000000E+00 -0.11310882095E+04  0.13926411018E+04  0.81245843025E+03 0.  0.
        5    1    3    3  502    0 -0.35898432131E+03  0.11995715926E+03 -0.81828414129E+03  0.90159330571E+03  0.46999998093E+01 0.  1.
       -5    1    3    3    0  502  0.35898432131E+03 -0.11995715926E+03 -0.31280406818E+03  0.49104779612E+03  0.46999998093E+01 0. -1.
</event>
<event>
 5   0  0.6600401E-03  0.7968003E+03  0.7818609E-02  0.9564660E-01
       -1   -1    0    0    0  501  0.00000000000E+00  0.00000000000E+00  0.17669976439E+03  0.17669976446E+03  0.50400001928E-02 0.  1.
        1   -1    0    0  501    0  0.00000000000E+00  0.00000000000E+00 -0.89826194961E+03  0.89826194962E+03  0.50400001928E-02 0. -1.
    10030    2    1    2    0    0  0.00000000000E+00  0.00000000000E+00 -0.72156218522E+03  0.10749617141E+04  0.79680028841E+03 0.  0.
        2    1    3    3  502    0 -0.20629498503E+03 -0.13786573079E+03 -0.78129756057E+03  0.81975024168E+03  0.25500000920E-02 0. -1.
       -2    1    3    3    0  502  0.20629498503E+03  0.13786573079E+03  0.59735375354E+02  0.25521147241E+03  0.25500000920E-02 0.  1.
</event>
<event>
 5   0  0.1154714E-02  0.7955924E+03  0.7818609E-02  0.9566419E-01
       -2   -1    0    0    0  501  0.00000000000E+00  0.00000000000E+00  0.23045439133E+03  0.23045439135E+03  0.25500000920E-02 0.  1.
        2   -1    0    0  501    0  0.00000000000E+00  0.00000000000E+00 -0.68665135176E+03  0.68665135176E+03  0.25500000920E-02 0. -1.
    10030    2    1    2    0    0  0.00000000000E+00  0.00000000000E+00 -0.45619696043E+03  0.91710574311E+03  0.79559240654E+03 0.  0.
        5    1    3    3  502    0 -0.31518269868E+03 -0.22072461753E+03 -0.11190527130E+03  0.40075475054E+03  0.46999998093E+01 0.  1.
       -5    1    3    3    0  502  0.31518269868E+03  0.22072461753E+03 -0.34429168912E+03  0.51635099257E+03  0.46999998093E+01 0. -1.
</event>
<event>
 5   0  0.1092868E-02  0.8030865E+03  0.7818609E-02  0.9555560E-01
        2   -1    0    0  501    0  0.00000000000E+00  0.00000000000E+00  0.14109711192E+04  0.14109711192E+04  0.25500000920E-02 0. -1.
       -2   -1    0    0    0  501  0.00000000000E+00  0.00000000000E+00 -0.11427376079E+03  0.11427376082E+03  0.25500000920E-02 0.  1.
    10030    2    1    2    0    0  0.00000000000E+00  0.00000000000E+00  0.12966973584E+04  0.15252448800E+04  0.80308648647E+03 0.  0.
        3    1    3    3  502    0 -0.18823029623E+03 -0.32516371719E+02  0.13191529310E+04  0.13329112590E+04  0.10100000352E+00 0. -1.
       -3    1    3    3    0  502  0.18823029623E+03  0.32516371719E+02 -0.22455572541E+02  0.19233362106E+03  0.10100000352E+00 0.  1.
</event>
<event>
 5   0  0.4385875E-03  0.8394261E+03  0.7818609E-02  0.9504640E-01
       -4   -1    0    0    0  501  0.00000000000E+00  0.00000000000E+00  0.94371438337E+03  0.94371523791E+03  0.12699999809E+01 0. -1.
        4   -1    0    0  501    0  0.00000000000E+00  0.00000000000E+00 -0.18666252992E+03  0.18666685023E+03  0.12699999809E+01 0.  1.
    10030    2    1    2    0    0  0.00000000000E+00  0.00000000000E+00  0.75705185345E+03  0.11303820881E+04  0.83942608751E+03 0.  0.
        4    1    3    3  502    0  0.20564417817E+03  0.14114591330E+03  0.83308657046E+03  0.86962436928E+03  0.12699999809E+01 0. -1.
       -4    1    3    3    0  502 -0.20564417817E+03 -0.14114591330E+03 -0.76034717016E+02  0.26075771887E+03  0.12699999809E+01 0.  1.
</event>
<event>
 5   0  0.6557679E-03  0.7984005E+03  0.7818609E-02  0.9562335E-01
       -1   -1    0    0    0  501  0.00000000000E+00  0.00000000000E+00  0.80653099604E+03  0.80653099606E+03  0.50400001928E-02 0.  1.
        1   -1    0    0  501    0  0.00000000000E+00  0.00000000000E+00 -0.19758800752E+03  0.19758800758E+03  0.50400001928E-02 0. -1.
    10030    2    1    2    0    0  0.00000000000E+00  0.00000000000E+00  0.60894298853E+03  0.10041190036E+04  0.79840053243E+03 0.  0.
        1    1    3    3  502    0  0.22197412705E+03 -0.21602709151E+02 -0.11193026959E+03  0.24953471782E+03  0.50400001928E-02 0. -1.
       -1    1    3    3    0  502 -0.22197412705E+03  0.21602709151E+02  0.72087325811E+03  0.75458428582E+03  0.50400001928E-02 0.  1.
</event>
<event>
 5   0  0.6596225E-03  0.7882629E+03  0.7818609E-02  0.9577163E-01
       -1   -1    0    0    0  501  0.00000000000E+00  0.00000000000E+00  0.17035087829E+03  0.17035087837E+03  0.50400001928E-02 0.  1.
        1   -1    0    0  501    0  0.00000000000E+00  0.00000000000E+00 -0.91188018688E+03  0.91188018690E+03  0.50400001928E-02 0. -1.
    10030    2    1    2    0    0  0.00000000000E+00  0.00000000000E+00 -0.74152930859E+03  0.10822310653E+04  0.78826287692E+03 0.  0.
        5    1    3    3  502    0  0.26049795498E+02  0.38496446844E+03 -0.48095272326E+03  0.61661482776E+03  0.46999998093E+01 0. -1.
       -5    1    3    3    0  502 -0.26049795498E+02 -0.38496446844E+03 -0.26057658533E+03  0.46561623750E+03  0.46999998093E+01 0.  1.
</event>
<event>
 5   0  0.6596225E-03  0.7982572E+03  0.7818609E-02  0.9562543E-01
       -1   -1    0    0    0  501  0.00000000000E+00  0.00000000000E+00  0.17410892982E+03  0.17410892989E+03  0.50400001928E-02 0.  1.
        1   -1    0    0  501    0  0.00000000000E+00  0.00000000000E+00 -0.91496542033E+03  0.91496542035E+03  0.50400001928E-02 0. -1.
    10030    2    1    2    0    0  0.00000000000E+00  0.00000000000E+00 -0.74085649051E+03  0.10890743502E+04  0.79825722723E+03 0.  0.
        5    1    3    3  502    0 -0.25168328124E+03 -0.22410222016E+03 -0.66213424899E+03  0.74297384396E+03  0.46999998093E+01 0. -1.
       -5    1    3    3    0  502  0.25168328124E+03  0.22410222016E+03 -0.78722241528E+02  0.34610050628E+03  0.46999998093E+01 0.  1.
</event>
<event>
 5   0  0.4385875E-03  0.8074953E+03  0.7818609E-02  0.9549231E-01
        3   -1    0    0  501    0  0.00000000000E+00  0.00000000000E+00  0.12520842749E+04  0.12520842790E+04  0.10100000352E+00 0.  1.
       -3   -1    0    0    0  501  0.00000000000E+00  0.00000000000E+00 -0.13019262348E+03  0.13019266265E+03  0.10100000352E+00 0. -1.
    10030    2    1    2    0    0  0.00000000000E+00  0.00000000000E+00  0.11218916514E+04  0.13822769416E+04  0.80749530390E+03 0.  0.
        1    1    3    3  502    0 -0.23514256476E+03  0.15722466504E+03  0.67777096489E+02  0.29086999827E+03  0.50400001928E-02 0. -1.
       -1    1    3    3    0  502  0.23514256476E+03 -0.15722466504E+03  0.10541145549E+04  0.10914069433E+04  0.50400001928E-02 0.  1.
</event>
<event>
 5   0  0.1106332E-02  0.8020166E+03  0.7818609E-02  0.9557103E-01
       -2   -1    0    0    0  501  0.00000000000E+00  0.00000000000E+00  0.36251647137E+03  0.36251647138E+03  0.25500000920E-02 0. -1.
        2   -1    0    0  501    0  0.00000000000E+00  0.00000000000E+00 -0.44358715652E+03  0.44358715653E+03  0.25500000920E-02 0.  1.
    10030    2    1    2    0    0  0.00000000000E+00  0.00000000000E+00 -0.81070685149E+02  0.80610362791E+03  0.80201658520E+03 0.  0.
        1    1    3    3  502    0 -0.65615828154E+02 -0.38253103747E+03  0.60836042618E+02  0.39285678770E+03  0.50400001928E-02 0. -1.
       -1    1    3    3    0  502  0.65615828154E+02  0.38253103747E+03 -0.14190672777E+03  0.41324684021E+03  0.50400001928E-02 0.  1.
</event>
<event>
 5   0  0.1106332E-02  0.7997517E+03  0.7818609E-02  0.9560377E-01
        2   -1    0    0  501    0  0.00000000000E+00  0.00000000000E+00  0.32840197310E+03  0.32840197311E+03  0.25500000920E-02 0.  1.
       -2   -1    0    0    0  501  0.00000000000E+00  0.00000000000E+00 -0.48690540979E+03  0.48690540980E+03  0.25500000920E-02 0. -1.
    10030    2    1    2    0    0  0.00000000000E+00  0.00000000000E+00 -0.15850343669E+03  0.81530738291E+03  0.79975170471E+03 0.  0.
        1    1    3    3  502    0 -0.11905032818E+03 -0.23319238188E+03  0.22886706181E+03  0.34775249764E+03  0.50400001928E-02 0.  1.
       -1    1    3    3    0  502  0.11905032818E+03  0.23319238188E+03 -0.38737049850E+03  0.46755488527E+03  0.50400001928E-02 0. -1.
</event>
<event>
 5   0  0.6551489E-03  0.7988196E+03  0.7818609E-02  0.9561727E-01
       -1   -1    0    0    0  501  0.00000000000E+00  0.00000000000E+00  0.21469415846E+03  0.21469415852E+03  0.50400001928E-02 0.  1.
        1   -1    0    0  501    0  0.00000000000E+00  0.00000000000E+00 -0.74304861283E+03  0.74304861285E+03  0.50400001928E-02 0. -1.
    10030    2    1    2    0    0  0.00000000000E+00  0.00000000000E+00 -0.52835445437E+03  0.95774277137E+03  0.79881962085E+03 0.  0.
        4    1    3    3  502    0 -0.19530127997E+03 -0.33232492181E+03 -0.13875024239E+03  0.40967753939E+03  0.12699999809E+01 0.  1.
       -4    1    3    3    0  502  0.19530127997E+03  0.33232492181E+03 -0.38960421198E+03  0.54806523198E+03  0.12699999809E+01 0. -1.
</event>
<event>
 5   0  0.1121480E-02  0.8164231E+03  0.7818609E-02  0.9536545E-01
       -2   -1    0    0    0  501  0.00000000000E+00  0.00000000000E+00  0.19264273426E+03  0.19264273427E+03  0.25500000920E-02 0.  1.
        2   -1    0    0  501    0  0.00000000000E+00  0.00000000000E+00 -0.86500370465E+03  0.86500370465E+03  0.25500000920E-02 0. -1.
    10030    2    1    2    0    0  0.00000000000E+00  0.00000000000E+00 -0.67236097039E+03  0.10576464389E+04  0.81642312269E+03 0.  0.
        2    1    3    3  502    0  0.32017333172E+03  0.17548159937E+03 -0.57269370014E+03  0.67917805342E+03  0.25500000920E-02 0. -1.
       -2    1    3    3    0  502 -0.32017333172E+03 -0.17548159937E+03 -0.99667270250E+02  0.37846838550E+03  0.25500000920E-02 0.  1.
</event>
<event>
 5   0  0.6596225E-03  0.8002793E+03  0.7818609E-02  0.9559613E-01
       -1   -1    0    0    0  501  0.00000000000E+00  0.00000000000E+00  0.31023277495E+03  0.31023277499E+03  0.50400001928E-02 0.  1.
        1   -1    0    0  501    0  0.00000000000E+00  0.00000000000E+00 -0.51610198065E+03  0.51610198067E+03  0.50400001928E-02 0. -1.
    10030    2    1    2    0    0  0.00000000000E+00  0.00000000000E+00 -0.20586920569E+03  0.82633475566E+03  0.80027932534E+03 0.  0.
        5    1    3    3  502    0  0.88127719552E+02  0.57656353983E+02 -0.50150585152E+03  0.51246556881E+03  0.46999998093E+01 0. -1.
       -5    1    3    3    0  502 -0.88127719552E+02 -0.57656353983E+02  0.29563664582E+03  0.31386918686E+03  0.46999998093E+01 0.  1.
</event>
<event>
 5   0  0.1154714E-02  0.7941056E+03  0.7818609E-02  0.9568588E-01
        2   -1    0    0  501    0  0.00000000000E+00  0.00000000000E+00  0.22563739907E+04  0.22563739907E+04  0.25500000920E-02 0.  1.
       -2   -1    0    0    0  501  0.00000000000E+00  0.00000000000E+00 -0.69869154112E+02  0.69869154158E+02  0.25500000920E-02 0. -1.
    10030    2    1    2    0    0  0.00000000000E+00  0.00000000000E+00  0.21865048366E+04  0.23262431449E+04  0.79410564070E+03 0.  0.
        5    1    3    3  502    0  0.38386632110E+03  0.48397273351E+02  0.13541686670E+04  0.14083644830E+04  0.46999998093E+01 0.  1.
       -5    1    3    3    0  502 -0.38386632110E+03 -0.48397273351E+02  0.83233616965E+03  0.91787866183E+03  0.46999998093E+01 0. -1.
</event>
<event>
 5   0  0.1154714E-02  0.7989883E+03  0.7818609E-02  0.9561483E-01
        2   -1    0    0  501    0  0.00000000000E+00  0.00000000000E+00  0.12328760012E+04  0.12328760012E+04  0.25500000920E-02 0. -1.
       -2   -1    0    0    0  501  0.00000000000E+00  0.00000000000E+00 -0.12944981388E+03  0.12944981390E+03  0.25500000920E-02 0.  1.
    10030    2    1    2    0    0  0.00000000000E+00  0.00000000000E+00  0.11034261873E+04  0.13623258151E+04  0.79898828252E+03 0.  0.
        5    1    3    3  502    0  0.24136506457E+02  0.30816281491E+03  0.98315343763E+03  0.10306113057E+04  0.46999998093E+01 0. -1.
       -5    1    3    3    0  502 -0.24136506457E+02 -0.30816281491E+03  0.12027274965E+03  0.33171450940E+03  0.46999998093E+01 0.  1.
</event>
<event>
 5   0  0.6557679E-03  0.7971363E+03  0.7818609E-02  0.9564171E-01
        1   -1    0    0  501    0  0.00000000000E+00  0.00000000000E+00  0.29361255470E+03  0.29361255475E+03  0.50400001928E-02 0. -1.
       -1   -1    0    0    0  501  0.00000000000E+00  0.00000000000E+00 -0.54104149817E+03  0.54104149819E+03  0.50400001928E-02 0.  1.
    10030    2    1    2    0    0  0.00000000000E+00  0.00000000000E+00 -0.24742894347E+03  0.83465405294E+03  0.79713631584E+03 0.  0.
        1    1    3    3  502    0 -0.28585706461E+03  0.17618798206E+03  0.10110032535E+03  0.35068182476E+03  0.50400001928E-02 0. -1.
       -1    1    3    3    0  502  0.28585706461E+03 -0.17618798206E+03 -0.34852926881E+03  0.48397222818E+03  0.50400001928E-02 0.  1.
</event>
<event>
 5   0  0.6551489E-03  0.7976789E+03  0.7818609E-02  0.9563383E-01
       -1   -1    0    0    0  501  0.00000000000E+00  0.00000000000E+00  0.34116308521E+03  0.34116308524E+03  0.50400001928E-02 0. -1.
        1   -1    0    0  501    0  0.00000000000E+00  0.00000000000E+00 -0.46626647308E+03  0.46626647311E+03  0.50400001928E-02 0.  1.
    10030    2    1    2    0    0  0.00000000000E+00  0.00000000000E+00 -0.12510338787E+03  0.80742955835E+03  0.79767890410E+03 0.  0.
        4    1    3    3  502    0 -0.71046071340E+01 -0.42537205083E+02  0.33879395936E+03  0.34153015834E+03  0.12699999809E+01 0. -1.
       -4    1    3    3    0  502  0.71046071340E+01  0.42537205083E+02 -0.46389734723E+03  0.46589940001E+03  0.12699999809E+01 0.  1.
</event>
<event>
 5   0  0.1092868E-02  0.7938609E+03  0.7818609E-02  0.9568946E-01
       -2   -1    0    0    0  501  0.00000000000E+00  0.00000000000E+00  0.13429292009E+03  0.13429292012E+03  0.25500000920E-02 0.  1.
        2   -1    0    0  501    0  0.00000000000E+00  0.00000000000E+00 -0.11732098088E+04  0.11732098088E+04  0.25500000920E-02 0. -1.
    10030    2    1    2    0    0  0.00000000000E+00  0.00000000000E+00 -0.10389168887E+04  0.13075027290E+04  0.79386087226E+03 0.  0.
        3    1    3    3  502    0  0.30118425651E+03 -0.25337822824E+03 -0.43481267340E+03  0.58649343907E+03  0.10100000352E+00 0.  1.
       -3    1    3    3    0  502 -0.30118425651E+03  0.25337822824E+03 -0.60410421534E+03  0.72100928989E+03  0.10100000352E+00 0. -1.
</event>
<event>
 5   0  0.1106332E-02  0.8039683E+03  0.7818609E-02  0.9554291E-01
       -2   -1    0    0    0  501  0.00000000000E+00  0.00000000000E+00  0.92142276601E+03  0.92142276601E+03  0.25500000920E-02 0. -1.
        2   -1    0    0  501    0  0.00000000000E+00  0.00000000000E+00 -0.17537144941E+03  0.17537144943E+03  0.25500000920E-02 0.  1.
    10030    2    1    2    0    0  0.00000000000E+00  0.00000000000E+00  0.74605131660E+03  0.10967942154E+04  0.80396827301E+03 0.  0.
        1    1    3    3  502    0  0.17157182899E+03 -0.20774689662E+03 -0.33951898884E+02  0.27156656094E+03  0.50400001928E-02 0.  1.
       -1    1    3    3    0  502 -0.17157182899E+03  0.20774689662E+03  0.78000321548E+03  0.82522765450E+03  0.50400001928E-02 0. -1.
</event>
<event>
 5   0  0.1154714E-02  0.8014020E+03  0.7818609E-02  0.9557990E-01
        2   -1    0    0  501    0  0.00000000000E+00  0.00000000000E+00  0.12106448932E+03  0.12106448934E+03  0.25500000920E-02 0. -1.
       -2   -1    0    0    0  501  0.00000000000E+00  0.00000000000E+00 -0.13262458818E+04  0.13262458818E+04  0.25500000920E-02 0.  1.
    10030    2    1    2    0    0  0.00000000000E+00  0.00000000000E+00 -0.12051813925E+04  0.14473103712E+04  0.80140197258E+03 0.  0.
        5    1    3    3  502    0  0.35604719220E+03  0.18328437817E+03 -0.62657848275E+03  0.74362991562E+03  0.46999998093E+01 0.  1.
       -5    1    3    3    0  502 -0.35604719220E+03 -0.18328437817E+03 -0.57860290975E+03  0.70368045555E+03  0.46999998093E+01 0. -1.
</event>
<event>
 5   0  0.4385875E-03  0.7943532E+03  0.7818609E-02  0.9568227E-01
        4   -1    0    0  501    0  0.00000000000E+00  0.00000000000E+00  0.95773079792E+03  0.95773163996E+03  0.12699999809E+01 0. -1.
       -4   -1    0    0    0  501  0.00000000000E+00  0.00000000000E+00 -0.16470809272E+03  0.16471298888E+03  0.12699999809E+01 0.  1.
    10030    2    1    2    0    0  0.00000000000E+00  0.00000000000E+00  0.79302270520E+03  0.11224446288E+04  0.79435315438E+03 0.  0.
        4    1    3    3  502    0  0.29418268730E+03  0.15810512326E+03  0.92769321855E+02  0.34662435501E+03  0.12699999809E+01 0.  1.
       -4    1    3    3    0  502 -0.29418268730E+03 -0.15810512326E+03  0.70025338335E+03  0.77582027384E+03  0.12699999809E+01 0. -1.
</event>
<event>
 5   0  0.1092868E-02  0.8077506E+03  0.7818609E-02  0.9548866E-01
        2   -1    0    0  501    0  0.00000000000E+00  0.00000000000E+00  0.79503776397E+03  0.79503776397E+03  0.25500000920E-02 0.  1.
       -2   -1    0    0    0  501  0.00000000000E+00  0.00000000000E+00 -0.20516669475E+03  0.20516669477E+03  0.25500000920E-02 0. -1.
    10030    2    1    2    0    0  0.00000000000E+00  0.00000000000E+00  0.58987106922E+03  0.10002044587E+04  0.80775063044E+03 0.  0.
        3    1    3    3  502    0  0.36424429193E+03  0.17369396692E+03  0.27452259240E+03  0.48806368671E+03  0.10100000352E+00 0. -1.
       -3    1    3    3    0  502 -0.36424429193E+03 -0.17369396692E+03  0.31534847681E+03  0.51214077203E+03  0.10100000352E+00 0.  1.
</event>
<event>
 5   0  0.1119792E-02  0.7995994E+03  0.7818609E-02  0.9560597E-01
       -2   -1    0    0    0  501  0.00000000000E+00  0.00000000000E+00  0.23537045346E+03  0.23537045347E+03  0.25500000920E-02 0. -1.
        2   -1    0    0  501    0  0.00000000000E+00  0.00000000000E+00 -0.67909883919E+03  0.67909883920E+03  0.25500000920E-02 0.  1.
    10030    2    1    2    0    0  0.00000000000E+00  0.00000000000E+00 -0.44372838574E+03  0.91446929267E+03  0.79959940403E+03 0.  0.
        4    1    3    3  502    0  0.13367775192E+03 -0.36605639500E+03 -0.32397166258E+03  0.50678030420E+03  0.12699999809E+01 0.  1.
       -4    1    3    3    0  502 -0.13367775192E+03  0.36605639500E+03 -0.11975672316E+03  0.40768898847E+03  0.12699999809E+01 0. -1.
</event>
<event>
 5   0  0.6596225E-03  0.7982990E+03  0.7818609E-02  0.9562483E-01
        1   -1    0    0  501    0  0.00000000000E+00  0.00000000000E+00  0.98179502778E+03  0.98179502779E+03  0.50400001928E-02 0. -1.
       -1   -1    0    0    0  501  0.00000000000E+00  0.00000000000E+00 -0.16227451246E+03  0.16227451253E+03  0.50400001928E-02 0.  1.
    10030    2    1    2    0    0  0.00000000000E+00  0.00000000000E+00  0.81952051533E+03  0.11440695403E+04  0.79829896534E+03 0.  0.
        5    1    3    3  502    0  0.31336022500E+03  0.18426504500E+03  0.17361913127E+03  0.40288203008E+03  0.46999998093E+01 0.  1.
       -5    1    3    3    0  502 -0.31336022500E+03 -0.18426504500E+03  0.64590138406E+03  0.74118751025E+03  0.46999998093E+01 0. -1.
</event>
<event>
 5   0  0.1092868E-02  0.7922609E+03  0.7818609E-02  0.9571287E-01
        2   -1    0    0  501    0  0.00000000000E+00  0.00000000000E+00  0.11575870709E+04  0.11575870709E+04  0.25500000920E-02 0.  1.
       -2   -1    0    0    0  501  0.00000000000E+00  0.00000000000E+00 -0.13555726733E+03  0.13555726736E+03  0.25500000920E-02 0. -1.
    10030    2    1    2    0    0  0.00000000000E+00  0.00000000000E+00  0.10220298036E+04  0.12931443383E+04  0.79226091675E+03 0.  0.
        3    1    3    3  502    0  0.72925490456E+02 -0.25269514467E+03  0.27518394049E+02  0.26444325575E+03  0.10100000352E+00 0. -1.
       -3    1    3    3    0  502 -0.72925490456E+02  0.25269514467E+03  0.99451140954E+03  0.10287010825E+04  0.10100000352E+00 0.  1.
</event>
<event>
 5   0  0.1119792E-02  0.7984248E+03  0.7818609E-02  0.9562300E-01
       -2   -1    0    0    0  501  0.00000000000E+00  0.00000000000E+00  0.10330631760E+03  0.10330631763E+03  0.25500000920E-02 0.  1.
        2   -1    0    0  501    0  0.00000000000E+00  0.00000000000E+00 -0.15426986899E+04  0.15426986899E+04  0.25500000920E-02 0. -1.
    10030    2    1    2    0    0  0.00000000000E+00  0.00000000000E+00 -0.14393923723E+04  0.16460050075E+04  0.79842475124E+03 0.  0.
        4    1    3    3  502    0  0.19052065554E+03  0.50668348015E+02 -0.40522391924E+01  0.19718883138E+03  0.12699999809E+01 0.  1.
       -4    1    3    3    0  502 -0.19052065554E+03 -0.50668348015E+02 -0.14353401331E+04  0.14488161761E+04  0.12699999809E+01 0. -1.
</event>
<event>
 5   0  0.1106332E-02  0.8021550E+03  0.7818609E-02  0.9556903E-01
       -2   -1    0    0    0  501  0.00000000000E+00  0.00000000000E+00  0.17887022368E+03  0.17887022370E+03  0.25500000920E-02 0. -1.
        2   -1    0    0  501    0  0.00000000000E+00  0.00000000000E+00 -0.89932896145E+03  0.89932896145E+03  0.25500000920E-02 0.  1.
    10030    2    1    2    0    0  0.00000000000E+00  0.00000000000E+00 -0.72045873777E+03  0.10781991852E+04  0.80215502868E+03 0.  0.
        1    1    3    3  502    0 -0.23162810374E+03  0.29193252658E+03 -0.55953685779E+03  0.67227797359E+03  0.50400001928E-02 0.  1.
       -1    1    3    3    0  502  0.23162810374E+03 -0.29193252658E+03 -0.16092187998E+03  0.40592121157E+03  0.50400001928E-02 0. -1.
</event>
<event>
 5   0  0.6551489E-03  0.8041861E+03  0.7818609E-02  0.9553978E-01
       -1   -1    0    0    0  501  0.00000000000E+00  0.00000000000E+00  0.15188250865E+04  0.15188250865E+04  0.50400001928E-02 0.  1.
        1   -1    0    0  501    0  0.00000000000E+00  0.00000000000E+00 -0.10644991748E+03  0.10644991760E+03  0.50400001928E-02 0. -1.
    10030    2    1    2    0    0  0.00000000000E+00  0.00000000000E+00  0.14123751690E+04  0.16252750041E+04  0.80418606115E+03 0.  0.
        4    1    3    3  502    0  0.38236464806E+03  0.11335132221E+03  0.60262253657E+03  0.72263876233E+03  0.12699999809E+01 0.  1.
       -4    1    3    3    0  502 -0.38236464806E+03 -0.11335132221E+03  0.80975263247E+03  0.90263624180E+03  0.12699999809E+01 0. -1.
</event>
<event>
 5   0  0.1092868E-02  0.7738471E+03  0.7818609E-02  0.9598663E-01
        2   -1    0    0  501    0  0.00000000000E+00  0.00000000000E+00  0.13866230522E+04  0.13866230522E+04  0.25500000920E-02 0. -1.
       -2   -1    0    0    0  501  0.00000000000E+00  0.00000000000E+00 -0.10796722235E+03  0.10796722238E+03  0.25500000920E-02 0.  1.
    10030    2    1    2    0    0  0.00000000000E+00  0.00000000000E+00  0.12786558298E+04  0.14945902746E+04  0.77384711516E+03 0.  0.
        3    1    3    3  502    0  0.26283146539E+03  0.15378340896E+03  0.17829849767E+03  0.35287402928E+03  0.10100000352E+00 0.  1.
       -3    1    3    3    0  502 -0.26283146539E+03 -0.15378340896E+03  0.11003573322E+04  0.11417162453E+04  0.10100000352E+00 0. -1.
</event>
<event>
 5   0  0.1154714E-02  0.8087769E+03  0.7818609E-02  0.9547399E-01
        2   -1    0    0  501    0  0.00000000000E+00  0.00000000000E+00  0.59184023388E+03  0.59184023388E+03  0.25500000920E-02 0. -1.
       -2   -1    0    0    0  501  0.00000000000E+00  0.00000000000E+00 -0.27630768576E+03  0.27630768578E+03  0.25500000920E-02 0.  1.
    10030    2    1    2    0    0  0.00000000000E+00  0.00000000000E+00  0.31553254811E+03  0.86814791966E+03  0.80877686755E+03 0.  0.
        5    1    3    3  502    0 -0.35068116316E+03 -0.20079725719E+03  0.17336207816E+03  0.43974233004E+03  0.46999998093E+01 0. -1.
       -5    1    3    3    0  502  0.35068116316E+03  0.20079725719E+03  0.14217046995E+03  0.42840558961E+03  0.46999998093E+01 0.  1.
</event>
<event>
 5   0  0.6517392E-03  0.7965196E+03  0.7818609E-02  0.9565069E-01
        1   -1    0    0  501    0  0.00000000000E+00  0.00000000000E+00  0.12543279237E+04  0.12543279237E+04  0.50400001928E-02 0. -1.
       -1   -1    0    0    0  501  0.00000000000E+00  0.00000000000E+00 -0.12645086485E+03  0.12645086495E+03  0.50400001928E-02 0.  1.
    10030    2    1    2    0    0  0.00000000000E+00  0.00000000000E+00  0.11278770588E+04  0.13807787886E+04  0.79651955615E+03 0.  0.
        3    1    3    3  502    0  0.35114753948E+03 -0.62866304149E+02  0.25698357118E+03  0.43965592540E+03  0.10100000352E+00 0.  1.
       -3    1    3    3    0  502 -0.35114753948E+03  0.62866304149E+02  0.87089348765E+03  0.94112286324E+03  0.10100000352E+00 0. -1.
</event>
<event>
 5   0  0.4385875E-03  0.8016122E+03  0.7818609E-02  0.9557686E-01
       -3   -1    0    0    0  501  0.00000000000E+00  0.00000000000E+00  0.47592464240E+03  0.47592465311E+03  0.10100000352E+00 0. -1.
        3   -1    0    0  501    0  0.00000000000E+00  0.00000000000E+00 -0.33754402421E+03  0.33754403932E+03  0.10100000352E+00 0.  1.
    10030    2    1    2    0    0  0.00000000000E+00  0.00000000000E+00  0.13838061819E+03  0.81346869243E+03  0.80161219931E+03 0.  0.
        4    1    3    3  502    0 -0.21465985954E+03 -0.32535949747E+03  0.16387773489E+03  0.42284179404E+03  0.12699999809E+01 0. -1.
       -4    1    3    3    0  502  0.21465985954E+03  0.32535949747E+03 -0.25497116701E+02  0.39062689840E+03  0.12699999809E+01 0.  1.
</event>
<event>
 5   0  0.6551489E-03  0.8033618E+03  0.7818609E-02  0.9555164E-01
       -1   -1    0    0    0  501  0.00000000000E+00  0.00000000000E+00  0.89281980764E+03  0.89281980765E+03  0.50400001928E-02 0. -1.
        1   -1    0    0  501    0  0.00000000000E+00  0.00000000000E+00 -0.18071680384E+03  0.18071680391E+03  0.50400001928E-02 0.  1.
    10030    2    1    2    0    0  0.00000000000E+00  0.00000000000E+00  0.71210300380E+03  0.10735366116E+04  0.80336179169E+03 0.  0.
        4    1    3    3  502    0 -0.34547290672E+03  0.36874151478E+02  0.62542458658E+03  0.71545003930E+03  0.12699999809E+01 0. -1.
       -4    1    3    3    0  502  0.34547290672E+03 -0.36874151478E+02  0.86678417217E+02  0.35808657227E+03  0.12699999809E+01 0.  1.
</event>
<event>
 5   0  0.1119792E-02  0.8027974E+03  0.7818609E-02  0.9555977E-01
        2   -1    0    0  501    0  0.00000000000E+00  0.00000000000E+00  0.79299593828E+03  0.79299593829E+03  0.25500000920E-02 0.  1.
       -2   -1    0    0    0  501  0.00000000000E+00  0.00000000000E+00 -0.20317998894E+03  0.20317998896E+03  0.25500000920E-02 0. -1.
    10030    2    1    2    0    0  0.00000000000E+00  0.00000000000E+00  0.58981594934E+03  0.99617592725E+03  0.80279737414E+03 0.  0.
        4    1    3    3  502    0  0.58298919019E+02 -0.91088148624E+02 -0.18475867113E+03  0.21408688478E+03  0.12699999809E+01 0. -1.
       -4    1    3    3    0  502 -0.58298919019E+02  0.91088148624E+02  0.77457462047E+03  0.78208904247E+03  0.12699999809E+01 0.  1.
</event>
<event>
 5   0  0.6517392E-03  0.8631821E+03  0.7818609E-02  0.9472813E-01
       -1   -1    0    0    0  501  0.00000000000E+00  0.00000000000E+00  0.12338750245E+03  0.12338750255E+03  0.50400001928E-02 0.  1.
        1   -1    0    0  501    0  0.00000000000E+00  0.00000000000E+00 -0.15096408929E+04  0.15096408929E+04  0.50400001928E-02 0. -1.
    10030    2    1    2    0    0  0.00000000000E+00  0.00000000000E+00 -0.13862533904E+04  0.16330283954E+04  0.86318206528E+03 0.  0.
        3    1    3    3  502    0  0.18353733515E+03 -0.13164673639E+03 -0.13888977786E+04  0.14071438683E+04  0.10100000352E+00 0. -1.
       -3    1    3    3    0  502 -0.18353733515E+03  0.13164673639E+03  0.26443881732E+01  0.22588452710E+03  0.10100000352E+00 0.  1.
</event>
<event>
 5   0  0.1154714E-02  0.7959331E+03  0.7818609E-02  0.9565922E-01
        2   -1    0    0  501    0  0.00000000000E+00  0.00000000000E+00  0.14547581032E+04  0.14547581032E+04  0.25500000920E-02 0.  1.
       -2   -1    0    0    0  501  0.00000000000E+00  0.00000000000E+00 -0.10886854195E+03  0.10886854198E+03  0.25500000920E-02 0. -1.
    10030    2    1    2    0    0  0.00000000000E+00  0.00000000000E+00  0.13458895612E+04  0.15636266451E+04  0.79593314696E+03 0.  0.
        5    1    3    3  502    0 -0.93297681742E+02 -0.67263760286E+02 -0.75448244260E+02  0.13763501890E+03  0.46999998093E+01 0. -1.
       -5    1    3    3    0  502  0.93297681742E+02  0.67263760286E+02  0.14213378055E+04  0.14259916262E+04  0.46999998093E+01 0.  1.
</event>
<event>
 5   0  0.1121480E-02  0.7994198E+03  0.7818609E-02  0.9560857E-01
        2   -1    0    0  501    0  0.00000000000E+00  0.00000000000E+00  0.14544590953E+03  0.14544590955E+03  0.25500000920E-02 0. -1.
       -2   -1    0    0    0  501  0.00000000000E+00  0.00000000000E+00 -0.10984702447E+04  0.10984702447E+04  0.25500000920E-02 0.  1.
    10030    2    1    2    0    0  0.00000000000E+00  0.00000000000E+00 -0.95302433519E+03  0.12439161543E+04  0.79941979923E+03 0.  0.
        2    1    3    3  502    0  0.25393327472E+03 -0.71256856431E+02 -0.94385931080E+03  0.98001532957E+03  0.25500000920E-02 0.  1.
       -2    1    3    3    0  502 -0.25393327472E+03  0.71256856431E+02 -0.91650243881E+01  0.26390082470E+03  0.25500000920E-02 0. -1.
</event>
<event>
 5   0  0.1154714E-02  0.7996910E+03  0.7818609E-02  0.9560465E-01
        2   -1    0    0  501    0  0.00000000000E+00  0.00000000000E+00  0.28227884298E+03  0.28227884299E+03  0.25500000920E-02 0.  1.
       -2   -1    0    0    0  501  0.00000000000E+00  0.00000000000E+00 -0.56637759448E+03  0.56637759449E+03  0.25500000920E-02 0. -1.
    10030    2    1    2    0    0  0.00000000000E+00  0.00000000000E+00 -0.28409875150E+03  0.84865643748E+03  0.79969097049E+03 0.  0.
        5    1    3    3  502    0  0.97487985219E+02  0.15936782576E+03 -0.51717943347E+03  0.54990787187E+03  0.46999998093E+01 0. -1.
       -5    1    3    3    0  502 -0.97487985219E+02 -0.15936782576E+03  0.23308068197E+03  0.29874856561E+03  0.46999998093E+01 0.  1.
</event>
<event>
 5   0  0.6517392E-03  0.8022294E+03  0.7818609E-02  0.9556796E-01
        1   -1    0    0  501    0  0.00000000000E+00  0.00000000000E+00  0.26498270914E+03  0.26498270919E+03  0.50400001928E-02 0.  1.
       -1   -1    0    0    0  501  0.00000000000E+00  0.00000000000E+00 -0.60718299048E+03  0.60718299050E+03  0.50400001928E-02 0. -1.
    10030    2    1    2    0    0  0.00000000000E+00  0.00000000000E+00 -0.34220028134E+03  0.87216569969E+03  0.80222937815E+03 0.  0.
        3    1    3    3  502    0 -0.43844193704E+02 -0.23710293521E+03 -0.51959583590E+03  0.57281756092E+03  0.10100000352E+00 0. -1.
       -3    1    3    3    0  502  0.43844193704E+02  0.23710293521E+03  0.17739555457E+03  0.29934813877E+03  0.10100000352E+00 0.  1.
</event>
<event>
 5   0  0.6600401E-03  0.8111741E+03  0.7818609E-02  0.9543982E-01
        1   -1    0    0  501    0  0.00000000000E+00  0.00000000000E+00  0.65298584361E+03  0.65298584363E+03  0.50400001928E-02 0. -1.
       -1   -1    0    0    0  501  0.00000000000E+00  0.00000000000E+00 -0.25192102157E+03  0.25192102162E+03  0.50400001928E-02 0.  1.
    10030    2    1    2    0    0  0.00000000000E+00  0.00000000000E+00  0.40106482204E+03  0.90490686524E+03  0.81117411404E+03 0.  0.
        2    1    3    3  502    0  0.30356063240E+03 -0.22041442646E+03  0.28544528851E+02  0.37622648375E+03  0.25500000920E-02 0.  1.
       -2    1    3    3    0  502 -0.30356063240E+03  0.22041442646E+03  0.37252029319E+03  0.52868038150E+03  0.25500000920E-02 0. -1.
</event>
<event>
 5   0  0.1092868E-02  0.7975620E+03  0.7818609E-02  0.9563553E-01
       -2   -1    0    0    0  501  0.00000000000E+00  0.00000000000E+00  0.12019940521E+03  0.12019940524E+03  0.25500000920E-02 0. -1.
        2   -1    0    0  501    0  0.00000000000E+00  0.00000000000E+00 -0.13230204180E+04  0.13230204180E+04  0.25500000920E-02 0.  1.
    10030    2    1    2    0    0  0.00000000000E+00  0.00000000000E+00 -0.12028210128E+04  0.14432198233E+04  0.79756195333E+03 0.  0.
        3    1    3    3  502    0 -0.19182261709E+03  0.26954365567E+03 -0.10043188347E+04  0.10574053294E+04  0.10100000352E+00 0.  1.
       -3    1    3    3    0  502  0.19182261709E+03 -0.26954365567E+03 -0.19850217808E+03  0.38581449382E+03  0.10100000352E+00 0. -1.
</event>
<event>
 5   0  0.6600401E-03  0.8125106E+03  0.7818609E-02  0.9542083E-01
       -1   -1    0    0    0  501  0.00000000000E+00  0.00000000000E+00  0.34101795209E+03  0.34101795213E+03  0.50400001928E-02 0. -1.
        1   -1    0    0  501    0  0.00000000000E+00  0.00000000000E+00 -0.48397271975E+03  0.48397271978E+03  0.50400001928E-02 0.  1.
    10030    2    1    2    0    0  0.00000000000E+00  0.00000000000E+00 -0.14295476766E+03  0.82499067191E+03  0.81251064187E+03 0.  0.
        2    1    3    3  502    0  0.13140480083E+03 -0.10962470139E+03 -0.44559110584E+03  0.47732193585E+03  0.25500000920E-02 0.  1.
       -2    1    3    3    0  502 -0.13140480083E+03  0.10962470139E+03  0.30263633818E+03  0.34766873606E+03  0.25500000920E-02 0. -1.
</event>
<event>
 5   0  0.1119792E-02  0.7985145E+03  0.7818609E-02  0.9562170E-01
       -2   -1    0    0    0  501  0.00000000000E+00  0.00000000000E+00  0.15146941523E+03  0.15146941525E+03  0.25500000920E-02 0. -1.
        2   -1    0    0  501    0  0.00000000000E+00  0.00000000000E+00 -0.10523996773E+04  0.10523996773E+04  0.25500000920E-02 0.  1.
    10030    2    1    2    0    0  0.00000000000E+00  0.00000000000E+00 -0.90093026204E+03  0.12038690925E+04  0.79851453016E+03 0.  0.
        4    1    3    3  502    0 -0.11201336674E+03 -0.79467242405E+02 -0.10156631218E+04  0.10249074236E+04  0.12699999809E+01 0.  1.
       -4    1    3    3    0  502  0.11201336674E+03  0.79467242405E+02  0.11473285978E+03  0.17896166896E+03  0.12699999809E+01 0. -1.
</event>
<event>
 5   0  0.6551489E-03  0.7989444E+03  0.7818609E-02  0.9561546E-01
        1   -1    0    0  501    0  0.00000000000E+00  0.00000000000E+00  0.24948126609E+03  0.24948126614E+03  0.50400001928E-02 0.  1.
       -1   -1    0    0    0  501  0.00000000000E+00  0.00000000000E+00 -0.63963939717E+03  0.63963939719E+03  0.50400001928E-02 0. -1.
    10030    2    1    2    0    0  0.00000000000E+00  0.00000000000E+00 -0.39015813108E+03  0.88912066332E+03  0.79894442028E+03 0.  0.
        4    1    3    3  502    0 -0.10032028561E+03  0.37569738923E+03 -0.29685487088E+03  0.48922092683E+03  0.12699999809E+01 0. -1.
       -4    1    3    3    0  502  0.10032028561E+03 -0.37569738923E+03 -0.93303260198E+02  0.39989973649E+03  0.12699999809E+01 0.  1.
</event>
<event>
 5   0  0.6557679E-03  0.8024516E+03  0.7818609E-02  0.9556475E-01
        1   -1    0    0  501    0  0.00000000000E+00  0.00000000000E+00  0.12717742650E+03  0.12717742660E+03  0.50400001928E-02 0. -1.
       -1   -1    0    0    0  501  0.00000000000E+00  0.00000000000E+00 -0.12658074614E+04  0.12658074614E+04  0.50400001928E-02 0.  1.
    10030    2    1    2    0    0  0.00000000000E+00  0.00000000000E+00 -0.11386300349E+04  0.13929848880E+04  0.80245158224E+03 0.  0.
        1    1    3    3  502    0 -0.13056294718E+03  0.32598560924E+03 -0.90622870925E+03  0.97188670848E+03  0.50400001928E-02 0. -1.
       -1    1    3    3    0  502  0.13056294718E+03 -0.32598560924E+03 -0.23240132562E+03  0.42109817951E+03  0.50400001928E-02 0.  1.
</event>
<event>
 5   0  0.6596225E-03  0.7992079E+03  0.7818609E-02  0.9561164E-01
       -1   -1    0    0    0  501  0.00000000000E+00  0.00000000000E+00  0.37557505474E+03  0.37557505477E+03  0.50400001928E-02 0. -1.
        1   -1    0    0  501    0  0.00000000000E+00  0.00000000000E+00 -0.42517018712E+03  0.42517018715E+03  0.50400001928E-02 0.  1.
    10030    2    1    2    0    0  0.00000000000E+00  0.00000000000E+00 -0.49595132375E+02  0.80074524192E+03  0.79920789867E+03 0.  0.
        5    1    3    3  502    0 -0.25751016480E+03  0.23105171429E+02  0.28044547486E+03  0.38146702123E+03  0.46999998093E+01 0. -1.
       -5    1    3    3    0  502  0.25751016480E+03 -0.23105171429E+02 -0.33004060723E+03  0.41927822069E+03  0.46999998093E+01 0.  1.
</event>
<event>
 5   0  0.6517392E-03  0.8061207E+03  0.7818609E-02  0.9551200E-01
       -1   -1    0    0    0  501  0.00000000000E+00  0.00000000000E+00  0.14168329655E+03  0.14168329664E+03  0.50400001928E-02 0.  1.
        1   -1    0    0  501    0  0.00000000000E+00  0.00000000000E+00 -0.11466251286E+04  0.11466251286E+04  0.50400001928E-02 0. -1.
    10030    2    1    2    0    0  0.00000000000E+00  0.00000000000E+00 -0.10049418321E+04  0.12883084253E+04  0.80612065646E+03 0.  0.
        3    1    3    3  502    0 -0.33674915483E+03 -0.20763531536E+03 -0.62569711460E+03  0.74027650704E+03  0.10100000352E+00 0. -1.
       -3    1    3    3    0  502  0.33674915483E+03  0.20763531536E+03 -0.37924471747E+03  0.54803191822E+03  0.10100000352E+00 0.  1.
</event>
<event>
 5   0  0.1121480E-02  0.8009617E+03  0.7818609E-02  0.9558626E-01
        2   -1    0    0  501    0  0.00000000000E+00  0.00000000000E+00  0.11813759295E+04  0.11813759295E+04  0.25500000920E-02 0. -1.
       -2   -1    0    0    0  501  0.00000000000E+00  0.00000000000E+00 -0.13576111135E+03  0.13576111138E+03  0.25500000920E-02 0.  1.
    10030    2    1    2    0    0  0.00000000000E+00  0.00000000000E+00  0.10456148181E+04  0.13171370409E+04  0.80096169479E+03 0.  0.
        2    1    3    3  502    0 -0.34454197828E+03  0.69309623075E+02  0.20704019407E+03  0.40789537949E+03  0.25500000920E-02 0.  1.
       -2    1    3    3    0  502  0.34454197828E+03 -0.69309623075E+02  0.83857462407E+03  0.90924166138E+03  0.25500000920E-02 0. -1.
</event>
<event>
 5   0  0.6551489E-03  0.7958666E+03  0.7818609E-02  0.9566019E-01
       -1   -1    0    0    0  501  0.00000000000E+00  0.00000000000E+00  0.81503297243E+03  0.81503297245E+03  0.50400001928E-02 0. -1.
        1   -1    0    0  501    0  0.00000000000E+00  0.00000000000E+00 -0.19428772104E+03  0.19428772111E+03  0.50400001928E-02 0.  1.
    10030    2    1    2    0    0  0.00000000000E+00  0.00000000000E+00  0.62074525139E+03  0.10093206936E+04  0.79586656879E+03 0.  0.
        4    1    3    3  502    0 -0.11919412927E+03  0.11894247123E+03  0.76762060535E+03  0.78587375485E+03  0.12699999809E+01 0. -1.
       -4    1    3    3    0  502  0.11919412927E+03 -0.11894247123E+03 -0.14687535396E+03  0.22344693870E+03  0.12699999809E+01 0.  1.
</event>
<event>
 5   0  0.1154714E-02  0.8055326E+03  0.7818609E-02  0.9552043E-01
       -2   -1    0    0    0  501  0.00000000000E+00  0.00000000000E+00  0.28405234071E+03  0.28405234072E+03  0.25500000920E-02 0. -1.
        2   -1    0    0  501    0  0.00000000000E+00  0.00000000000E+00 -0.57109431231E+03  0.57109431232E+03  0.25500000920E-02 0.  1.
    10030    2    1    2    0    0  0.00000000000E+00  0.00000000000E+00 -0.28704197160E+03  0.85514665304E+03  0.80553255971E+03 0.  0.
        5    1    3    3  502    0 -0.32170537347E+03 -0.75066859709E+02  0.10103527957E+03  0.34548458498E+03  0.46999998093E+01 0. -1.
       -5    1    3    3    0  502  0.32170537347E+03  0.75066859709E+02 -0.38807725117E+03  0.50966206806E+03  0.46999998093E+01 0.  1.
</event>
<event>
 5   0  0.4385875E-03  0.8007881E+03  0.7818609E-02  0.9558877E-01
       -3   -1    0    0    0  501  0.00000000000E+00  0.00000000000E+00  0.19492022069E+03  0.19492024685E+03  0.10100000352E+00 0. -1.
        3   -1    0    0  501    0  0.00000000000E+00  0.00000000000E+00 -0.82246657002E+03  0.82246657622E+03  0.10100000352E+00 0.  1.
    10030    2    1    2    0    0  0.00000000000E+00  0.00000000000E+00 -0.62754634934E+03  0.10173868231E+04  0.80078806635E+03 0.  0.
        4    1    3    3  502    0 -0.21982995922E+03  0.22008387960E+02  0.11046926072E+03  0.24701143815E+03  0.12699999809E+01 0. -1.
       -4    1    3    3    0  502  0.21982995922E+03 -0.22008387960E+02 -0.73801561006E+03  0.77037538493E+03  0.12699999809E+01 0.  1.
</event>
<event>
 5   0  0.1119792E-02  0.8055947E+03  0.7818609E-02  0.9551954E-01
        2   -1    0    0  501    0  0.00000000000E+00  0.00000000000E+00  0.91642083305E+03  0.91642083305E+03  0.25500000920E-02 0.  1.
       -2   -1    0    0    0  501  0.00000000000E+00  0.00000000000E+00 -0.17704281309E+03  0.17704281311E+03  0.25500000920E-02 0. -1.
    10030    2    1    2    0    0  0.00000000000E+00  0.00000000000E+00  0.73937801996E+03  0.10934636462E+04  0.80559474245E+03 0.  0.
        4    1    3    3  502    0 -0.23044007364E+03 -0.19848508949E+03  0.11225679673E+02  0.30434616323E+03  0.12699999809E+01 0. -1.
       -4    1    3    3    0  502  0.23044007364E+03  0.19848508949E+03  0.72815234029E+03  0.78911748292E+03  0.12699999809E+01 0.  1.
</event>
<event>
 5   0  0.6557679E-03  0.7825857E+03  0.7818609E-02  0.9585571E-01
        1   -1    0    0  501    0  0.00000000000E+00  0.00000000000E+00  0.59629905498E+03  0.59629905501E+03  0.50400001928E-02 0. -1.
       -1   -1    0    0    0  501  0.00000000000E+00  0.00000000000E+00 -0.25676731370E+03  0.25676731374E+03  0.50400001928E-02 0.  1.
    10030    2    1    2    0    0  0.00000000000E+00  0.00000000000E+00  0.33953174129E+03  0.85306636875E+03  0.78258573086E+03 0.  0.
        1    1    3    3  502    0 -0.46411528923E+02  0.38642059748E+03  0.21384531528E+03  0.44407738860E+03  0.50400001928E-02 0. -1.
       -1    1    3    3    0  502  0.46411528923E+02 -0.38642059748E+03  0.12568642601E+03  0.40898898015E+03  0.50400001928E-02 0.  1.
</event>
<event>
 5   0  0.1154714E-02  0.7696137E+03  0.7818609E-02  0.9605072E-01
        2   -1    0    0  501    0  0.00000000000E+00  0.00000000000E+00  0.36319165476E+03  0.36319165477E+03  0.25500000920E-02 0.  1.
       -2   -1    0    0    0  501  0.00000000000E+00  0.00000000000E+00 -0.40770846173E+03  0.40770846174E+03  0.25500000920E-02 0. -1.
    10030    2    1    2    0    0  0.00000000000E+00  0.00000000000E+00 -0.44516806967E+02  0.77090011651E+03  0.76961369760E+03 0.  0.
        5    1    3    3  502    0 -0.21198886520E+03  0.25178918309E+03 -0.22188314038E+03  0.39697769418E+03  0.46999998093E+01 0. -1.
       -5    1    3    3    0  502  0.21198886520E+03 -0.25178918309E+03  0.17736633342E+03  0.37392242233E+03  0.46999998093E+01 0.  1.
</event>
<event>
 5   0  0.4385875E-03  0.7987051E+03  0.7818609E-02  0.9561893E-01
       -3   -1    0    0    0  501  0.00000000000E+00  0.00000000000E+00  0.79366560289E+03  0.79366560932E+03  0.10100000352E+00 0. -1.
        3   -1    0    0  501    0  0.00000000000E+00  0.00000000000E+00 -0.20094412709E+03  0.20094415247E+03  0.10100000352E+00 0.  1.
    10030    2    1    2    0    0  0.00000000000E+00  0.00000000000E+00  0.59272147580E+03  0.99460976179E+03  0.79870509599E+03 0.  0.
        2    1    3    3  502    0  0.30485501053E+03 -0.18066263670E+03  0.67057465572E+02  0.36065533330E+03  0.25500000920E-02 0.  1.
       -2    1    3    3    0  502 -0.30485501053E+03  0.18066263670E+03  0.52566401023E+03  0.63395442849E+03  0.25500000920E-02 0. -1.
</event>
<event>
 5   0  0.1106332E-02  0.8010401E+03  0.7818609E-02  0.9558513E-01
       -2   -1    0    0    0  501  0.00000000000E+00  0.00000000000E+00  0.32766028327E+03  0.32766028328E+03  0.25500000920E-02 0.  1.
        2   -1    0    0  501    0  0.00000000000E+00  0.00000000000E+00 -0.48958119055E+03  0.48958119055E+03  0.25500000920E-02 0. -1.
    10030    2    1    2    0    0  0.00000000000E+00  0.00000000000E+00 -0.16192090728E+03  0.81724147383E+03  0.80104010283E+03 0.  0.
        1    1    3    3  502    0 -0.20986929039E+03 -0.10533457797E+03  0.25006428718E+03  0.34303445907E+03  0.50400001928E-02 0.  1.
       -1    1    3    3    0  502  0.20986929039E+03  0.10533457797E+03 -0.41198519446E+03  0.47420701476E+03  0.50400001928E-02 0. -1.
</event>
<event>
 5   0  0.1092868E-02  0.7980895E+03  0.7818609E-02  0.9562787E-01
       -2   -1    0    0    0  501  0.00000000000E+00  0.00000000000E+00  0.29414739978E+03  0.29414739979E+03  0.25500000920E-02 0.  1.
        2   -1    0    0  501    0  0.00000000000E+00  0.00000000000E+00 -0.54135002608E+03  0.54135002609E+03  0.25500000920E-02 0. -1.
    10030    2    1    2    0    0  0.00000000000E+00  0.00000000000E+00 -0.24720262630E+03  0.83549742588E+03  0.79808947506E+03 0.  0.
        3    1    3    3  502    0 -0.13236325348E+03 -0.23909383993E+03  0.18080411045E+03  0.32768282183E+03  0.10100000352E+00 0.  1.
       -3    1    3    3    0  502  0.13236325348E+03  0.23909383993E+03 -0.42800673676E+03  0.50781460404E+03  0.10100000352E+00 0. -1.
</event>
<event>
 5   0  0.6557679E-03  0.7921629E+03  0.7818609E-02  0.9571431E-01
       -1   -1    0    0    0  501  0.00000000000E+00  0.00000000000E+00  0.20981057305E+03  0.20981057311E+03  0.50400001928E-02 0. -1.
        1   -1    0    0  501    0  0.00000000000E+00  0.00000000000E+00 -0.74772457115E+03  0.74772457117E+03  0.50400001928E-02 0.  1.
    10030    2    1    2    0    0  0.00000000000E+00  0.00000000000E+00 -0.53791399810E+03  0.95753514428E+03  0.79216291454E+03 0.  0.
        1    1    3    3  502    0 -0.36352282656E+03 -0.51200672352E+02 -0.44869347500E+03  0.57973803464E+03  0.50400001928E-02 0.  1.
       -1    1    3    3    0  502  0.36352282656E+03  0.51200672352E+02 -0.89220523103E+02  0.37779710963E+03  0.50400001928E-02 0. -1.
</event>
<event>
 5   0  0.4385875E-03  0.7945269E+03  0.7818609E-02  0.9567973E-01
        4   -1    0    0  501    0  0.00000000000E+00  0.00000000000E+00  0.84387331230E+03  0.84387426795E+03  0.12699999809E+01 0.  1.
       -4   -1    0    0    0  501  0.00000000000E+00  0.00000000000E+00 -0.18701330596E+03  0.18701761817E+03  0.12699999809E+01 0. -1.
    10030    2    1    2    0    0  0.00000000000E+00  0.00000000000E+00  0.65686000634E+03  0.10308918861E+04  0.79452691141E+03 0.  0.
        5    1    3    3  502    0 -0.24792600907E+03  0.30920461537E+03  0.29358171331E+03  0.49324143432E+03  0.46999998093E+01 0. -1.
       -5    1    3    3    0  502  0.24792600907E+03 -0.30920461537E+03  0.36327829303E+03  0.53765045180E+03  0.46999998093E+01 0.  1.
</event>
<event>
 5   0  0.1106332E-02  0.7977798E+03  0.7818609E-02  0.9563236E-01
        2   -1    0    0  501    0  0.00000000000E+00  0.00000000000E+00  0.25758875237E+04  0.25758875237E+04  0.25500000920E-02 0.  1.
       -2   -1    0    0    0  501  0.00000000000E+00  0.00000000000E+00 -0.61770228847E+02  0.61770228900E+02  0.25500000920E-02 0. -1.
    10030    2    1    2    0    0  0.00000000000E+00  0.00000000000E+00  0.25141172948E+04  0.26376577526E+04  0.79777982400E+03 0.  0.
        1    1    3    3  502    0  0.28215523675E+03 -0.26497211320E+03  0.93836374317E+03  0.10150607435E+04  0.50400001928E-02 0. -1.
       -1    1    3    3    0  502 -0.28215523675E+03  0.26497211320E+03  0.15757535517E+04  0.16225970091E+04  0.50400001928E-02 0.  1.
</event>
<event>
 5   0  0.1092868E-02  0.8146306E+03  0.7818609E-02  0.9539078E-01
        2   -1    0    0  501    0  0.00000000000E+00  0.00000000000E+00  0.73412484470E+03  0.73412484471E+03  0.25500000920E-02 0.  1.
       -2   -1    0    0    0  501  0.00000000000E+00  0.00000000000E+00 -0.22599121283E+03  0.22599121284E+03  0.25500000920E-02 0. -1.
    10030    2    1    2    0    0  0.00000000000E+00  0.00000000000E+00  0.50813363188E+03  0.96011605755E+03  0.81463062557E+03 0.  0.
        3    1    3    3  502    0  0.52517580900E+02  0.39650370896E+03  0.34484482223E+03  0.52810155192E+03  0.10100000352E+00 0. -1.
       -3    1    3    3    0  502 -0.52517580900E+02 -0.39650370896E+03  0.16328880965E+03  0.43201450563E+03  0.10100000352E+00 0.  1.
</event>
<event>
 5   0  0.6596225E-03  0.8001567E+03  0.7818609E-02  0.9559790E-01
        1   -1    0    0  501    0  0.00000000000E+00  0.00000000000E+00  0.75673921699E+03  0.75673921700E+03  0.50400001928E-02 0.  1.
       -1   -1    0    0    0  501  0.00000000000E+00  0.00000000000E+00 -0.21151631809E+03  0.21151631815E+03  0.50400001928E-02 0. -1.
    10030    2    1    2    0    0  0.00000000000E+00  0.00000000000E+00  0.54522289890E+03  0.96825553515E+03  0.80015671707E+03 0.  0.
        5    1    3    3  502    0 -0.11905376225E+03 -0.23026547841E+03  0.64132855914E+03  0.69175168928E+03  0.46999998093E+01 0.  1.
       -5    1    3    3    0  502  0.11905376225E+03  0.23026547841E+03 -0.96105660247E+02  0.27650384587E+03  0.46999998093E+01 0. -1.
</event>
<event>
 5   0  0.1092868E-02  0.8015908E+03  0.7818609E-02  0.9557717E-01
       -2   -1    0    0    0  501  0.00000000000E+00  0.00000000000E+00  0.11700584865E+03  0.11700584868E+03  0.25500000920E-02 0.  1.
        2   -1    0    0  501    0  0.00000000000E+00  0.00000000000E+00 -0.13728966366E+04  0.13728966366E+04  0.25500000920E-02 0. -1.
    10030    2    1    2    0    0  0.00000000000E+00  0.00000000000E+00 -0.12558907880E+04  0.14899024853E+04  0.80159075867E+03 0.  0.
        3    1    3    3  502    0  0.14200842990E+03  0.23972594629E+03 -0.92457782589E+02  0.29357005169E+03  0.10100000352E+00 0.  1.
       -3    1    3    3    0  502 -0.14200842990E+03 -0.23972594629E+03 -0.11634330054E+04  0.11963324336E+04  0.10100000352E+00 0. -1.
</event>
<event>
 5   0  0.6600401E-03  0.8060022E+03  0.7818609E-02  0.9551370E-01
       -1   -1    0    0    0  501  0.00000000000E+00  0.00000000000E+00  0.53097625805E+03  0.53097625808E+03  0.50400001928E-02 0.  1.
        1   -1    0    0  501    0  0.00000000000E+00  0.00000000000E+00 -0.30587031909E+03  0.30587031913E+03  0.50400001928E-02 0. -1.
    10030    2    1    2    0    0  0.00000000000E+00  0.00000000000E+00  0.22510593896E+03  0.83684657721E+03  0.80600217744E+03 0.  0.
        2    1    3    3  502    0  0.17644854132E+03 -0.11100480297E+03  0.47064829305E+03  0.51474845291E+03  0.25500000920E-02 0.  1.
       -2    1    3    3    0  502 -0.17644854132E+03  0.11100480297E+03 -0.24554235409E+03  0.32209812430E+03  0.25500000920E-02 0. -1.
</event>
<event>
 5   0  0.6551489E-03  0.8469722E+03  0.7818609E-02  0.9494410E-01
        1   -1    0    0  501    0  0.00000000000E+00  0.00000000000E+00  0.17349968059E+04  0.17349968059E+04  0.50400001928E-02 0. -1.
       -1   -1    0    0    0  501  0.00000000000E+00  0.00000000000E+00 -0.10336644982E+03  0.10336644994E+03  0.50400001928E-02 0.  1.
    10030    2    1    2    0    0  0.00000000000E+00  0.00000000000E+00  0.16316303560E+04  0.18383632558E+04  0.84697216104E+03 0.  0.
        4    1    3    3  502    0  0.71275730704E+02  0.28669215277E+03  0.15722936890E+03  0.33465699991E+03  0.12699999809E+01 0.  1.
       -4    1    3    3    0  502 -0.71275730704E+02 -0.28669215277E+03  0.14744009871E+04  0.15037062559E+04  0.12699999809E+01 0. -1.
</event>
<event>
 5   0  0.1092868E-02  0.7906329E+03  0.7818609E-02  0.9573675E-01
        2   -1    0    0  501    0  0.00000000000E+00  0.00000000000E+00  0.70586365003E+03  0.70586365003E+03  0.25500000920E-02 0.  1.
       -2   -1    0    0    0  501  0.00000000000E+00  0.00000000000E+00 -0.22139556292E+03  0.22139556293E+03  0.25500000920E-02 0. -1.
    10030    2    1    2    0    0  0.00000000000E+00  0.00000000000E+00  0.48446808711E+03  0.92725921296E+03  0.79063286081E+03 0.  0.
        3    1    3    3  502    0  0.35875306354E+03 -0.15301997586E+03  0.31784318801E+03  0.50313335804E+03  0.10100000352E+00 0.  1.
       -3    1    3    3    0  502 -0.35875306354E+03  0.15301997586E+03  0.16662489911E+03  0.42412585492E+03  0.10100000352E+00 0. -1.
</event>
<event>
 5   0  0.6517392E-03  0.7996276E+03  0.7818609E-02  0.9560556E-01
        1   -1    0    0  501    0  0.00000000000E+00  0.00000000000E+00  0.64651188102E+03  0.64651188104E+03  0.50400001928E-02 0.  1.
       -1   -1    0    0    0  501  0.00000000000E+00  0.00000000000E+00 -0.24725156748E+03  0.24725156753E+03  0.50400001928E-02 0. -1.
    10030    2    1    2    0    0  0.00000000000E+00  0.00000000000E+00  0.39926031355E+03  0.89376344857E+03  0.79962760334E+03 0.  0.
        3    1    3    3  502    0  0.97833691996E+02 -0.77504217734E+02  0.62417829247E+03  0.63653506270E+03  0.10100000352E+00 0.  1.
       -3    1    3    3    0  502 -0.97833691996E+02  0.77504217734E+02 -0.22491797892E+03  0.25722838587E+03  0.10100000352E+00 0. -1.
</event>
<event>
 5   0  0.6557679E-03  0.7966008E+03  0.7818609E-02  0.9564950E-01
       -1   -1    0    0    0  501  0.00000000000E+00  0.00000000000E+00  0.12006886595E+04  0.12006886595E+04  0.50400001928E-02 0.  1.
        1   -1    0    0  501    0  0.00000000000E+00  0.00000000000E+00 -0.13212685889E+03  0.13212685899E+03  0.50400001928E-02 0. -1.
    10030    2    1    2    0    0  0.00000000000E+00  0.00000000000E+00  0.10685618006E+04  0.13328155185E+04  0.79660083143E+03 0.  0.
        1    1    3    3  502    0 -0.33122193650E+03  0.42749816029E+02  0.89742187104E+03  0.95754975466E+03  0.50400001928E-02 0.  1.
       -1    1    3    3    0  502  0.33122193650E+03 -0.42749816029E+02  0.17113992955E+03  0.37526576383E+03  0.50400001928E-02 0. -1.
</event>
<event>
 5   0  0.6551489E-03  0.7994470E+03  0.7818609E-02  0.9560818E-01
        1   -1    0    0  501    0  0.00000000000E+00  0.00000000000E+00  0.35748749542E+03  0.35748749545E+03  0.50400001928E-02 0. -1.
       -1   -1    0    0    0  501  0.00000000000E+00  0.00000000000E+00 -0.44694960893E+03  0.44694960896E+03  0.50400001928E-02 0.  1.
    10030    2    1    2    0    0  0.00000000000E+00  0.00000000000E+00 -0.89462113516E+02  0.80443710441E+03  0.79944704965E+03 0.  0.
        4    1    3    3  502    0  0.21338629969E+03 -0.32681942864E+03 -0.13148189756E+03  0.41186618472E+03  0.12699999809E+01 0.  1.
       -4    1    3    3    0  502 -0.21338629969E+03  0.32681942864E+03  0.42019784048E+02  0.39257091969E+03  0.12699999809E+01 0. -1.
</event>
<event>
 5   0  0.1121480E-02  0.8029658E+03  0.7818609E-02  0.9555734E-01
       -2   -1    0    0    0  501  0.00000000000E+00  0.00000000000E+00  0.35633556938E+03  0.35633556938E+03  0.25500000920E-02 0.  1.
        2   -1    0    0  501    0  0.00000000000E+00  0.00000000000E+00 -0.45235033965E+03  0.45235033966E+03  0.25500000920E-02 0. -1.
    10030    2    1    2    0    0  0.00000000000E+00  0.00000000000E+00 -0.96014770273E+02  0.80868590904E+03  0.80296579215E+03 0.  0.
        2    1    3    3  502    0  0.56298582746E+02 -0.33692836938E+02 -0.44691456368E+03  0.45170495339E+03  0.25500000920E-02 0. -1.
       -2    1    3    3    0  502 -0.56298582746E+02  0.33692836938E+02  0.35089979341E+03  0.35698095565E+03  0.25500000920E-02 0.  1.
</event>
<event>
 5   0  0.1121480E-02  0.7984278E+03  0.7818609E-02  0.9562296E-01
        2   -1    0    0  501    0  0.00000000000E+00  0.00000000000E+00  0.44400642354E+03  0.44400642355E+03  0.25500000920E-02 0. -1.
       -2   -1    0    0    0  501  0.00000000000E+00  0.00000000000E+00 -0.35894018606E+03  0.35894018606E+03  0.25500000920E-02 0.  1.
    10030    2    1    2    0    0  0.00000000000E+00  0.00000000000E+00  0.85066237489E+02  0.80294660962E+03  0.79842782588E+03 0.  0.
        2    1    3    3  502    0  0.82398441302E+02  0.14715455219E+03 -0.32135419206E+03  0.36292214334E+03  0.25500000920E-02 0.  1.
       -2    1    3    3    0  502 -0.82398441302E+02 -0.14715455219E+03  0.40642042955E+03  0.44002446628E+03  0.25500000920E-02 0. -1.
</event>
<event>
 5   0  0.1121480E-02  0.8054443E+03  0.7818609E-02  0.9552170E-01
       -2   -1    0    0    0  501  0.00000000000E+00  0.00000000000E+00  0.15121422461E+03  0.15121422463E+03  0.25500000920E-02 0. -1.
        2   -1    0    0  501    0  0.00000000000E+00  0.00000000000E+00 -0.10725520943E+04  0.10725520943E+04  0.25500000920E-02 0.  1.
    10030    2    1    2    0    0  0.00000000000E+00  0.00000000000E+00 -0.92133786973E+03  0.12237663190E+04  0.80544430797E+03 0.  0.
        2    1    3    3  502    0  0.30535429470E+03  0.10271934907E+03 -0.93520253449E+02  0.33546765534E+03  0.25500000920E-02 0. -1.
       -2    1    3    3    0  502 -0.30535429470E+03 -0.10271934907E+03 -0.82781761628E+03  0.88829866363E+03  0.25500000920E-02 0.  1.
</event>
<event>
 5   0  0.6600401E-03  0.8000839E+03  0.7818609E-02  0.9559896E-01
       -1   -1    0    0    0  501  0.00000000000E+00  0.00000000000E+00  0.31383063776E+03  0.31383063780E+03  0.50400001928E-02 0. -1.
        1   -1    0    0  501    0  0.00000000000E+00  0.00000000000E+00 -0.50993611489E+03  0.50993611491E+03  0.50400001928E-02 0.  1.
    10030    2    1    2    0    0  0.00000000000E+00  0.00000000000E+00 -0.19610547713E+03  0.82376675271E+03  0.80008393604E+03 0.  0.
        2    1    3    3  502    0 -0.79552647605E+02  0.60127733596E+02  0.30082887759E+03  0.31692582994E+03  0.25500000920E-02 0. -1.
       -2    1    3    3    0  502  0.79552647605E+02 -0.60127733596E+02 -0.49693435472E+03  0.50684092277E+03  0.25500000920E-02 0.  1.
</event>
<event>
 5   0  0.6551489E-03  0.8015468E+03  0.7818609E-02  0.9557781E-01
        1   -1    0    0  501    0  0.00000000000E+00  0.00000000000E+00  0.11141790863E+04  0.11141790863E+04  0.50400001928E-02 0. -1.
       -1   -1    0    0    0  501  0.00000000000E+00  0.00000000000E+00 -0.14415933445E+03  0.14415933454E+03  0.50400001928E-02 0.  1.
    10030    2    1    2    0    0  0.00000000000E+00  0.00000000000E+00  0.97001975184E+03  0.12583384208E+04  0.80154679365E+03 0.  0.
        4    1    3    3  502    0 -0.39588258576E+03  0.56246318710E+02  0.52745589408E+03  0.66188972131E+03  0.12699999809E+01 0.  1.
       -4    1    3    3    0  502  0.39588258576E+03 -0.56246318710E+02  0.44256385776E+03  0.59644869953E+03  0.12699999809E+01 0. -1.
</event>
<event>
 5   0  0.6517392E-03  0.8170886E+03  0.7818609E-02  0.9535606E-01
        1   -1    0    0  501    0  0.00000000000E+00  0.00000000000E+00  0.19805244755E+03  0.19805244761E+03  0.50400001928E-02 0. -1.
       -1   -1    0    0    0  501  0.00000000000E+00  0.00000000000E+00 -0.84274877459E+03  0.84274877460E+03  0.50400001928E-02 0.  1.
    10030    2    1    2    0    0  0.00000000000E+00  0.00000000000E+00 -0.64469632704E+03  0.10408012222E+04  0.81708863048E+03 0.  0.
        3    1    3    3  502    0  0.26103149187E+03 -0.30665602902E+03 -0.23471451574E+03  0.46611830470E+03  0.10100000352E+00 0.  1.
       -3    1    3    3    0  502 -0.26103149187E+03  0.30665602902E+03 -0.40998181130E+03  0.57468291751E+03  0.10100000352E+00 0. -1.
</event>
<event>
 5   0  0.1154714E-02  0.7959879E+03  0.7818609E-02  0.9565843E-01
        2   -1    0    0  501    0  0.00000000000E+00  0.00000000000E+00  0.20747873496E+04  0.20747873496E+04  0.25500000920E-02 0. -1.
       -2   -1    0    0    0  501  0.00000000000E+00  0.00000000000E+00 -0.76344774822E+02  0.76344774864E+02  0.25500000920E-02 0.  1.
    10030    2    1    2    0    0  0.00000000000E+00  0.00000000000E+00  0.19984425747E+04  0.21511321244E+04  0.79598787190E+03 0.  0.
        5    1    3    3  502    0  0.10774773978E+03 -0.48935132566E+02 -0.27620220749E+02  0.12161081045E+03  0.46999998093E+01 0.  1.
       -5    1    3    3    0  502 -0.10774773978E+03  0.48935132566E+02  0.20260627955E+04  0.20295213140E+04  0.46999998093E+01 0. -1.
</event>
<event>
 5   0  0.6551489E-03  0.7966391E+03  0.7818609E-02  0.9564895E-01
       -1   -1    0    0    0  501  0.00000000000E+00  0.00000000000E+00  0.43423740711E+03  0.43423740714E+03  0.50400001928E-02 0.  1.
        1   -1    0    0  501    0  0.00000000000E+00  0.00000000000E+00 -0.36537266772E+03  0.36537266776E+03  0.50400001928E-02 0. -1.
    10030    2    1    2    0    0  0.00000000000E+00  0.00000000000E+00  0.68864739388E+02  0.79961007490E+03  0.79663914010E+03 0.  0.
        4    1    3    3  502    0 -0.23705200053E+02  0.79635672218E+02  0.42544014097E+03  0.43347976106E+03  0.12699999809E+01 0.  1.
       -4    1    3    3    0  502  0.23705200053E+02 -0.79635672218E+02 -0.35657540158E+03  0.36613031384E+03  0.12699999809E+01 0. -1.
</event>
<event>
 5   0  0.1154714E-02  0.8035673E+03  0.7818609E-02  0.9554868E-01
        2   -1    0    0  501    0  0.00000000000E+00  0.00000000000E+00  0.24151844483E+04  0.24151844483E+04  0.25500000920E-02 0.  1.
       -2   -1    0    0    0  501  0.00000000000E+00  0.00000000000E+00 -0.66839664359E+02  0.66839664408E+02  0.25500000920E-02 0. -1.
    10030    2    1    2    0    0  0.00000000000E+00  0.00000000000E+00  0.23483447839E+04  0.24820241127E+04  0.80356734117E+03 0.  0.
        5    1    3    3  502    0  0.82848163683E+02  0.36125997172E+03  0.16530337360E+04  0.16940824088E+04  0.46999998093E+01 0.  1.
       -5    1    3    3    0  502 -0.82848163683E+02 -0.36125997172E+03  0.69531104788E+03  0.78794170386E+03  0.46999998093E+01 0. -1.
</event>
<event>
 5   0  0.6551489E-03  0.7873759E+03  0.7818609E-02  0.9578472E-01
        1   -1    0    0  501    0  0.00000000000E+00  0.00000000000E+00  0.14952435502E+04  0.14952435502E+04  0.50400001928E-02 0. -1.
       -1   -1    0    0    0  501  0.00000000000E+00  0.00000000000E+00 -0.10365549400E+03  0.10365549412E+03  0.50400001928E-02 0.  1.
    10030    2    1    2    0    0  0.00000000000E+00  0.00000000000E+00  0.13915880562E+04  0.15988990443E+04  0.78737591771E+03 0.  0.
        4    1    3    3  502    0  0.34556674862E+03  0.15838404104E+03  0.48784417207E+03  0.61846215028E+03  0.12699999809E+01 0.  1.
       -4    1    3    3    0  502 -0.34556674862E+03 -0.15838404104E+03  0.90374388413E+03  0.98043689404E+03  0.12699999809E+01 0. -1.
</event>
<event>
 5   0  0.6596225E-03  0.7961713E+03  0.7818609E-02  0.9565576E-01
       -1   -1    0    0    0  501  0.00000000000E+00  0.00000000000E+00  0.66960711429E+02  0.66960711619E+02  0.50400001928E-02 0. -1.
        1   -1    0    0  501    0  0.00000000000E+00  0.00000000000E+00 -0.23666440744E+04  0.23666440744E+04  0.50400001928E-02 0.  1.
    10030    2    1    2    0    0  0.00000000000E+00  0.00000000000E+00 -0.22996833629E+04  0.24336047860E+04  0.79617126589E+03 0.  0.
        5    1    3    3  502    0 -0.10250447106E+03  0.36778115755E+03 -0.14940347024E+04  0.15420544505E+04  0.46999998093E+01 0.  1.
       -5    1    3    3    0  502  0.10250447106E+03 -0.36778115755E+03 -0.80564866053E+03  0.89155033545E+03  0.46999998093E+01 0. -1.
</event>
<event>
 5   0  0.6517392E-03  0.7999791E+03  0.7818609E-02  0.9560047E-01
        1   -1    0    0  501    0  0.00000000000E+00  0.00000000000E+00  0.28642949770E+03  0.28642949774E+03  0.50400001928E-02 0.  1.
       -1   -1    0    0    0  501  0.00000000000E+00  0.00000000000E+00 -0.55857254756E+03  0.55857254758E+03  0.50400001928E-02 0. -1.
    10030    2    1    2    0    0  0.00000000000E+00  0.00000000000E+00 -0.27214304986E+03  0.84500204532E+03  0.79997913536E+03 0.  0.
        3    1    3    3  502    0 -0.19152298422E+03 -0.31260807209E+03 -0.30503271123E+03  0.47691700047E+03  0.10100000352E+00 0. -1.
       -3    1    3    3    0  502  0.19152298422E+03  0.31260807209E+03  0.32889661369E+02  0.36808504485E+03  0.10100000352E+00 0.  1.
</event>
<event>
 5   0  0.6557679E-03  0.8018382E+03  0.7818609E-02  0.9557360E-01
        1   -1    0    0  501    0  0.00000000000E+00  0.00000000000E+00  0.37047212198E+03  0.37047212201E+03  0.50400001928E-02 0. -1.
       -1   -1    0    0    0  501  0.00000000000E+00  0.00000000000E+00 -0.43386838701E+03  0.43386838704E+03  0.50400001928E-02 0.  1.
    10030    2    1    2    0    0  0.00000000000E+00  0.00000000000E+00 -0.63396265035E+02  0.80434050905E+03  0.80183824309E+03 0.  0.
        1    1    3    3  502    0  0.32552723348E+02  0.35639407135E+03 -0.21298212544E+03  0.41645864101E+03  0.50400001928E-02 0.  1.
       -1    1    3    3    0  502 -0.32552723348E+02 -0.35639407135E+03  0.14958586040E+03  0.38788186804E+03  0.50400001928E-02 0. -1.
</event>
<event>
 5   0  0.1119792E-02  0.7964716E+03  0.7818609E-02  0.9565138E-01
       -2   -1    0    0    0  501  0.00000000000E+00  0.00000000000E+00  0.16048399320E+03  0.16048399322E+03  0.25500000920E-02 0. -1.
        2   -1    0    0  501    0  0.00000000000E+00  0.00000000000E+00 -0.98820910434E+03  0.98820910434E+03  0.25500000920E-02 0.  1.
    10030    2    1    2    0    0  0.00000000000E+00  0.00000000000E+00 -0.82772511114E+03  0.11486930976E+04  0.79647157688E+03 0.  0.
        4    1    3    3  502    0 -0.86116066528E+02 -0.18707322557E+03 -0.90544371754E+03  0.92857003353E+03  0.12699999809E+01 0.  1.
       -4    1    3    3    0  502  0.86116066528E+02  0.18707322557E+03  0.77718606397E+02  0.22012306403E+03  0.12699999809E+01 0. -1.
</event>
<event>
 5   0  0.1121480E-02  0.8022499E+03  0.7818609E-02  0.9556766E-01
        2   -1    0    0  501    0  0.00000000000E+00  0.00000000000E+00  0.81997862598E+03  0.81997862599E+03  0.25500000920E-02 0.  1.
       -2   -1    0    0    0  501  0.00000000000E+00  0.00000000000E+00 -0.19622610395E+03  0.19622610397E+03  0.25500000920E-02 0. -1.
    10030    2    1    2    0    0  0.00000000000E+00  0.00000000000E+00  0.62375252203E+03  0.10162047300E+04  0.80224986410E+03 0.  0.
        2    1    3    3  502    0 -0.17607679148E+03 -0.32598989667E+02  0.76653893369E+03  0.78717702424E+03  0.25500000920E-02 0.  1.
       -2    1    3    3    0  502  0.17607679148E+03  0.32598989667E+02 -0.14278641166E+03  0.22902770572E+03  0.25500000920E-02 0. -1.
</event>
<event>
 5   0  0.6517392E-03  0.8068610E+03  0.7818609E-02  0.9550139E-01
        1   -1    0    0  501    0  0.00000000000E+00  0.00000000000E+00  0.58655151672E+03  0.58655151674E+03  0.50400001928E-02 0.  1.
       -1   -1    0    0    0  501  0.00000000000E+00  0.00000000000E+00 -0.27747977667E+03  0.27747977671E+03  0.50400001928E-02 0. -1.
    10030    2    1    2    0    0  0.00000000000E+00  0.00000000000E+00  0.30907174005E+03  0.86403129345E+03  0.80686103857E+03 0.  0.
        3    1    3    3  502    0  0.36620491912E+02 -0.76292092664E+02  0.57693987672E+03  0.58311334694E+03  0.10100000352E+00 0.  1.
       -3    1    3    3    0  502 -0.36620491912E+02  0.76292092664E+02 -0.26786813667E+03  0.28091794651E+03  0.10100000352E+00 0. -1.
</event>
<event>
 5   0  0.1092868E-02  0.7982641E+03  0.7818609E-02  0.9562533E-01
        2   -1    0    0  501    0  0.00000000000E+00  0.00000000000E+00  0.28951648162E+04  0.28951648162E+04  0.25500000920E-02 0. -1.
       -2   -1    0    0    0  501  0.00000000000E+00  0.00000000000E+00 -0.55024977476E+02  0.55024977535E+02  0.25500000920E-02 0.  1.
    10030    2    1    2    0    0  0.00000000000E+00  0.00000000000E+00  0.28401398388E+04  0.29501897938E+04  0.79826406381E+03 0.  0.
        3    1    3    3  502    0  0.78426086475E+02 -0.39107067441E+03  0.14748176959E+04  0.15278004352E+04  0.10100000352E+00 0.  1.
       -3    1    3    3    0  502 -0.78426086475E+02  0.39107067441E+03  0.13653221428E+04  0.14223893585E+04  0.10100000352E+00 0. -1.
</event>
<event>
 5   0  0.6557679E-03  0.7973428E+03  0.7818609E-02  0.9563871E-01
        1   -1    0    0  501    0  0.00000000000E+00  0.00000000000E+00  0.67828809904E+03  0.67828809905E+03  0.50400001928E-02 0. -1.
       -1   -1    0    0    0  501  0.00000000000E+00  0.00000000000E+00 -0.23432354427E+03  0.23432354433E+03  0.50400001928E-02 0.  1.
    10030    2    1    2    0    0  0.00000000000E+00  0.00000000000E+00  0.44396455476E+03  0.91261164338E+03  0.79734276554E+03 0.  0.
        1    1    3    3  502    0 -0.24681610677E+03 -0.40813301017E+02  0.57726817910E+03  0.62914423364E+03  0.50400001928E-02 0. -1.
       -1    1    3    3    0  502  0.24681610677E+03  0.40813301017E+02 -0.13330362434E+03  0.28346740974E+03  0.50400001928E-02 0.  1.
</event>
<event>
 5   0  0.6551489E-03  0.7939866E+03  0.7818609E-02  0.9568762E-01
       -1   -1    0    0    0  501  0.00000000000E+00  0.00000000000E+00  0.14728303005E+03  0.14728303013E+03  0.50400001928E-02 0. -1.
        1   -1    0    0  501    0  0.00000000000E+00  0.00000000000E+00 -0.10700736152E+04  0.10700736153E+04  0.50400001928E-02 0.  1.
    10030    2    1    2    0    0  0.00000000000E+00  0.00000000000E+00 -0.92279058519E+03  0.12173566454E+04  0.79398661069E+03 0.  0.
        4    1    3    3  502    0  0.19067670869E+03 -0.24972660747E+03 -0.83343779542E+03  0.89069700653E+03  0.12699999809E+01 0.  1.
       -4    1    3    3    0  502 -0.19067670869E+03  0.24972660747E+03 -0.89352789779E+02  0.32665963886E+03  0.12699999809E+01 0. -1.
</event>
<event>
 5   0  0.6596225E-03  0.8059251E+03  0.7818609E-02  0.9551480E-01
        1   -1    0    0  501    0  0.00000000000E+00  0.00000000000E+00  0.13543153907E+04  0.13543153907E+04  0.50400001928E-02 0.  1.
       -1   -1    0    0    0  501  0.00000000000E+00  0.00000000000E+00 -0.11989732808E+03  0.11989732818E+03  0.50400001928E-02 0. -1.
    10030    2    1    2    0    0  0.00000000000E+00  0.00000000000E+00  0.12344180626E+04  0.14742127189E+04  0.80592505062E+03 0.  0.
        5    1    3    3  502    0 -0.16729119780E+03 -0.23553741426E+03  0.11309962852E+04  0.11673212520E+04  0.46999998093E+01 0.  1.
       -5    1    3    3    0  502  0.16729119780E+03  0.23553741426E+03  0.10342177744E+03  0.30689146685E+03  0.46999998093E+01 0. -1.
</event>
<event>
 5   0  0.1092868E-02  0.7945299E+03  0.7818609E-02  0.9567969E-01
        2   -1    0    0  501    0  0.00000000000E+00  0.00000000000E+00  0.83651845010E+03  0.83651845010E+03  0.25500000920E-02 0.  1.
       -2   -1    0    0    0  501  0.00000000000E+00  0.00000000000E+00 -0.18866224635E+03  0.18866224636E+03  0.25500000920E-02 0. -1.
    10030    2    1    2    0    0  0.00000000000E+00  0.00000000000E+00  0.64785620375E+03  0.10251806965E+04  0.79452992371E+03 0.  0.
        3    1    3    3  502    0  0.13209491643E+03  0.20072541551E+02 -0.15880125569E+03  0.20753270316E+03  0.10100000352E+00 0. -1.
       -3    1    3    3    0  502 -0.13209491643E+03 -0.20072541551E+02  0.80665745944E+03  0.81764799330E+03  0.10100000352E+00 0.  1.
</event>
<event>
 5   0  0.6557679E-03  0.7922459E+03  0.7818609E-02  0.9571309E-01
        1   -1    0    0  501    0  0.00000000000E+00  0.00000000000E+00  0.15016928216E+04  0.15016928216E+04  0.50400001928E-02 0.  1.
       -1   -1    0    0    0  501  0.00000000000E+00  0.00000000000E+00 -0.10449100983E+03  0.10449100995E+03  0.50400001928E-02 0. -1.
    10030    2    1    2    0    0  0.00000000000E+00  0.00000000000E+00  0.13972018118E+04  0.16061838316E+04  0.79224592013E+03 0.  0.
        1    1    3    3  502    0 -0.22311708909E+03 -0.27510052194E+03  0.33905160166E+03  0.49032389420E+03  0.50400001928E-02 0. -1.
       -1    1    3    3    0  502  0.22311708909E+03  0.27510052194E+03  0.10581502101E+04  0.11158599374E+04  0.50400001928E-02 0.  1.
</event>
<event>
 5   0  0.1106332E-02  0.7968587E+03  0.7818609E-02  0.9564575E-01
        2   -1    0    0  501    0  0.00000000000E+00  0.00000000000E+00  0.13987857541E+04  0.13987857541E+04  0.25500000920E-02 0. -1.
       -2   -1    0    0    0  501  0.00000000000E+00  0.00000000000E+00 -0.11348839069E+03  0.11348839072E+03  0.25500000920E-02 0.  1.
    10030    2    1    2    0    0  0.00000000000E+00  0.00000000000E+00  0.12852973635E+04  0.15122741449E+04  0.79685869307E+03 0.  0.
        1    1    3    3  502    0  0.31539797848E+03  0.67490828030E+02  0.19873083779E+03  0.37884672707E+03  0.50400001928E-02 0. -1.
       -1    1    3    3    0  502 -0.31539797848E+03 -0.67490828030E+02  0.10865665257E+04  0.11334274178E+04  0.50400001928E-02 0.  1.
</event>
<event>
 5   0  0.6551489E-03  0.8026898E+03  0.7818609E-02  0.9556132E-01
       -1   -1    0    0    0  501  0.00000000000E+00  0.00000000000E+00  0.88459136772E+03  0.88459136774E+03  0.50400001928E-02 0. -1.
        1   -1    0    0  501    0  0.00000000000E+00  0.00000000000E+00 -0.18209283271E+03  0.18209283278E+03  0.50400001928E-02 0.  1.
    10030    2    1    2    0    0  0.00000000000E+00  0.00000000000E+00  0.70249853501E+03  0.10666842005E+04  0.80268984792E+03 0.  0.
        4    1    3    3  502    0  0.95732139635E+02  0.23133468166E+03  0.76809588252E+03  0.80786959043E+03  0.12699999809E+01 0. -1.
       -4    1    3    3    0  502 -0.95732139635E+02 -0.23133468166E+03 -0.65597347511E+02  0.25881461009E+03  0.12699999809E+01 0.  1.
</event>
<event>
 5   0  0.6596225E-03  0.7988719E+03  0.7818609E-02  0.9561651E-01
        1   -1    0    0  501    0  0.00000000000E+00  0.00000000000E+00  0.23467874381E+03  0.23467874387E+03  0.50400001928E-02 0.  1.
       -1   -1    0    0    0  501  0.00000000000E+00  0.00000000000E+00 -0.67986172709E+03  0.67986172711E+03  0.50400001928E-02 0. -1.
    10030    2    1    2    0    0  0.00000000000E+00  0.00000000000E+00 -0.44518298328E+03  0.91454047098E+03  0.79887194497E+03 0.  0.
        5    1    3    3  502    0  0.98963645767E+02  0.38668395013E+03 -0.23913065991E+03  0.46532122558E+03  0.46999998093E+01 0.  1.
       -5    1    3    3    0  502 -0.98963645767E+02 -0.38668395013E+03 -0.20605232337E+03  0.44921924540E+03  0.46999998093E+01 0. -1.
</event>
<event>
 5   0  0.4385875E-03  0.8093022E+03  0.7818609E-02  0.9546649E-01
       -3   -1    0    0    0  501  0.00000000000E+00  0.00000000000E+00  0.39838500835E+03  0.39838502115E+03  0.10100000352E+00 0.  1.
        3   -1    0    0  501    0  0.00000000000E+00  0.00000000000E+00 -0.41101568128E+03  0.41101569369E+03  0.10100000352E+00 0. -1.
    10030    2    1    2    0    0  0.00000000000E+00  0.00000000000E+00 -0.12630672930E+02  0.80940071484E+03  0.80930215821E+03 0.  0.
        3    1    3    3  502    0  0.25990415353E+03  0.25026414107E+03 -0.18953201335E+03  0.40755944795E+03  0.10100000352E+00 0. -1.
       -3    1    3    3    0  502 -0.25990415353E+03 -0.25026414107E+03  0.17690134042E+03  0.40184126689E+03  0.10100000352E+00 0.  1.
</event>
<event>
 5   0  0.6600401E-03  0.8003277E+03  0.7818609E-02  0.9559543E-01
       -1   -1    0    0    0  501  0.00000000000E+00  0.00000000000E+00  0.28419765599E+03  0.28419765604E+03  0.50400001928E-02 0. -1.
        1   -1    0    0  501    0  0.00000000000E+00  0.00000000000E+00 -0.56344975706E+03  0.56344975709E+03  0.50400001928E-02 0.  1.
    10030    2    1    2    0    0  0.00000000000E+00  0.00000000000E+00 -0.27925210107E+03  0.84764741312E+03  0.80032768353E+03 0.  0.
        2    1    3    3  502    0 -0.31564181727E+03  0.16899977212E+03  0.49659610415E+02  0.36146473784E+03  0.25500000920E-02 0. -1.
       -2    1    3    3    0  502  0.31564181727E+03 -0.16899977212E+03 -0.32891171149E+03  0.48618267528E+03  0.25500000920E-02 0.  1.
</event>
<event>
 5   0  0.4385875E-03  0.8002050E+03  0.7818609E-02  0.9559720E-01
        3   -1    0    0  501    0  0.00000000000E+00  0.00000000000E+00  0.76790843484E+02  0.76790909905E+02  0.10100000352E+00 0.  1.
       -3   -1    0    0    0  501  0.00000000000E+00  0.00000000000E+00 -0.20846486424E+04  0.20846486449E+04  0.10100000352E+00 0. -1.
    10030    2    1    2    0    0  0.00000000000E+00  0.00000000000E+00 -0.20078577990E+04  0.21614395548E+04  0.80020497886E+03 0.  0.
        5    1    3    3  502    0 -0.36845338429E+03  0.14877758772E+03 -0.87818241424E+03  0.96390824754E+03  0.46999998093E+01 0. -1.
       -5    1    3    3    0  502  0.36845338429E+03 -0.14877758772E+03 -0.11296753847E+04  0.11975313073E+04  0.46999998093E+01 0.  1.
</event>
<event>
 5   0  0.6600401E-03  0.7942834E+03  0.7818609E-02  0.9568329E-01
       -1   -1    0    0    0  501  0.00000000000E+00  0.00000000000E+00  0.28445895476E+03  0.28445895481E+03  0.50400001928E-02 0. -1.
        1   -1    0    0  501    0  0.00000000000E+00  0.00000000000E+00 -0.55446152692E+03  0.55446152694E+03  0.50400001928E-02 0.  1.
    10030    2    1    2    0    0  0.00000000000E+00  0.00000000000E+00 -0.27000257215E+03  0.83892048174E+03  0.79428344168E+03 0.  0.
        2    1    3    3  502    0  0.72478644346E+02  0.35082905204E+03  0.46060016364E+02  0.36118652073E+03  0.25500000920E-02 0. -1.
       -2    1    3    3    0  502 -0.72478644346E+02 -0.35082905204E+03 -0.31606258852E+03  0.47773396102E+03  0.25500000920E-02 0.  1.
</event>
<event>
 5   0  0.4385875E-03  0.7747842E+03  0.7818609E-02  0.9597251E-01
       -3   -1    0    0    0  501  0.00000000000E+00  0.00000000000E+00  0.28113839979E+03  0.28113841793E+03  0.10100000352E+00 0.  1.
        3   -1    0    0  501    0  0.00000000000E+00  0.00000000000E+00 -0.53380344178E+03  0.53380345133E+03  0.10100000352E+00 0. -1.
    10030    2    1    2    0    0  0.00000000000E+00  0.00000000000E+00 -0.25266504199E+03  0.81494186926E+03  0.77478424535E+03 0.  0.
        3    1    3    3  502    0 -0.21018248560E+02  0.55746333118E+02 -0.52895598975E+03  0.53230054454E+03  0.10100000352E+00 0. -1.
       -3    1    3    3    0  502  0.21018248560E+02 -0.55746333118E+02  0.27629094776E+03  0.28264132473E+03  0.10100000352E+00 0.  1.
</event>
<event>
 5   0  0.6596225E-03  0.7988412E+03  0.7818609E-02  0.9561696E-01
       -1   -1    0    0    0  501  0.00000000000E+00  0.00000000000E+00  0.12080917236E+04  0.12080917236E+04  0.50400001928E-02 0.  1.
        1   -1    0    0  501    0  0.00000000000E+00  0.00000000000E+00 -0.13205687026E+03  0.13205687036E+03  0.50400001928E-02 0. -1.
    10030    2    1    2    0    0  0.00000000000E+00  0.00000000000E+00  0.10760348533E+04  0.13401485940E+04  0.79884119092E+03 0.  0.
        5    1    3    3  502    0  0.18719930590E+03  0.18126727050E+03  0.10457930082E+04  0.10777785067E+04  0.46999998093E+01 0.  1.
       -5    1    3    3    0  502 -0.18719930590E+03 -0.18126727050E+03  0.30241845096E+02  0.26237008724E+03  0.46999998093E+01 0. -1.
</event>
<event>
 5   0  0.1121480E-02  0.7977733E+03  0.7818609E-02  0.9563246E-01
       -2   -1    0    0    0  501  0.00000000000E+00  0.00000000000E+00  0.43413348776E+03  0.43413348777E+03  0.25500000920E-02 0. -1.
        2   -1    0    0  501    0  0.00000000000E+00  0.00000000000E+00 -0.36650149128E+03  0.36650149129E+03  0.25500000920E-02 0.  1.
    10030    2    1    2    0    0  0.00000000000E+00  0.00000000000E+00  0.67631996480E+02  0.80063497906E+03  0.79777332792E+03 0.  0.
        2    1    3    3  502    0  0.23604427919E+03  0.17441718059E+03  0.30491886686E+03  0.42321834789E+03  0.25500000920E-02 0. -1.
       -2    1    3    3    0  502 -0.23604427919E+03 -0.17441718059E+03 -0.23728687038E+03  0.37741663117E+03  0.25500000920E-02 0.  1.
</event>
<event>
 5   0  0.6551489E-03  0.8083566E+03  0.7818609E-02  0.9547999E-01
       -1   -1    0    0    0  501  0.00000000000E+00  0.00000000000E+00  0.84691354075E+03  0.84691354077E+03  0.50400001928E-02 0.  1.
        1   -1    0    0  501    0  0.00000000000E+00  0.00000000000E+00 -0.19288874939E+03  0.19288874946E+03  0.50400001928E-02 0. -1.
    10030    2    1    2    0    0  0.00000000000E+00  0.00000000000E+00  0.65402479136E+03  0.10398022902E+04  0.80835658904E+03 0.  0.
        4    1    3    3  502    0  0.38791478643E+03 -0.88759488971E+02  0.41799009095E+03  0.57712516619E+03  0.12699999809E+01 0.  1.
       -4    1    3    3    0  502 -0.38791478643E+03  0.88759488971E+02  0.23603470041E+03  0.46267712404E+03  0.12699999809E+01 0. -1.
</event>
<event>
 5   0  0.6557679E-03  0.7732460E+03  0.7818609E-02  0.9599571E-01
       -1   -1    0    0    0  501  0.00000000000E+00  0.00000000000E+00  0.33659561035E+03  0.33659561038E+03  0.50400001928E-02 0.  1.
        1   -1    0    0  501    0  0.00000000000E+00  0.00000000000E+00 -0.44408587813E+03  0.44408587816E+03  0.50400001928E-02 0. -1.
    10030    2    1    2    0    0  0.00000000000E+00  0.00000000000E+00 -0.10749026779E+03  0.78068148855E+03  0.77324603387E+03 0.  0.
        1    1    3    3  502    0  0.23088804610E+03  0.43748280460E+02 -0.36370569137E+03  0.43301851212E+03  0.50400001928E-02 0. -1.
       -1    1    3    3    0  502 -0.23088804610E+03 -0.43748280460E+02  0.25621542358E+03  0.34766297643E+03  0.50400001928E-02 0.  1.
</event>
<event>
 5   0  0.6557679E-03  0.7873055E+03  0.7818609E-02  0.9578576E-01
        1   -1    0    0  501    0  0.00000000000E+00  0.00000000000E+00  0.24605455438E+03  0.24605455443E+03  0.50400001928E-02 0.  1.
       -1   -1    0    0    0  501  0.00000000000E+00  0.00000000000E+00 -0.62978914202E+03  0.62978914204E+03  0.50400001928E-02 0. -1.
    10030    2    1    2    0    0  0.00000000000E+00  0.00000000000E+00 -0.38373458764E+03  0.87584369647E+03  0.78730549781E+03 0.  0.
        1    1    3    3  502    0 -0.49896892987E+02 -0.70768382107E+02 -0.61906336184E+03  0.62508984141E+03  0.50400001928E-02 0. -1.
       -1    1    3    3    0  502  0.49896892987E+02  0.70768382107E+02  0.23532877420E+03  0.25075385506E+03  0.50400001928E-02 0.  1.
</event>
<event>
 5   0  0.4385875E-03  0.8013990E+03  0.7818609E-02  0.9557994E-01
        3   -1    0    0  501    0  0.00000000000E+00  0.00000000000E+00  0.77776155694E+03  0.77776156350E+03  0.10100000352E+00 0.  1.
       -3   -1    0    0    0  501  0.00000000000E+00  0.00000000000E+00 -0.20643869592E+03  0.20643872062E+03  0.10100000352E+00 0. -1.
    10030    2    1    2    0    0  0.00000000000E+00  0.00000000000E+00  0.57132286102E+03  0.98420028412E+03  0.80139901905E+03 0.  0.
        4    1    3    3  502    0  0.43644815246E+02 -0.15865233909E+03 -0.16302996310E+03  0.23163725168E+03  0.12699999809E+01 0. -1.
       -4    1    3    3    0  502 -0.43644815246E+02  0.15865233909E+03  0.73435282412E+03  0.75256303244E+03  0.12699999809E+01 0.  1.
</event>
<event>
 5   0  0.1119792E-02  0.8040735E+03  0.7818609E-02  0.9554140E-01
        2   -1    0    0  501    0  0.00000000000E+00  0.00000000000E+00  0.14200704947E+04  0.14200704948E+04  0.25500000920E-02 0.  1.
       -2   -1    0    0    0  501  0.00000000000E+00  0.00000000000E+00 -0.11382078988E+03  0.11382078990E+03  0.25500000920E-02 0. -1.
    10030    2    1    2    0    0  0.00000000000E+00  0.00000000000E+00  0.13062497049E+04  0.15338912847E+04  0.80407349270E+03 0.  0.
        4    1    3    3  502    0  0.17021793780E+02  0.21239370526E+03  0.13034941304E+04  0.13207949835E+04  0.12699999809E+01 0.  1.
       -4    1    3    3    0  502 -0.17021793780E+02 -0.21239370526E+03  0.27555745029E+01  0.21309630120E+03  0.12699999809E+01 0. -1.
</event>
<event>
 5   0  0.6557679E-03  0.7998282E+03  0.7818609E-02  0.9560266E-01
       -1   -1    0    0    0  501  0.00000000000E+00  0.00000000000E+00  0.16469446773E+03  0.16469446781E+03  0.50400001928E-02 0. -1.
        1   -1    0    0  501    0  0.00000000000E+00  0.00000000000E+00 -0.97107861042E+03  0.97107861043E+03  0.50400001928E-02 0.  1.
    10030    2    1    2    0    0  0.00000000000E+00  0.00000000000E+00 -0.80638414268E+03  0.11357730782E+04  0.79982816885E+03 0.  0.
        1    1    3    3  502    0 -0.30052721614E+03 -0.16840316854E+03 -0.11476675239E+03  0.36310830656E+03  0.50400001928E-02 0. -1.
       -1    1    3    3    0  502  0.30052721614E+03  0.16840316854E+03 -0.69161739029E+03  0.77266477168E+03  0.50400001928E-02 0.  1.
</event>
<event>
 5   0  0.1119792E-02  0.7984995E+03  0.7818609E-02  0.9562192E-01
       -2   -1    0    0    0  501  0.00000000000E+00  0.00000000000E+00  0.14047032609E+03  0.14047032611E+03  0.25500000920E-02 0.  1.
        2   -1    0    0  501    0  0.00000000000E+00  0.00000000000E+00 -0.11347619348E+04  0.11347619348E+04  0.25500000920E-02 0. -1.
    10030    2    1    2    0    0  0.00000000000E+00  0.00000000000E+00 -0.99429160873E+03  0.12752322609E+04  0.79849954047E+03 0.  0.
        4    1    3    3  502    0 -0.37271158741E+02 -0.30533838375E+03 -0.90361601024E+03  0.95453872353E+03  0.12699999809E+01 0. -1.
       -4    1    3    3    0  502  0.37271158741E+02  0.30533838375E+03 -0.90675598492E+02  0.32069353740E+03  0.12699999809E+01 0.  1.
</event>
<event>
 5   0  0.1092868E-02  0.8015720E+03  0.7818609E-02  0.9557744E-01
       -2   -1    0    0    0  501  0.00000000000E+00  0.00000000000E+00  0.52876481743E+03  0.52876481743E+03  0.25500000920E-02 0. -1.
        2   -1    0    0  501    0  0.00000000000E+00  0.00000000000E+00 -0.30378237203E+03  0.30378237204E+03  0.25500000920E-02 0.  1.
    10030    2    1    2    0    0  0.00000000000E+00  0.00000000000E+00  0.22498244540E+03  0.83254718947E+03  0.80157203167E+03 0.  0.
        3    1    3    3  502    0 -0.30327771866E+03 -0.26103535047E+03  0.88975843528E+02  0.40991894292E+03  0.10100000352E+00 0.  1.
       -3    1    3    3    0  502  0.30327771866E+03  0.26103535047E+03  0.13600660187E+03  0.42262824655E+03  0.10100000352E+00 0. -1.
</event>
<event>
 5   0  0.1106332E-02  0.8034135E+03  0.7818609E-02  0.9555089E-01
       -2   -1    0    0    0  501  0.00000000000E+00  0.00000000000E+00  0.95456564868E+02  0.95456564903E+02  0.25500000920E-02 0. -1.
        2   -1    0    0  501    0  0.00000000000E+00  0.00000000000E+00 -0.16904895965E+04  0.16904895965E+04  0.25500000920E-02 0.  1.
    10030    2    1    2    0    0  0.00000000000E+00  0.00000000000E+00 -0.15950330316E+04  0.17859461614E+04  0.80341354197E+03 0.  0.
        1    1    3    3  502    0 -0.28104467374E+03 -0.25533190319E+03 -0.10889502836E+04  0.11532533155E+04  0.50400001928E-02 0.  1.
       -1    1    3    3    0  502  0.28104467374E+03  0.25533190319E+03 -0.50608274795E+03  0.63269284587E+03  0.50400001928E-02 0. -1.
</event>
<event>
 5   0  0.1119792E-02  0.7982913E+03  0.7818609E-02  0.9562494E-01
       -2   -1    0    0    0  501  0.00000000000E+00  0.00000000000E+00  0.24800890542E+03  0.24800890544E+03  0.25500000920E-02 0.  1.
        2   -1    0    0  501    0  0.00000000000E+00  0.00000000000E+00 -0.64238519665E+03  0.64238519666E+03  0.25500000920E-02 0. -1.
    10030    2    1    2    0    0  0.00000000000E+00  0.00000000000E+00 -0.39437629123E+03  0.89039410210E+03  0.79829129894E+03 0.  0.
        4    1    3    3  502    0 -0.21497746934E+03  0.83520295992E+02 -0.56054142555E+03  0.60613468373E+03  0.12699999809E+01 0. -1.
       -4    1    3    3    0  502  0.21497746934E+03 -0.83520295992E+02  0.16616513432E+03  0.28425941837E+03  0.12699999809E+01 0.  1.
</event>
<event>
 5   0  0.6557679E-03  0.7421394E+03  0.7818609E-02  0.9647764E-01
        1   -1    0    0  501    0  0.00000000000E+00  0.00000000000E+00  0.29371007029E+03  0.29371007033E+03  0.50400001928E-02 0. -1.
       -1   -1    0    0    0  501  0.00000000000E+00  0.00000000000E+00 -0.46880495635E+03  0.46880495638E+03  0.50400001928E-02 0.  1.
    10030    2    1    2    0    0  0.00000000000E+00  0.00000000000E+00 -0.17509488606E+03  0.76251502671E+03  0.74213943894E+03 0.  0.
        1    1    3    3  502    0 -0.10717118110E+03 -0.31767682791E+03  0.75842189288E+02  0.34373866054E+03  0.50400001928E-02 0.  1.
       -1    1    3    3    0  502  0.10717118110E+03  0.31767682791E+03 -0.25093707535E+03  0.41877636617E+03  0.50400001928E-02 0. -1.
</event>
<event>
 5   0  0.1092868E-02  0.8239262E+03  0.7818609E-02  0.9526016E-01
       -2   -1    0    0    0  501  0.00000000000E+00  0.00000000000E+00  0.38874088276E+03  0.38874088277E+03  0.25500000920E-02 0.  1.
        2   -1    0    0  501    0  0.00000000000E+00  0.00000000000E+00 -0.43657253447E+03  0.43657253447E+03  0.25500000920E-02 0. -1.
    10030    2    1    2    0    0  0.00000000000E+00  0.00000000000E+00 -0.47831651706E+02  0.82531341724E+03  0.82392619195E+03 0.  0.
        3    1    3    3  502    0 -0.13571369359E+03 -0.30587118818E+03  0.21677646821E+03  0.39870720806E+03  0.10100000352E+00 0.  1.
       -3    1    3    3    0  502  0.13571369359E+03  0.30587118818E+03 -0.26460811992E+03  0.42660620918E+03  0.10100000352E+00 0. -1.
</event>
<event>
 5   0  0.6557679E-03  0.8004497E+03  0.7818609E-02  0.9559366E-01
       -1   -1    0    0    0  501  0.00000000000E+00  0.00000000000E+00  0.47407887395E+03  0.47407887397E+03  0.50400001928E-02 0. -1.
        1   -1    0    0  501    0  0.00000000000E+00  0.00000000000E+00 -0.33787611943E+03  0.33787611947E+03  0.50400001928E-02 0.  1.
    10030    2    1    2    0    0  0.00000000000E+00  0.00000000000E+00  0.13620275452E+03  0.81195499344E+03  0.80044969925E+03 0.  0.
        1    1    3    3  502    0 -0.92888503366E+01  0.11743896121E+03  0.45609327254E+03  0.47106184905E+03  0.50400001928E-02 0. -1.
       -1    1    3    3    0  502  0.92888503366E+01 -0.11743896121E+03 -0.31989051802E+03  0.34089314439E+03  0.50400001928E-02 0.  1.
</event>
<event>
 5   0  0.1119792E-02  0.7988138E+03  0.7818609E-02  0.9561736E-01
        2   -1    0    0  501    0  0.00000000000E+00  0.00000000000E+00  0.10949575702E+04  0.10949575702E+04  0.25500000920E-02 0. -1.
       -2   -1    0    0    0  501  0.00000000000E+00  0.00000000000E+00 -0.14569136357E+03  0.14569136359E+03  0.25500000920E-02 0.  1.
    10030    2    1    2    0    0  0.00000000000E+00  0.00000000000E+00  0.94926620665E+03  0.12406489338E+04  0.79881377422E+03 0.  0.
        4    1    3    3  502    0 -0.55985634311E+02  0.27882092029E+03  0.91019439673E+03  0.95358845923E+03  0.12699999809E+01 0. -1.
       -4    1    3    3    0  502  0.55985634311E+02 -0.27882092029E+03  0.39071809921E+02  0.28706047458E+03  0.12699999809E+01 0.  1.
</event>
<event>
 5   0  0.1121480E-02  0.8006189E+03  0.7818609E-02  0.9559122E-01
       -2   -1    0    0    0  501  0.00000000000E+00  0.00000000000E+00  0.15315948759E+03  0.15315948761E+03  0.25500000920E-02 0.  1.
        2   -1    0    0  501    0  0.00000000000E+00  0.00000000000E+00 -0.10462796523E+04  0.10462796523E+04  0.25500000920E-02 0. -1.
    10030    2    1    2    0    0  0.00000000000E+00  0.00000000000E+00 -0.89312016467E+03  0.11994391399E+04  0.80061889918E+03 0.  0.
        2    1    3    3  502    0  0.15581197439E+03  0.17711336012E+03  0.37969827774E+02  0.23893141594E+03  0.25500000920E-02 0. -1.
       -2    1    3    3    0  502 -0.15581197439E+03 -0.17711336012E+03 -0.93108999244E+03  0.96050772393E+03  0.25500000920E-02 0.  1.
</event>
<event>
 5   0  0.1106332E-02  0.7995308E+03  0.7818609E-02  0.9560697E-01
       -2   -1    0    0    0  501  0.00000000000E+00  0.00000000000E+00  0.11450913884E+04  0.11450913884E+04  0.25500000920E-02 0. -1.
        2   -1    0    0  501    0  0.00000000000E+00  0.00000000000E+00 -0.13956298248E+03  0.13956298251E+03  0.25500000920E-02 0.  1.
    10030    2    1    2    0    0  0.00000000000E+00  0.00000000000E+00  0.10055284060E+04  0.12846543709E+04  0.79953078591E+03 0.  0.
        1    1    3    3  502    0  0.17837046758E+03 -0.23394820209E+02  0.10763777135E+04  0.10913076210E+04  0.50400001928E-02 0. -1.
       -1    1    3    3    0  502 -0.17837046758E+03  0.23394820209E+02 -0.70849307596E+02  0.19334674999E+03  0.50400001928E-02 0.  1.
</event>
<event>
 5   0  0.1092868E-02  0.7855144E+03  0.7818609E-02  0.9581224E-01
        2   -1    0    0  501    0  0.00000000000E+00  0.00000000000E+00  0.74571194110E+03  0.74571194110E+03  0.25500000920E-02 0.  1.
       -2   -1    0    0    0  501  0.00000000000E+00  0.00000000000E+00 -0.20686033005E+03  0.20686033006E+03  0.25500000920E-02 0. -1.
    10030    2    1    2    0    0  0.00000000000E+00  0.00000000000E+00  0.53885161105E+03  0.95257227116E+03  0.78551440029E+03 0.  0.
        3    1    3    3  502    0 -0.15242184356E+03  0.17857712707E+03 -0.11239490255E+03  0.26029758552E+03  0.10100000352E+00 0. -1.
       -3    1    3    3    0  502  0.15242184356E+03 -0.17857712707E+03  0.65124651360E+03  0.69227468565E+03  0.10100000352E+00 0.  1.
</event>
<event>
 5   0  0.4385875E-03  0.7803980E+03  0.7818609E-02  0.9588832E-01
       -3   -1    0    0    0  501  0.00000000000E+00  0.00000000000E+00  0.11199016853E+03  0.11199021407E+03  0.10100000352E+00 0. -1.
        3   -1    0    0  501    0  0.00000000000E+00  0.00000000000E+00 -0.13595409783E+04  0.13595409821E+04  0.10100000352E+00 0.  1.
    10030    2    1    2    0    0  0.00000000000E+00  0.00000000000E+00 -0.12475508098E+04  0.14715311962E+04  0.78039799988E+03 0.  0.
        1    1    3    3  502    0  0.49614986180E+02 -0.37326497701E+03 -0.81668851068E+03  0.89931558055E+03  0.50400001928E-02 0.  1.
       -1    1    3    3    0  502 -0.49614986180E+02  0.37326497701E+03 -0.43086229912E+03  0.57221561561E+03  0.50400001928E-02 0. -1.
</event>
<event>
 5   0  0.1121480E-02  0.8015538E+03  0.7818609E-02  0.9557771E-01
       -2   -1    0    0    0  501  0.00000000000E+00  0.00000000000E+00  0.27301217449E+03  0.27301217450E+03  0.25500000920E-02 0.  1.
        2   -1    0    0  501    0  0.00000000000E+00  0.00000000000E+00 -0.58833326100E+03  0.58833326100E+03  0.25500000920E-02 0. -1.
    10030    2    1    2    0    0  0.00000000000E+00  0.00000000000E+00 -0.31532108651E+03  0.86134543551E+03  0.80155384827E+03 0.  0.
        2    1    3    3  502    0  0.98926322784E+01  0.24119701471E+03 -0.50144396107E+03  0.55652485136E+03  0.25500000920E-02 0. -1.
       -2    1    3    3    0  502 -0.98926322784E+01 -0.24119701471E+03  0.18612287456E+03  0.30482058415E+03  0.25500000920E-02 0.  1.
</event>
<event>
 5   0  0.6600401E-03  0.7936827E+03  0.7818609E-02  0.9569206E-01
       -1   -1    0    0    0  501  0.00000000000E+00  0.00000000000E+00  0.74750335267E+03  0.74750335269E+03  0.50400001928E-02 0. -1.
        1   -1    0    0  501    0  0.00000000000E+00  0.00000000000E+00 -0.21067871525E+03  0.21067871531E+03  0.50400001928E-02 0.  1.
    10030    2    1    2    0    0  0.00000000000E+00  0.00000000000E+00  0.53682463742E+03  0.95818206800E+03  0.79368267216E+03 0.  0.
        2    1    3    3  502    0 -0.34005612070E+02  0.21082838321E+03  0.67221909092E+03  0.70532509882E+03  0.25500000920E-02 0. -1.
       -2    1    3    3    0  502  0.34005612070E+02 -0.21082838321E+03 -0.13539445350E+03  0.25285696918E+03  0.25500000920E-02 0.  1.
</event>
<event>
 5   0  0.6600401E-03  0.8083131E+03  0.7818609E-02  0.9548062E-01
       -1   -1    0    0    0  501  0.00000000000E+00  0.00000000000E+00  0.35064305454E+03  0.35064305457E+03  0.50400001928E-02 0. -1.
        1   -1    0    0  501    0  0.00000000000E+00  0.00000000000E+00 -0.46583706602E+03  0.46583706605E+03  0.50400001928E-02 0.  1.
    10030    2    1    2    0    0  0.00000000000E+00  0.00000000000E+00 -0.11519401148E+03  0.81648012062E+03  0.80831313678E+03 0.  0.
        2    1    3    3  502    0  0.28979514801E+03  0.74658253802E+01 -0.34205478223E+03  0.44837310402E+03  0.25500000920E-02 0.  1.
       -2    1    3    3    0  502 -0.28979514801E+03 -0.74658253802E+01  0.22686077074E+03  0.36810701660E+03  0.25500000920E-02 0. -1.
</event>
<event>
 5   0  0.6551489E-03  0.8920525E+03  0.7818609E-02  0.9435571E-01
        1   -1    0    0  501    0  0.00000000000E+00  0.00000000000E+00  0.73903644353E+03  0.73903644355E+03  0.50400001928E-02 0.  1.
       -1   -1    0    0    0  501  0.00000000000E+00  0.00000000000E+00 -0.26918753205E+03  0.26918753210E+03  0.50400001928E-02 0. -1.
    10030    2    1    2    0    0  0.00000000000E+00  0.00000000000E+00  0.46984891148E+03  0.10082239757E+04  0.89205245667E+03 0.  0.
        4    1    3    3  502    0  0.87233816667E+02  0.21872543723E+03 -0.19320316734E+03  0.30459749250E+03  0.12699999809E+01 0. -1.
       -4    1    3    3    0  502 -0.87233816667E+02 -0.21872543723E+03  0.66305207882E+03  0.70362648315E+03  0.12699999809E+01 0.  1.
</event>
<event>
 5   0  0.6596225E-03  0.8032499E+03  0.7818609E-02  0.9555325E-01
       -1   -1    0    0    0  501  0.00000000000E+00  0.00000000000E+00  0.12012084297E+03  0.12012084307E+03  0.50400001928E-02 0. -1.
        1   -1    0    0  501    0  0.00000000000E+00  0.00000000000E+00 -0.13428362289E+04  0.13428362289E+04  0.50400001928E-02 0.  1.
    10030    2    1    2    0    0  0.00000000000E+00  0.00000000000E+00 -0.12227153859E+04  0.14629570720E+04  0.80324994831E+03 0.  0.
        5    1    3    3  502    0 -0.37240543711E+03 -0.12128522557E+03 -0.44963494800E+03  0.59631333374E+03  0.46999998093E+01 0. -1.
       -5    1    3    3    0  502  0.37240543711E+03  0.12128522557E+03 -0.77308043794E+03  0.86664373825E+03  0.46999998093E+01 0.  1.
</event>
<event>
 5   0  0.6596225E-03  0.8020622E+03  0.7818609E-02  0.9557037E-01
        1   -1    0    0  501    0  0.00000000000E+00  0.00000000000E+00  0.39413994157E+03  0.39413994160E+03  0.50400001928E-02 0.  1.
       -1   -1    0    0    0  501  0.00000000000E+00  0.00000000000E+00 -0.40804269305E+03  0.40804269308E+03  0.50400001928E-02 0. -1.
    10030    2    1    2    0    0  0.00000000000E+00  0.00000000000E+00 -0.13902751476E+02  0.80218263468E+03  0.80206215026E+03 0.  0.
        5    1    3    3  502    0 -0.33321149992E+03 -0.13540663659E+03 -0.18428839511E+03  0.40416477269E+03  0.46999998093E+01 0. -1.
       -5    1    3    3    0  502  0.33321149992E+03  0.13540663659E+03  0.17038564364E+03  0.39801786199E+03  0.46999998093E+01 0.  1.
</event>
<event>
 5   0  0.1092868E-02  0.7967736E+03  0.7818609E-02  0.9564699E-01
        2   -1    0    0  501    0  0.00000000000E+00  0.00000000000E+00  0.10889030477E+04  0.10889030477E+04  0.25500000920E-02 0.  1.
       -2   -1    0    0    0  501  0.00000000000E+00  0.00000000000E+00 -0.14575404842E+03  0.14575404845E+03  0.25500000920E-02 0. -1.
    10030    2    1    2    0    0  0.00000000000E+00  0.00000000000E+00  0.94314899929E+03  0.12346570962E+04  0.79677356272E+03 0.  0.
        3    1    3    3  502    0  0.21112062760E+03 -0.32249710985E+03  0.62757951992E+03  0.73650008098E+03  0.10100000352E+00 0. -1.
       -3    1    3    3    0  502 -0.21112062760E+03  0.32249710985E+03  0.31556947937E+03  0.49815701518E+03  0.10100000352E+00 0.  1.
</event>
<event>
 5   0  0.1092868E-02  0.7964202E+03  0.7818609E-02  0.9565213E-01
       -2   -1    0    0    0  501  0.00000000000E+00  0.00000000000E+00  0.14641807936E+03  0.14641807938E+03  0.25500000920E-02 0. -1.
        2   -1    0    0  501    0  0.00000000000E+00  0.00000000000E+00 -0.10830033310E+04  0.10830033310E+04  0.25500000920E-02 0.  1.
    10030    2    1    2    0    0  0.00000000000E+00  0.00000000000E+00 -0.93658525164E+03  0.12294214104E+04  0.79642015966E+03 0.  0.
        3    1    3    3  502    0 -0.21270887208E+03 -0.55451186429E+02  0.44274210471E+02  0.22423227745E+03  0.10100000352E+00 0. -1.
       -3    1    3    3    0  502  0.21270887208E+03  0.55451186429E+02 -0.98085946211E+03  0.10051891329E+04  0.10100000352E+00 0.  1.
</event>
<event>
 5   0  0.6596225E-03  0.8035232E+03  0.7818609E-02  0.9554931E-01
        1   -1    0    0  501    0  0.00000000000E+00  0.00000000000E+00  0.46849378709E+03  0.46849378712E+03  0.50400001928E-02 0.  1.
       -1   -1    0    0    0  501  0.00000000000E+00  0.00000000000E+00 -0.34453473290E+03  0.34453473294E+03  0.50400001928E-02 0. -1.
    10030    2    1    2    0    0  0.00000000000E+00  0.00000000000E+00  0.12395905419E+03  0.81302852006E+03  0.80352319650E+03 0.  0.
        5    1    3    3  502    0  0.77793265098E+02 -0.36657531008E+03  0.20847148835E+03  0.42884927598E+03  0.46999998093E+01 0.  1.
       -5    1    3    3    0  502 -0.77793265098E+02  0.36657531008E+03 -0.84512434160E+02  0.38417924408E+03  0.46999998093E+01 0. -1.
</event>
<event>
 5   0  0.1106332E-02  0.7995513E+03  0.7818609E-02  0.9560667E-01
       -2   -1    0    0    0  501  0.00000000000E+00  0.00000000000E+00  0.16765509985E+03  0.16765509987E+03  0.25500000920E-02 0. -1.
        2   -1    0    0  501    0  0.00000000000E+00  0.00000000000E+00 -0.95327007588E+03  0.95327007588E+03  0.25500000920E-02 0.  1.
    10030    2    1    2    0    0  0.00000000000E+00  0.00000000000E+00 -0.78561497603E+03  0.11209251758E+04  0.79955134861E+03 0.  0.
        1    1    3    3  502    0  0.17824323548E+03  0.32431811839E+03 -0.60481022916E+03  0.70904746401E+03  0.50400001928E-02 0.  1.
       -1    1    3    3    0  502 -0.17824323548E+03 -0.32431811839E+03 -0.18080474687E+03  0.41187771174E+03  0.50400001928E-02 0. -1.
</event>
<event>
 5   0  0.6600401E-03  0.7950109E+03  0.7818609E-02  0.9567267E-01
        1   -1    0    0  501    0  0.00000000000E+00  0.00000000000E+00  0.53551293160E+03  0.53551293162E+03  0.50400001928E-02 0.  1.
       -1   -1    0    0    0  501  0.00000000000E+00  0.00000000000E+00 -0.29506402227E+03  0.29506402231E+03  0.50400001928E-02 0. -1.
    10030    2    1    2    0    0  0.00000000000E+00  0.00000000000E+00  0.24044890933E+03  0.83057695393E+03  0.79501094232E+03 0.  0.
        2    1    3    3  502    0  0.32908040431E+03 -0.13955910381E+03  0.30190032902E+03  0.46788296040E+03  0.25500000920E-02 0.  1.
       -2    1    3    3    0  502 -0.32908040431E+03  0.13955910381E+03 -0.61451419691E+02  0.36269399354E+03  0.25500000920E-02 0. -1.
</event>
<event>
 5   0  0.1092868E-02  0.7979210E+03  0.7818609E-02  0.9563031E-01
        2   -1    0    0  501    0  0.00000000000E+00  0.00000000000E+00  0.11379046257E+04  0.11379046257E+04  0.25500000920E-02 0. -1.
       -2   -1    0    0    0  501  0.00000000000E+00  0.00000000000E+00 -0.13987945776E+03  0.13987945779E+03  0.25500000920E-02 0.  1.
    10030    2    1    2    0    0  0.00000000000E+00  0.00000000000E+00  0.99802516791E+03  0.12777840835E+04  0.79792100371E+03 0.  0.
        3    1    3    3  502    0  0.20418424284E+03  0.31532738912E+03  0.71414157324E+03  0.80692054391E+03  0.10100000352E+00 0. -1.
       -3    1    3    3    0  502 -0.20418424284E+03 -0.31532738912E+03  0.28388359467E+03  0.47086353955E+03  0.10100000352E+00 0.  1.
</event>
<event>
 5   0  0.1119792E-02  0.8005478E+03  0.7818609E-02  0.9559224E-01
        2   -1    0    0  501    0  0.00000000000E+00  0.00000000000E+00  0.12004404444E+04  0.12004404444E+04  0.25500000920E-02 0.  1.
       -2   -1    0    0    0  501  0.00000000000E+00  0.00000000000E+00 -0.13346702449E+03  0.13346702451E+03  0.25500000920E-02 0. -1.
    10030    2    1    2    0    0  0.00000000000E+00  0.00000000000E+00  0.10669734199E+04  0.13339074689E+04  0.80054784792E+03 0.  0.
        4    1    3    3  502    0  0.27266228478E+03 -0.22526486469E+03  0.22118888639E+03  0.41715119222E+03  0.12699999809E+01 0. -1.
       -4    1    3    3    0  502 -0.27266228478E+03  0.22526486469E+03  0.84578453349E+03  0.91675627666E+03  0.12699999809E+01 0.  1.
</event>
<event>
 5   0  0.1154714E-02  0.7974979E+03  0.7818609E-02  0.9563646E-01
        2   -1    0    0  501    0  0.00000000000E+00  0.00000000000E+00  0.17786764023E+04  0.17786764023E+04  0.25500000920E-02 0. -1.
       -2   -1    0    0    0  501  0.00000000000E+00  0.00000000000E+00 -0.89392724627E+02  0.89392724663E+02  0.25500000920E-02 0.  1.
    10030    2    1    2    0    0  0.00000000000E+00  0.00000000000E+00  0.16892836776E+04  0.18680691269E+04  0.79749791188E+03 0.  0.
        5    1    3    3  502    0  0.35721062262E+03 -0.13264536293E+03  0.56962605755E+03  0.68533944630E+03  0.46999998093E+01 0.  1.
       -5    1    3    3    0  502 -0.35721062262E+03  0.13264536293E+03  0.11196576201E+04  0.11827296806E+04  0.46999998093E+01 0. -1.
</event>
<event>
 5   0  0.6557679E-03  0.7992763E+03  0.7818609E-02  0.9561065E-01
        1   -1    0    0  501    0  0.00000000000E+00  0.00000000000E+00  0.26114546226E+03  0.26114546231E+03  0.50400001928E-02 0. -1.
       -1   -1    0    0    0  501  0.00000000000E+00  0.00000000000E+00 -0.61157735813E+03  0.61157735815E+03  0.50400001928E-02 0.  1.
    10030    2    1    2    0    0  0.00000000000E+00  0.00000000000E+00 -0.35043189587E+03  0.87272282045E+03  0.79927630247E+03 0.  0.
        1    1    3    3  502    0 -0.60443218667E+02 -0.61085299360E+02 -0.60136959374E+03  0.60747854677E+03  0.50400001928E-02 0.  1.
       -1    1    3    3    0  502  0.60443218667E+02  0.61085299360E+02  0.25093769788E+03  0.26524427368E+03  0.50400001928E-02 0. -1.
</event>
<event>
 5   0  0.4385875E-03  0.8003021E+03  0.7818609E-02  0.9559580E-01
        3   -1    0    0  501    0  0.00000000000E+00  0.00000000000E+00  0.30696403540E+04  0.30696403556E+04  0.10100000352E+00 0. -1.
       -3   -1    0    0    0  501  0.00000000000E+00  0.00000000000E+00 -0.52162687580E+02  0.52162785361E+02  0.10100000352E+00 0.  1.
    10030    2    1    2    0    0  0.00000000000E+00  0.00000000000E+00  0.30174776664E+04  0.31218031410E+04  0.80030205795E+03 0.  0.
        5    1    3    3  502    0  0.26021803735E+03  0.22761108340E+03  0.22945165362E+04  0.23204198881E+04  0.46999998093E+01 0. -1.
       -5    1    3    3    0  502 -0.26021803735E+03 -0.22761108340E+03  0.72296113025E+03  0.80138325294E+03  0.46999998093E+01 0.  1.
</event>
<event>
 5   0  0.6517392E-03  0.8046378E+03  0.7818609E-02  0.9553328E-01
        1   -1    0    0  501    0  0.00000000000E+00  0.00000000000E+00  0.70838327803E+03  0.70838327805E+03  0.50400001928E-02 0. -1.
       -1   -1    0    0    0  501  0.00000000000E+00  0.00000000000E+00 -0.22849279944E+03  0.22849279950E+03  0.50400001928E-02 0.  1.
    10030    2    1    2    0    0  0.00000000000E+00  0.00000000000E+00  0.47989047859E+03  0.93687607755E+03  0.80463775281E+03 0.  0.
        3    1    3    3  502    0 -0.39574536455E+03  0.10346186357E+02  0.15647678674E+03  0.42568348820E+03  0.10100000352E+00 0. -1.
       -3    1    3    3    0  502  0.39574536455E+03 -0.10346186357E+02  0.32341369185E+03  0.51119258935E+03  0.10100000352E+00 0.  1.
</event>
<event>
 5   0  0.6551489E-03  0.7699170E+03  0.7818609E-02  0.9604612E-01
       -1   -1    0    0    0  501  0.00000000000E+00  0.00000000000E+00  0.18024021003E+03  0.18024021010E+03  0.50400001928E-02 0. -1.
        1   -1    0    0  501    0  0.00000000000E+00  0.00000000000E+00 -0.82219758725E+03  0.82219758726E+03  0.50400001928E-02 0.  1.
    10030    2    1    2    0    0  0.00000000000E+00  0.00000000000E+00 -0.64195737722E+03  0.10024377974E+04  0.76991704969E+03 0.  0.
        4    1    3    3  502    0 -0.16557352019E+03 -0.14495185269E+03 -0.73222724902E+03  0.76458092266E+03  0.12699999809E+01 0.  1.
       -4    1    3    3    0  502  0.16557352019E+03  0.14495185269E+03  0.90269871800E+02  0.23785687470E+03  0.12699999809E+01 0. -1.
</event>
<event>
 5   0  0.6596225E-03  0.8195136E+03  0.7818609E-02  0.9532194E-01
       -1   -1    0    0    0  501  0.00000000000E+00  0.00000000000E+00  0.34093318926E+03  0.34093318930E+03  0.50400001928E-02 0. -1.
        1   -1    0    0  501    0  0.00000000000E+00  0.00000000000E+00 -0.49247368538E+03  0.49247368540E+03  0.50400001928E-02 0.  1.
    10030    2    1    2    0    0  0.00000000000E+00  0.00000000000E+00 -0.15154049612E+03  0.83340687470E+03  0.81951357331E+03 0.  0.
        5    1    3    3  502    0  0.20506738536E+03 -0.26888095470E+02  0.28392497623E+03  0.35129913797E+03  0.46999998093E+01 0. -1.
       -5    1    3    3    0  502 -0.20506738536E+03  0.26888095470E+02 -0.43546547234E+03  0.48210773673E+03  0.46999998093E+01 0.  1.
</event>
<event>
 5   0  0.1092868E-02  0.8013378E+03  0.7818609E-02  0.9558083E-01
        2   -1    0    0  501    0  0.00000000000E+00  0.00000000000E+00  0.68949503098E+03  0.68949503098E+03  0.25500000920E-02 0.  1.
       -2   -1    0    0    0  501  0.00000000000E+00  0.00000000000E+00 -0.23283065117E+03  0.23283065118E+03  0.25500000920E-02 0. -1.
    10030    2    1    2    0    0  0.00000000000E+00  0.00000000000E+00  0.45666437981E+03  0.92232568216E+03  0.80133782401E+03 0.  0.
        3    1    3    3  502    0  0.30804125612E+03  0.79984681903E+02 -0.51828832212E+02  0.32244876005E+03  0.10100000352E+00 0. -1.
       -3    1    3    3    0  502 -0.30804125612E+03 -0.79984681903E+02  0.50849321202E+03  0.59987692211E+03  0.10100000352E+00 0.  1.
</event>
<event>
 5   0  0.6600401E-03  0.7999000E+03  0.7818609E-02  0.9560162E-01
       -1   -1    0    0    0  501  0.00000000000E+00  0.00000000000E+00  0.14276079005E+03  0.14276079014E+03  0.50400001928E-02 0.  1.
        1   -1    0    0  501    0  0.00000000000E+00  0.00000000000E+00 -0.11204757684E+04  0.11204757684E+04  0.50400001928E-02 0. -1.
    10030    2    1    2    0    0  0.00000000000E+00  0.00000000000E+00 -0.97771497834E+03  0.12632365585E+04  0.79990000872E+03 0.  0.
        2    1    3    3  502    0  0.54700293037E+02  0.20860546846E+03 -0.10207873588E+04  0.10433193161E+04  0.25500000920E-02 0. -1.
       -2    1    3    3    0  502 -0.54700293037E+02 -0.20860546846E+03  0.43072380475E+02  0.21991724238E+03  0.25500000920E-02 0.  1.
</event>
<event>
 5   0  0.6551489E-03  0.8052950E+03  0.7818609E-02  0.9552384E-01
        1   -1    0    0  501    0  0.00000000000E+00  0.00000000000E+00  0.36191749298E+03  0.36191749301E+03  0.50400001928E-02 0.  1.
       -1   -1    0    0    0  501  0.00000000000E+00  0.00000000000E+00 -0.44796129216E+03  0.44796129218E+03  0.50400001928E-02 0. -1.
    10030    2    1    2    0    0  0.00000000000E+00  0.00000000000E+00 -0.86043799180E+02  0.80987878520E+03  0.80529504614E+03 0.  0.
        4    1    3    3  502    0  0.35752791210E+03  0.52078329749E+02  0.13571153916E+03  0.38595024954E+03  0.12699999809E+01 0. -1.
       -4    1    3    3    0  502 -0.35752791210E+03 -0.52078329749E+02 -0.22175533834E+03  0.42392853565E+03  0.12699999809E+01 0.  1.
</event>
<event>
 5   0  0.6517392E-03  0.7976416E+03  0.7818609E-02  0.9563437E-01
        1   -1    0    0  501    0  0.00000000000E+00  0.00000000000E+00  0.81890873209E+03  0.81890873211E+03  0.50400001928E-02 0.  1.
       -1   -1    0    0    0  501  0.00000000000E+00  0.00000000000E+00 -0.19423171718E+03  0.19423171725E+03  0.50400001928E-02 0. -1.
    10030    2    1    2    0    0  0.00000000000E+00  0.00000000000E+00  0.62467701491E+03  0.10131404494E+04  0.79764164708E+03 0.  0.
        3    1    3    3  502    0  0.29874154389E+03  0.15732819119E+03  0.58195992486E+03  0.67281203477E+03  0.10100000352E+00 0.  1.
       -3    1    3    3    0  502 -0.29874154389E+03 -0.15732819119E+03  0.42717090052E+02  0.34032841458E+03  0.10100000352E+00 0. -1.
</event>
<event>
 5   0  0.6551489E-03  0.7599857E+03  0.7818609E-02  0.9619813E-01
       -1   -1    0    0    0  501  0.00000000000E+00  0.00000000000E+00  0.86747440644E+02  0.86747440790E+02  0.50400001928E-02 0. -1.
        1   -1    0    0  501    0  0.00000000000E+00  0.00000000000E+00 -0.16645399562E+04  0.16645399562E+04  0.50400001928E-02 0.  1.
    10030    2    1    2    0    0  0.00000000000E+00  0.00000000000E+00 -0.15777925155E+04  0.17512873970E+04  0.75998573982E+03 0.  0.
        4    1    3    3  502    0  0.20801499898E+03  0.10614539252E+03 -0.98139345008E+02  0.25331803744E+03  0.12699999809E+01 0. -1.
       -4    1    3    3    0  502 -0.20801499898E+03 -0.10614539252E+03 -0.14796531705E+04  0.14979693595E+04  0.12699999809E+01 0.  1.
</event>
<event>
 5   0  0.1121480E-02  0.8025634E+03  0.7818609E-02  0.9556314E-01
       -2   -1    0    0    0  501  0.00000000000E+00  0.00000000000E+00  0.20210095791E+03  0.20210095793E+03  0.25500000920E-02 0. -1.
        2   -1    0    0  501    0  0.00000000000E+00  0.00000000000E+00 -0.79676507772E+03  0.79676507772E+03  0.25500000920E-02 0.  1.
    10030    2    1    2    0    0  0.00000000000E+00  0.00000000000E+00 -0.59466411981E+03  0.99886603565E+03  0.80256335687E+03 0.  0.
        2    1    3    3  502    0  0.13937455680E+02  0.39777652722E+03 -0.23378984063E+03  0.46160384299E+03  0.25500000920E-02 0.  1.
       -2    1    3    3    0  502 -0.13937455680E+02 -0.39777652722E+03 -0.36087427918E+03  0.53726219266E+03  0.25500000920E-02 0. -1.
</event>
<event>
 5   0  0.1154714E-02  0.8087268E+03  0.7818609E-02  0.9547471E-01
       -2   -1    0    0    0  501  0.00000000000E+00  0.00000000000E+00  0.63423307215E+03  0.63423307216E+03  0.25500000920E-02 0. -1.
        2   -1    0    0  501    0  0.00000000000E+00  0.00000000000E+00 -0.25780706767E+03  0.25780706769E+03  0.25500000920E-02 0.  1.
    10030    2    1    2    0    0  0.00000000000E+00  0.00000000000E+00  0.37642600448E+03  0.89204013985E+03  0.80872682301E+03 0.  0.
        5    1    3    3  502    0 -0.15693214542E+03  0.27215852204E+03  0.46897323793E+03  0.56449618890E+03  0.46999998093E+01 0. -1.
       -5    1    3    3    0  502  0.15693214542E+03 -0.27215852204E+03 -0.92547233452E+02  0.32754395095E+03  0.46999998093E+01 0.  1.
</event>
<event>
 5   0  0.1092868E-02  0.7997801E+03  0.7818609E-02  0.9560335E-01
        2   -1    0    0  501    0  0.00000000000E+00  0.00000000000E+00  0.58764869858E+03  0.58764869858E+03  0.25500000920E-02 0. -1.
       -2   -1    0    0    0  501  0.00000000000E+00  0.00000000000E+00 -0.27212186524E+03  0.27212186525E+03  0.25500000920E-02 0.  1.
    10030    2    1    2    0    0  0.00000000000E+00  0.00000000000E+00  0.31552683334E+03  0.85977056383E+03  0.79978011970E+03 0.  0.
        3    1    3    3  502    0 -0.15194765591E+03 -0.13244174800E+03 -0.21351653969E+03  0.29362940873E+03  0.10100000352E+00 0.  1.
       -3    1    3    3    0  502  0.15194765591E+03  0.13244174800E+03  0.52904337303E+03  0.56614115510E+03  0.10100000352E+00 0. -1.
</event>
<event>
 5   0  0.1154714E-02  0.8042433E+03  0.7818609E-02  0.9553895E-01
        2   -1    0    0  501    0  0.00000000000E+00  0.00000000000E+00  0.76085754972E+03  0.76085754972E+03  0.25500000920E-02 0. -1.
       -2   -1    0    0    0  501  0.00000000000E+00  0.00000000000E+00 -0.21252577437E+03  0.21252577439E+03  0.25500000920E-02 0.  1.
    10030    2    1    2    0    0  0.00000000000E+00  0.00000000000E+00  0.54833177535E+03  0.97338332411E+03  0.80424334613E+03 0.  0.
        5    1    3    3  502    0  0.35785513893E+03 -0.97440093534E+02  0.86178382159E+02  0.38079348187E+03  0.46999998093E+01 0. -1.
       -5    1    3    3    0  502 -0.35785513893E+03  0.97440093534E+02  0.46215339319E+03  0.59258984223E+03  0.46999998093E+01 0.  1.
</event>
<event>
 5   0  0.6551489E-03  0.8183461E+03  0.7818609E-02  0.9533835E-01
        1   -1    0    0  501    0  0.00000000000E+00  0.00000000000E+00  0.34407491235E+03  0.34407491239E+03  0.50400001928E-02 0.  1.
       -1   -1    0    0    0  501  0.00000000000E+00  0.00000000000E+00 -0.48658754444E+03  0.48658754447E+03  0.50400001928E-02 0. -1.
    10030    2    1    2    0    0  0.00000000000E+00  0.00000000000E+00 -0.14251263209E+03  0.83066245685E+03  0.81834605572E+03 0.  0.
        4    1    3    3  502    0  0.39437170599E+03  0.30172506037E+02 -0.17762628662E+03  0.43358059597E+03  0.12699999809E+01 0. -1.
       -4    1    3    3    0  502 -0.39437170599E+03 -0.30172506037E+02  0.35113654523E+02  0.39708186088E+03  0.12699999809E+01 0.  1.
</event>
<event>
 5   0  0.6517392E-03  0.8030400E+03  0.7818609E-02  0.9555627E-01
        1   -1    0    0  501    0  0.00000000000E+00  0.00000000000E+00  0.22280046890E+03  0.22280046895E+03  0.50400001928E-02 0.  1.
       -1   -1    0    0    0  501  0.00000000000E+00  0.00000000000E+00 -0.72359956683E+03  0.72359956685E+03  0.50400001928E-02 0. -1.
    10030    2    1    2    0    0  0.00000000000E+00  0.00000000000E+00 -0.50079909793E+03  0.94640003580E+03  0.80304003093E+03 0.  0.
        3    1    3    3  502    0 -0.64070894237E+02  0.30421047701E+03 -0.54986747785E+03  0.63166711740E+03  0.10100000352E+00 0. -1.
       -3    1    3    3    0  502  0.64070894237E+02 -0.30421047701E+03  0.49068379915E+02  0.31473291840E+03  0.10100000352E+00 0.  1.
</event>
<event>
 5   0  0.6517392E-03  0.7992674E+03  0.7818609E-02  0.9561078E-01
       -1   -1    0    0    0  501  0.00000000000E+00  0.00000000000E+00  0.54723736820E+03  0.54723736822E+03  0.50400001928E-02 0. -1.
        1   -1    0    0  501    0  0.00000000000E+00  0.00000000000E+00 -0.29184248420E+03  0.29184248425E+03  0.50400001928E-02 0.  1.
    10030    2    1    2    0    0  0.00000000000E+00  0.00000000000E+00  0.25539488399E+03  0.83907985247E+03  0.79926744713E+03 0.  0.
        3    1    3    3  502    0 -0.69580591155E+02 -0.21642227383E+03  0.47274377258E+03  0.52456338415E+03  0.10100000352E+00 0. -1.
       -3    1    3    3    0  502  0.69580591155E+02  0.21642227383E+03 -0.21734888859E+03  0.31451646832E+03  0.10100000352E+00 0.  1.
</event>
<event>
 5   0  0.6596225E-03  0.7526263E+03  0.7818609E-02  0.9631239E-01
       -1   -1    0    0    0  501  0.00000000000E+00  0.00000000000E+00  0.47756492627E+03  0.47756492629E+03  0.50400001928E-02 0.  1.
        1   -1    0    0  501    0  0.00000000000E+00  0.00000000000E+00 -0.29652841476E+03  0.29652841480E+03  0.50400001928E-02 0. -1.
    10030    2    1    2    0    0  0.00000000000E+00  0.00000000000E+00  0.18103651151E+03  0.77409334110E+03  0.75262625667E+03 0.  0.
        5    1    3    3  502    0 -0.12369657138E+03  0.33245445317E+03 -0.38612273707E+02  0.35684703009E+03  0.46999998093E+01 0.  1.
       -5    1    3    3    0  502  0.12369657138E+03 -0.33245445317E+03  0.21964878521E+03  0.41724631101E+03  0.46999998093E+01 0. -1.
</event>
<event>
 5   0  0.1121480E-02  0.7967151E+03  0.7818609E-02  0.9564784E-01
       -2   -1    0    0    0  501  0.00000000000E+00  0.00000000000E+00  0.27205633098E+03  0.27205633099E+03  0.25500000920E-02 0. -1.
        2   -1    0    0  501    0  0.00000000000E+00  0.00000000000E+00 -0.58329362599E+03  0.58329362600E+03  0.25500000920E-02 0.  1.
    10030    2    1    2    0    0  0.00000000000E+00  0.00000000000E+00 -0.31123729501E+03  0.85534995699E+03  0.79671506520E+03 0.  0.
        2    1    3    3  502    0  0.26772032259E+03  0.20339577292E+03 -0.38498834672E+03  0.51113602757E+03  0.25500000920E-02 0.  1.
       -2    1    3    3    0  502 -0.26772032259E+03 -0.20339577292E+03  0.73751051704E+02  0.34421392941E+03  0.25500000920E-02 0. -1.
</event>
<event>
 5   0  0.1092868E-02  0.7975938E+03  0.7818609E-02  0.9563507E-01
        2   -1    0    0  501    0  0.00000000000E+00  0.00000000000E+00  0.56492508911E+03  0.56492508911E+03  0.25500000920E-02 0. -1.
       -2   -1    0    0    0  501  0.00000000000E+00  0.00000000000E+00 -0.28152219680E+03  0.28152219681E+03  0.25500000920E-02 0.  1.
    10030    2    1    2    0    0  0.00000000000E+00  0.00000000000E+00  0.28340289231E+03  0.84644728592E+03  0.79759376155E+03 0.  0.
        3    1    3    3  502    0  0.11204349096E+03  0.70372255346E+01  0.54780951254E+03  0.55919454454E+03  0.10100000352E+00 0. -1.
       -3    1    3    3    0  502 -0.11204349096E+03 -0.70372255346E+01 -0.26440662023E+03  0.28725274138E+03  0.10100000352E+00 0.  1.
</event>
<event>
 5   0  0.1092868E-02  0.8444439E+03  0.7818609E-02  0.9497825E-01
       -2   -1    0    0    0  501  0.00000000000E+00  0.00000000000E+00  0.25483184922E+03  0.25483184924E+03  0.25500000920E-02 0.  1.
        2   -1    0    0  501    0  0.00000000000E+00  0.00000000000E+00 -0.69956467367E+03  0.69956467367E+03  0.25500000920E-02 0. -1.
    10030    2    1    2    0    0  0.00000000000E+00  0.00000000000E+00 -0.44473282444E+03  0.95439652291E+03  0.84444386302E+03 0.  0.
        3    1    3    3  502    0 -0.19725898542E+01 -0.41956840034E+03 -0.16899698559E+03  0.45232900085E+03  0.10100000352E+00 0. -1.
       -3    1    3    3    0  502  0.19725898542E+01  0.41956840034E+03 -0.27573583886E+03  0.50206752206E+03  0.10100000352E+00 0.  1.
</event>
<event>
 5   0  0.6600401E-03  0.7761605E+03  0.7818609E-02  0.9595180E-01
        1   -1    0    0  501    0  0.00000000000E+00  0.00000000000E+00  0.29668502253E+03  0.29668502257E+03  0.50400001928E-02 0.  1.
       -1   -1    0    0    0  501  0.00000000000E+00  0.00000000000E+00 -0.50763025679E+03  0.50763025682E+03  0.50400001928E-02 0. -1.
    10030    2    1    2    0    0  0.00000000000E+00  0.00000000000E+00 -0.21094523427E+03  0.80431527939E+03  0.77616053545E+03 0.  0.
        2    1    3    3  502    0 -0.37253614408E+03  0.77025726575E+02 -0.18500391136E+03  0.42301606166E+03  0.25500000920E-02 0. -1.
       -2    1    3    3    0  502  0.37253614408E+03 -0.77025726575E+02 -0.25941322907E+02  0.38129921773E+03  0.25500000920E-02 0.  1.
</event>
<event>
 5   0  0.1119792E-02  0.7996916E+03  0.7818609E-02  0.9560464E-01
        2   -1    0    0  501    0  0.00000000000E+00  0.00000000000E+00  0.89933315339E+03  0.89933315339E+03  0.25500000920E-02 0.  1.
       -2   -1    0    0    0  501  0.00000000000E+00  0.00000000000E+00 -0.17777246741E+03  0.17777246743E+03  0.25500000920E-02 0. -1.
    10030    2    1    2    0    0  0.00000000000E+00  0.00000000000E+00  0.72156068598E+03  0.10771056208E+04  0.79969162485E+03 0.  0.
        4    1    3    3  502    0  0.77368006005E+02  0.27757109269E+03  0.73415035097E+03  0.78867602384E+03  0.12699999809E+01 0.  1.
       -4    1    3    3    0  502 -0.77368006005E+02 -0.27757109269E+03 -0.12589664993E+02  0.28842959698E+03  0.12699999809E+01 0. -1.
</event>
<event>
 5   0  0.1092868E-02  0.7998521E+03  0.7818609E-02  0.9560231E-01
       -2   -1    0    0    0  501  0.00000000000E+00  0.00000000000E+00  0.24065274328E+03  0.24065274329E+03  0.25500000920E-02 0. -1.
        2   -1    0    0  501    0  0.00000000000E+00  0.00000000000E+00 -0.66461252778E+03  0.66461252778E+03  0.25500000920E-02 0.  1.
    10030    2    1    2    0    0  0.00000000000E+00  0.00000000000E+00 -0.42395978450E+03  0.90526527108E+03  0.79985205641E+03 0.  0.
        3    1    3    3  502    0 -0.22551724805E+03  0.17564264504E+03 -0.52854253246E+03  0.60088733282E+03  0.10100000352E+00 0.  1.
       -3    1    3    3    0  502  0.22551724805E+03 -0.17564264504E+03  0.10458274796E+03  0.30437793825E+03  0.10100000352E+00 0. -1.
</event>
<event>
 5   0  0.1092868E-02  0.8093005E+03  0.7818609E-02  0.9546652E-01
        2   -1    0    0  501    0  0.00000000000E+00  0.00000000000E+00  0.25653666578E+04  0.25653666578E+04  0.25500000920E-02 0.  1.
       -2   -1    0    0    0  501  0.00000000000E+00  0.00000000000E+00 -0.63827845542E+02  0.63827845593E+02  0.25500000920E-02 0. -1.
    10030    2    1    2    0    0  0.00000000000E+00  0.00000000000E+00  0.25015388122E+04  0.26291945034E+04  0.80930050503E+03 0.  0.
        3    1    3    3  502    0  0.33280244519E+03 -0.20719756487E+03  0.92502877052E+03  0.10046723520E+04  0.10100000352E+00 0. -1.
       -3    1    3    3    0  502 -0.33280244519E+03  0.20719756487E+03  0.15765100417E+04  0.16245221514E+04  0.10100000352E+00 0.  1.
</event>
<event>
 5   0  0.4385875E-03  0.7773692E+03  0.7818609E-02  0.9593365E-01
       -3   -1    0    0    0  501  0.00000000000E+00  0.00000000000E+00  0.79409247428E+03  0.79409248070E+03  0.10100000352E+00 0.  1.
        3   -1    0    0  501    0  0.00000000000E+00  0.00000000000E+00 -0.19024950112E+03  0.19024952793E+03  0.10100000352E+00 0. -1.
    10030    2    1    2    0    0  0.00000000000E+00  0.00000000000E+00  0.60384297316E+03  0.98434200863E+03  0.77736918753E+03 0.  0.
        1    1    3    3  502    0  0.41111550751E+02 -0.10529499919E+02  0.79115001785E+03  0.79228743569E+03  0.50400001928E-02 0.  1.
       -1    1    3    3    0  502 -0.41111550751E+02  0.10529499919E+02 -0.18730704469E+03  0.19205457295E+03  0.50400001928E-02 0. -1.
</event>
<event>
 5   0  0.1092868E-02  0.7985217E+03  0.7818609E-02  0.9562159E-01
       -2   -1    0    0    0  501  0.00000000000E+00  0.00000000000E+00  0.14284956120E+03  0.14284956122E+03  0.25500000920E-02 0.  1.
        2   -1    0    0  501    0  0.00000000000E+00  0.00000000000E+00 -0.11159239210E+04  0.11159239210E+04  0.25500000920E-02 0. -1.
    10030    2    1    2    0    0  0.00000000000E+00  0.00000000000E+00 -0.97307435979E+03  0.12587734822E+04  0.79852174038E+03 0.  0.
        3    1    3    3  502    0  0.50427733347E+01 -0.23578069262E+02  0.14170082695E+03  0.14373757154E+03  0.10100000352E+00 0.  1.
       -3    1    3    3    0  502 -0.50427733347E+01  0.23578069262E+02 -0.11147751867E+04  0.11150359107E+04  0.10100000352E+00 0. -1.
</event>
<event>
 5   0  0.1154714E-02  0.8050768E+03  0.7818609E-02  0.9552698E-01
       -2   -1    0    0    0  501  0.00000000000E+00  0.00000000000E+00  0.23739829878E+03  0.23739829879E+03  0.25500000920E-02 0. -1.
        2   -1    0    0  501    0  0.00000000000E+00  0.00000000000E+00 -0.68255396657E+03  0.68255396658E+03  0.25500000920E-02 0.  1.
    10030    2    1    2    0    0  0.00000000000E+00  0.00000000000E+00 -0.44515566780E+03  0.91995226537E+03  0.80507676776E+03 0.  0.
        5    1    3    3  502    0  0.27845597981E+03  0.42010904981E+02  0.10605680771E+03  0.30095312806E+03  0.46999998093E+01 0. -1.
       -5    1    3    3    0  502 -0.27845597981E+03 -0.42010904981E+02 -0.55121247551E+03  0.61899913731E+03  0.46999998093E+01 0.  1.
</event>
<event>
 5   0  0.6517392E-03  0.8050934E+03  0.7818609E-02  0.9552674E-01
       -1   -1    0    0    0  501  0.00000000000E+00  0.00000000000E+00  0.14003924000E+03  0.14003924009E+03  0.50400001928E-02 0.  1.
        1   -1    0    0  501    0  0.00000000000E+00  0.00000000000E+00 -0.11571317587E+04  0.11571317587E+04  0.50400001928E-02 0. -1.
    10030    2    1    2    0    0  0.00000000000E+00  0.00000000000E+00 -0.10170925187E+04  0.12971709988E+04  0.80509341601E+03 0.  0.
        3    1    3    3  502    0  0.51157689973E+02  0.26610958775E+03 -0.28925188878E+02  0.27252173985E+03  0.10100000352E+00 0.  1.
       -3    1    3    3    0  502 -0.51157689973E+02 -0.26610958775E+03 -0.98816732978E+03  0.10246492589E+04  0.10100000352E+00 0. -1.
</event>
<event>
 5   0  0.4385875E-03  0.7949693E+03  0.7818609E-02  0.9567328E-01
       -3   -1    0    0    0  501  0.00000000000E+00  0.00000000000E+00  0.57851604854E+03  0.57851605736E+03  0.10100000352E+00 0. -1.
        3   -1    0    0  501    0  0.00000000000E+00  0.00000000000E+00 -0.27310225442E+03  0.27310227310E+03  0.10100000352E+00 0.  1.
    10030    2    1    2    0    0  0.00000000000E+00  0.00000000000E+00  0.30541379412E+03  0.85161833045E+03  0.79496930452E+03 0.  0.
        4    1    3    3  502    0  0.19821787761E+03 -0.22277326528E+03 -0.12884114623E+03  0.32483828067E+03  0.12699999809E+01 0.  1.
       -4    1    3    3    0  502 -0.19821787761E+03  0.22277326528E+03  0.43425494035E+03  0.52678004978E+03  0.12699999809E+01 0. -1.
</event>
<event>
 5   0  0.6600401E-03  0.7982333E+03  0.7818609E-02  0.9562578E-01
        1   -1    0    0  501    0  0.00000000000E+00  0.00000000000E+00  0.43290515651E+03  0.43290515653E+03  0.50400001928E-02 0.  1.
       -1   -1    0    0    0  501  0.00000000000E+00  0.00000000000E+00 -0.36796538106E+03  0.36796538109E+03  0.50400001928E-02 0. -1.
    10030    2    1    2    0    0  0.00000000000E+00  0.00000000000E+00  0.64939775446E+02  0.80087053763E+03  0.79823332654E+03 0.  0.
        2    1    3    3  502    0 -0.98365415364E+02  0.17243660787E+03 -0.31491668147E+03  0.37226691358E+03  0.25500000920E-02 0. -1.
       -2    1    3    3    0  502  0.98365415364E+02 -0.17243660787E+03  0.37985645692E+03  0.42860362404E+03  0.25500000920E-02 0.  1.
</event>
<event>
 5   0  0.6551489E-03  0.8006356E+03  0.7818609E-02  0.9559098E-01
        1   -1    0    0  501    0  0.00000000000E+00  0.00000000000E+00  0.12253899939E+04  0.12253899939E+04  0.50400001928E-02 0.  1.
       -1   -1    0    0    0  501  0.00000000000E+00  0.00000000000E+00 -0.13077824633E+03  0.13077824642E+03  0.50400001928E-02 0. -1.
    10030    2    1    2    0    0  0.00000000000E+00  0.00000000000E+00  0.10946117476E+04  0.13561682403E+04  0.80063563383E+03 0.  0.
        4    1    3    3  502    0 -0.25829978316E+03  0.10339938420E+03  0.59771396116E+02  0.28457765782E+03  0.12699999809E+01 0. -1.
       -4    1    3    3    0  502  0.25829978316E+03 -0.10339938420E+03  0.10348403514E+04  0.10715905825E+04  0.12699999809E+01 0.  1.
</event>
<event>
 5   0  0.1092868E-02  0.8043400E+03  0.7818609E-02  0.9553756E-01
       -2   -1    0    0    0  501  0.00000000000E+00  0.00000000000E+00  0.22799212566E+03  0.22799212568E+03  0.25500000920E-02 0.  1.
        2   -1    0    0  501    0  0.00000000000E+00  0.00000000000E+00 -0.70941363727E+03  0.70941363727E+03  0.25500000920E-02 0. -1.
    10030    2    1    2    0    0  0.00000000000E+00  0.00000000000E+00 -0.48142151160E+03  0.93740576295E+03  0.80434003542E+03 0.  0.
        3    1    3    3  502    0  0.37221568997E+03  0.11033604115E+03 -0.36306558456E+03  0.53154039426E+03  0.10100000352E+00 0. -1.
       -3    1    3    3    0  502 -0.37221568997E+03 -0.11033604115E+03 -0.11835592704E+03  0.40586536869E+03  0.10100000352E+00 0.  1.
</event>
<event>
 5   0  0.1092868E-02  0.8004839E+03  0.7818609E-02  0.9559317E-01
       -2   -1    0    0    0  501  0.00000000000E+00  0.00000000000E+00  0.13233972239E+03  0.13233972241E+03  0.25500000920E-02 0. -1.
        2   -1    0    0  501    0  0.00000000000E+00  0.00000000000E+00 -0.12104727593E+04  0.12104727593E+04  0.25500000920E-02 0.  1.
    10030    2    1    2    0    0  0.00000000000E+00  0.00000000000E+00 -0.10781330369E+04  0.13428124817E+04  0.80048392599E+03 0.  0.
        3    1    3    3  502    0 -0.20486902259E+03 -0.23601625588E+03 -0.95850423243E+03  0.10081693128E+04  0.10100000352E+00 0.  1.
       -3    1    3    3    0  502  0.20486902259E+03  0.23601625588E+03 -0.11962880449E+03  0.33464316894E+03  0.10100000352E+00 0. -1.
</event>
<event>
 5   0  0.1106332E-02  0.8008111E+03  0.7818609E-02  0.9558844E-01
       -2   -1    0    0    0  501  0.00000000000E+00  0.00000000000E+00  0.25470569174E+03  0.25470569175E+03  0.25500000920E-02 0. -1.
        2   -1    0    0  501    0  0.00000000000E+00  0.00000000000E+00 -0.62945039032E+03  0.62945039033E+03  0.25500000920E-02 0.  1.
    10030    2    1    2    0    0  0.00000000000E+00  0.00000000000E+00 -0.37474469858E+03  0.88415608208E+03  0.80081108157E+03 0.  0.
        1    1    3    3  502    0 -0.58819483753E+02  0.36846495250E+03 -0.27001998165E+02  0.37410594866E+03  0.50400001928E-02 0. -1.
       -1    1    3    3    0  502  0.58819483753E+02 -0.36846495250E+03 -0.34774270042E+03  0.51005013343E+03  0.50400001928E-02 0.  1.
</event>
<event>
 5   0  0.6557679E-03  0.7986002E+03  0.7818609E-02  0.9562046E-01
        1   -1    0    0  501    0  0.00000000000E+00  0.00000000000E+00  0.17842923422E+04  0.17842923422E+04  0.50400001928E-02 0. -1.
       -1   -1    0    0    0  501  0.00000000000E+00  0.00000000000E+00 -0.89357865931E+02  0.89357866073E+02  0.50400001928E-02 0.  1.
    10030    2    1    2    0    0  0.00000000000E+00  0.00000000000E+00  0.16949344763E+04  0.18736502083E+04  0.79860016538E+03 0.  0.
        1    1    3    3  502    0  0.35274558306E+03  0.90090398716E+02  0.46270404590E+03  0.58876205756E+03  0.50400001928E-02 0.  1.
       -1    1    3    3    0  502 -0.35274558306E+03 -0.90090398716E+02  0.12322304304E+04  0.12848881507E+04  0.50400001928E-02 0. -1.
</event>
<event>
 5   0  0.1121480E-02  0.8028303E+03  0.7818609E-02  0.9555929E-01
       -2   -1    0    0    0  501  0.00000000000E+00  0.00000000000E+00  0.41791642102E+03  0.41791642102E+03  0.25500000920E-02 0.  1.
        2   -1    0    0  501    0  0.00000000000E+00  0.00000000000E+00 -0.38556544021E+03  0.38556544022E+03  0.25500000920E-02 0. -1.
    10030    2    1    2    0    0  0.00000000000E+00  0.00000000000E+00  0.32350980809E+02  0.80348186124E+03  0.80283031544E+03 0.  0.
        2    1    3    3  502    0  0.33482755412E+03  0.21248921399E+03  0.78459201269E+02  0.40424868995E+03  0.25500000920E-02 0. -1.
       -2    1    3    3    0  502 -0.33482755412E+03 -0.21248921399E+03 -0.46108220460E+02  0.39923317129E+03  0.25500000920E-02 0.  1.
</event>
<event>
 5   0  0.1092868E-02  0.7988229E+03  0.7818609E-02  0.9561722E-01
       -2   -1    0    0    0  501  0.00000000000E+00  0.00000000000E+00  0.20998963530E+03  0.20998963531E+03  0.25500000920E-02 0.  1.
        2   -1    0    0  501    0  0.00000000000E+00  0.00000000000E+00 -0.75970187195E+03  0.75970187196E+03  0.25500000920E-02 0. -1.
    10030    2    1    2    0    0  0.00000000000E+00  0.00000000000E+00 -0.54971223665E+03  0.96969150727E+03  0.79882293166E+03 0.  0.
        3    1    3    3  502    0  0.88338311160E+02 -0.10226793134E+03 -0.73110689514E+03  0.74349155296E+03  0.10100000352E+00 0. -1.
       -3    1    3    3    0  502 -0.88338311160E+02  0.10226793134E+03  0.18139465849E+03  0.22619995431E+03  0.10100000352E+00 0.  1.
</event>
<event>
 5   0  0.6557679E-03  0.8034562E+03  0.7818609E-02  0.9555028E-01
       -1   -1    0    0    0  501  0.00000000000E+00  0.00000000000E+00  0.14050706653E+03  0.14050706662E+03  0.50400001928E-02 0.  1.
        1   -1    0    0  501    0  0.00000000000E+00  0.00000000000E+00 -0.11485932179E+04  0.11485932179E+04  0.50400001928E-02 0. -1.
    10030    2    1    2    0    0  0.00000000000E+00  0.00000000000E+00 -0.10080861513E+04  0.12891002845E+04  0.80345619357E+03 0.  0.
        1    1    3    3  502    0  0.17412532563E+03  0.33678729206E+02 -0.10823812472E+04  0.10968149571E+04  0.50400001928E-02 0. -1.
       -1    1    3    3    0  502 -0.17412532563E+03 -0.33678729206E+02  0.74295095878E+02  0.19228532737E+03  0.50400001928E-02 0.  1.
</event>
<event>
 5   0  0.1119792E-02  0.8025431E+03  0.7818609E-02  0.9556343E-01
        2   -1    0    0  501    0  0.00000000000E+00  0.00000000000E+00  0.48271349843E+03  0.48271349843E+03  0.25500000920E-02 0.  1.
       -2   -1    0    0    0  501  0.00000000000E+00  0.00000000000E+00 -0.33357024807E+03  0.33357024808E+03  0.25500000920E-02 0. -1.
    10030    2    1    2    0    0  0.00000000000E+00  0.00000000000E+00  0.14914325036E+03  0.81628374651E+03  0.80254311142E+03 0.  0.
        4    1    3    3  502    0 -0.10326260618E+03  0.23677701769E+03 -0.23775374897E+03  0.35107688615E+03  0.12699999809E+01 0. -1.
       -4    1    3    3    0  502  0.10326260618E+03 -0.23677701769E+03  0.38689699933E+03  0.46520686036E+03  0.12699999809E+01 0.  1.
</event>
<event>
 5   0  0.6596225E-03  0.7799031E+03  0.7818609E-02  0.9589571E-01
       -1   -1    0    0    0  501  0.00000000000E+00  0.00000000000E+00  0.75910658651E+03  0.75910658653E+03  0.50400001928E-02 0.  1.
        1   -1    0    0  501    0  0.00000000000E+00  0.00000000000E+00 -0.20031735147E+03  0.20031735153E+03  0.50400001928E-02 0. -1.
    10030    2    1    2    0    0  0.00000000000E+00  0.00000000000E+00  0.55878923505E+03  0.95942393806E+03  0.77990312457E+03 0.  0.
        5    1    3    3  502    0  0.57688931182E+02 -0.18206190495E+03 -0.13880549292E+03  0.23614318724E+03  0.46999998093E+01 0. -1.
       -5    1    3    3    0  502 -0.57688931182E+02  0.18206190495E+03  0.69759472797E+03  0.72328075082E+03  0.46999998093E+01 0.  1.
</event>
<event>
 5   0  0.1154714E-02  0.7997652E+03  0.7818609E-02  0.9560357E-01
        2   -1    0    0  501    0  0.00000000000E+00  0.00000000000E+00  0.20392897114E+03  0.20392897116E+03  0.25500000920E-02 0.  1.
       -2   -1    0    0    0  501  0.00000000000E+00  0.00000000000E+00 -0.78412632097E+03  0.78412632097E+03  0.25500000920E-02 0. -1.
    10030    2    1    2    0    0  0.00000000000E+00  0.00000000000E+00 -0.58019734982E+03  0.98805529213E+03  0.79976515026E+03 0.  0.
        5    1    3    3  502    0  0.12868241201E+03 -0.90349718692E+02  0.16409980285E+03  0.22731711357E+03  0.46999998093E+01 0.  1.
       -5    1    3    3    0  502 -0.12868241201E+03  0.90349718692E+02 -0.74429715268E+03  0.76073817856E+03  0.46999998093E+01 0. -1.
</event>
<event>
 5   0  0.1119792E-02  0.8063590E+03  0.7818609E-02  0.9550858E-01
       -2   -1    0    0    0  501  0.00000000000E+00  0.00000000000E+00  0.38279690025E+03  0.38279690026E+03  0.25500000920E-02 0.  1.
        2   -1    0    0  501    0  0.00000000000E+00  0.00000000000E+00 -0.42464743605E+03  0.42464743605E+03  0.25500000920E-02 0. -1.
    10030    2    1    2    0    0  0.00000000000E+00  0.00000000000E+00 -0.41850535795E+02  0.80744433631E+03  0.80635903225E+03 0.  0.
        4    1    3    3  502    0  0.18015388418E+03  0.24727012062E+03 -0.28386996721E+03  0.41735081852E+03  0.12699999809E+01 0. -1.
       -4    1    3    3    0  502 -0.18015388418E+03 -0.24727012062E+03  0.24201943142E+03  0.39009351779E+03  0.12699999809E+01 0.  1.
</event>
<event>
 5   0  0.1092868E-02  0.7938734E+03  0.7818609E-02  0.9568928E-01
        2   -1    0    0  501    0  0.00000000000E+00  0.00000000000E+00  0.92371547544E+03  0.92371547544E+03  0.25500000920E-02 0.  1.
       -2   -1    0    0    0  501  0.00000000000E+00  0.00000000000E+00 -0.17057064459E+03  0.17057064461E+03  0.25500000920E-02 0. -1.
    10030    2    1    2    0    0  0.00000000000E+00  0.00000000000E+00  0.75314483084E+03  0.10942861201E+04  0.79387340068E+03 0.  0.
        3    1    3    3  502    0  0.38346376059E+03  0.20624917314E+02  0.23811973939E+03  0.45185270099E+03  0.10100000352E+00 0. -1.
       -3    1    3    3    0  502 -0.38346376059E+03 -0.20624917314E+02  0.51502509145E+03  0.64243341906E+03  0.10100000352E+00 0.  1.
</event>
<event>
 5   0  0.1092868E-02  0.8043334E+03  0.7818609E-02  0.9553766E-01
        2   -1    0    0  501    0  0.00000000000E+00  0.00000000000E+00  0.23492542774E+03  0.23492542776E+03  0.25500000920E-02 0. -1.
       -2   -1    0    0    0  501  0.00000000000E+00  0.00000000000E+00 -0.68846554866E+03  0.68846554866E+03  0.25500000920E-02 0.  1.
    10030    2    1    2    0    0  0.00000000000E+00  0.00000000000E+00 -0.45354012091E+03  0.92339097642E+03  0.80433342219E+03 0.  0.
        3    1    3    3  502    0  0.24495025312E+03  0.30262182126E+03 -0.11106773878E+03  0.40486620754E+03  0.10100000352E+00 0. -1.
       -3    1    3    3    0  502 -0.24495025312E+03 -0.30262182126E+03 -0.34247238214E+03  0.51852476888E+03  0.10100000352E+00 0.  1.
</event>
<event>
 5   0  0.1119792E-02  0.7906109E+03  0.7818609E-02  0.9573708E-01
       -2   -1    0    0    0  501  0.00000000000E+00  0.00000000000E+00  0.25930754599E+03  0.25930754601E+03  0.25500000920E-02 0. -1.
        2   -1    0    0  501    0  0.00000000000E+00  0.00000000000E+00 -0.60262960842E+03  0.60262960842E+03  0.25500000920E-02 0.  1.
    10030    2    1    2    0    0  0.00000000000E+00  0.00000000000E+00 -0.34332206242E+03  0.86193715443E+03  0.79061091546E+03 0.  0.
        4    1    3    3  502    0  0.15244289159E+03 -0.12888222185E+03 -0.54363956809E+03  0.57913302030E+03  0.12699999809E+01 0.  1.
       -4    1    3    3    0  502 -0.15244289159E+03  0.12888222185E+03  0.20031750567E+03  0.28280413413E+03  0.12699999809E+01 0. -1.
</event>
<event>
 5   0  0.1092868E-02  0.7940483E+03  0.7818609E-02  0.9568672E-01
        2   -1    0    0  501    0  0.00000000000E+00  0.00000000000E+00  0.20098745167E+04  0.20098745167E+04  0.25500000920E-02 0. -1.
       -2   -1    0    0    0  501  0.00000000000E+00  0.00000000000E+00 -0.78426883480E+02  0.78426883521E+02  0.25500000920E-02 0.  1.
    10030    2    1    2    0    0  0.00000000000E+00  0.00000000000E+00  0.19314476332E+04  0.20883014002E+04  0.79404834758E+03 0.  0.
        3    1    3    3  502    0 -0.10994343383E+03  0.35115880262E+03  0.13578245099E+04  0.14068004382E+04  0.10100000352E+00 0. -1.
       -3    1    3    3    0  502  0.10994343383E+03 -0.35115880262E+03  0.57362312333E+03  0.68150096194E+03  0.10100000352E+00 0.  1.
</event>
<event>
 5   0  0.4385875E-03  0.8156601E+03  0.7818609E-02  0.9537622E-01
        3   -1    0    0  501    0  0.00000000000E+00  0.00000000000E+00  0.53893920587E+03  0.53893921533E+03  0.10100000352E+00 0. -1.
       -3   -1    0    0    0  501  0.00000000000E+00  0.00000000000E+00 -0.30861611568E+03  0.30861613221E+03  0.10100000352E+00 0.  1.
    10030    2    1    2    0    0  0.00000000000E+00  0.00000000000E+00  0.23032309019E+03  0.84755534754E+03  0.81566006477E+03 0.  0.
        1    1    3    3  502    0  0.61891291981E+02  0.44526108061E+02 -0.30114470556E+03  0.31064648724E+03  0.50400001928E-02 0.  1.
       -1    1    3    3    0  502 -0.61891291981E+02 -0.44526108061E+02  0.53146779575E+03  0.53690886030E+03  0.50400001928E-02 0. -1.
</event>
<event>
 5   0  0.6596225E-03  0.8013424E+03  0.7818609E-02  0.9558076E-01
        1   -1    0    0  501    0  0.00000000000E+00  0.00000000000E+00  0.32052703303E+03  0.32052703307E+03  0.50400001928E-02 0.  1.
       -1   -1    0    0    0  501  0.00000000000E+00  0.00000000000E+00 -0.50085454236E+03  0.50085454239E+03  0.50400001928E-02 0. -1.
    10030    2    1    2    0    0  0.00000000000E+00  0.00000000000E+00 -0.18032750934E+03  0.82138157545E+03  0.80134242486E+03 0.  0.
        5    1    3    3  502    0  0.13056937960E+03  0.29789404851E+02 -0.47720340128E+03  0.49566213061E+03  0.46999998093E+01 0. -1.
       -5    1    3    3    0  502 -0.13056937960E+03 -0.29789404851E+02  0.29687589195E+03  0.32571944484E+03  0.46999998093E+01 0.  1.
</event>
<event>
 5   0  0.1106332E-02  0.7996950E+03  0.7818609E-02  0.9560459E-01
       -2   -1    0    0    0  501  0.00000000000E+00  0.00000000000E+00  0.89383896738E+02  0.89383896775E+02  0.25500000920E-02 0. -1.
        2   -1    0    0  501    0  0.00000000000E+00  0.00000000000E+00 -0.17886670383E+04  0.17886670383E+04  0.25500000920E-02 0.  1.
    10030    2    1    2    0    0  0.00000000000E+00  0.00000000000E+00 -0.16992831415E+04  0.18780509351E+04  0.79969501658E+03 0.  0.
        1    1    3    3  502    0 -0.11179299326E+03 -0.22844835965E+03 -0.15742152042E+04  0.15946284318E+04  0.50400001928E-02 0.  1.
       -1    1    3    3    0  502  0.11179299326E+03  0.22844835965E+03 -0.12506793733E+03  0.28342250324E+03  0.50400001928E-02 0. -1.
</event>
<event>
 5   0  0.6557679E-03  0.8635196E+03  0.7818609E-02  0.9472369E-01
        1   -1    0    0  501    0  0.00000000000E+00  0.00000000000E+00  0.35433462105E+03  0.35433462109E+03  0.50400001928E-02 0. -1.
       -1   -1    0    0    0  501  0.00000000000E+00  0.00000000000E+00 -0.52610310050E+03  0.52610310053E+03  0.50400001928E-02 0.  1.
    10030    2    1    2    0    0  0.00000000000E+00  0.00000000000E+00 -0.17176847945E+03  0.88043772161E+03  0.86351964141E+03 0.  0.
        1    1    3    3  502    0  0.25363114383E+03  0.30787874754E+03  0.82575262926E+02  0.40735335322E+03  0.50400001928E-02 0. -1.
       -1    1    3    3    0  502 -0.25363114383E+03 -0.30787874754E+03 -0.25434374238E+03  0.47308436839E+03  0.50400001928E-02 0.  1.
</event>
<event>
 5   0  0.1119792E-02  0.8180530E+03  0.7818609E-02  0.9534248E-01
       -2   -1    0    0    0  501  0.00000000000E+00  0.00000000000E+00  0.55182827681E+03  0.55182827682E+03  0.25500000920E-02 0.  1.
        2   -1    0    0  501    0  0.00000000000E+00  0.00000000000E+00 -0.30317891431E+03  0.30317891432E+03  0.25500000920E-02 0. -1.
    10030    2    1    2    0    0  0.00000000000E+00  0.00000000000E+00  0.24864936250E+03  0.85500719113E+03  0.81805304927E+03 0.  0.
        4    1    3    3  502    0  0.32855842238E+03 -0.39080142980E+02  0.37565178410E+03  0.50059341815E+03  0.12699999809E+01 0.  1.
       -4    1    3    3    0  502 -0.32855842238E+03  0.39080142980E+02 -0.12700242159E+03  0.35441377299E+03  0.12699999809E+01 0. -1.
</event>
<event>
 5   0  0.1119792E-02  0.8026432E+03  0.7818609E-02  0.9556199E-01
       -2   -1    0    0    0  501  0.00000000000E+00  0.00000000000E+00  0.19513578836E+03  0.19513578838E+03  0.25500000920E-02 0.  1.
        2   -1    0    0  501    0  0.00000000000E+00  0.00000000000E+00 -0.82536903447E+03  0.82536903447E+03  0.25500000920E-02 0. -1.
    10030    2    1    2    0    0  0.00000000000E+00  0.00000000000E+00 -0.63023324611E+03  0.10205048229E+04  0.80264322645E+03 0.  0.
        4    1    3    3  502    0  0.17196024937E+03  0.26092589124E+03 -0.63526662123E+03  0.70796747173E+03  0.12699999809E+01 0. -1.
       -4    1    3    3    0  502 -0.17196024937E+03 -0.26092589124E+03  0.50333751214E+01  0.31253735112E+03  0.12699999809E+01 0.  1.
</event>
<event>
 5   0  0.6596225E-03  0.8026887E+03  0.7818609E-02  0.9556133E-01
       -1   -1    0    0    0  501  0.00000000000E+00  0.00000000000E+00  0.33314246207E+03  0.33314246211E+03  0.50400001928E-02 0.  1.
        1   -1    0    0  501    0  0.00000000000E+00  0.00000000000E+00 -0.48350874946E+03  0.48350874949E+03  0.50400001928E-02 0. -1.
    10030    2    1    2    0    0  0.00000000000E+00  0.00000000000E+00 -0.15036628740E+03  0.81665121160E+03  0.80268871988E+03 0.  0.
        5    1    3    3  502    0  0.52425313769E+02 -0.32745681941E+03  0.15475440235E+03  0.36598824728E+03  0.46999998093E+01 0.  1.
       -5    1    3    3    0  502 -0.52425313769E+02  0.32745681941E+03 -0.30512068974E+03  0.45066296432E+03  0.46999998093E+01 0. -1.
</event>
<event>
 5   0  0.1119792E-02  0.7994280E+03  0.7818609E-02  0.9560845E-01
        2   -1    0    0  501    0  0.00000000000E+00  0.00000000000E+00  0.10951710050E+04  0.10951710050E+04  0.25500000920E-02 0. -1.
       -2   -1    0    0    0  501  0.00000000000E+00  0.00000000000E+00 -0.14588704687E+03  0.14588704690E+03  0.25500000920E-02 0.  1.
    10030    2    1    2    0    0  0.00000000000E+00  0.00000000000E+00  0.94928395813E+03  0.12410580519E+04  0.79942795487E+03 0.  0.
        4    1    3    3  502    0 -0.24126252133E+03 -0.11635969447E+03  0.93522671044E+03  0.97282978753E+03  0.12699999809E+01 0. -1.
       -4    1    3    3    0  502  0.24126252133E+03  0.11635969447E+03  0.14057247695E+02  0.26822826437E+03  0.12699999809E+01 0.  1.
</event>
<event>
 5   0  0.1106332E-02  0.7988969E+03  0.7818609E-02  0.9561615E-01
        2   -1    0    0  501    0  0.00000000000E+00  0.00000000000E+00  0.68907264343E+03  0.68907264344E+03  0.25500000920E-02 0.  1.
       -2   -1    0    0    0  501  0.00000000000E+00  0.00000000000E+00 -0.23155620712E+03  0.23155620714E+03  0.25500000920E-02 0. -1.
    10030    2    1    2    0    0  0.00000000000E+00  0.00000000000E+00  0.45751643631E+03  0.92062885057E+03  0.79889685881E+03 0.  0.
        1    1    3    3  502    0  0.32567303402E+03 -0.22605246755E+03  0.28517053487E+03  0.48834913449E+03  0.50400001928E-02 0.  1.
       -1    1    3    3    0  502 -0.32567303402E+03  0.22605246755E+03  0.17234590144E+03  0.43227971608E+03  0.50400001928E-02 0. -1.
</event>
<event>
 5   0  0.6551489E-03  0.7987985E+03  0.7818609E-02  0.9561758E-01
       -1   -1    0    0    0  501  0.00000000000E+00  0.00000000000E+00  0.84213199978E+03  0.84213199980E+03  0.50400001928E-02 0. -1.
        1   -1    0    0  501    0  0.00000000000E+00  0.00000000000E+00 -0.18942370589E+03  0.18942370596E+03  0.50400001928E-02 0.  1.
    10030    2    1    2    0    0  0.00000000000E+00  0.00000000000E+00  0.65270829389E+03  0.10315557058E+04  0.79879850849E+03 0.  0.
        4    1    3    3  502    0 -0.37893346168E+02  0.39680190087E+03  0.35878041817E+03  0.53629530633E+03  0.12699999809E+01 0. -1.
       -4    1    3    3    0  502  0.37893346168E+02 -0.39680190087E+03  0.29392787572E+03  0.49526039943E+03  0.12699999809E+01 0.  1.
</event>
<event>
 5   0  0.4385875E-03  0.7989975E+03  0.7818609E-02  0.9561469E-01
        3   -1    0    0  501    0  0.00000000000E+00  0.00000000000E+00  0.52936602529E+03  0.52936603492E+03  0.10100000352E+00 0. -1.
       -3   -1    0    0    0  501  0.00000000000E+00  0.00000000000E+00 -0.30149129657E+03  0.30149131349E+03  0.10100000352E+00 0.  1.
    10030    2    1    2    0    0  0.00000000000E+00  0.00000000000E+00  0.22787472872E+03  0.83085734841E+03  0.79899752278E+03 0.  0.
        2    1    3    3  502    0  0.22066209745E+03 -0.13676958693E+03 -0.20181761809E+03  0.32882827149E+03  0.25500000920E-02 0.  1.
       -2    1    3    3    0  502 -0.22066209745E+03  0.13676958693E+03  0.42969234680E+03  0.50202907691E+03  0.25500000920E-02 0. -1.
</event>
<event>
 5   0  0.6517392E-03  0.7980458E+03  0.7818609E-02  0.9562850E-01
       -1   -1    0    0    0  501  0.00000000000E+00  0.00000000000E+00  0.10233981622E+03  0.10233981635E+03  0.50400001928E-02 0.  1.
        1   -1    0    0  501    0  0.00000000000E+00  0.00000000000E+00 -0.15557902605E+04  0.15557902606E+04  0.50400001928E-02 0. -1.
    10030    2    1    2    0    0  0.00000000000E+00  0.00000000000E+00 -0.14534504443E+04  0.16581300769E+04  0.79804583691E+03 0.  0.
        3    1    3    3  502    0 -0.28657540211E+03 -0.27688975518E+03 -0.68384715342E+03  0.79147983996E+03  0.10100000352E+00 0. -1.
       -3    1    3    3    0  502  0.28657540211E+03  0.27688975518E+03 -0.76960329090E+03  0.86665023694E+03  0.10100000352E+00 0.  1.
</event>
<event>
 5   0  0.1119792E-02  0.7993598E+03  0.7818609E-02  0.9560944E-01
       -2   -1    0    0    0  501  0.00000000000E+00  0.00000000000E+00  0.80661043837E+03  0.80661043837E+03  0.25500000920E-02 0. -1.
        2   -1    0    0  501    0  0.00000000000E+00  0.00000000000E+00 -0.19804357531E+03  0.19804357533E+03  0.25500000920E-02 0.  1.
    10030    2    1    2    0    0  0.00000000000E+00  0.00000000000E+00  0.60856686306E+03  0.10046540137E+04  0.79935978160E+03 0.  0.
        4    1    3    3  502    0  0.23349777961E+03  0.11183332115E+03  0.68697426004E+03  0.73414109792E+03  0.12699999809E+01 0. -1.
       -4    1    3    3    0  502 -0.23349777961E+03 -0.11183332115E+03 -0.78407396982E+02  0.27051291578E+03  0.12699999809E+01 0.  1.
</event>
<event>
 5   0  0.1106332E-02  0.8006641E+03  0.7818609E-02  0.9559056E-01
       -2   -1    0    0    0  501  0.00000000000E+00  0.00000000000E+00  0.51202418795E+02  0.51202418859E+02  0.25500000920E-02 0. -1.
        2   -1    0    0  501    0  0.00000000000E+00  0.00000000000E+00 -0.31300427863E+04  0.31300427863E+04  0.25500000920E-02 0.  1.
    10030    2    1    2    0    0  0.00000000000E+00  0.00000000000E+00 -0.30788403675E+04  0.31812452052E+04  0.80066412857E+03 0.  0.
        1    1    3    3  502    0  0.38067688006E+03 -0.67144257986E+02 -0.19531453652E+04  0.19910298983E+04  0.50400001928E-02 0.  1.
       -1    1    3    3    0  502 -0.38067688006E+03  0.67144257986E+02 -0.11256950024E+04  0.11902153069E+04  0.50400001928E-02 0. -1.
</event>
<event>
 5   0  0.1121480E-02  0.8009488E+03  0.7818609E-02  0.9558645E-01
       -2   -1    0    0    0  501  0.00000000000E+00  0.00000000000E+00  0.16854744253E+03  0.16854744255E+03  0.25500000920E-02 0.  1.
        2   -1    0    0  501    0  0.00000000000E+00  0.00000000000E+00 -0.95154073675E+03  0.95154073676E+03  0.25500000920E-02 0. -1.
    10030    2    1    2    0    0  0.00000000000E+00  0.00000000000E+00 -0.78299329422E+03  0.11200881793E+04  0.80094883147E+03 0.  0.
        2    1    3    3  502    0 -0.81913909712E+02 -0.30284267855E+03 -0.43408077648E+02  0.31671412625E+03  0.25500000920E-02 0.  1.
       -2    1    3    3    0  502  0.81913909712E+02  0.30284267855E+03 -0.73958521657E+03  0.80337405306E+03  0.25500000920E-02 0. -1.
</event>
<event>
 5   0  0.1154714E-02  0.8078263E+03  0.7818609E-02  0.9548758E-01
       -2   -1    0    0    0  501  0.00000000000E+00  0.00000000000E+00  0.32941278530E+03  0.32941278531E+03  0.25500000920E-02 0. -1.
        2   -1    0    0  501    0  0.00000000000E+00  0.00000000000E+00 -0.49526254216E+03  0.49526254216E+03  0.25500000920E-02 0.  1.
    10030    2    1    2    0    0  0.00000000000E+00  0.00000000000E+00 -0.16584975686E+03  0.82467532748E+03  0.80782625230E+03 0.  0.
        5    1    3    3  502    0 -0.16392121463E+03 -0.22434828384E+03 -0.38216217855E+03  0.47251702380E+03  0.46999998093E+01 0.  1.
       -5    1    3    3    0  502  0.16392121463E+03  0.22434828384E+03  0.21631242170E+03  0.35215830367E+03  0.46999998093E+01 0. -1.
</event>
<event>
 5   0  0.1121480E-02  0.7995879E+03  0.7818609E-02  0.9560614E-01
       -2   -1    0    0    0  501  0.00000000000E+00  0.00000000000E+00  0.17328924372E+03  0.17328924374E+03  0.25500000920E-02 0. -1.
        2   -1    0    0  501    0  0.00000000000E+00  0.00000000000E+00 -0.92236074208E+03  0.92236074208E+03  0.25500000920E-02 0.  1.
    10030    2    1    2    0    0  0.00000000000E+00  0.00000000000E+00 -0.74907149836E+03  0.10956499858E+04  0.79958788246E+03 0.  0.
        2    1    3    3  502    0 -0.98209670226E+02  0.38427487077E+03 -0.44336196844E+03  0.59487994646E+03  0.25500000920E-02 0.  1.
       -2    1    3    3    0  502  0.98209670226E+02 -0.38427487077E+03 -0.30570952992E+03  0.50077003936E+03  0.25500000920E-02 0. -1.
</event>
<event>
 5   0  0.6517392E-03  0.8005549E+03  0.7818609E-02  0.9559214E-01
        1   -1    0    0  501    0  0.00000000000E+00  0.00000000000E+00  0.22738484818E+03  0.22738484823E+03  0.50400001928E-02 0. -1.
       -1   -1    0    0    0  501  0.00000000000E+00  0.00000000000E+00 -0.70462937053E+03  0.70462937055E+03  0.50400001928E-02 0.  1.
    10030    2    1    2    0    0  0.00000000000E+00  0.00000000000E+00 -0.47724452235E+03  0.93201421879E+03  0.80055491373E+03 0.  0.
        3    1    3    3  502    0 -0.10127731767E+03  0.27210317135E+03 -0.55941404948E+03  0.63027083059E+03  0.10100000352E+00 0.  1.
       -3    1    3    3    0  502  0.10127731767E+03 -0.27210317135E+03  0.82169527121E+02  0.30174338820E+03  0.10100000352E+00 0. -1.
</event>
<event>
 5   0  0.1106332E-02  0.7059086E+03  0.7818609E-02  0.9707181E-01
       -2   -1    0    0    0  501  0.00000000000E+00  0.00000000000E+00  0.65892898575E+02  0.65892898624E+02  0.25500000920E-02 0. -1.
        2   -1    0    0  501    0  0.00000000000E+00  0.00000000000E+00 -0.18905942938E+04  0.18905942939E+04  0.25500000920E-02 0.  1.
    10030    2    1    2    0    0  0.00000000000E+00  0.00000000000E+00 -0.18247013953E+04  0.19564871925E+04  0.70590860060E+03 0.  0.
        1    1    3    3  502    0  0.15097269311E+03  0.98229549623E+02 -0.71070408409E+02  0.19363057987E+03  0.50400001928E-02 0. -1.
       -1    1    3    3    0  502 -0.15097269311E+03 -0.98229549623E+02 -0.17536309869E+04  0.17628566126E+04  0.50400001928E-02 0.  1.
</event>
<event>
 5   0  0.6600401E-03  0.7802157E+03  0.7818609E-02  0.9589104E-01
        1   -1    0    0  501    0  0.00000000000E+00  0.00000000000E+00  0.65832762662E+03  0.65832762664E+03  0.50400001928E-02 0.  1.
       -1   -1    0    0    0  501  0.00000000000E+00  0.00000000000E+00 -0.23116778862E+03  0.23116778868E+03  0.50400001928E-02 0. -1.
    10030    2    1    2    0    0  0.00000000000E+00  0.00000000000E+00  0.42715983800E+03  0.88949541532E+03  0.78021571804E+03 0.  0.
        2    1    3    3  502    0  0.12894313692E+03  0.36663185665E+03  0.17510567815E+03  0.42627133307E+03  0.25500000920E-02 0.  1.
       -2    1    3    3    0  502 -0.12894313692E+03 -0.36663185665E+03  0.25205415985E+03  0.46322408225E+03  0.25500000920E-02 0. -1.
</event>
<event>
 5   0  0.6551489E-03  0.8041288E+03  0.7818609E-02  0.9554060E-01
       -1   -1    0    0    0  501  0.00000000000E+00  0.00000000000E+00  0.11141734443E+04  0.11141734443E+04  0.50400001928E-02 0. -1.
        1   -1    0    0  501    0  0.00000000000E+00  0.00000000000E+00 -0.14509030328E+03  0.14509030337E+03  0.50400001928E-02 0.  1.
    10030    2    1    2    0    0  0.00000000000E+00  0.00000000000E+00  0.96908314102E+03  0.12592637477E+04  0.80412875338E+03 0.  0.
        4    1    3    3  502    0 -0.12326074451E+02  0.11739319773E+03  0.10864248932E+04  0.10928191783E+04  0.12699999809E+01 0. -1.
       -4    1    3    3    0  502  0.12326074451E+02 -0.11739319773E+03 -0.11734175216E+03  0.16644456941E+03  0.12699999809E+01 0.  1.
</event>
<event>
 5   0  0.1092868E-02  0.8049945E+03  0.7818609E-02  0.9552816E-01
        2   -1    0    0  501    0  0.00000000000E+00  0.00000000000E+00  0.10260282610E+04  0.10260282610E+04  0.25500000920E-02 0. -1.
       -2   -1    0    0    0  501  0.00000000000E+00  0.00000000000E+00 -0.15789432538E+03  0.15789432540E+03  0.25500000920E-02 0.  1.
    10030    2    1    2    0    0  0.00000000000E+00  0.00000000000E+00  0.86813393566E+03  0.11839225864E+04  0.80499450957E+03 0.  0.
        3    1    3    3  502    0  0.36225753112E+02 -0.67751578022E+02  0.10151441931E+04  0.10180473095E+04  0.10100000352E+00 0. -1.
       -3    1    3    3    0  502 -0.36225753112E+02  0.67751578022E+02 -0.14701025740E+03  0.16587527692E+03  0.10100000352E+00 0.  1.
</event>
<event>
 5   0  0.1154714E-02  0.8036451E+03  0.7818609E-02  0.9554756E-01
       -2   -1    0    0    0  501  0.00000000000E+00  0.00000000000E+00  0.14148154559E+03  0.14148154561E+03  0.25500000920E-02 0.  1.
        2   -1    0    0  501    0  0.00000000000E+00  0.00000000000E+00 -0.11412184255E+04  0.11412184255E+04  0.25500000920E-02 0. -1.
    10030    2    1    2    0    0  0.00000000000E+00  0.00000000000E+00 -0.99973687988E+03  0.12826999711E+04  0.80364506270E+03 0.  0.
        5    1    3    3  502    0  0.46501103206E+02  0.12762701566E+03  0.10367839665E+03  0.17094533529E+03  0.46999998093E+01 0.  1.
       -5    1    3    3    0  502 -0.46501103206E+02 -0.12762701566E+03 -0.11034152765E+04  0.11117546358E+04  0.46999998093E+01 0. -1.
</event>
<event>
 5   0  0.4385875E-03  0.7931544E+03  0.7818609E-02  0.9569979E-01
        3   -1    0    0  501    0  0.00000000000E+00  0.00000000000E+00  0.25646304474E+03  0.25646306462E+03  0.10100000352E+00 0. -1.
       -3   -1    0    0    0  501  0.00000000000E+00  0.00000000000E+00 -0.61324026203E+03  0.61324027034E+03  0.10100000352E+00 0.  1.
    10030    2    1    2    0    0  0.00000000000E+00  0.00000000000E+00 -0.35677721729E+03  0.86970333497E+03  0.79315440368E+03 0.  0.
        1    1    3    3  502    0 -0.65843752525E+02  0.28032972660E+02 -0.60610171267E+03  0.61031183294E+03  0.50400001928E-02 0.  1.
       -1    1    3    3    0  502  0.65843752525E+02 -0.28032972660E+02  0.24932449538E+03  0.25939150203E+03  0.50400001928E-02 0. -1.
</event>
<event>
 5   0  0.4385875E-03  0.8004776E+03  0.7818609E-02  0.9559326E-01
       -3   -1    0    0    0  501  0.00000000000E+00  0.00000000000E+00  0.18857921946E+03  0.18857924651E+03  0.10100000352E+00 0. -1.
        3   -1    0    0  501    0  0.00000000000E+00  0.00000000000E+00 -0.84946296580E+03  0.84946297180E+03  0.10100000352E+00 0.  1.
    10030    2    1    2    0    0  0.00000000000E+00  0.00000000000E+00 -0.66088374633E+03  0.10380422183E+04  0.80047755798E+03 0.  0.
        2    1    3    3  502    0 -0.38043326338E+03  0.10582310239E+03 -0.24577222277E+03  0.46511502059E+03  0.25500000920E-02 0. -1.
       -2    1    3    3    0  502  0.38043326338E+03 -0.10582310239E+03 -0.41511152357E+03  0.57292719772E+03  0.25500000920E-02 0.  1.
</event>
<event>
 5   0  0.1154714E-02  0.8334974E+03  0.7818609E-02  0.9512758E-01
       -2   -1    0    0    0  501  0.00000000000E+00  0.00000000000E+00  0.14780579226E+03  0.14780579228E+03  0.25500000920E-02 0. -1.
        2   -1    0    0  501    0  0.00000000000E+00  0.00000000000E+00 -0.11750519330E+04  0.11750519330E+04  0.25500000920E-02 0.  1.
    10030    2    1    2    0    0  0.00000000000E+00  0.00000000000E+00 -0.10272461407E+04  0.13228577252E+04  0.83349740710E+03 0.  0.
        5    1    3    3  502    0 -0.19101310854E+03  0.24583191741E+03 -0.73965787247E+02  0.32001932274E+03  0.46999998093E+01 0. -1.
       -5    1    3    3    0  502  0.19101310854E+03 -0.24583191741E+03 -0.95328035345E+03  0.10028384025E+04  0.46999998093E+01 0.  1.
</event>
<event>
 5   0  0.1106332E-02  0.7998335E+03  0.7818609E-02  0.9560258E-01
        2   -1    0    0  501    0  0.00000000000E+00  0.00000000000E+00  0.98422481474E+03  0.98422481475E+03  0.25500000920E-02 0.  1.
       -2   -1    0    0    0  501  0.00000000000E+00  0.00000000000E+00 -0.16249682737E+03  0.16249682739E+03  0.25500000920E-02 0. -1.
    10030    2    1    2    0    0  0.00000000000E+00  0.00000000000E+00  0.82172798737E+03  0.11467216421E+04  0.79983350725E+03 0.  0.
        1    1    3    3  502    0 -0.12678442193E+03  0.22696505980E+03 -0.24815798188E+02  0.26115752311E+03  0.50400001928E-02 0. -1.
       -1    1    3    3    0  502  0.12678442193E+03 -0.22696505980E+03  0.84654378556E+03  0.88556411903E+03  0.50400001928E-02 0.  1.
</event>
<event>
 5   0  0.6551489E-03  0.8001596E+03  0.7818609E-02  0.9559786E-01
        1   -1    0    0  501    0  0.00000000000E+00  0.00000000000E+00  0.66144807111E+03  0.66144807113E+03  0.50400001928E-02 0. -1.
       -1   -1    0    0    0  501  0.00000000000E+00  0.00000000000E+00 -0.24199001381E+03  0.24199001387E+03  0.50400001928E-02 0.  1.
    10030    2    1    2    0    0  0.00000000000E+00  0.00000000000E+00  0.41945805730E+03  0.90343808500E+03  0.80015955383E+03 0.  0.
        4    1    3    3  502    0 -0.30983862460E+03  0.21314100917E+03  0.36385114427E+03  0.52327653413E+03  0.12699999809E+01 0. -1.
       -4    1    3    3    0  502  0.30983862460E+03 -0.21314100917E+03  0.55606913033E+02  0.38016155087E+03  0.12699999809E+01 0.  1.
</event>
<event>
 5   0  0.4385875E-03  0.8000222E+03  0.7818609E-02  0.9559985E-01
        3   -1    0    0  501    0  0.00000000000E+00  0.00000000000E+00  0.13637303495E+03  0.13637307235E+03  0.10100000352E+00 0.  1.
       -3   -1    0    0    0  501  0.00000000000E+00  0.00000000000E+00 -0.11733173628E+04  0.11733173672E+04  0.10100000352E+00 0. -1.
    10030    2    1    2    0    0  0.00000000000E+00  0.00000000000E+00 -0.10369443279E+04  0.13096904395E+04  0.80002219235E+03 0.  0.
        5    1    3    3  502    0  0.27460336219E+03 -0.44188721929E+02 -0.47898111512E+02  0.28226931954E+03  0.46999998093E+01 0.  1.
       -5    1    3    3    0  502 -0.27460336219E+03  0.44188721929E+02 -0.98904621636E+03  0.10274211200E+04  0.46999998093E+01 0. -1.
</event>
<event>
 5   0  0.6596225E-03  0.7934741E+03  0.7818609E-02  0.9569511E-01
        1   -1    0    0  501    0  0.00000000000E+00  0.00000000000E+00  0.99723670574E+03  0.99723670575E+03  0.50400001928E-02 0. -1.
       -1   -1    0    0    0  501  0.00000000000E+00  0.00000000000E+00 -0.15783644290E+03  0.15783644298E+03  0.50400001928E-02 0.  1.
    10030    2    1    2    0    0  0.00000000000E+00  0.00000000000E+00  0.83940026284E+03  0.11550731487E+04  0.79347411910E+03 0.  0.
        5    1    3    3  502    0 -0.10269366508E+01 -0.21219597971E+03  0.90763661461E+03  0.93212365198E+03  0.46999998093E+01 0. -1.
       -5    1    3    3    0  502  0.10269366508E+01  0.21219597971E+03 -0.68236351771E+02  0.22294949676E+03  0.46999998093E+01 0.  1.
</event>
<event>
 5   0  0.1154714E-02  0.8315841E+03  0.7818609E-02  0.9515393E-01
       -2   -1    0    0    0  501  0.00000000000E+00  0.00000000000E+00  0.15642415202E+03  0.15642415205E+03  0.25500000920E-02 0.  1.
        2   -1    0    0  501    0  0.00000000000E+00  0.00000000000E+00 -0.11052194871E+04  0.11052194871E+04  0.25500000920E-02 0. -1.
    10030    2    1    2    0    0  0.00000000000E+00  0.00000000000E+00 -0.94879533504E+03  0.12616436391E+04  0.83158408133E+03 0.  0.
        5    1    3    3  502    0 -0.15086154925E+03  0.38474540871E+03 -0.54346905573E+03  0.68276565606E+03  0.46999998093E+01 0. -1.
       -5    1    3    3    0  502  0.15086154925E+03 -0.38474540871E+03 -0.40532627931E+03  0.57887798305E+03  0.46999998093E+01 0.  1.
</event>
<event>
 5   0  0.1121480E-02  0.7991236E+03  0.7818609E-02  0.9561286E-01
       -2   -1    0    0    0  501  0.00000000000E+00  0.00000000000E+00  0.25297508977E+03  0.25297508978E+03  0.25500000920E-02 0.  1.
        2   -1    0    0  501    0  0.00000000000E+00  0.00000000000E+00 -0.63108840683E+03  0.63108840683E+03  0.25500000920E-02 0. -1.
    10030    2    1    2    0    0  0.00000000000E+00  0.00000000000E+00 -0.37811331706E+03  0.88406349662E+03  0.79912363593E+03 0.  0.
        2    1    3    3  502    0 -0.18969764425E+03 -0.26156245604E+03 -0.44909284202E+03  0.55324903561E+03  0.25500000920E-02 0. -1.
       -2    1    3    3    0  502  0.18969764425E+03  0.26156245604E+03  0.70979524955E+02  0.33081446101E+03  0.25500000920E-02 0.  1.
</event>
<event>
 5   0  0.1092868E-02  0.8093978E+03  0.7818609E-02  0.9546513E-01
       -2   -1    0    0    0  501  0.00000000000E+00  0.00000000000E+00  0.35446130652E+03  0.35446130653E+03  0.25500000920E-02 0.  1.
        2   -1    0    0  501    0  0.00000000000E+00  0.00000000000E+00 -0.46205658721E+03  0.46205658722E+03  0.25500000920E-02 0. -1.
    10030    2    1    2    0    0  0.00000000000E+00  0.00000000000E+00 -0.10759528069E+03  0.81651789375E+03  0.80939775536E+03 0.  0.
        3    1    3    3  502    0 -0.13401853225E+03 -0.31334768811E+03 -0.27396840065E+03  0.43727158081E+03  0.10100000352E+00 0. -1.
       -3    1    3    3    0  502  0.13401853225E+03  0.31334768811E+03  0.16637311996E+03  0.37924631294E+03  0.10100000352E+00 0.  1.
</event>
<event>
 5   0  0.6557679E-03  0.7996439E+03  0.7818609E-02  0.9560533E-01
       -1   -1    0    0    0  501  0.00000000000E+00  0.00000000000E+00  0.27430591744E+03  0.27430591749E+03  0.50400001928E-02 0. -1.
        1   -1    0    0  501    0  0.00000000000E+00  0.00000000000E+00 -0.58277122155E+03  0.58277122157E+03  0.50400001928E-02 0.  1.
    10030    2    1    2    0    0  0.00000000000E+00  0.00000000000E+00 -0.30846530411E+03  0.85707713905E+03  0.79964390728E+03 0.  0.
        1    1    3    3  502    0 -0.24187889822E+03  0.98462698587E+02 -0.47872673749E+03  0.54532521822E+03  0.50400001928E-02 0.  1.
       -1    1    3    3    0  502  0.24187889822E+03 -0.98462698587E+02  0.17026143338E+03  0.31175192083E+03  0.50400001928E-02 0. -1.
</event>
<event>
 5   0  0.1092868E-02  0.7933036E+03  0.7818609E-02  0.9569761E-01
       -2   -1    0    0    0  501  0.00000000000E+00  0.00000000000E+00  0.10342725306E+03  0.10342725309E+03  0.25500000920E-02 0.  1.
        2   -1    0    0  501    0  0.00000000000E+00  0.00000000000E+00 -0.15211915221E+04  0.15211915221E+04  0.25500000920E-02 0. -1.
    10030    2    1    2    0    0  0.00000000000E+00  0.00000000000E+00 -0.14177642691E+04  0.16246187752E+04  0.79330362546E+03 0.  0.
        3    1    3    3  502    0 -0.21861167062E+03 -0.19545756652E+03 -0.16190109416E+03  0.33497268147E+03  0.10100000352E+00 0.  1.
       -3    1    3    3    0  502  0.21861167062E+03  0.19545756652E+03 -0.12558631749E+04  0.12896460937E+04  0.10100000352E+00 0. -1.
</event>
<event>
 5   0  0.1154714E-02  0.7932497E+03  0.7818609E-02  0.9569840E-01
       -2   -1    0    0    0  501  0.00000000000E+00  0.00000000000E+00  0.19292598293E+03  0.19292598295E+03  0.25500000920E-02 0. -1.
        2   -1    0    0  501    0  0.00000000000E+00  0.00000000000E+00 -0.81539698356E+03  0.81539698357E+03  0.25500000920E-02 0.  1.
    10030    2    1    2    0    0  0.00000000000E+00  0.00000000000E+00 -0.62247100063E+03  0.10083229665E+04  0.79324968211E+03 0.  0.
        5    1    3    3  502    0 -0.27023774032E+03 -0.84501957916E+02  0.41763687362E+02  0.28624345017E+03  0.46999998093E+01 0. -1.
       -5    1    3    3    0  502  0.27023774032E+03  0.84501957916E+02 -0.66423468799E+03  0.72207951634E+03  0.46999998093E+01 0.  1.
</event>
<event>
 5   0  0.6557679E-03  0.7978525E+03  0.7818609E-02  0.9563131E-01
        1   -1    0    0  501    0  0.00000000000E+00  0.00000000000E+00  0.58179442279E+03  0.58179442281E+03  0.50400001928E-02 0. -1.
       -1   -1    0    0    0  501  0.00000000000E+00  0.00000000000E+00 -0.27353674489E+03  0.27353674494E+03  0.50400001928E-02 0.  1.
    10030    2    1    2    0    0  0.00000000000E+00  0.00000000000E+00  0.30825767790E+03  0.85533116775E+03  0.79785249924E+03 0.  0.
        1    1    3    3  502    0 -0.69898594653E+02  0.11524730245E+03  0.55664360128E+03  0.57273017480E+03  0.50400001928E-02 0. -1.
       -1    1    3    3    0  502  0.69898594653E+02 -0.11524730245E+03 -0.24838592338E+03  0.28260099295E+03  0.50400001928E-02 0.  1.
</event>
<event>
 5   0  0.6600401E-03  0.7915847E+03  0.7818609E-02  0.9572278E-01
        1   -1    0    0  501    0  0.00000000000E+00  0.00000000000E+00  0.32229123494E+03  0.32229123497E+03  0.50400001928E-02 0.  1.
       -1   -1    0    0    0  501  0.00000000000E+00  0.00000000000E+00 -0.48605595343E+03  0.48605595346E+03  0.50400001928E-02 0. -1.
    10030    2    1    2    0    0  0.00000000000E+00  0.00000000000E+00 -0.16376471850E+03  0.80834718843E+03  0.79158467268E+03 0.  0.
        2    1    3    3  502    0 -0.17330636036E+03  0.33309483523E+03  0.45925095520E+02  0.37828081924E+03  0.25500000920E-02 0.  1.
       -2    1    3    3    0  502  0.17330636036E+03 -0.33309483523E+03 -0.20968981402E+03  0.43006636919E+03  0.25500000920E-02 0. -1.
</event>
<event>
 5   0  0.1119792E-02  0.8052000E+03  0.7818609E-02  0.9552521E-01
        2   -1    0    0  501    0  0.00000000000E+00  0.00000000000E+00  0.41463650286E+03  0.41463650287E+03  0.25500000920E-02 0. -1.
       -2   -1    0    0    0  501  0.00000000000E+00  0.00000000000E+00 -0.39091292497E+03  0.39091292498E+03  0.25500000920E-02 0.  1.
    10030    2    1    2    0    0  0.00000000000E+00  0.00000000000E+00  0.23723577894E+02  0.80554942785E+03  0.80520002022E+03 0.  0.
        4    1    3    3  502    0 -0.35850646186E+03 -0.43039744407E+02  0.19000042939E+03  0.40802092945E+03  0.12699999809E+01 0.  1.
       -4    1    3    3    0  502  0.35850646186E+03  0.43039744407E+02 -0.16627685149E+03  0.39752849840E+03  0.12699999809E+01 0. -1.
</event>
<event>
 5   0  0.1119792E-02  0.8047677E+03  0.7818609E-02  0.9553142E-01
        2   -1    0    0  501    0  0.00000000000E+00  0.00000000000E+00  0.75870706450E+03  0.75870706451E+03  0.25500000920E-02 0.  1.
       -2   -1    0    0    0  501  0.00000000000E+00  0.00000000000E+00 -0.21340616336E+03  0.21340616337E+03  0.25500000920E-02 0. -1.
    10030    2    1    2    0    0  0.00000000000E+00  0.00000000000E+00  0.54530090114E+03  0.97211322788E+03  0.80476770253E+03 0.  0.
        4    1    3    3  502    0  0.34987933192E+03  0.19290557907E+03  0.21493352105E+03  0.45368065939E+03  0.12699999809E+01 0. -1.
       -4    1    3    3    0  502 -0.34987933192E+03 -0.19290557907E+03  0.33036738009E+03  0.51843256849E+03  0.12699999809E+01 0.  1.
</event>
<event>
 5   0  0.1121480E-02  0.8023939E+03  0.7818609E-02  0.9556559E-01
        2   -1    0    0  501    0  0.00000000000E+00  0.00000000000E+00  0.27710222827E+03  0.27710222828E+03  0.25500000920E-02 0. -1.
       -2   -1    0    0    0  501  0.00000000000E+00  0.00000000000E+00 -0.58086500249E+03  0.58086500250E+03  0.25500000920E-02 0.  1.
    10030    2    1    2    0    0  0.00000000000E+00  0.00000000000E+00 -0.30376277423E+03  0.85796723077E+03  0.80239388462E+03 0.  0.
        2    1    3    3  502    0  0.13702194577E+03 -0.51406080194E+01 -0.55503267464E+03  0.57171908259E+03  0.25500000920E-02 0.  1.
       -2    1    3    3    0  502 -0.13702194577E+03  0.51406080194E+01  0.25126990042E+03  0.28624814818E+03  0.25500000920E-02 0. -1.
</event>
<event>
 5   0  0.1106332E-02  0.7871138E+03  0.7818609E-02  0.9578859E-01
       -2   -1    0    0    0  501  0.00000000000E+00  0.00000000000E+00  0.31954288768E+03  0.31954288769E+03  0.25500000920E-02 0.  1.
        2   -1    0    0  501    0  0.00000000000E+00  0.00000000000E+00 -0.48471437159E+03  0.48471437160E+03  0.25500000920E-02 0. -1.
    10030    2    1    2    0    0  0.00000000000E+00  0.00000000000E+00 -0.16517148392E+03  0.80425725929E+03  0.78711379102E+03 0.  0.
        1    1    3    3  502    0  0.13292842329E+03  0.28418787144E+03 -0.32536190896E+03  0.45198792442E+03  0.50400001928E-02 0. -1.
       -1    1    3    3    0  502 -0.13292842329E+03 -0.28418787144E+03  0.16019042504E+03  0.35226933487E+03  0.50400001928E-02 0.  1.
</event>
<event>
 5   0  0.1119792E-02  0.7869403E+03  0.7818609E-02  0.9579115E-01
        2   -1    0    0  501    0  0.00000000000E+00  0.00000000000E+00  0.61257655288E+03  0.61257655288E+03  0.25500000920E-02 0. -1.
       -2   -1    0    0    0  501  0.00000000000E+00  0.00000000000E+00 -0.25273371524E+03  0.25273371525E+03  0.25500000920E-02 0.  1.
    10030    2    1    2    0    0  0.00000000000E+00  0.00000000000E+00  0.35984283764E+03  0.86531026814E+03  0.78694027241E+03 0.  0.
        4    1    3    3  502    0  0.91861172347E+02  0.30254600964E+03 -0.77590249676E+02  0.32556784650E+03  0.12699999809E+01 0.  1.
       -4    1    3    3    0  502 -0.91861172347E+02 -0.30254600964E+03  0.43743308731E+03  0.53974242163E+03  0.12699999809E+01 0. -1.
</event>
<event>
 5   0  0.1092868E-02  0.7991038E+03  0.7818609E-02  0.9561315E-01
        2   -1    0    0  501    0  0.00000000000E+00  0.00000000000E+00  0.87245078625E+03  0.87245078626E+03  0.25500000920E-02 0. -1.
       -2   -1    0    0    0  501  0.00000000000E+00  0.00000000000E+00 -0.18298078150E+03  0.18298078152E+03  0.25500000920E-02 0.  1.
    10030    2    1    2    0    0  0.00000000000E+00  0.00000000000E+00  0.68947000475E+03  0.10554315678E+04  0.79910381479E+03 0.  0.
        3    1    3    3  502    0  0.10018980141E+03 -0.29358928739E+03  0.67731988198E+03  0.74497979751E+03  0.10100000352E+00 0. -1.
       -3    1    3    3    0  502 -0.10018980141E+03  0.29358928739E+03  0.12150122767E+02  0.31045177027E+03  0.10100000352E+00 0.  1.
</event>
<event>
 5   0  0.4385875E-03  0.7950868E+03  0.7818609E-02  0.9567156E-01
        3   -1    0    0  501    0  0.00000000000E+00  0.00000000000E+00  0.20677631194E+03  0.20677633660E+03  0.10100000352E+00 0.  1.
       -3   -1    0    0    0  501  0.00000000000E+00  0.00000000000E+00 -0.76430784263E+03  0.76430784931E+03  0.10100000352E+00 0. -1.
    10030    2    1    2    0    0  0.00000000000E+00  0.00000000000E+00 -0.55753153070E+03  0.97108418591E+03  0.79508684331E+03 0.  0.
        5    1    3    3  502    0 -0.91260737805E+02 -0.37804762590E+03 -0.37926009023E+03  0.54323920675E+03  0.46999998093E+01 0. -1.
       -5    1    3    3    0  502  0.91260737805E+02  0.37804762590E+03 -0.17827144046E+03  0.42784497916E+03  0.46999998093E+01 0.  1.
</event>
<event>
 5   0  0.6557679E-03  0.7983270E+03  0.7818609E-02  0.9562442E-01
        1   -1    0    0  501    0  0.00000000000E+00  0.00000000000E+00  0.11233883917E+04  0.11233883917E+04  0.50400001928E-02 0.  1.
       -1   -1    0    0    0  501  0.00000000000E+00  0.00000000000E+00 -0.14183118852E+03  0.14183118861E+03  0.50400001928E-02 0. -1.
    10030    2    1    2    0    0  0.00000000000E+00  0.00000000000E+00  0.98155720314E+03  0.12652195803E+04  0.79832702779E+03 0.  0.
        1    1    3    3  502    0  0.10418691959E+03  0.11557301239E+03  0.10733431424E+04  0.10845632931E+04  0.50400001928E-02 0.  1.
       -1    1    3    3    0  502 -0.10418691959E+03 -0.11557301239E+03 -0.91785939293E+02  0.18065628714E+03  0.50400001928E-02 0. -1.
</event>
<event>
 5   0  0.6557679E-03  0.7878008E+03  0.7818609E-02  0.9577845E-01
        1   -1    0    0  501    0  0.00000000000E+00  0.00000000000E+00  0.13387165182E+04  0.13387165182E+04  0.50400001928E-02 0.  1.
       -1   -1    0    0    0  501  0.00000000000E+00  0.00000000000E+00 -0.11590020264E+03  0.11590020275E+03  0.50400001928E-02 0. -1.
    10030    2    1    2    0    0  0.00000000000E+00  0.00000000000E+00  0.12228163156E+04  0.14546167210E+04  0.78780077641E+03 0.  0.
        1    1    3    3  502    0 -0.28225358965E+02 -0.22289385781E+03  0.14012154669E+02  0.22511038013E+03  0.50400001928E-02 0. -1.
       -1    1    3    3    0  502  0.28225358965E+02  0.22289385781E+03  0.12088041609E+04  0.12295063408E+04  0.50400001928E-02 0.  1.
</event>
<event>
 5   0  0.6551489E-03  0.7954025E+03  0.7818609E-02  0.9566696E-01
       -1   -1    0    0    0  501  0.00000000000E+00  0.00000000000E+00  0.29579918541E+03  0.29579918545E+03  0.50400001928E-02 0.  1.
        1   -1    0    0  501    0  0.00000000000E+00  0.00000000000E+00 -0.53470837507E+03  0.53470837510E+03  0.50400001928E-02 0. -1.
    10030    2    1    2    0    0  0.00000000000E+00  0.00000000000E+00 -0.23890918966E+03  0.83050756055E+03  0.79540254414E+03 0.  0.
        4    1    3    3  502    0  0.10387996103E+02  0.27979544441E+03 -0.41435808746E+03  0.50008763104E+03  0.12699999809E+01 0. -1.
       -4    1    3    3    0  502 -0.10387996103E+02 -0.27979544441E+03  0.17544889780E+03  0.33041992950E+03  0.12699999809E+01 0.  1.
</event>
<event>
 5   0  0.6557679E-03  0.8128002E+03  0.7818609E-02  0.9541672E-01
        1   -1    0    0  501    0  0.00000000000E+00  0.00000000000E+00  0.11062454992E+04  0.11062454992E+04  0.50400001928E-02 0. -1.
       -1   -1    0    0    0  501  0.00000000000E+00  0.00000000000E+00 -0.14929872948E+03  0.14929872957E+03  0.50400001928E-02 0.  1.
    10030    2    1    2    0    0  0.00000000000E+00  0.00000000000E+00  0.95694676968E+03  0.12555442287E+04  0.81280021551E+03 0.  0.
        1    1    3    3  502    0 -0.10755322030E+03 -0.38643169294E+03  0.57934097919E+03  0.70465106166E+03  0.50400001928E-02 0. -1.
       -1    1    3    3    0  502  0.10755322030E+03  0.38643169294E+03  0.37760579048E+03  0.55089316708E+03  0.50400001928E-02 0.  1.
</event>
<event>
 5   0  0.1106332E-02  0.8022254E+03  0.7818609E-02  0.9556802E-01
       -2   -1    0    0    0  501  0.00000000000E+00  0.00000000000E+00  0.39014053306E+03  0.39014053307E+03  0.25500000920E-02 0. -1.
        2   -1    0    0  501    0  0.00000000000E+00  0.00000000000E+00 -0.41239339961E+03  0.41239339962E+03  0.25500000920E-02 0.  1.
    10030    2    1    2    0    0  0.00000000000E+00  0.00000000000E+00 -0.22252866549E+02  0.80253393269E+03  0.80222535677E+03 0.  0.
        1    1    3    3  502    0 -0.18401686193E+03  0.30751297640E+03 -0.19137605099E+03  0.40626497394E+03  0.50400001928E-02 0.  1.
       -1    1    3    3    0  502  0.18401686193E+03 -0.30751297640E+03  0.16912318445E+03  0.39626895875E+03  0.50400001928E-02 0. -1.
</event>
<event>
 5   0  0.1119792E-02  0.7958461E+03  0.7818609E-02  0.9566049E-01
        2   -1    0    0  501    0  0.00000000000E+00  0.00000000000E+00  0.16139978713E+03  0.16139978715E+03  0.25500000920E-02 0.  1.
       -2   -1    0    0    0  501  0.00000000000E+00  0.00000000000E+00 -0.98105927394E+03  0.98105927394E+03  0.25500000920E-02 0. -1.
    10030    2    1    2    0    0  0.00000000000E+00  0.00000000000E+00 -0.81965948681E+03  0.11424590611E+04  0.79584611072E+03 0.  0.
        4    1    3    3  502    0 -0.14063360207E+03  0.29083245110E+03 -0.76305608733E+02  0.33194198811E+03  0.12699999809E+01 0.  1.
       -4    1    3    3    0  502  0.14063360207E+03 -0.29083245110E+03 -0.74335387808E+03  0.81051707298E+03  0.12699999809E+01 0. -1.
</event>
<event>
 5   0  0.1121480E-02  0.8006704E+03  0.7818609E-02  0.9559047E-01
        2   -1    0    0  501    0  0.00000000000E+00  0.00000000000E+00  0.81717025990E+03  0.81717025991E+03  0.25500000920E-02 0.  1.
       -2   -1    0    0    0  501  0.00000000000E+00  0.00000000000E+00 -0.19612593248E+03  0.19612593250E+03  0.25500000920E-02 0. -1.
    10030    2    1    2    0    0  0.00000000000E+00  0.00000000000E+00  0.62104432742E+03  0.10132961924E+04  0.80067041717E+03 0.  0.
        2    1    3    3  502    0 -0.26084463626E+03  0.28887856727E+03  0.42909050597E+03  0.57931805877E+03  0.25500000920E-02 0. -1.
       -2    1    3    3    0  502  0.26084463626E+03 -0.28887856727E+03  0.19195382144E+03  0.43397813363E+03  0.25500000920E-02 0.  1.
</event>
<event>
 5   0  0.6596225E-03  0.7880700E+03  0.7818609E-02  0.9577448E-01
       -1   -1    0    0    0  501  0.00000000000E+00  0.00000000000E+00  0.44576804068E+03  0.44576804071E+03  0.50400001928E-02 0.  1.
        1   -1    0    0  501    0  0.00000000000E+00  0.00000000000E+00 -0.34830580459E+03  0.34830580462E+03  0.50400001928E-02 0. -1.
    10030    2    1    2    0    0  0.00000000000E+00  0.00000000000E+00  0.97462236089E+02  0.79407384533E+03  0.78807003773E+03 0.  0.
        5    1    3    3  502    0 -0.28008256698E+03 -0.48549843632E+02 -0.22618103088E+03  0.36329503213E+03  0.46999998093E+01 0. -1.
       -5    1    3    3    0  502  0.28008256698E+03  0.48549843632E+02  0.32364326697E+03  0.43077881320E+03  0.46999998093E+01 0.  1.
</event>
<event>
 5   0  0.6517392E-03  0.7967352E+03  0.7818609E-02  0.9564755E-01
        1   -1    0    0  501    0  0.00000000000E+00  0.00000000000E+00  0.11760683970E+04  0.11760683970E+04  0.50400001928E-02 0. -1.
       -1   -1    0    0    0  501  0.00000000000E+00  0.00000000000E+00 -0.13493837951E+03  0.13493837960E+03  0.50400001928E-02 0.  1.
    10030    2    1    2    0    0  0.00000000000E+00  0.00000000000E+00  0.10411300175E+04  0.13110067766E+04  0.79673524773E+03 0.  0.
        3    1    3    3  502    0 -0.67952941534E+02  0.38152221823E+03  0.36868193249E+03  0.53488614005E+03  0.10100000352E+00 0.  1.
       -3    1    3    3    0  502  0.67952941534E+02 -0.38152221823E+03  0.67244808497E+03  0.77612063653E+03  0.10100000352E+00 0. -1.
</event>
<event>
 5   0  0.1106332E-02  0.8218430E+03  0.7818609E-02  0.9528928E-01
        2   -1    0    0  501    0  0.00000000000E+00  0.00000000000E+00  0.69737457462E+03  0.69737457462E+03  0.25500000920E-02 0. -1.
       -2   -1    0    0    0  501  0.00000000000E+00  0.00000000000E+00 -0.24213166570E+03  0.24213166572E+03  0.25500000920E-02 0.  1.
    10030    2    1    2    0    0  0.00000000000E+00  0.00000000000E+00  0.45524290892E+03  0.93950624034E+03  0.82184297133E+03 0.  0.
        1    1    3    3  502    0 -0.37278478261E+02  0.44711566090E+02 -0.23739399741E+03  0.24442732891E+03  0.50400001928E-02 0.  1.
       -1    1    3    3    0  502  0.37278478261E+02 -0.44711566090E+02  0.69263690633E+03  0.69507891143E+03  0.50400001928E-02 0. -1.
</event>
<event>
 5   0  0.6551489E-03  0.7941297E+03  0.7818609E-02  0.9568553E-01
        1   -1    0    0  501    0  0.00000000000E+00  0.00000000000E+00  0.51156087469E+03  0.51156087471E+03  0.50400001928E-02 0. -1.
       -1   -1    0    0    0  501  0.00000000000E+00  0.00000000000E+00 -0.30819497673E+03  0.30819497677E+03  0.50400001928E-02 0.  1.
    10030    2    1    2    0    0  0.00000000000E+00  0.00000000000E+00  0.20336589796E+03  0.81975585148E+03  0.79412969192E+03 0.  0.
        4    1    3    3  502    0 -0.25166906584E+03 -0.83719082023E+02  0.40670535295E+03  0.48554820607E+03  0.12699999809E+01 0. -1.
       -4    1    3    3    0  502  0.25166906584E+03  0.83719082023E+02 -0.20333945499E+03  0.33420764541E+03  0.12699999809E+01 0.  1.
</event>
<event>
 5   0  0.6517392E-03  0.7996170E+03  0.7818609E-02  0.9560572E-01
       -1   -1    0    0    0  501  0.00000000000E+00  0.00000000000E+00  0.41892306281E+03  0.41892306284E+03  0.50400001928E-02 0.  1.
        1   -1    0    0  501    0  0.00000000000E+00  0.00000000000E+00 -0.38156605392E+03  0.38156605395E+03  0.50400001928E-02 0. -1.
    10030    2    1    2    0    0  0.00000000000E+00  0.00000000000E+00  0.37357008886E+02  0.80048911679E+03  0.79961695829E+03 0.  0.
        3    1    3    3  502    0  0.25415347197E+03  0.28221675981E+03 -0.10638382496E+03  0.39440818354E+03  0.10100000352E+00 0. -1.
       -3    1    3    3    0  502 -0.25415347197E+03 -0.28221675981E+03  0.14374083384E+03  0.40608093325E+03  0.10100000352E+00 0.  1.
</event>
<event>
 5   0  0.6557679E-03  0.7851612E+03  0.7818609E-02  0.9581748E-01
       -1   -1    0    0    0  501  0.00000000000E+00  0.00000000000E+00  0.46513093214E+03  0.46513093217E+03  0.50400001928E-02 0. -1.
        1   -1    0    0  501    0  0.00000000000E+00  0.00000000000E+00 -0.33134651431E+03  0.33134651435E+03  0.50400001928E-02 0.  1.
    10030    2    1    2    0    0  0.00000000000E+00  0.00000000000E+00  0.13378441783E+03  0.79647744652E+03  0.78516116330E+03 0.  0.
        1    1    3    3  502    0  0.26854605758E+03 -0.26774064712E+02  0.35610779093E+03  0.44681830130E+03  0.50400001928E-02 0. -1.
       -1    1    3    3    0  502 -0.26854605758E+03  0.26774064712E+02 -0.22232337311E+03  0.34965914522E+03  0.50400001928E-02 0.  1.
</event>
<event>
 5   0  0.4385875E-03  0.8089298E+03  0.7818609E-02  0.9547181E-01
        3   -1    0    0  501    0  0.00000000000E+00  0.00000000000E+00  0.20830173362E+03  0.20830175811E+03  0.10100000352E+00 0.  1.
       -3   -1    0    0    0  501  0.00000000000E+00  0.00000000000E+00 -0.78535988741E+03  0.78535989391E+03  0.10100000352E+00 0. -1.
    10030    2    1    2    0    0  0.00000000000E+00  0.00000000000E+00 -0.57705815379E+03  0.99366165202E+03  0.80892976570E+03 0.  0.
        1    1    3    3  502    0  0.28094211128E+03 -0.22533481447E+03 -0.51465381360E+03  0.62815029760E+03  0.50400001928E-02 0. -1.
       -1    1    3    3    0  502 -0.28094211128E+03  0.22533481447E+03 -0.62404340192E+02  0.36551135441E+03  0.50400001928E-02 0.  1.
</event>
<event>
 5   0  0.6596225E-03  0.7961796E+03  0.7818609E-02  0.9565563E-01
       -1   -1    0    0    0  501  0.00000000000E+00  0.00000000000E+00  0.13601888568E+03  0.13601888578E+03  0.50400001928E-02 0. -1.
        1   -1    0    0  501    0  0.00000000000E+00  0.00000000000E+00 -0.11650992860E+04  0.11650992860E+04  0.50400001928E-02 0.  1.
    10030    2    1    2    0    0  0.00000000000E+00  0.00000000000E+00 -0.10290804003E+04  0.13011181718E+04  0.79617964469E+03 0.  0.
        5    1    3    3  502    0 -0.25979000540E+03  0.19797651405E+03 -0.14271756979E+03  0.35647712654E+03  0.46999998093E+01 0. -1.
       -5    1    3    3    0  502  0.25979000540E+03 -0.19797651405E+03 -0.88636283049E+03  0.94464104521E+03  0.46999998093E+01 0.  1.
</event>
<event>
 5   0  0.6517392E-03  0.8073908E+03  0.7818609E-02  0.9549380E-01
       -1   -1    0    0    0  501  0.00000000000E+00  0.00000000000E+00  0.61664962828E+03  0.61664962830E+03  0.50400001928E-02 0.  1.
        1   -1    0    0  501    0  0.00000000000E+00  0.00000000000E+00 -0.26428296136E+03  0.26428296141E+03  0.50400001928E-02 0. -1.
    10030    2    1    2    0    0  0.00000000000E+00  0.00000000000E+00  0.35236666692E+03  0.88093258970E+03  0.80739083451E+03 0.  0.
        3    1    3    3  502    0  0.60486007707E+02  0.36259318085E+03  0.35822668291E+03  0.51328231850E+03  0.10100000352E+00 0.  1.
       -3    1    3    3    0  502 -0.60486007707E+02 -0.36259318085E+03 -0.58600159966E+01  0.36765027121E+03  0.10100000352E+00 0. -1.
</event>
<event>
 5   0  0.1119792E-02  0.8038445E+03  0.7818609E-02  0.9554469E-01
        2   -1    0    0  501    0  0.00000000000E+00  0.00000000000E+00  0.59139561244E+03  0.59139561245E+03  0.25500000920E-02 0.  1.
       -2   -1    0    0    0  501  0.00000000000E+00  0.00000000000E+00 -0.27315303165E+03  0.27315303166E+03  0.25500000920E-02 0. -1.
    10030    2    1    2    0    0  0.00000000000E+00  0.00000000000E+00  0.31824258079E+03  0.86454864410E+03  0.80384452340E+03 0.  0.
        4    1    3    3  502    0  0.22242718005E+01 -0.31722372601E+03  0.42454546159E+03  0.52997764253E+03  0.12699999809E+01 0.  1.
       -4    1    3    3    0  502 -0.22242718005E+01  0.31722372601E+03 -0.10630288080E+03  0.33457100157E+03  0.12699999809E+01 0. -1.
</event>
<event>
 5   0  0.1106332E-02  0.8004753E+03  0.7818609E-02  0.9559329E-01
       -2   -1    0    0    0  501  0.00000000000E+00  0.00000000000E+00  0.27433595332E+03  0.27433595333E+03  0.25500000920E-02 0.  1.
        2   -1    0    0  501    0  0.00000000000E+00  0.00000000000E+00 -0.58391979636E+03  0.58391979636E+03  0.25500000920E-02 0. -1.
    10030    2    1    2    0    0  0.00000000000E+00  0.00000000000E+00 -0.30958384304E+03  0.85825574970E+03  0.80047534379E+03 0.  0.
        1    1    3    3  502    0  0.55521167528E+02  0.23160758486E+03  0.19008694764E+03  0.30472564890E+03  0.50400001928E-02 0.  1.
       -1    1    3    3    0  502 -0.55521167528E+02 -0.23160758486E+03 -0.49967079067E+03  0.55353010080E+03  0.50400001928E-02 0. -1.
</event>
<event>
 5   0  0.6551489E-03  0.8013779E+03  0.7818609E-02  0.9558025E-01
        1   -1    0    0  501    0  0.00000000000E+00  0.00000000000E+00  0.74100360284E+03  0.74100360286E+03  0.50400001928E-02 0. -1.
       -1   -1    0    0    0  501  0.00000000000E+00  0.00000000000E+00 -0.21666782370E+03  0.21666782376E+03  0.50400001928E-02 0.  1.
    10030    2    1    2    0    0  0.00000000000E+00  0.00000000000E+00  0.52433577913E+03  0.95767142662E+03  0.80137790841E+03 0.  0.
        4    1    3    3  502    0 -0.28452068642E+03 -0.19853598161E+03  0.22620157151E+02  0.34768066010E+03  0.12699999809E+01 0.  1.
       -4    1    3    3    0  502  0.28452068642E+03  0.19853598161E+03  0.50171562198E+03  0.60999076652E+03  0.12699999809E+01 0. -1.
</event>
<event>
 5   0  0.1154714E-02  0.8033705E+03  0.7818609E-02  0.9555151E-01
        2   -1    0    0  501    0  0.00000000000E+00  0.00000000000E+00  0.18675533869E+03  0.18675533871E+03  0.25500000920E-02 0.  1.
       -2   -1    0    0    0  501  0.00000000000E+00  0.00000000000E+00 -0.86397005945E+03  0.86397005945E+03  0.25500000920E-02 0. -1.
    10030    2    1    2    0    0  0.00000000000E+00  0.00000000000E+00 -0.67721472076E+03  0.10507253982E+04  0.80337045273E+03 0.  0.
        5    1    3    3  502    0  0.48458311665E+02 -0.39175054651E+03 -0.43571136391E+03  0.58794828115E+03  0.46999998093E+01 0. -1.
       -5    1    3    3    0  502 -0.48458311665E+02  0.39175054651E+03 -0.24150335684E+03  0.46277711701E+03  0.46999998093E+01 0.  1.
</event>
<event>
 5   0  0.6551489E-03  0.7291695E+03  0.7818609E-02  0.9668609E-01
        1   -1    0    0  501    0  0.00000000000E+00  0.00000000000E+00  0.91918141334E+03  0.91918141336E+03  0.50400001928E-02 0. -1.
       -1   -1    0    0    0  501  0.00000000000E+00  0.00000000000E+00 -0.14460913222E+03  0.14460913230E+03  0.50400001928E-02 0.  1.
    10030    2    1    2    0    0  0.00000000000E+00  0.00000000000E+00  0.77457228113E+03  0.10637905457E+04  0.72916946340E+03 0.  0.
        4    1    3    3  502    0 -0.20173148358E+02  0.16881313377E+03  0.85780480832E+03  0.87449158494E+03  0.12699999809E+01 0. -1.
       -4    1    3    3    0  502  0.20173148358E+02 -0.16881313377E+03 -0.83232527198E+02  0.18929896072E+03  0.12699999809E+01 0.  1.
</event>
<event>
 5   0  0.6557679E-03  0.8044764E+03  0.7818609E-02  0.9553560E-01
        1   -1    0    0  501    0  0.00000000000E+00  0.00000000000E+00  0.14225521248E+04  0.14225521248E+04  0.50400001928E-02 0.  1.
       -1   -1    0    0    0  501  0.00000000000E+00  0.00000000000E+00 -0.11373611569E+03  0.11373611581E+03  0.50400001928E-02 0. -1.
    10030    2    1    2    0    0  0.00000000000E+00  0.00000000000E+00  0.13088160091E+04  0.15362882406E+04  0.80447635923E+03 0.  0.
        1    1    3    3  502    0 -0.16436296244E+03  0.29211939649E+03  0.22976129839E+03  0.40637320222E+03  0.50400001928E-02 0. -1.
       -1    1    3    3    0  502  0.16436296244E+03 -0.29211939649E+03  0.10790547107E+04  0.11299150384E+04  0.50400001928E-02 0.  1.
</event>
<event>
 5   0  0.6557679E-03  0.8088683E+03  0.7818609E-02  0.9547269E-01
        1   -1    0    0  501    0  0.00000000000E+00  0.00000000000E+00  0.40974098269E+03  0.40974098272E+03  0.50400001928E-02 0. -1.
       -1   -1    0    0    0  501  0.00000000000E+00  0.00000000000E+00 -0.39919604280E+03  0.39919604283E+03  0.50400001928E-02 0.  1.
    10030    2    1    2    0    0  0.00000000000E+00  0.00000000000E+00  0.10544939891E+02  0.80893702556E+03  0.80886829309E+03 0.  0.
        1    1    3    3  502    0  0.35616086757E+03 -0.87125253610E+02 -0.16540428737E+03  0.40224364720E+03  0.50400001928E-02 0.  1.
       -1    1    3    3    0  502 -0.35616086757E+03  0.87125253610E+02  0.17594922726E+03  0.40669337836E+03  0.50400001928E-02 0. -1.
</event>
<event>
 5   0  0.6517392E-03  0.7768027E+03  0.7818609E-02  0.9594215E-01
       -1   -1    0    0    0  501  0.00000000000E+00  0.00000000000E+00  0.44644791785E+03  0.44644791788E+03  0.50400001928E-02 0.  1.
        1   -1    0    0  501    0  0.00000000000E+00  0.00000000000E+00 -0.33790188428E+03  0.33790188432E+03  0.50400001928E-02 0. -1.
    10030    2    1    2    0    0  0.00000000000E+00  0.00000000000E+00  0.10854603357E+03  0.78434980220E+03  0.77680265886E+03 0.  0.
        3    1    3    3  502    0  0.20903070701E+03 -0.10706273146E+03 -0.25808561249E+03  0.34894764438E+03  0.10100000352E+00 0. -1.
       -3    1    3    3    0  502 -0.20903070701E+03  0.10706273146E+03  0.36663164606E+03  0.43540215782E+03  0.10100000352E+00 0.  1.
</event>
<event>
 5   0  0.1154714E-02  0.7982137E+03  0.7818609E-02  0.9562606E-01
        2   -1    0    0  501    0  0.00000000000E+00  0.00000000000E+00  0.13163061946E+04  0.13163061946E+04  0.25500000920E-02 0. -1.
       -2   -1    0    0    0  501  0.00000000000E+00  0.00000000000E+00 -0.12101006272E+03  0.12101006275E+03  0.25500000920E-02 0.  1.
    10030    2    1    2    0    0  0.00000000000E+00  0.00000000000E+00  0.11952961319E+04  0.14373162573E+04  0.79821374379E+03 0.  0.
        5    1    3    3  502    0 -0.71310919383E+02  0.16831124783E+03 -0.41145058192E+02  0.18742713032E+03  0.46999998093E+01 0.  1.
       -5    1    3    3    0  502  0.71310919383E+02 -0.16831124783E+03  0.12364411901E+04  0.12498891270E+04  0.46999998093E+01 0. -1.
</event>
<event>
 5   0  0.1106332E-02  0.8000627E+03  0.7818609E-02  0.9559926E-01
       -2   -1    0    0    0  501  0.00000000000E+00  0.00000000000E+00  0.10032160876E+04  0.10032160876E+04  0.25500000920E-02 0. -1.
        2   -1    0    0  501    0  0.00000000000E+00  0.00000000000E+00 -0.15951205821E+03  0.15951205823E+03  0.25500000920E-02 0.  1.
    10030    2    1    2    0    0  0.00000000000E+00  0.00000000000E+00  0.84370402938E+03  0.11627281458E+04  0.80006265498E+03 0.  0.
        1    1    3    3  502    0 -0.26210834139E+03  0.46581351248E+02 -0.12084022454E+02  0.26648945295E+03  0.50400001928E-02 0.  1.
       -1    1    3    3    0  502  0.26210834139E+03 -0.46581351248E+02  0.85578805184E+03  0.89623869287E+03  0.50400001928E-02 0. -1.
</event>
<event>
 5   0  0.6551489E-03  0.8067415E+03  0.7818609E-02  0.9550310E-01
       -1   -1    0    0    0  501  0.00000000000E+00  0.00000000000E+00  0.16673295135E+03  0.16673295142E+03  0.50400001928E-02 0.  1.
        1   -1    0    0  501    0  0.00000000000E+00  0.00000000000E+00 -0.97585970184E+03  0.97585970186E+03  0.50400001928E-02 0. -1.
    10030    2    1    2    0    0  0.00000000000E+00  0.00000000000E+00 -0.80912675050E+03  0.11425926533E+04  0.80674151558E+03 0.  0.
        4    1    3    3  502    0 -0.27209436618E+03  0.29167665578E+03 -0.31963532703E+03  0.51115454691E+03  0.12699999809E+01 0.  1.
       -4    1    3    3    0  502  0.27209436618E+03 -0.29167665578E+03 -0.48949142346E+03  0.63143810637E+03  0.12699999809E+01 0. -1.
</event>
<event>
 5   0  0.6517392E-03  0.7987797E+03  0.7818609E-02  0.9561785E-01
       -1   -1    0    0    0  501  0.00000000000E+00  0.00000000000E+00  0.51293978065E+03  0.51293978067E+03  0.50400001928E-02 0.  1.
        1   -1    0    0  501    0  0.00000000000E+00  0.00000000000E+00 -0.31097659830E+03  0.31097659834E+03  0.50400001928E-02 0. -1.
    10030    2    1    2    0    0  0.00000000000E+00  0.00000000000E+00  0.20196318235E+03  0.82391637901E+03  0.79877973971E+03 0.  0.
        3    1    3    3  502    0  0.27350459062E+03 -0.29015868647E+03  0.77563989055E+02  0.40621793046E+03  0.10100000352E+00 0. -1.
       -3    1    3    3    0  502 -0.27350459062E+03  0.29015868647E+03  0.12439919329E+03  0.41769844855E+03  0.10100000352E+00 0.  1.
</event>
<event>
 5   0  0.1154714E-02  0.8021875E+03  0.7818609E-02  0.9556856E-01
        2   -1    0    0  501    0  0.00000000000E+00  0.00000000000E+00  0.52972898704E+03  0.52972898705E+03  0.25500000920E-02 0.  1.
       -2   -1    0    0    0  501  0.00000000000E+00  0.00000000000E+00 -0.30369528744E+03  0.30369528745E+03  0.25500000920E-02 0. -1.
    10030    2    1    2    0    0  0.00000000000E+00  0.00000000000E+00  0.22603369960E+03  0.83342427450E+03  0.80218750176E+03 0.  0.
        5    1    3    3  502    0 -0.78820249615E+02 -0.19088423935E+02  0.52109279761E+03  0.52738675884E+03  0.46999998093E+01 0.  1.
       -5    1    3    3    0  502  0.78820249615E+02  0.19088423935E+02 -0.29505909801E+03  0.30603751567E+03  0.46999998093E+01 0. -1.
</event>
<event>
 5   0  0.6517392E-03  0.7902084E+03  0.7818609E-02  0.9574299E-01
       -1   -1    0    0    0  501  0.00000000000E+00  0.00000000000E+00  0.22257886063E+03  0.22257886069E+03  0.50400001928E-02 0.  1.
        1   -1    0    0  501    0  0.00000000000E+00  0.00000000000E+00 -0.70135746939E+03  0.70135746941E+03  0.50400001928E-02 0. -1.
    10030    2    1    2    0    0  0.00000000000E+00  0.00000000000E+00 -0.47877860876E+03  0.92393633010E+03  0.79020844457E+03 0.  0.
        3    1    3    3  502    0 -0.32105048047E+03  0.22584240961E+03 -0.29205835020E+03  0.48926096831E+03  0.10100000352E+00 0. -1.
       -3    1    3    3    0  502  0.32105048047E+03 -0.22584240961E+03 -0.18672025856E+03  0.43467536179E+03  0.10100000352E+00 0.  1.
</event>
<event>
 5   0  0.6557679E-03  0.7690145E+03  0.7818609E-02  0.9605983E-01
       -1   -1    0    0    0  501  0.00000000000E+00  0.00000000000E+00  0.10548824433E+03  0.10548824445E+03  0.50400001928E-02 0. -1.
        1   -1    0    0  501    0  0.00000000000E+00  0.00000000000E+00 -0.14015382868E+04  0.14015382868E+04  0.50400001928E-02 0.  1.
    10030    2    1    2    0    0  0.00000000000E+00  0.00000000000E+00 -0.12960500425E+04  0.15070265313E+04  0.76901446888E+03 0.  0.
        1    1    3    3  502    0 -0.15644653080E+03 -0.34602080799E+03 -0.76625590053E+03  0.85519238870E+03  0.50400001928E-02 0. -1.
       -1    1    3    3    0  502  0.15644653080E+03  0.34602080799E+03 -0.52979414194E+03  0.65183414257E+03  0.50400001928E-02 0.  1.
</event>
<event>
 5   0  0.1119792E-02  0.7997169E+03  0.7818609E-02  0.9560427E-01
        2   -1    0    0  501    0  0.00000000000E+00  0.00000000000E+00  0.85373489938E+03  0.85373489939E+03  0.25500000920E-02 0.  1.
       -2   -1    0    0    0  501  0.00000000000E+00  0.00000000000E+00 -0.18727919818E+03  0.18727919819E+03  0.25500000920E-02 0. -1.
    10030    2    1    2    0    0  0.00000000000E+00  0.00000000000E+00  0.66645570121E+03  0.10410140976E+04  0.79971691847E+03 0.  0.
        4    1    3    3  502    0 -0.14213544366E+02 -0.38822539161E+03  0.45647474209E+03  0.59940952828E+03  0.12699999809E+01 0. -1.
       -4    1    3    3    0  502  0.14213544366E+02  0.38822539161E+03  0.20998095912E+03  0.44160456930E+03  0.12699999809E+01 0.  1.
</event>
<event>
 5   0  0.1121480E-02  0.7994380E+03  0.7818609E-02  0.9560831E-01
       -2   -1    0    0    0  501  0.00000000000E+00  0.00000000000E+00  0.84189652970E+02  0.84189653008E+02  0.25500000920E-02 0.  1.
        2   -1    0    0  501    0  0.00000000000E+00  0.00000000000E+00 -0.18978020006E+04  0.18978020006E+04  0.25500000920E-02 0. -1.
    10030    2    1    2    0    0  0.00000000000E+00  0.00000000000E+00 -0.18136123476E+04  0.19819916536E+04  0.79943803231E+03 0.  0.
        2    1    3    3  502    0 -0.11029772708E+03 -0.32930685414E+03 -0.41615199553E+03  0.54202497744E+03  0.25500000920E-02 0. -1.
       -2    1    3    3    0  502  0.11029772708E+03  0.32930685414E+03 -0.13974603521E+04  0.14399666762E+04  0.25500000920E-02 0.  1.
</event>
<event>
 5   0  0.6600401E-03  0.7941941E+03  0.7818609E-02  0.9568459E-01
        1   -1    0    0  501    0  0.00000000000E+00  0.00000000000E+00  0.73359383544E+03  0.73359383546E+03  0.50400001928E-02 0. -1.
       -1   -1    0    0    0  501  0.00000000000E+00  0.00000000000E+00 -0.21495011272E+03  0.21495011278E+03  0.50400001928E-02 0.  1.
    10030    2    1    2    0    0  0.00000000000E+00  0.00000000000E+00  0.51864372272E+03  0.94854394824E+03  0.79419412653E+03 0.  0.
        2    1    3    3  502    0 -0.16108821145E+03  0.58154195216E+01  0.69276124257E+03  0.71126743929E+03  0.25500000920E-02 0. -1.
       -2    1    3    3    0  502  0.16108821145E+03 -0.58154195216E+01 -0.17411751985E+03  0.23727650895E+03  0.25500000920E-02 0.  1.
</event>
<event>
 5   0  0.1121480E-02  0.8037627E+03  0.7818609E-02  0.9554587E-01
       -2   -1    0    0    0  501  0.00000000000E+00  0.00000000000E+00  0.92128345850E+02  0.92128345885E+02  0.25500000920E-02 0.  1.
        2   -1    0    0  501    0  0.00000000000E+00  0.00000000000E+00 -0.17530826131E+04  0.17530826131E+04  0.25500000920E-02 0. -1.
    10030    2    1    2    0    0  0.00000000000E+00  0.00000000000E+00 -0.16609542672E+04  0.18452109590E+04  0.80376265481E+03 0.  0.
        2    1    3    3  502    0 -0.39611615837E+03  0.55833744580E+02 -0.74206423632E+03  0.84302120305E+03  0.25500000920E-02 0.  1.
       -2    1    3    3    0  502  0.39611615837E+03 -0.55833744580E+02 -0.91889003090E+03  0.10021897559E+04  0.25500000920E-02 0. -1.
</event>
<event>
 5   0  0.6600401E-03  0.8007696E+03  0.7818609E-02  0.9558904E-01
        1   -1    0    0  501    0  0.00000000000E+00  0.00000000000E+00  0.58111502874E+03  0.58111502877E+03  0.50400001928E-02 0. -1.
       -1   -1    0    0    0  501  0.00000000000E+00  0.00000000000E+00 -0.27586272683E+03  0.27586272688E+03  0.50400001928E-02 0.  1.
    10030    2    1    2    0    0  0.00000000000E+00  0.00000000000E+00  0.30525230191E+03  0.85697775564E+03  0.80076957100E+03 0.  0.
        2    1    3    3  502    0  0.26168158019E+02 -0.16468532216E+03  0.54218504130E+03  0.56724831145E+03  0.25500000920E-02 0. -1.
       -2    1    3    3    0  502 -0.26168158019E+02  0.16468532216E+03 -0.23693273939E+03  0.28972944419E+03  0.25500000920E-02 0.  1.
</event>
<event>
 5   0  0.6596225E-03  0.7964215E+03  0.7818609E-02  0.9565211E-01
        1   -1    0    0  501    0  0.00000000000E+00  0.00000000000E+00  0.12456131840E+04  0.12456131840E+04  0.50400001928E-02 0.  1.
       -1   -1    0    0    0  501  0.00000000000E+00  0.00000000000E+00 -0.12730422435E+03  0.12730422445E+03  0.50400001928E-02 0. -1.
    10030    2    1    2    0    0  0.00000000000E+00  0.00000000000E+00  0.11183089597E+04  0.13729174085E+04  0.79642154745E+03 0.  0.
        5    1    3    3  502    0  0.24709971997E+03  0.35465480898E+02  0.10939218602E+04  0.11220531174E+04  0.46999998093E+01 0.  1.
       -5    1    3    3    0  502 -0.24709971997E+03 -0.35465480898E+02  0.24387099469E+02  0.25086429113E+03  0.46999998093E+01 0. -1.
</event>
<event>
 5   0  0.6557679E-03  0.8091782E+03  0.7818609E-02  0.9546826E-01
        1   -1    0    0  501    0  0.00000000000E+00  0.00000000000E+00  0.64733699514E+03  0.64733699515E+03  0.50400001928E-02 0.  1.
       -1   -1    0    0    0  501  0.00000000000E+00  0.00000000000E+00 -0.25287037817E+03  0.25287037822E+03  0.50400001928E-02 0. -1.
    10030    2    1    2    0    0  0.00000000000E+00  0.00000000000E+00  0.39446661697E+03  0.90020737337E+03  0.80917822707E+03 0.  0.
        1    1    3    3  502    0 -0.39651862016E+03  0.63247738874E+02  0.25246800373E+03  0.47430726912E+03  0.50400001928E-02 0. -1.
       -1    1    3    3    0  502  0.39651862016E+03 -0.63247738874E+02  0.14199861324E+03  0.42590010425E+03  0.50400001928E-02 0.  1.
</event>
<event>
 5   0  0.1121480E-02  0.7985462E+03  0.7818609E-02  0.9562124E-01
        2   -1    0    0  501    0  0.00000000000E+00  0.00000000000E+00  0.98616507409E+03  0.98616507409E+03  0.25500000920E-02 0. -1.
       -2   -1    0    0    0  501  0.00000000000E+00  0.00000000000E+00 -0.16165549928E+03  0.16165549930E+03  0.25500000920E-02 0.  1.
    10030    2    1    2    0    0  0.00000000000E+00  0.00000000000E+00  0.82450957480E+03  0.11478205734E+04  0.79854619764E+03 0.  0.
        2    1    3    3  502    0  0.30453555389E+03  0.19883091951E+03  0.64906794925E+03  0.74401938206E+03  0.25500000920E-02 0. -1.
       -2    1    3    3    0  502 -0.30453555389E+03 -0.19883091951E+03  0.17544162556E+03  0.40380119133E+03  0.25500000920E-02 0.  1.
</event>
<event>
 5   0  0.1119792E-02  0.7984339E+03  0.7818609E-02  0.9562287E-01
       -2   -1    0    0    0  501  0.00000000000E+00  0.00000000000E+00  0.14158030821E+03  0.14158030823E+03  0.25500000920E-02 0.  1.
        2   -1    0    0  501    0  0.00000000000E+00  0.00000000000E+00 -0.11256803090E+04  0.11256803091E+04  0.25500000920E-02 0. -1.
    10030    2    1    2    0    0  0.00000000000E+00  0.00000000000E+00 -0.98410000084E+03  0.12672606173E+04  0.79843387984E+03 0.  0.
        4    1    3    3  502    0  0.19985250708E+03 -0.26892885260E+03 -0.83654109675E+03  0.90114725311E+03  0.12699999809E+01 0. -1.
       -4    1    3    3    0  502 -0.19985250708E+03  0.26892885260E+03 -0.14755890409E+03  0.36611336417E+03  0.12699999809E+01 0.  1.
</event>
<event>
 5   0  0.1106332E-02  0.8010753E+03  0.7818609E-02  0.9558462E-01
        2   -1    0    0  501    0  0.00000000000E+00  0.00000000000E+00  0.44717618093E+03  0.44717618094E+03  0.25500000920E-02 0.  1.
       -2   -1    0    0    0  501  0.00000000000E+00  0.00000000000E+00 -0.35876327147E+03  0.35876327148E+03  0.25500000920E-02 0. -1.
    10030    2    1    2    0    0  0.00000000000E+00  0.00000000000E+00  0.88412909465E+02  0.80593945242E+03  0.80107525140E+03 0.  0.
        1    1    3    3  502    0 -0.16219345348E+03 -0.31755014174E+03 -0.13934472079E+03  0.38283385444E+03  0.50400001928E-02 0. -1.
       -1    1    3    3    0  502  0.16219345348E+03  0.31755014174E+03  0.22775763026E+03  0.42310559797E+03  0.50400001928E-02 0.  1.
</event>
<event>
 5   0  0.1106332E-02  0.8004416E+03  0.7818609E-02  0.9559378E-01
       -2   -1    0    0    0  501  0.00000000000E+00  0.00000000000E+00  0.59584901826E+03  0.59584901827E+03  0.25500000920E-02 0.  1.
        2   -1    0    0  501    0  0.00000000000E+00  0.00000000000E+00 -0.26882092756E+03  0.26882092757E+03  0.25500000920E-02 0. -1.
    10030    2    1    2    0    0  0.00000000000E+00  0.00000000000E+00  0.32702809070E+03  0.86466994584E+03  0.80044159258E+03 0.  0.
        1    1    3    3  502    0 -0.29987409921E+03  0.16335351659E+03  0.38899181290E+03  0.51761325069E+03  0.50400001928E-02 0.  1.
       -1    1    3    3    0  502  0.29987409921E+03 -0.16335351659E+03 -0.61963722196E+02  0.34705669516E+03  0.50400001928E-02 0. -1.
</event>
<event>
 5   0  0.6600401E-03  0.7811785E+03  0.7818609E-02  0.9587667E-01
        1   -1    0    0  501    0  0.00000000000E+00  0.00000000000E+00  0.81057961261E+03  0.81057961263E+03  0.50400001928E-02 0.  1.
       -1   -1    0    0    0  501  0.00000000000E+00  0.00000000000E+00 -0.18821097589E+03  0.18821097596E+03  0.50400001928E-02 0. -1.
    10030    2    1    2    0    0  0.00000000000E+00  0.00000000000E+00  0.62236863672E+03  0.99879058859E+03  0.78117854546E+03 0.  0.
        2    1    3    3  502    0 -0.14962097822E+02 -0.23040929936E+03  0.71397952614E+03  0.75038594960E+03  0.25500000920E-02 0.  1.
       -2    1    3    3    0  502  0.14962097822E+02  0.23040929936E+03 -0.91610889422E+02  0.24840463899E+03  0.25500000920E-02 0. -1.
</event>
<event>
 5   0  0.4385875E-03  0.7385133E+03  0.7818609E-02  0.9653545E-01
        4   -1    0    0  501    0  0.00000000000E+00  0.00000000000E+00  0.22920429090E+03  0.22920780935E+03  0.12699999809E+01 0. -1.
       -4   -1    0    0    0  501  0.00000000000E+00  0.00000000000E+00 -0.59487753516E+03  0.59487889081E+03  0.12699999809E+01 0.  1.
    10030    2    1    2    0    0  0.00000000000E+00  0.00000000000E+00 -0.36567324425E+03  0.82408670017E+03  0.73851334980E+03 0.  0.
        4    1    3    3  502    0  0.30750096892E+03  0.82842994019E+02  0.25712360506E+02  0.31950359298E+03  0.12699999809E+01 0. -1.
       -4    1    3    3    0  502 -0.30750096892E+03 -0.82842994019E+02 -0.39138560476E+03  0.50458310719E+03  0.12699999809E+01 0.  1.
</event>
<event>
 5   0  0.1106332E-02  0.8022213E+03  0.7818609E-02  0.9556807E-01
       -2   -1    0    0    0  501  0.00000000000E+00  0.00000000000E+00  0.18885521072E+03  0.18885521074E+03  0.25500000920E-02 0.  1.
        2   -1    0    0  501    0  0.00000000000E+00  0.00000000000E+00 -0.85192108036E+03  0.85192108036E+03  0.25500000920E-02 0. -1.
    10030    2    1    2    0    0  0.00000000000E+00  0.00000000000E+00 -0.66306586963E+03  0.10407762911E+04  0.80222125417E+03 0.  0.
        1    1    3    3  502    0  0.33738305389E+03  0.20878272204E+03 -0.25508519352E+03  0.47168422282E+03  0.50400001928E-02 0.  1.
       -1    1    3    3    0  502 -0.33738305389E+03 -0.20878272204E+03 -0.40798067611E+03  0.56909206828E+03  0.50400001928E-02 0. -1.
</event>
<event>
 5   0  0.1154714E-02  0.7992714E+03  0.7818609E-02  0.9561072E-01
       -2   -1    0    0    0  501  0.00000000000E+00  0.00000000000E+00  0.21047966166E+03  0.21047966168E+03  0.25500000920E-02 0. -1.
        2   -1    0    0  501    0  0.00000000000E+00  0.00000000000E+00 -0.75878450483E+03  0.75878450483E+03  0.25500000920E-02 0.  1.
    10030    2    1    2    0    0  0.00000000000E+00  0.00000000000E+00 -0.54830484317E+03  0.96926416651E+03  0.79927143290E+03 0.  0.
        5    1    3    3  502    0  0.66526509160E+02  0.20639451794E+03 -0.68119221491E+03  0.71489117851E+03  0.46999998093E+01 0.  1.
       -5    1    3    3    0  502 -0.66526509160E+02 -0.20639451794E+03  0.13288737175E+03  0.25437298800E+03  0.46999998093E+01 0. -1.
</event>
<event>
 5   0  0.1119792E-02  0.7998694E+03  0.7818609E-02  0.9560206E-01
        2   -1    0    0  501    0  0.00000000000E+00  0.00000000000E+00  0.38071515736E+03  0.38071515736E+03  0.25500000920E-02 0.  1.
       -2   -1    0    0    0  501  0.00000000000E+00  0.00000000000E+00 -0.42012451785E+03  0.42012451786E+03  0.25500000920E-02 0. -1.
    10030    2    1    2    0    0  0.00000000000E+00  0.00000000000E+00 -0.39409360494E+02  0.80083967522E+03  0.79986941917E+03 0.  0.
        4    1    3    3  502    0 -0.32528294605E+03  0.20809477074E+03 -0.12391614502E+03  0.40554808901E+03  0.12699999809E+01 0. -1.
       -4    1    3    3    0  502  0.32528294605E+03 -0.20809477074E+03  0.84506784530E+02  0.39529158621E+03  0.12699999809E+01 0.  1.
</event>
<event>
 5   0  0.6557679E-03  0.8014515E+03  0.7818609E-02  0.9557919E-01
       -1   -1    0    0    0  501  0.00000000000E+00  0.00000000000E+00  0.30825638332E+03  0.30825638336E+03  0.50400001928E-02 0. -1.
        1   -1    0    0  501    0  0.00000000000E+00  0.00000000000E+00 -0.52093362857E+03  0.52093362859E+03  0.50400001928E-02 0.  1.
    10030    2    1    2    0    0  0.00000000000E+00  0.00000000000E+00 -0.21267724524E+03  0.82919001195E+03  0.80145147406E+03 0.  0.
        1    1    3    3  502    0  0.61608363471E+02 -0.30970798782E+03 -0.36158874114E+03  0.48006358528E+03  0.50400001928E-02 0.  1.
       -1    1    3    3    0  502 -0.61608363471E+02  0.30970798782E+03  0.14891149589E+03  0.34912642668E+03  0.50400001928E-02 0. -1.
</event>
<event>
 5   0  0.1092868E-02  0.8038611E+03  0.7818609E-02  0.9554445E-01
       -2   -1    0    0    0  501  0.00000000000E+00  0.00000000000E+00  0.60815000869E+03  0.60815000869E+03  0.25500000920E-02 0.  1.
        2   -1    0    0  501    0  0.00000000000E+00  0.00000000000E+00 -0.26563866637E+03  0.26563866638E+03  0.25500000920E-02 0. -1.
    10030    2    1    2    0    0  0.00000000000E+00  0.00000000000E+00  0.34251134232E+03  0.87378867508E+03  0.80386107573E+03 0.  0.
        3    1    3    3  502    0  0.33744009620E+03 -0.21188044377E+03  0.11385061535E+03  0.41439246348E+03  0.10100000352E+00 0. -1.
       -3    1    3    3    0  502 -0.33744009620E+03  0.21188044377E+03  0.22866072697E+03  0.45939621160E+03  0.10100000352E+00 0.  1.
</event>
<event>
 5   0  0.1106332E-02  0.8012998E+03  0.7818609E-02  0.9558138E-01
        2   -1    0    0  501    0  0.00000000000E+00  0.00000000000E+00  0.47943133353E+03  0.47943133353E+03  0.25500000920E-02 0. -1.
       -2   -1    0    0    0  501  0.00000000000E+00  0.00000000000E+00 -0.33481401046E+03  0.33481401047E+03  0.25500000920E-02 0.  1.
    10030    2    1    2    0    0  0.00000000000E+00  0.00000000000E+00  0.14461732307E+03  0.81424534401E+03  0.80129976295E+03 0.  0.
        1    1    3    3  502    0 -0.41448047478E+02  0.28653029986E+03  0.35373569017E+03  0.45710665265E+03  0.50400001928E-02 0. -1.
       -1    1    3    3    0  502  0.41448047478E+02 -0.28653029986E+03 -0.20911836710E+03  0.35713869135E+03  0.50400001928E-02 0.  1.
</event>
<event>
 5   0  0.6551489E-03  0.7970514E+03  0.7818609E-02  0.9564295E-01
       -1   -1    0    0    0  501  0.00000000000E+00  0.00000000000E+00  0.56104121892E+03  0.56104121894E+03  0.50400001928E-02 0. -1.
        1   -1    0    0  501    0  0.00000000000E+00  0.00000000000E+00 -0.28308567838E+03  0.28308567843E+03  0.50400001928E-02 0.  1.
    10030    2    1    2    0    0  0.00000000000E+00  0.00000000000E+00  0.27795554054E+03  0.84412689737E+03  0.79705140132E+03 0.  0.
        4    1    3    3  502    0 -0.29161724818E+03  0.15684779299E+03  0.37383960822E+03  0.49939915416E+03  0.12699999809E+01 0. -1.
       -4    1    3    3    0  502  0.29161724818E+03 -0.15684779299E+03 -0.95884067686E+02  0.34472774321E+03  0.12699999809E+01 0.  1.
</event>
<event>
 5   0  0.1092868E-02  0.8056065E+03  0.7818609E-02  0.9551937E-01
       -2   -1    0    0    0  501  0.00000000000E+00  0.00000000000E+00  0.12565701213E+03  0.12565701216E+03  0.25500000920E-02 0. -1.
        2   -1    0    0  501    0  0.00000000000E+00  0.00000000000E+00 -0.12912168568E+04  0.12912168568E+04  0.25500000920E-02 0.  1.
    10030    2    1    2    0    0  0.00000000000E+00  0.00000000000E+00 -0.11655598447E+04  0.14168738690E+04  0.80560648525E+03 0.  0.
        3    1    3    3  502    0  0.26629413339E+03  0.26054488477E+03 -0.31342872162E+03  0.48686114673E+03  0.10100000352E+00 0. -1.
       -3    1    3    3    0  502 -0.26629413339E+03 -0.26054488477E+03 -0.85213112308E+03  0.93001272227E+03  0.10100000352E+00 0.  1.
</event>
<event>
 5   0  0.1106332E-02  0.7917260E+03  0.7818609E-02  0.9572071E-01
       -2   -1    0    0    0  501  0.00000000000E+00  0.00000000000E+00  0.21369688952E+03  0.21369688954E+03  0.25500000920E-02 0. -1.
        2   -1    0    0  501    0  0.00000000000E+00  0.00000000000E+00 -0.73331669067E+03  0.73331669067E+03  0.25500000920E-02 0.  1.
    10030    2    1    2    0    0  0.00000000000E+00  0.00000000000E+00 -0.51961980115E+03  0.94701358021E+03  0.79172595218E+03 0.  0.
        1    1    3    3  502    0  0.37801591870E+03 -0.69335660184E+02 -0.37331091057E+03  0.53578400922E+03  0.50400001928E-02 0.  1.
       -1    1    3    3    0  502 -0.37801591870E+03  0.69335660184E+02 -0.14630889058E+03  0.41122957099E+03  0.50400001928E-02 0. -1.
</event>
<event>
 5   0  0.6600401E-03  0.8061327E+03  0.7818609E-02  0.9551182E-01
       -1   -1    0    0    0  501  0.00000000000E+00  0.00000000000E+00  0.29348495017E+03  0.29348495021E+03  0.50400001928E-02 0.  1.
        1   -1    0    0  501    0  0.00000000000E+00  0.00000000000E+00 -0.55356322524E+03  0.55356322526E+03  0.50400001928E-02 0. -1.
    10030    2    1    2    0    0  0.00000000000E+00  0.00000000000E+00 -0.26007827507E+03  0.84704817547E+03  0.80613268288E+03 0.  0.
        2    1    3    3  502    0 -0.17501513728E+03  0.31808016414E+03  0.53939640601E+02  0.36703511267E+03  0.25500000920E-02 0.  1.
       -2    1    3    3    0  502  0.17501513728E+03 -0.31808016414E+03 -0.31401791567E+03  0.48001306281E+03  0.25500000920E-02 0. -1.
</event>
<event>
 5   0  0.1154714E-02  0.7998494E+03  0.7818609E-02  0.9560235E-01
        2   -1    0    0  501    0  0.00000000000E+00  0.00000000000E+00  0.15164954522E+04  0.15164954522E+04  0.25500000920E-02 0.  1.
       -2   -1    0    0    0  501  0.00000000000E+00  0.00000000000E+00 -0.10546668505E+03  0.10546668508E+03  0.25500000920E-02 0. -1.
    10030    2    1    2    0    0  0.00000000000E+00  0.00000000000E+00  0.14110287672E+04  0.16219621373E+04  0.79984935649E+03 0.  0.
        5    1    3    3  502    0  0.24638260410E+03  0.13493362016E+02  0.67370615129E+02  0.25582679336E+03  0.46999998093E+01 0. -1.
       -5    1    3    3    0  502 -0.24638260410E+03 -0.13493362016E+02  0.13436581521E+04  0.13661353440E+04  0.46999998093E+01 0.  1.
</event>
<event>
 5   0  0.6557679E-03  0.8013685E+03  0.7818609E-02  0.9558038E-01
       -1   -1    0    0    0  501  0.00000000000E+00  0.00000000000E+00  0.83705709556E+02  0.83705709708E+02  0.50400001928E-02 0. -1.
        1   -1    0    0  501    0  0.00000000000E+00  0.00000000000E+00 -0.19180038137E+04  0.19180038137E+04  0.50400001928E-02 0.  1.
    10030    2    1    2    0    0  0.00000000000E+00  0.00000000000E+00 -0.18342981041E+04  0.20017095234E+04  0.80136850528E+03 0.  0.
        1    1    3    3  502    0  0.29491610727E+03 -0.19937625798E+03 -0.13765215705E+04  0.14218080168E+04  0.50400001928E-02 0.  1.
       -1    1    3    3    0  502 -0.29491610727E+03  0.19937625798E+03 -0.45777653360E+03  0.57990150657E+03  0.50400001928E-02 0. -1.
</event>
<event>
 5   0  0.1106332E-02  0.7976126E+03  0.7818609E-02  0.9563479E-01
       -2   -1    0    0    0  501  0.00000000000E+00  0.00000000000E+00  0.56766594372E+03  0.56766594372E+03  0.25500000920E-02 0. -1.
        2   -1    0    0  501    0  0.00000000000E+00  0.00000000000E+00 -0.28017617189E+03  0.28017617191E+03  0.25500000920E-02 0.  1.
    10030    2    1    2    0    0  0.00000000000E+00  0.00000000000E+00  0.28748977182E+03  0.84784211563E+03  0.79761261533E+03 0.  0.
        1    1    3    3  502    0 -0.35543862683E+03  0.20804988464E+02  0.33471684053E+03  0.48867660917E+03  0.50400001928E-02 0. -1.
       -1    1    3    3    0  502  0.35543862683E+03 -0.20804988464E+02 -0.47227068709E+02  0.35916550646E+03  0.50400001928E-02 0.  1.
</event>
<event>
 5   0  0.1121480E-02  0.8188077E+03  0.7818609E-02  0.9533186E-01
        2   -1    0    0  501    0  0.00000000000E+00  0.00000000000E+00  0.43492679607E+03  0.43492679608E+03  0.25500000920E-02 0.  1.
       -2   -1    0    0    0  501  0.00000000000E+00  0.00000000000E+00 -0.38537869533E+03  0.38537869534E+03  0.25500000920E-02 0. -1.
    10030    2    1    2    0    0  0.00000000000E+00  0.00000000000E+00  0.49548100735E+02  0.82030549142E+03  0.81880772161E+03 0.  0.
        2    1    3    3  502    0 -0.22157455820E+02  0.19816880418E+03 -0.33344075759E+03  0.38851585119E+03  0.25500000920E-02 0. -1.
       -2    1    3    3    0  502  0.22157455820E+02 -0.19816880418E+03  0.38298885832E+03  0.43178964023E+03  0.25500000920E-02 0.  1.
</event>
<event>
 5   0  0.6596225E-03  0.8004152E+03  0.7818609E-02  0.9559416E-01
        1   -1    0    0  501    0  0.00000000000E+00  0.00000000000E+00  0.22281402023E+04  0.22281402023E+04  0.50400001928E-02 0. -1.
       -1   -1    0    0    0  501  0.00000000000E+00  0.00000000000E+00 -0.71883326245E+02  0.71883326422E+02  0.50400001928E-02 0.  1.
    10030    2    1    2    0    0  0.00000000000E+00  0.00000000000E+00  0.21562568760E+04  0.23000235287E+04  0.80041521547E+03 0.  0.
        5    1    3    3  502    0 -0.16747265555E+03  0.24940894550E+03  0.18378090997E+04  0.18622073701E+04  0.46999998093E+01 0. -1.
       -5    1    3    3    0  502  0.16747265555E+03 -0.24940894550E+03  0.31844777634E+03  0.43781615857E+03  0.46999998093E+01 0.  1.
</event>
<event>
 5   0  0.6517392E-03  0.8010205E+03  0.7818609E-02  0.9558541E-01
       -1   -1    0    0    0  501  0.00000000000E+00  0.00000000000E+00  0.29630247382E+03  0.29630247386E+03  0.50400001928E-02 0.  1.
        1   -1    0    0  501    0  0.00000000000E+00  0.00000000000E+00 -0.54136727825E+03  0.54136727828E+03  0.50400001928E-02 0. -1.
    10030    2    1    2    0    0  0.00000000000E+00  0.00000000000E+00 -0.24506480443E+03  0.83766975214E+03  0.80102050865E+03 0.  0.
        3    1    3    3  502    0  0.94965649410E+02  0.87064779477E+02  0.27404073509E+03  0.30281526561E+03  0.10100000352E+00 0.  1.
       -3    1    3    3    0  502 -0.94965649410E+02 -0.87064779477E+02 -0.51910553953E+03  0.53485448653E+03  0.10100000352E+00 0. -1.
</event>
<event>
 5   0  0.1092868E-02  0.7993973E+03  0.7818609E-02  0.9560890E-01
       -2   -1    0    0    0  501  0.00000000000E+00  0.00000000000E+00  0.42102630223E+03  0.42102630224E+03  0.25500000920E-02 0.  1.
        2   -1    0    0  501    0  0.00000000000E+00  0.00000000000E+00 -0.37945139303E+03  0.37945139303E+03  0.25500000920E-02 0. -1.
    10030    2    1    2    0    0  0.00000000000E+00  0.00000000000E+00  0.41574909208E+02  0.80047769528E+03  0.79939731521E+03 0.  0.
        3    1    3    3  502    0  0.11776777370E+03  0.31254977909E+03 -0.19905970190E+03  0.38882050878E+03  0.10100000352E+00 0. -1.
       -3    1    3    3    0  502 -0.11776777370E+03 -0.31254977909E+03  0.24063461111E+03  0.41165718649E+03  0.10100000352E+00 0.  1.
</event>
<event>
 5   0  0.1154714E-02  0.8054043E+03  0.7818609E-02  0.9552227E-01
       -2   -1    0    0    0  501  0.00000000000E+00  0.00000000000E+00  0.27920041373E+03  0.27920041374E+03  0.25500000920E-02 0. -1.
        2   -1    0    0  501    0  0.00000000000E+00  0.00000000000E+00 -0.58083369308E+03  0.58083369308E+03  0.25500000920E-02 0.  1.
    10030    2    1    2    0    0  0.00000000000E+00  0.00000000000E+00 -0.30163327935E+03  0.86003410682E+03  0.80540426476E+03 0.  0.
        5    1    3    3  502    0 -0.91294378765E+02 -0.26729112935E+03 -0.45728118255E+03  0.53750105240E+03  0.46999998093E+01 0.  1.
       -5    1    3    3    0  502  0.91294378765E+02  0.26729112935E+03  0.15564790320E+03  0.32253305442E+03  0.46999998093E+01 0. -1.
</event>
<event>
 5   0  0.6596225E-03  0.8031689E+03  0.7818609E-02  0.9555442E-01
        1   -1    0    0  501    0  0.00000000000E+00  0.00000000000E+00  0.28965489180E+03  0.28965489184E+03  0.50400001928E-02 0. -1.
       -1   -1    0    0    0  501  0.00000000000E+00  0.00000000000E+00 -0.55676624284E+03  0.55676624286E+03  0.50400001928E-02 0.  1.
    10030    2    1    2    0    0  0.00000000000E+00  0.00000000000E+00 -0.26711135104E+03  0.84642113471E+03  0.80316888848E+03 0.  0.
        5    1    3    3  502    0 -0.21074339765E+03  0.30047850562E+03 -0.30526521072E+03  0.47739820995E+03  0.46999998093E+01 0.  1.
       -5    1    3    3    0  502  0.21074339765E+03 -0.30047850562E+03  0.38153859679E+02  0.36902292476E+03  0.46999998093E+01 0. -1.
</event>
<event>
 5   0  0.1106332E-02  0.8009103E+03  0.7818609E-02  0.9558700E-01
       -2   -1    0    0    0  501  0.00000000000E+00  0.00000000000E+00  0.19249136541E+03  0.19249136542E+03  0.25500000920E-02 0. -1.
        2   -1    0    0  501    0  0.00000000000E+00  0.00000000000E+00 -0.83309871180E+03  0.83309871181E+03  0.25500000920E-02 0.  1.
    10030    2    1    2    0    0  0.00000000000E+00  0.00000000000E+00 -0.64060734639E+03  0.10255900772E+04  0.80091025356E+03 0.  0.
        1    1    3    3  502    0 -0.47369882384E+02  0.38677939774E+03 -0.43851613897E+03  0.58663328617E+03  0.50400001928E-02 0.  1.
       -1    1    3    3    0  502  0.47369882384E+02 -0.38677939774E+03 -0.20209120742E+03  0.43895679106E+03  0.50400001928E-02 0. -1.
</event>
<event>
 5   0  0.6551489E-03  0.7872945E+03  0.7818609E-02  0.9578592E-01
       -1   -1    0    0    0  501  0.00000000000E+00  0.00000000000E+00  0.21494937701E+03  0.21494937707E+03  0.50400001928E-02 0.  1.
        1   -1    0    0  501    0  0.00000000000E+00  0.00000000000E+00 -0.72090537627E+03  0.72090537629E+03  0.50400001928E-02 0. -1.
    10030    2    1    2    0    0  0.00000000000E+00  0.00000000000E+00 -0.50595599926E+03  0.93585475336E+03  0.78729451045E+03 0.  0.
        4    1    3    3  502    0 -0.34495996688E+03 -0.18762860233E+03 -0.22032283160E+03  0.45027284416E+03  0.12699999809E+01 0. -1.
       -4    1    3    3    0  502  0.34495996688E+03  0.18762860233E+03 -0.28563316767E+03  0.48558190919E+03  0.12699999809E+01 0.  1.
</event>
<event>
 5   0  0.1092868E-02  0.7992903E+03  0.7818609E-02  0.9561045E-01
       -2   -1    0    0    0  501  0.00000000000E+00  0.00000000000E+00  0.22096998019E+03  0.22096998021E+03  0.25500000920E-02 0. -1.
        2   -1    0    0  501    0  0.00000000000E+00  0.00000000000E+00 -0.72279605575E+03  0.72279605575E+03  0.25500000920E-02 0.  1.
    10030    2    1    2    0    0  0.00000000000E+00  0.00000000000E+00 -0.50182607555E+03  0.94376603596E+03  0.79929026050E+03 0.  0.
        3    1    3    3  502    0  0.12956602491E+03 -0.36037751791E+03 -0.11599189115E+03  0.40014177392E+03  0.10100000352E+00 0. -1.
       -3    1    3    3    0  502 -0.12956602491E+03  0.36037751791E+03 -0.38583418440E+03  0.54362426204E+03  0.10100000352E+00 0.  1.
</event>
<event>
 5   0  0.4385875E-03  0.7970767E+03  0.7818609E-02  0.9564258E-01
        3   -1    0    0  501    0  0.00000000000E+00  0.00000000000E+00  0.59052867248E+03  0.59052868111E+03  0.10100000352E+00 0. -1.
       -3   -1    0    0    0  501  0.00000000000E+00  0.00000000000E+00 -0.26896716706E+03  0.26896718602E+03  0.10100000352E+00 0.  1.
    10030    2    1    2    0    0  0.00000000000E+00  0.00000000000E+00  0.32156150542E+03  0.85949586714E+03  0.79707674904E+03 0.  0.
        5    1    3    3  502    0 -0.30409439306E+03  0.15736618908E+03 -0.59081426702E+02  0.34749132699E+03  0.46999998093E+01 0.  1.
       -5    1    3    3    0  502  0.30409439306E+03 -0.15736618908E+03  0.38064293212E+03  0.51200454014E+03  0.46999998093E+01 0. -1.
</event>
<event>
 5   0  0.1119792E-02  0.7950431E+03  0.7818609E-02  0.9567220E-01
       -2   -1    0    0    0  501  0.00000000000E+00  0.00000000000E+00  0.32408472406E+03  0.32408472407E+03  0.25500000920E-02 0.  1.
        2   -1    0    0  501    0  0.00000000000E+00  0.00000000000E+00 -0.48759896126E+03  0.48759896127E+03  0.25500000920E-02 0. -1.
    10030    2    1    2    0    0  0.00000000000E+00  0.00000000000E+00 -0.16351423720E+03  0.81168368534E+03  0.79504308014E+03 0.  0.
        4    1    3    3  502    0  0.26400670779E+01 -0.72896990531E+02 -0.48070562231E+03  0.48621029339E+03  0.12699999809E+01 0. -1.
       -4    1    3    3    0  502 -0.26400670779E+01  0.72896990531E+02  0.31719138510E+03  0.32547339195E+03  0.12699999809E+01 0.  1.
</event>
<event>
 5   0  0.1121480E-02  0.7955096E+03  0.7818609E-02  0.9566540E-01
       -2   -1    0    0    0  501  0.00000000000E+00  0.00000000000E+00  0.17268128434E+03  0.17268128435E+03  0.25500000920E-02 0.  1.
        2   -1    0    0  501    0  0.00000000000E+00  0.00000000000E+00 -0.91619013960E+03  0.91619013960E+03  0.25500000920E-02 0. -1.
    10030    2    1    2    0    0  0.00000000000E+00  0.00000000000E+00 -0.74350885526E+03  0.10888714240E+04  0.79550962285E+03 0.  0.
        2    1    3    3  502    0 -0.36845723257E+03  0.77660399685E+02 -0.19637512941E+03  0.42468230640E+03  0.25500000920E-02 0.  1.
       -2    1    3    3    0  502  0.36845723257E+03 -0.77660399685E+02 -0.54713372585E+03  0.66418911756E+03  0.25500000920E-02 0. -1.
</event>
<event>
 5   0  0.1121480E-02  0.7986565E+03  0.7818609E-02  0.9561964E-01
        2   -1    0    0  501    0  0.00000000000E+00  0.00000000000E+00  0.18539654435E+04  0.18539654435E+04  0.25500000920E-02 0.  1.
       -2   -1    0    0    0  501  0.00000000000E+00  0.00000000000E+00 -0.86011888712E+02  0.86011888750E+02  0.25500000920E-02 0. -1.
    10030    2    1    2    0    0  0.00000000000E+00  0.00000000000E+00  0.17679535548E+04  0.19399773322E+04  0.79865654555E+03 0.  0.
        2    1    3    3  502    0  0.19689581052E+03  0.34537782658E+03  0.97516381533E+03  0.10530898680E+04  0.25500000920E-02 0. -1.
       -2    1    3    3    0  502 -0.19689581052E+03 -0.34537782658E+03  0.79278973944E+03  0.88688746426E+03  0.25500000920E-02 0.  1.
</event>
<event>
 5   0  0.1106332E-02  0.7917797E+03  0.7818609E-02  0.9571992E-01
       -2   -1    0    0    0  501  0.00000000000E+00  0.00000000000E+00  0.97457800995E+03  0.97457800995E+03  0.25500000920E-02 0.  1.
        2   -1    0    0  501    0  0.00000000000E+00  0.00000000000E+00 -0.16081705114E+03  0.16081705116E+03  0.25500000920E-02 0. -1.
    10030    2    1    2    0    0  0.00000000000E+00  0.00000000000E+00  0.81376095881E+03  0.11353950611E+04  0.79177967056E+03 0.  0.
        1    1    3    3  502    0  0.37200911144E+03 -0.50918327386E+02  0.58681654276E+03  0.69666140265E+03  0.50400001928E-02 0. -1.
       -1    1    3    3    0  502 -0.37200911144E+03  0.50918327386E+02  0.22694441605E+03  0.43873365846E+03  0.50400001928E-02 0.  1.
</event>
<event>
 5   0  0.6596225E-03  0.7952626E+03  0.7818609E-02  0.9566900E-01
       -1   -1    0    0    0  501  0.00000000000E+00  0.00000000000E+00  0.41102376710E+03  0.41102376713E+03  0.50400001928E-02 0.  1.
        1   -1    0    0  501    0  0.00000000000E+00  0.00000000000E+00 -0.38467516014E+03  0.38467516017E+03  0.50400001928E-02 0. -1.
    10030    2    1    2    0    0  0.00000000000E+00  0.00000000000E+00  0.26348606959E+02  0.79569892730E+03  0.79526255653E+03 0.  0.
        5    1    3    3  502    0  0.38228889120E+03 -0.76744857529E+00 -0.96170419611E+02  0.39422864548E+03  0.46999998093E+01 0. -1.
       -5    1    3    3    0  502 -0.38228889120E+03  0.76744857529E+00  0.12251902657E+03  0.40147028182E+03  0.46999998093E+01 0.  1.
</event>
<event>
 5   0  0.6557679E-03  0.7762068E+03  0.7818609E-02  0.9595110E-01
        1   -1    0    0  501    0  0.00000000000E+00  0.00000000000E+00  0.44899914871E+03  0.44899914874E+03  0.50400001928E-02 0. -1.
       -1   -1    0    0    0  501  0.00000000000E+00  0.00000000000E+00 -0.33546666613E+03  0.33546666617E+03  0.50400001928E-02 0.  1.
    10030    2    1    2    0    0  0.00000000000E+00  0.00000000000E+00  0.11353248259E+03  0.78446581491E+03  0.77620679600E+03 0.  0.
        1    1    3    3  502    0  0.37153463844E+03 -0.10749384425E+03  0.24310156943E+02  0.38753567303E+03  0.50400001928E-02 0. -1.
       -1    1    3    3    0  502 -0.37153463844E+03  0.10749384425E+03  0.89222325643E+02  0.39693014188E+03  0.50400001928E-02 0.  1.
</event>
<event>
 5   0  0.1106332E-02  0.7968509E+03  0.7818609E-02  0.9564587E-01
        2   -1    0    0  501    0  0.00000000000E+00  0.00000000000E+00  0.22707444588E+03  0.22707444590E+03  0.25500000920E-02 0. -1.
       -2   -1    0    0    0  501  0.00000000000E+00  0.00000000000E+00 -0.69907833858E+03  0.69907833858E+03  0.25500000920E-02 0.  1.
    10030    2    1    2    0    0  0.00000000000E+00  0.00000000000E+00 -0.47200389270E+03  0.92615278448E+03  0.79685086778E+03 0.  0.
        1    1    3    3  502    0 -0.75844396705E+01 -0.31368883637E+03 -0.52137229003E+03  0.60851234550E+03  0.50400001928E-02 0.  1.
       -1    1    3    3    0  502  0.75844396705E+01  0.31368883637E+03  0.49368397338E+02  0.31764043898E+03  0.50400001928E-02 0. -1.
</event>
<event>
 5   0  0.6600401E-03  0.7948582E+03  0.7818609E-02  0.9567490E-01
        1   -1    0    0  501    0  0.00000000000E+00  0.00000000000E+00  0.52699204527E+03  0.52699204529E+03  0.50400001928E-02 0. -1.
       -1   -1    0    0    0  501  0.00000000000E+00  0.00000000000E+00 -0.29971972115E+03  0.29971972119E+03  0.50400001928E-02 0.  1.
    10030    2    1    2    0    0  0.00000000000E+00  0.00000000000E+00  0.22727232412E+03  0.82671176649E+03  0.79485824871E+03 0.  0.
        2    1    3    3  502    0  0.49762745845E+02 -0.14292548667E+03  0.49584885744E+03  0.51843043414E+03  0.25500000920E-02 0. -1.
       -2    1    3    3    0  502 -0.49762745845E+02  0.14292548667E+03 -0.26857653332E+03  0.30828133234E+03  0.25500000920E-02 0.  1.
</event>
<event>
 5   0  0.6517392E-03  0.7990690E+03  0.7818609E-02  0.9561366E-01
       -1   -1    0    0    0  501  0.00000000000E+00  0.00000000000E+00  0.25437522775E+03  0.25437522780E+03  0.50400001928E-02 0.  1.
        1   -1    0    0  501    0  0.00000000000E+00  0.00000000000E+00 -0.62752893098E+03  0.62752893100E+03  0.50400001928E-02 0. -1.
    10030    2    1    2    0    0  0.00000000000E+00  0.00000000000E+00 -0.37315370323E+03  0.88190415880E+03  0.79906899519E+03 0.  0.
        3    1    3    3  502    0  0.12449705414E+03  0.48851992654E+01  0.23238624036E+03  0.26367926837E+03  0.10100000352E+00 0.  1.
       -3    1    3    3    0  502 -0.12449705414E+03 -0.48851992654E+01 -0.60553994359E+03  0.61822489043E+03  0.10100000352E+00 0. -1.
</event>
<event>
 5   0  0.6551489E-03  0.8004283E+03  0.7818609E-02  0.9559397E-01
       -1   -1    0    0    0  501  0.00000000000E+00  0.00000000000E+00  0.35005897160E+03  0.35005897163E+03  0.50400001928E-02 0.  1.
        1   -1    0    0  501    0  0.00000000000E+00  0.00000000000E+00 -0.45755538899E+03  0.45755538902E+03  0.50400001928E-02 0. -1.
    10030    2    1    2    0    0  0.00000000000E+00  0.00000000000E+00 -0.10749641739E+03  0.80761436065E+03  0.80042830771E+03 0.  0.
        4    1    3    3  502    0 -0.18328763014E+03 -0.34401756748E+03  0.37770656909E+02  0.39162568547E+03  0.12699999809E+01 0.  1.
       -4    1    3    3    0  502  0.18328763014E+03  0.34401756748E+03 -0.14526707430E+03  0.41598867518E+03  0.12699999809E+01 0. -1.
</event>
<event>
 5   0  0.1106332E-02  0.8001563E+03  0.7818609E-02  0.9559791E-01
       -2   -1    0    0    0  501  0.00000000000E+00  0.00000000000E+00  0.27145816780E+03  0.27145816781E+03  0.25500000920E-02 0. -1.
        2   -1    0    0  501    0  0.00000000000E+00  0.00000000000E+00 -0.58963977073E+03  0.58963977074E+03  0.25500000920E-02 0.  1.
    10030    2    1    2    0    0  0.00000000000E+00  0.00000000000E+00 -0.31818160293E+03  0.86109793855E+03  0.80015631431E+03 0.  0.
        1    1    3    3  502    0 -0.20602125764E+03  0.26001696987E+03 -0.39974950607E+03  0.51947401364E+03  0.50400001928E-02 0.  1.
       -1    1    3    3    0  502  0.20602125764E+03 -0.26001696987E+03  0.81567903139E+02  0.34162392491E+03  0.50400001928E-02 0. -1.
</event>
<event>
 5   0  0.6600401E-03  0.8000527E+03  0.7818609E-02  0.9559941E-01
       -1   -1    0    0    0  501  0.00000000000E+00  0.00000000000E+00  0.17477813342E+03  0.17477813349E+03  0.50400001928E-02 0.  1.
        1   -1    0    0  501    0  0.00000000000E+00  0.00000000000E+00 -0.91556693595E+03  0.91556693596E+03  0.50400001928E-02 0. -1.
    10030    2    1    2    0    0  0.00000000000E+00  0.00000000000E+00 -0.74078880253E+03  0.10903450695E+04  0.80005269860E+03 0.  0.
        2    1    3    3  502    0  0.23553963522E+03  0.79520061757E+02  0.56718318190E+02  0.25498887741E+03  0.25500000920E-02 0.  1.
       -2    1    3    3    0  502 -0.23553963522E+03 -0.79520061757E+02 -0.79750712072E+03  0.83535619204E+03  0.25500000920E-02 0. -1.
</event>
<event>
 5   0  0.6517392E-03  0.7776775E+03  0.7818609E-02  0.9592902E-01
       -1   -1    0    0    0  501  0.00000000000E+00  0.00000000000E+00  0.21668577628E+03  0.21668577634E+03  0.50400001928E-02 0.  1.
        1   -1    0    0  501    0  0.00000000000E+00  0.00000000000E+00 -0.69776424266E+03  0.69776424268E+03  0.50400001928E-02 0. -1.
    10030    2    1    2    0    0  0.00000000000E+00  0.00000000000E+00 -0.48107846638E+03  0.91445001902E+03  0.77767753374E+03 0.  0.
        3    1    3    3  502    0 -0.30147669576E+03  0.21601028467E+03 -0.37790483271E+03  0.52949099516E+03  0.10100000352E+00 0.  1.
       -3    1    3    3    0  502  0.30147669576E+03 -0.21601028467E+03 -0.10317363367E+03  0.38495902386E+03  0.10100000352E+00 0. -1.
</event>
<event>
 5   0  0.6596225E-03  0.8071209E+03  0.7818609E-02  0.9549767E-01
       -1   -1    0    0    0  501  0.00000000000E+00  0.00000000000E+00  0.29086576622E+03  0.29086576626E+03  0.50400001928E-02 0.  1.
        1   -1    0    0  501    0  0.00000000000E+00  0.00000000000E+00 -0.55991823524E+03  0.55991823526E+03  0.50400001928E-02 0. -1.
    10030    2    1    2    0    0  0.00000000000E+00  0.00000000000E+00 -0.26905246902E+03  0.85078400153E+03  0.80712092413E+03 0.  0.
        5    1    3    3  502    0 -0.22530390948E+02 -0.24104826497E+03  0.20578083964E+03  0.31777307709E+03  0.46999998093E+01 0.  1.
       -5    1    3    3    0  502  0.22530390948E+02  0.24104826497E+03 -0.47483330866E+03  0.53301092444E+03  0.46999998093E+01 0. -1.
</event>
<event>
 5   0  0.1106332E-02  0.7993338E+03  0.7818609E-02  0.9560982E-01
       -2   -1    0    0    0  501  0.00000000000E+00  0.00000000000E+00  0.37146399586E+03  0.37146399587E+03  0.25500000920E-02 0. -1.
        2   -1    0    0  501    0  0.00000000000E+00  0.00000000000E+00 -0.43001109630E+03  0.43001109630E+03  0.25500000920E-02 0.  1.
    10030    2    1    2    0    0  0.00000000000E+00  0.00000000000E+00 -0.58547100437E+02  0.80147509217E+03  0.79933382288E+03 0.  0.
        1    1    3    3  502    0 -0.28004479234E+03  0.18045836324E+03 -0.25064390111E+03  0.41690846929E+03  0.50400001928E-02 0.  1.
       -1    1    3    3    0  502  0.28004479234E+03 -0.18045836324E+03  0.19209680067E+03  0.38456662288E+03  0.50400001928E-02 0. -1.
</event>
<event>
 5   0  0.4385875E-03  0.8207598E+03  0.7818609E-02  0.9530445E-01
        3   -1    0    0  501    0  0.00000000000E+00  0.00000000000E+00  0.79426694432E+03  0.79426695075E+03  0.10100000352E+00 0.  1.
       -3   -1    0    0    0  501  0.00000000000E+00  0.00000000000E+00 -0.21203406804E+03  0.21203409210E+03  0.10100000352E+00 0. -1.
    10030    2    1    2    0    0  0.00000000000E+00  0.00000000000E+00  0.58223287628E+03  0.10063010428E+04  0.82075981054E+03 0.  0.
        4    1    3    3  502    0  0.29413197538E+03  0.13822565935E+03 -0.16109185264E+02  0.32539371628E+03  0.12699999809E+01 0. -1.
       -4    1    3    3    0  502 -0.29413197538E+03 -0.13822565935E+03  0.59834206155E+03  0.68090732656E+03  0.12699999809E+01 0.  1.
</event>
<event>
 5   0  0.6596225E-03  0.8017467E+03  0.7818609E-02  0.9557492E-01
       -1   -1    0    0    0  501  0.00000000000E+00  0.00000000000E+00  0.28880682807E+03  0.28880682811E+03  0.50400001928E-02 0.  1.
        1   -1    0    0  501    0  0.00000000000E+00  0.00000000000E+00 -0.55642531461E+03  0.55642531463E+03  0.50400001928E-02 0. -1.
    10030    2    1    2    0    0  0.00000000000E+00  0.00000000000E+00 -0.26761848654E+03  0.84523214275E+03  0.80174666871E+03 0.  0.
        5    1    3    3  502    0  0.88486255204E+02  0.38925036384E+03 -0.95337815491E+02  0.41043519850E+03  0.46999998093E+01 0.  1.
       -5    1    3    3    0  502 -0.88486255204E+02 -0.38925036384E+03 -0.17228067105E+03  0.43479694424E+03  0.46999998093E+01 0. -1.
</event>
<event>
 5   0  0.4385875E-03  0.7999552E+03  0.7818609E-02  0.9560082E-01
        3   -1    0    0  501    0  0.00000000000E+00  0.00000000000E+00  0.11744172099E+04  0.11744172142E+04  0.10100000352E+00 0. -1.
       -3   -1    0    0    0  501  0.00000000000E+00  0.00000000000E+00 -0.13622250131E+03  0.13622253876E+03  0.10100000352E+00 0.  1.
    10030    2    1    2    0    0  0.00000000000E+00  0.00000000000E+00  0.10381947085E+04  0.13106397530E+04  0.79995519198E+03 0.  0.
        3    1    3    3  502    0 -0.16226367402E+03 -0.11620157720E+03  0.10870068494E+04  0.11051770027E+04  0.10100000352E+00 0. -1.
       -3    1    3    3    0  502  0.16226367402E+03  0.11620157720E+03 -0.48812140853E+02  0.20546275026E+03  0.10100000352E+00 0.  1.
</event>
<event>
 5   0  0.1121480E-02  0.8388703E+03  0.7818609E-02  0.9505398E-01
        2   -1    0    0  501    0  0.00000000000E+00  0.00000000000E+00  0.81410020786E+03  0.81410020786E+03  0.25500000920E-02 0. -1.
       -2   -1    0    0    0  501  0.00000000000E+00  0.00000000000E+00 -0.21609849735E+03  0.21609849737E+03  0.25500000920E-02 0.  1.
    10030    2    1    2    0    0  0.00000000000E+00  0.00000000000E+00  0.59800171050E+03  0.10301987052E+04  0.83887026797E+03 0.  0.
        2    1    3    3  502    0  0.22032174391E+03 -0.35327022858E+03  0.36143155418E+03  0.55133863787E+03  0.25500000920E-02 0. -1.
       -2    1    3    3    0  502 -0.22032174391E+03  0.35327022858E+03  0.23657015633E+03  0.47886006736E+03  0.25500000920E-02 0.  1.
</event>
<event>
 5   0  0.6600401E-03  0.8047806E+03  0.7818609E-02  0.9553123E-01
        1   -1    0    0  501    0  0.00000000000E+00  0.00000000000E+00  0.18186282505E+04  0.18186282505E+04  0.50400001928E-02 0.  1.
       -1   -1    0    0    0  501  0.00000000000E+00  0.00000000000E+00 -0.89033015118E+02  0.89033015261E+02  0.50400001928E-02 0. -1.
    10030    2    1    2    0    0  0.00000000000E+00  0.00000000000E+00  0.17295952354E+04  0.19076612658E+04  0.80478060779E+03 0.  0.
        2    1    3    3  502    0 -0.23647067259E+03 -0.32467098134E+03  0.80730198947E+03  0.90170179513E+03  0.25500000920E-02 0.  1.
       -2    1    3    3    0  502  0.23647067259E+03  0.32467098134E+03  0.92229324594E+03  0.10059594707E+04  0.25500000920E-02 0. -1.
</event>
<event>
 5   0  0.1154714E-02  0.8005630E+03  0.7818609E-02  0.9559203E-01
        2   -1    0    0  501    0  0.00000000000E+00  0.00000000000E+00  0.18057513768E+04  0.18057513768E+04  0.25500000920E-02 0. -1.
       -2   -1    0    0    0  501  0.00000000000E+00  0.00000000000E+00 -0.88730522615E+02  0.88730522652E+02  0.25500000920E-02 0.  1.
    10030    2    1    2    0    0  0.00000000000E+00  0.00000000000E+00  0.17170208542E+04  0.18944818994E+04  0.80056296045E+03 0.  0.
        5    1    3    3  502    0 -0.29351062707E+03 -0.23905241282E+03  0.55079507298E+03  0.66835009291E+03  0.46999998093E+01 0.  1.
       -5    1    3    3    0  502  0.29351062707E+03  0.23905241282E+03  0.11662257812E+04  0.12261318065E+04  0.46999998093E+01 0. -1.
</event>
<event>
 5   0  0.1119792E-02  0.8032334E+03  0.7818609E-02  0.9555349E-01
       -2   -1    0    0    0  501  0.00000000000E+00  0.00000000000E+00  0.16088494636E+03  0.16088494638E+03  0.25500000920E-02 0. -1.
        2   -1    0    0  501    0  0.00000000000E+00  0.00000000000E+00 -0.10025548566E+04  0.10025548566E+04  0.25500000920E-02 0.  1.
    10030    2    1    2    0    0  0.00000000000E+00  0.00000000000E+00 -0.84166991026E+03  0.11634398030E+04  0.80323342646E+03 0.  0.
        4    1    3    3  502    0  0.65634695092E+02 -0.39227084156E+03 -0.50161154008E+03  0.64015629059E+03  0.12699999809E+01 0. -1.
       -4    1    3    3    0  502 -0.65634695092E+02  0.39227084156E+03 -0.34005837018E+03  0.52328351242E+03  0.12699999809E+01 0.  1.
</event>
<event>
 5   0  0.1119792E-02  0.7878965E+03  0.7818609E-02  0.9577704E-01
        2   -1    0    0  501    0  0.00000000000E+00  0.00000000000E+00  0.10734123105E+04  0.10734123105E+04  0.25500000920E-02 0.  1.
       -2   -1    0    0    0  501  0.00000000000E+00  0.00000000000E+00 -0.14458119673E+03  0.14458119676E+03  0.25500000920E-02 0. -1.
    10030    2    1    2    0    0  0.00000000000E+00  0.00000000000E+00  0.92883111373E+03  0.12179935072E+04  0.78789653242E+03 0.  0.
        4    1    3    3  502    0 -0.28728431377E+03  0.11548225048E+03  0.87889204939E+02  0.32186107618E+03  0.12699999809E+01 0. -1.
       -4    1    3    3    0  502  0.28728431377E+03 -0.11548225048E+03  0.84094190879E+03  0.89613243105E+03  0.12699999809E+01 0.  1.
</event>
<event>
 5   0  0.6596225E-03  0.7917090E+03  0.7818609E-02  0.9572096E-01
       -1   -1    0    0    0  501  0.00000000000E+00  0.00000000000E+00  0.46557154458E+03  0.46557154460E+03  0.50400001928E-02 0.  1.
        1   -1    0    0  501    0  0.00000000000E+00  0.00000000000E+00 -0.33657723896E+03  0.33657723900E+03  0.50400001928E-02 0. -1.
    10030    2    1    2    0    0  0.00000000000E+00  0.00000000000E+00  0.12899430562E+03  0.80214878360E+03  0.79170899966E+03 0.  0.
        5    1    3    3  502    0 -0.50433180921E+02 -0.22151360521E+03 -0.26391735322E+03  0.34826174404E+03  0.46999998093E+01 0. -1.
       -5    1    3    3    0  502  0.50433180921E+02  0.22151360521E+03  0.39291165884E+03  0.45388703956E+03  0.46999998093E+01 0.  1.
</event>
<event>
 5   0  0.6596225E-03  0.8011460E+03  0.7818609E-02  0.9558360E-01
        1   -1    0    0  501    0  0.00000000000E+00  0.00000000000E+00  0.25300856758E+03  0.25300856763E+03  0.50400001928E-02 0.  1.
       -1   -1    0    0    0  501  0.00000000000E+00  0.00000000000E+00 -0.63420267156E+03  0.63420267158E+03  0.50400001928E-02 0. -1.
    10030    2    1    2    0    0  0.00000000000E+00  0.00000000000E+00 -0.38119410397E+03  0.88721123921E+03  0.80114595304E+03 0.  0.
        5    1    3    3  502    0  0.32258498248E+02 -0.28014403184E+03  0.12441763110E+03  0.30825821354E+03  0.46999998093E+01 0.  1.
       -5    1    3    3    0  502 -0.32258498248E+02  0.28014403184E+03 -0.50561173508E+03  0.57895302567E+03  0.46999998093E+01 0. -1.
</event>
<event>
 5   0  0.6596225E-03  0.7941914E+03  0.7818609E-02  0.9568463E-01
       -1   -1    0    0    0  501  0.00000000000E+00  0.00000000000E+00  0.91192058167E+02  0.91192058306E+02  0.50400001928E-02 0.  1.
        1   -1    0    0  501    0  0.00000000000E+00  0.00000000000E+00 -0.17291528912E+04  0.17291528912E+04  0.50400001928E-02 0. -1.
    10030    2    1    2    0    0  0.00000000000E+00  0.00000000000E+00 -0.16379608330E+04  0.18203449495E+04  0.79419144081E+03 0.  0.
        5    1    3    3  502    0  0.17140114941E+03 -0.55706348859E+02 -0.16299383760E+04  0.16398788830E+04  0.46999998093E+01 0. -1.
       -5    1    3    3    0  502 -0.17140114941E+03  0.55706348859E+02 -0.80224569481E+01  0.18046606644E+03  0.46999998093E+01 0.  1.
</event>
<event>
 5   0  0.1106332E-02  0.8037170E+03  0.7818609E-02  0.9554652E-01
       -2   -1    0    0    0  501  0.00000000000E+00  0.00000000000E+00  0.21840382192E+03  0.21840382193E+03  0.25500000920E-02 0.  1.
        2   -1    0    0  501    0  0.00000000000E+00  0.00000000000E+00 -0.73941135343E+03  0.73941135344E+03  0.25500000920E-02 0. -1.
    10030    2    1    2    0    0  0.00000000000E+00  0.00000000000E+00 -0.52100753151E+03  0.95781517537E+03  0.80371702873E+03 0.  0.
        1    1    3    3  502    0 -0.37478636306E+03  0.12282344494E+03 -0.16865649720E+03  0.42894688556E+03  0.50400001928E-02 0. -1.
       -1    1    3    3    0  502  0.37478636306E+03 -0.12282344494E+03 -0.35235103431E+03  0.52886828981E+03  0.50400001928E-02 0.  1.
</event>
<event>
 5   0  0.1154714E-02  0.8022618E+03  0.7818609E-02  0.9556749E-01
        2   -1    0    0  501    0  0.00000000000E+00  0.00000000000E+00  0.47816422879E+03  0.47816422880E+03  0.25500000920E-02 0.  1.
       -2   -1    0    0    0  501  0.00000000000E+00  0.00000000000E+00 -0.33650785406E+03  0.33650785407E+03  0.25500000920E-02 0. -1.
    10030    2    1    2    0    0  0.00000000000E+00  0.00000000000E+00  0.14165637473E+03  0.81467208286E+03  0.80226184883E+03 0.  0.
        5    1    3    3  502    0  0.90265162518E+02 -0.66836660774E+02  0.46184178316E+03  0.47532605805E+03  0.46999998093E+01 0.  1.
       -5    1    3    3    0  502 -0.90265162518E+02  0.66836660774E+02 -0.32018540843E+03  0.33934602481E+03  0.46999998093E+01 0. -1.
</event>
<event>
 5   0  0.6517392E-03  0.7998603E+03  0.7818609E-02  0.9560219E-01
        1   -1    0    0  501    0  0.00000000000E+00  0.00000000000E+00  0.31179963526E+03  0.31179963530E+03  0.50400001928E-02 0.  1.
       -1   -1    0    0    0  501  0.00000000000E+00  0.00000000000E+00 -0.51297085617E+03  0.51297085620E+03  0.50400001928E-02 0. -1.
    10030    2    1    2    0    0  0.00000000000E+00  0.00000000000E+00 -0.20117122091E+03  0.82477049150E+03  0.79986030251E+03 0.  0.
        3    1    3    3  502    0 -0.18993407358E+03  0.16263337822E+03 -0.42242709717E+03  0.49088616872E+03  0.10100000352E+00 0. -1.
       -3    1    3    3    0  502  0.18993407358E+03 -0.16263337822E+03  0.22125587626E+03  0.33388432278E+03  0.10100000352E+00 0.  1.
</event>
<event>
 5   0  0.1119792E-02  0.8035049E+03  0.7818609E-02  0.9554958E-01
        2   -1    0    0  501    0  0.00000000000E+00  0.00000000000E+00  0.56590490164E+03  0.56590490164E+03  0.25500000920E-02 0.  1.
       -2   -1    0    0    0  501  0.00000000000E+00  0.00000000000E+00 -0.28521580288E+03  0.28521580289E+03  0.25500000920E-02 0. -1.
    10030    2    1    2    0    0  0.00000000000E+00  0.00000000000E+00  0.28068909876E+03  0.85112070453E+03  0.80350487461E+03 0.  0.
        4    1    3    3  502    0  0.34834700738E+03 -0.20433423147E+02 -0.70552647838E+02  0.35600906077E+03  0.12699999809E+01 0.  1.
       -4    1    3    3    0  502 -0.34834700738E+03  0.20433423147E+02  0.35124174660E+03  0.49511164376E+03  0.12699999809E+01 0. -1.
</event>
<event>
 5   0  0.1106332E-02  0.8034370E+03  0.7818609E-02  0.9555056E-01
        2   -1    0    0  501    0  0.00000000000E+00  0.00000000000E+00  0.30926222171E+03  0.30926222172E+03  0.25500000920E-02 0.  1.
       -2   -1    0    0    0  501  0.00000000000E+00  0.00000000000E+00 -0.52181525183E+03  0.52181525184E+03  0.25500000920E-02 0. -1.
    10030    2    1    2    0    0  0.00000000000E+00  0.00000000000E+00 -0.21255303012E+03  0.83107747355E+03  0.80343697726E+03 0.  0.
        1    1    3    3  502    0  0.18731274092E+01 -0.23410302225E+03 -0.44395796140E+03  0.50190278456E+03  0.50400001928E-02 0. -1.
       -1    1    3    3    0  502 -0.18731274092E+01  0.23410302225E+03  0.23140493128E+03  0.32917468900E+03  0.50400001928E-02 0.  1.
</event>
<event>
 5   0  0.4385875E-03  0.7943736E+03  0.7818609E-02  0.9568197E-01
       -3   -1    0    0    0  501  0.00000000000E+00  0.00000000000E+00  0.21822261690E+03  0.21822264027E+03  0.10100000352E+00 0.  1.
        3   -1    0    0  501    0  0.00000000000E+00  0.00000000000E+00 -0.72291920276E+03  0.72291920981E+03  0.10100000352E+00 0. -1.
    10030    2    1    2    0    0  0.00000000000E+00  0.00000000000E+00 -0.50469658586E+03  0.94114185009E+03  0.79437355080E+03 0.  0.
        5    1    3    3  502    0 -0.33580366172E+03 -0.13014817067E+03 -0.45071189794E+03  0.57694536180E+03  0.46999998093E+01 0. -1.
       -5    1    3    3    0  502  0.33580366172E+03  0.13014817067E+03 -0.53984687915E+02  0.36419648829E+03  0.46999998093E+01 0.  1.
</event>
<event>
 5   0  0.6557679E-03  0.7942723E+03  0.7818609E-02  0.9568345E-01
       -1   -1    0    0    0  501  0.00000000000E+00  0.00000000000E+00  0.59176129474E+03  0.59176129476E+03  0.50400001928E-02 0.  1.
        1   -1    0    0  501    0  0.00000000000E+00  0.00000000000E+00 -0.26652152566E+03  0.26652152571E+03  0.50400001928E-02 0. -1.
    10030    2    1    2    0    0  0.00000000000E+00  0.00000000000E+00  0.32523976908E+03  0.85828282047E+03  0.79427230376E+03 0.  0.
        1    1    3    3  502    0 -0.22133799961E+03 -0.29061966824E+03 -0.57124118970E+01  0.36535316245E+03  0.50400001928E-02 0. -1.
       -1    1    3    3    0  502  0.22133799961E+03  0.29061966824E+03  0.33095218098E+03  0.49292965802E+03  0.50400001928E-02 0.  1.
</event>
<event>
 5   0  0.1092868E-02  0.8000589E+03  0.7818609E-02  0.9559932E-01
       -2   -1    0    0    0  501  0.00000000000E+00  0.00000000000E+00  0.34774216733E+03  0.34774216734E+03  0.25500000920E-02 0.  1.
        2   -1    0    0  501    0  0.00000000000E+00  0.00000000000E+00 -0.46017872507E+03  0.46017872507E+03  0.25500000920E-02 0. -1.
    10030    2    1    2    0    0  0.00000000000E+00  0.00000000000E+00 -0.11243655774E+03  0.80792089242E+03  0.80005886589E+03 0.  0.
        3    1    3    3  502    0 -0.28031532258E+03 -0.82984199522E+02  0.21952265560E+03  0.36558619226E+03  0.10100000352E+00 0.  1.
       -3    1    3    3    0  502  0.28031532258E+03  0.82984199522E+02 -0.33195921334E+03  0.44233470016E+03  0.10100000352E+00 0. -1.
</event>
<event>
 5   0  0.6517392E-03  0.7957881E+03  0.7818609E-02  0.9566134E-01
       -1   -1    0    0    0  501  0.00000000000E+00  0.00000000000E+00  0.15243532691E+03  0.15243532699E+03  0.50400001928E-02 0.  1.
        1   -1    0    0  501    0  0.00000000000E+00  0.00000000000E+00 -0.10386022043E+04  0.10386022043E+04  0.50400001928E-02 0. -1.
    10030    2    1    2    0    0  0.00000000000E+00  0.00000000000E+00 -0.88616687737E+03  0.11910375313E+04  0.79578807882E+03 0.  0.
        3    1    3    3  502    0  0.41595314695E+02  0.19922029658E+03  0.68641620109E+02  0.21478030400E+03  0.10100000352E+00 0.  1.
       -3    1    3    3    0  502 -0.41595314695E+02 -0.19922029658E+03 -0.95480849748E+03  0.97625722729E+03  0.10100000352E+00 0. -1.
</event>
<event>
 5   0  0.6596225E-03  0.7934295E+03  0.7818609E-02  0.9569577E-01
        1   -1    0    0  501    0  0.00000000000E+00  0.00000000000E+00  0.53280661140E+03  0.53280661142E+03  0.50400001928E-02 0.  1.
       -1   -1    0    0    0  501  0.00000000000E+00  0.00000000000E+00 -0.29538407217E+03  0.29538407221E+03  0.50400001928E-02 0. -1.
    10030    2    1    2    0    0  0.00000000000E+00  0.00000000000E+00  0.23742253923E+03  0.82819068363E+03  0.79342948415E+03 0.  0.
        5    1    3    3  502    0 -0.36854702170E+03  0.76573310141E+02 -0.11953387454E+02  0.37663689742E+03  0.46999998093E+01 0. -1.
       -5    1    3    3    0  502  0.36854702170E+03 -0.76573310141E+02  0.24937592668E+03  0.45155378621E+03  0.46999998093E+01 0.  1.
</event>
<event>
 5   0  0.4385875E-03  0.7991888E+03  0.7818609E-02  0.9561192E-01
       -3   -1    0    0    0  501  0.00000000000E+00  0.00000000000E+00  0.40105095838E+03  0.40105097110E+03  0.10100000352E+00 0.  1.
        3   -1    0    0  501    0  0.00000000000E+00  0.00000000000E+00 -0.39814310026E+03  0.39814311307E+03  0.10100000352E+00 0. -1.
    10030    2    1    2    0    0  0.00000000000E+00  0.00000000000E+00  0.29078581185E+01  0.79919408418E+03  0.79918879405E+03 0.  0.
        3    1    3    3  502    0 -0.53123515872E+02  0.22291267056E+03  0.32881447038E+03  0.40078813950E+03  0.10100000352E+00 0.  1.
       -3    1    3    3    0  502  0.53123515872E+02 -0.22291267056E+03 -0.32590661226E+03  0.39840594467E+03  0.10100000352E+00 0. -1.
</event>
<event>
 5   0  0.6557679E-03  0.7988933E+03  0.7818609E-02  0.9561620E-01
        1   -1    0    0  501    0  0.00000000000E+00  0.00000000000E+00  0.18449167594E+04  0.18449167594E+04  0.50400001928E-02 0.  1.
       -1   -1    0    0    0  501  0.00000000000E+00  0.00000000000E+00 -0.86485000352E+02  0.86485000499E+02  0.50400001928E-02 0. -1.
    10030    2    1    2    0    0  0.00000000000E+00  0.00000000000E+00  0.17584317591E+04  0.19314017599E+04  0.79889330135E+03 0.  0.
        1    1    3    3  502    0 -0.36831684682E+03 -0.15378240507E+03  0.84089114271E+03  0.93080838075E+03  0.50400001928E-02 0. -1.
       -1    1    3    3    0  502  0.36831684682E+03  0.15378240507E+03  0.91754061637E+03  0.10005933792E+04  0.50400001928E-02 0.  1.
</event>
<event>
 5   0  0.6557679E-03  0.7908694E+03  0.7818609E-02  0.9573328E-01
       -1   -1    0    0    0  501  0.00000000000E+00  0.00000000000E+00  0.60912463766E+03  0.60912463768E+03  0.50400001928E-02 0. -1.
        1   -1    0    0  501    0  0.00000000000E+00  0.00000000000E+00 -0.25671034061E+03  0.25671034066E+03  0.50400001928E-02 0.  1.
    10030    2    1    2    0    0  0.00000000000E+00  0.00000000000E+00  0.35241429705E+03  0.86583497834E+03  0.79086937793E+03 0.  0.
        1    1    3    3  502    0  0.36294304923E+03  0.82505061051E+02  0.30005276037E+02  0.37341004097E+03  0.50400001928E-02 0.  1.
       -1    1    3    3    0  502 -0.36294304923E+03 -0.82505061051E+02  0.32240902101E+03  0.49242493736E+03  0.50400001928E-02 0. -1.
</event>
<event>
 5   0  0.4385875E-03  0.7935886E+03  0.7818609E-02  0.9569344E-01
       -3   -1    0    0    0  501  0.00000000000E+00  0.00000000000E+00  0.38276874881E+03  0.38276876213E+03  0.10100000352E+00 0. -1.
        3   -1    0    0  501    0  0.00000000000E+00  0.00000000000E+00 -0.41133375269E+03  0.41133376509E+03  0.10100000352E+00 0.  1.
    10030    2    1    2    0    0  0.00000000000E+00  0.00000000000E+00 -0.28565003883E+02  0.79410252722E+03  0.79358859889E+03 0.  0.
        3    1    3    3  502    0 -0.21961086639E+03  0.27614446953E+03  0.16738673081E+03  0.39051636143E+03  0.10100000352E+00 0. -1.
       -3    1    3    3    0  502  0.21961086639E+03 -0.27614446953E+03 -0.19595173470E+03  0.40358616579E+03  0.10100000352E+00 0.  1.
</event>
<event>
 5   0  0.1092868E-02  0.8012883E+03  0.7818609E-02  0.9558154E-01
        2   -1    0    0  501    0  0.00000000000E+00  0.00000000000E+00  0.15540674558E+04  0.15540674558E+04  0.25500000920E-02 0. -1.
       -2   -1    0    0    0  501  0.00000000000E+00  0.00000000000E+00 -0.10328749571E+03  0.10328749574E+03  0.25500000920E-02 0.  1.
    10030    2    1    2    0    0  0.00000000000E+00  0.00000000000E+00  0.14507799601E+04  0.16573549516E+04  0.80128830194E+03 0.  0.
        3    1    3    3  502    0  0.27493109815E+03  0.23356068828E+03  0.10858909781E+04  0.11442451356E+04  0.10100000352E+00 0. -1.
       -3    1    3    3    0  502 -0.27493109815E+03 -0.23356068828E+03  0.36488898202E+03  0.51310981596E+03  0.10100000352E+00 0.  1.
</event>
<event>
 5   0  0.4385875E-03  0.7966941E+03  0.7818609E-02  0.9564815E-01
        3   -1    0    0  501    0  0.00000000000E+00  0.00000000000E+00  0.51810128912E+03  0.51810129897E+03  0.10100000352E+00 0. -1.
       -3   -1    0    0    0  501  0.00000000000E+00  0.00000000000E+00 -0.30627282794E+03  0.30627284460E+03  0.10100000352E+00 0.  1.
    10030    2    1    2    0    0  0.00000000000E+00  0.00000000000E+00  0.21182846118E+03  0.82437414356E+03  0.79669406400E+03 0.  0.
        5    1    3    3  502    0  0.91076721702E+02 -0.17369966606E+03 -0.25281772406E+03  0.32000849180E+03  0.46999998093E+01 0.  1.
       -5    1    3    3    0  502 -0.91076721702E+02  0.17369966606E+03  0.46464618524E+03  0.50436565176E+03  0.46999998093E+01 0. -1.
</event>
<event>
 5   0  0.6557679E-03  0.8009041E+03  0.7818609E-02  0.9558709E-01
       -1   -1    0    0    0  501  0.00000000000E+00  0.00000000000E+00  0.49952546360E+03  0.49952546362E+03  0.50400001928E-02 0. -1.
        1   -1    0    0  501    0  0.00000000000E+00  0.00000000000E+00 -0.32102839540E+03  0.32102839544E+03  0.50400001928E-02 0.  1.
    10030    2    1    2    0    0  0.00000000000E+00  0.00000000000E+00  0.17849706820E+03  0.82055385906E+03  0.80090413425E+03 0.  0.
        1    1    3    3  502    0 -0.39335220618E+03 -0.40342671428E+02  0.24383538474E+02  0.39616668994E+03  0.50400001928E-02 0.  1.
       -1    1    3    3    0  502  0.39335220618E+03  0.40342671428E+02  0.15411352973E+03  0.42438716912E+03  0.50400001928E-02 0. -1.
</event>
<event>
 5   0  0.6600401E-03  0.8013042E+03  0.7818609E-02  0.9558131E-01
       -1   -1    0    0    0  501  0.00000000000E+00  0.00000000000E+00  0.80258770494E+02  0.80258770652E+02  0.50400001928E-02 0. -1.
        1   -1    0    0  501    0  0.00000000000E+00  0.00000000000E+00 -0.20000569783E+04  0.20000569783E+04  0.50400001928E-02 0.  1.
    10030    2    1    2    0    0  0.00000000000E+00  0.00000000000E+00 -0.19197982078E+04  0.20803157490E+04  0.80130422230E+03 0.  0.
        2    1    3    3  502    0  0.17934346871E+03 -0.24169796653E+03 -0.16464852487E+04  0.16737669076E+04  0.25500000920E-02 0.  1.
       -2    1    3    3    0  502 -0.17934346871E+03  0.24169796653E+03 -0.27331295915E+03  0.40654884140E+03  0.25500000920E-02 0. -1.
</event>
<event>
 5   0  0.6517392E-03  0.8030219E+03  0.7818609E-02  0.9555653E-01
       -1   -1    0    0    0  501  0.00000000000E+00  0.00000000000E+00  0.11624274549E+03  0.11624274560E+03  0.50400001928E-02 0.  1.
        1   -1    0    0  501    0  0.00000000000E+00  0.00000000000E+00 -0.13868482163E+04  0.13868482163E+04  0.50400001928E-02 0. -1.
    10030    2    1    2    0    0  0.00000000000E+00  0.00000000000E+00 -0.12706054708E+04  0.15030909619E+04  0.80302190338E+03 0.  0.
        3    1    3    3  502    0 -0.15116382763E+03  0.36994876289E+03 -0.70775936965E+03  0.81279513131E+03  0.10100000352E+00 0. -1.
       -3    1    3    3    0  502  0.15116382763E+03 -0.36994876289E+03 -0.56284610113E+03  0.69029583057E+03  0.10100000352E+00 0.  1.
</event>
<event>
 5   0  0.1106332E-02  0.8007855E+03  0.7818609E-02  0.9558881E-01
        2   -1    0    0  501    0  0.00000000000E+00  0.00000000000E+00  0.16843477285E+04  0.16843477285E+04  0.25500000920E-02 0. -1.
       -2   -1    0    0    0  501  0.00000000000E+00  0.00000000000E+00 -0.95178894799E+02  0.95178894833E+02  0.25500000920E-02 0.  1.
    10030    2    1    2    0    0  0.00000000000E+00  0.00000000000E+00  0.15891688337E+04  0.17795266233E+04  0.80078550257E+03 0.  0.
        1    1    3    3  502    0  0.17617154701E+03 -0.28675000112E+03  0.12766199763E+04  0.13202350325E+04  0.50400001928E-02 0. -1.
       -1    1    3    3    0  502 -0.17617154701E+03  0.28675000112E+03  0.31254885739E+03  0.45929159083E+03  0.50400001928E-02 0.  1.
</event>
<event>
 5   0  0.1092868E-02  0.7987843E+03  0.7818609E-02  0.9561778E-01
       -2   -1    0    0    0  501  0.00000000000E+00  0.00000000000E+00  0.50562622876E+03  0.50562622876E+03  0.25500000920E-02 0.  1.
        2   -1    0    0  501    0  0.00000000000E+00  0.00000000000E+00 -0.31547827190E+03  0.31547827191E+03  0.25500000920E-02 0. -1.
    10030    2    1    2    0    0  0.00000000000E+00  0.00000000000E+00  0.19014795686E+03  0.82110450067E+03  0.79878429849E+03 0.  0.
        3    1    3    3  502    0 -0.12621665198E+03 -0.21718115630E+03  0.41425934651E+03  0.48446786710E+03  0.10100000352E+00 0.  1.
       -3    1    3    3    0  502  0.12621665198E+03  0.21718115630E+03 -0.22411138965E+03  0.33663663356E+03  0.10100000352E+00 0. -1.
</event>
<event>
 5   0  0.6551489E-03  0.7961143E+03  0.7818609E-02  0.9565659E-01
       -1   -1    0    0    0  501  0.00000000000E+00  0.00000000000E+00  0.10916300793E+04  0.10916300793E+04  0.50400001928E-02 0.  1.
        1   -1    0    0  501    0  0.00000000000E+00  0.00000000000E+00 -0.14514945390E+03  0.14514945399E+03  0.50400001928E-02 0. -1.
    10030    2    1    2    0    0  0.00000000000E+00  0.00000000000E+00  0.94648062535E+03  0.12367795333E+04  0.79611433834E+03 0.  0.
        4    1    3    3  502    0 -0.39534291819E+03  0.37750861029E+02  0.51512047292E+03  0.65043974740E+03  0.12699999809E+01 0.  1.
       -4    1    3    3    0  502  0.39534291819E+03 -0.37750861029E+02  0.43136015242E+03  0.58633978585E+03  0.12699999809E+01 0. -1.
</event>
<event>
 5   0  0.6600401E-03  0.8028857E+03  0.7818609E-02  0.9555850E-01
       -1   -1    0    0    0  501  0.00000000000E+00  0.00000000000E+00  0.18870065139E+03  0.18870065146E+03  0.50400001928E-02 0.  1.
        1   -1    0    0  501    0  0.00000000000E+00  0.00000000000E+00 -0.85403177885E+03  0.85403177887E+03  0.50400001928E-02 0. -1.
    10030    2    1    2    0    0  0.00000000000E+00  0.00000000000E+00 -0.66533112747E+03  0.10427324303E+04  0.80288567809E+03 0.  0.
        2    1    3    3  502    0  0.11224117036E+02 -0.34482077644E+03 -0.66096487156E+02  0.35127780215E+03  0.25500000920E-02 0.  1.
       -2    1    3    3    0  502 -0.11224117036E+02  0.34482077644E+03 -0.59923464031E+03  0.69145462817E+03  0.25500000920E-02 0. -1.
</event>
<event>
 5   0  0.6551489E-03  0.7948753E+03  0.7818609E-02  0.9567465E-01
        1   -1    0    0  501    0  0.00000000000E+00  0.00000000000E+00  0.22712993974E+04  0.22712993974E+04  0.50400001928E-02 0. -1.
       -1   -1    0    0    0  501  0.00000000000E+00  0.00000000000E+00 -0.69544630274E+02  0.69544630456E+02  0.50400001928E-02 0.  1.
    10030    2    1    2    0    0  0.00000000000E+00  0.00000000000E+00  0.22017547671E+04  0.23408440278E+04  0.79487527839E+03 0.  0.
        4    1    3    3  502    0  0.22953247614E+03 -0.31716409489E+03  0.89948181782E+03  0.98099305511E+03  0.12699999809E+01 0.  1.
       -4    1    3    3    0  502 -0.22953247614E+03  0.31716409489E+03  0.13022729493E+04  0.13598509727E+04  0.12699999809E+01 0. -1.
</event>
<event>
 5   0  0.6557679E-03  0.8037179E+03  0.7818609E-02  0.9554651E-01
       -1   -1    0    0    0  501  0.00000000000E+00  0.00000000000E+00  0.24596190037E+03  0.24596190042E+03  0.50400001928E-02 0.  1.
        1   -1    0    0  501    0  0.00000000000E+00  0.00000000000E+00 -0.65656759564E+03  0.65656759566E+03  0.50400001928E-02 0. -1.
    10030    2    1    2    0    0  0.00000000000E+00  0.00000000000E+00 -0.41060569527E+03  0.90252949609E+03  0.80371789474E+03 0.  0.
        1    1    3    3  502    0  0.19861696783E+03  0.93299470286E+02  0.17274246474E+03  0.27927307464E+03  0.50400001928E-02 0.  1.
       -1    1    3    3    0  502 -0.19861696783E+03 -0.93299470286E+02 -0.58334816001E+03  0.62325642145E+03  0.50400001928E-02 0. -1.
</event>
<event>
 5   0  0.6596225E-03  0.7921263E+03  0.7818609E-02  0.9571484E-01
        1   -1    0    0  501    0  0.00000000000E+00  0.00000000000E+00  0.71405781647E+03  0.71405781648E+03  0.50400001928E-02 0.  1.
       -1   -1    0    0    0  501  0.00000000000E+00  0.00000000000E+00 -0.21968253168E+03  0.21968253174E+03  0.50400001928E-02 0. -1.
    10030    2    1    2    0    0  0.00000000000E+00  0.00000000000E+00  0.49437528478E+03  0.93374034823E+03  0.79212632559E+03 0.  0.
        5    1    3    3  502    0 -0.29100467821E+03  0.26314238135E+03  0.18353037012E+03  0.43316639108E+03  0.46999998093E+01 0. -1.
       -5    1    3    3    0  502  0.29100467821E+03 -0.26314238135E+03  0.31084491466E+03  0.50057395715E+03  0.46999998093E+01 0.  1.
</event>
<event>
 5   0  0.6551489E-03  0.7974970E+03  0.7818609E-02  0.9563647E-01
        1   -1    0    0  501    0  0.00000000000E+00  0.00000000000E+00  0.53146257983E+03  0.53146257985E+03  0.50400001928E-02 0.  1.
       -1   -1    0    0    0  501  0.00000000000E+00  0.00000000000E+00 -0.29917512694E+03  0.29917512698E+03  0.50400001928E-02 0. -1.
    10030    2    1    2    0    0  0.00000000000E+00  0.00000000000E+00  0.23228745289E+03  0.83063770683E+03  0.79749704654E+03 0.  0.
        4    1    3    3  502    0  0.13494303745E+03  0.34289504239E+03  0.27483028253E+03  0.45969547588E+03  0.12699999809E+01 0.  1.
       -4    1    3    3    0  502 -0.13494303745E+03 -0.34289504239E+03 -0.42542829641E+02  0.37094223095E+03  0.12699999809E+01 0. -1.
</event>
<event>
 5   0  0.1119792E-02  0.7611561E+03  0.7818609E-02  0.9618009E-01
       -2   -1    0    0    0  501  0.00000000000E+00  0.00000000000E+00  0.17294234316E+03  0.17294234318E+03  0.25500000920E-02 0. -1.
        2   -1    0    0  501    0  0.00000000000E+00  0.00000000000E+00 -0.83750245650E+03  0.83750245650E+03  0.25500000920E-02 0.  1.
    10030    2    1    2    0    0  0.00000000000E+00  0.00000000000E+00 -0.66456011334E+03  0.10104447997E+04  0.76115606084E+03 0.  0.
        4    1    3    3  502    0 -0.12165106276E+03 -0.14637701355E+03 -0.76978142380E+03  0.79296296540E+03  0.12699999809E+01 0.  1.
       -4    1    3    3    0  502  0.12165106276E+03  0.14637701355E+03  0.10522131046E+03  0.21748183428E+03  0.12699999809E+01 0. -1.
</event>
<event>
 5   0  0.4385875E-03  0.7759896E+03  0.7818609E-02  0.9595436E-01
        3   -1    0    0  501    0  0.00000000000E+00  0.00000000000E+00  0.42310067595E+03  0.42310068801E+03  0.10100000352E+00 0. -1.
       -3   -1    0    0    0  501  0.00000000000E+00  0.00000000000E+00 -0.35580175064E+03  0.35580176497E+03  0.10100000352E+00 0.  1.
    10030    2    1    2    0    0  0.00000000000E+00  0.00000000000E+00  0.67298925312E+02  0.77890245298E+03  0.77598961714E+03 0.  0.
        4    1    3    3  502    0  0.28980936815E+02  0.22254521680E+03 -0.28403833172E+03  0.36200228591E+03  0.12699999809E+01 0.  1.
       -4    1    3    3    0  502 -0.28980936815E+02 -0.22254521680E+03  0.35133725703E+03  0.41690016707E+03  0.12699999809E+01 0. -1.
</event>
<event>
 5   0  0.1119792E-02  0.8049939E+03  0.7818609E-02  0.9552817E-01
        2   -1    0    0  501    0  0.00000000000E+00  0.00000000000E+00  0.21068110786E+03  0.21068110788E+03  0.25500000920E-02 0. -1.
       -2   -1    0    0    0  501  0.00000000000E+00  0.00000000000E+00 -0.76895261697E+03  0.76895261697E+03  0.25500000920E-02 0.  1.
    10030    2    1    2    0    0  0.00000000000E+00  0.00000000000E+00 -0.55827150911E+03  0.97963372485E+03  0.80499388630E+03 0.  0.
        4    1    3    3  502    0 -0.17259782344E+03  0.34891310074E+03 -0.15460341609E+03  0.41884864771E+03  0.12699999809E+01 0. -1.
       -4    1    3    3    0  502  0.17259782344E+03 -0.34891310074E+03 -0.40366809302E+03  0.56078507714E+03  0.12699999809E+01 0.  1.
</event>
<event>
 5   0  0.6557679E-03  0.7983514E+03  0.7818609E-02  0.9562406E-01
        1   -1    0    0  501    0  0.00000000000E+00  0.00000000000E+00  0.35123617309E+03  0.35123617313E+03  0.50400001928E-02 0. -1.
       -1   -1    0    0    0  501  0.00000000000E+00  0.00000000000E+00 -0.45365844069E+03  0.45365844071E+03  0.50400001928E-02 0.  1.
    10030    2    1    2    0    0  0.00000000000E+00  0.00000000000E+00 -0.10242226759E+03  0.80489461384E+03  0.79835143796E+03 0.  0.
        1    1    3    3  502    0  0.24106953885E+02 -0.30598746204E+03 -0.30851208464E+03  0.43518867006E+03  0.50400001928E-02 0.  1.
       -1    1    3    3    0  502 -0.24106953885E+02  0.30598746204E+03  0.20608981705E+03  0.36970594378E+03  0.50400001928E-02 0. -1.
</event>
<event>
 5   0  0.6551489E-03  0.8004941E+03  0.7818609E-02  0.9559302E-01
       -1   -1    0    0    0  501  0.00000000000E+00  0.00000000000E+00  0.93167029039E+03  0.93167029040E+03  0.50400001928E-02 0.  1.
        1   -1    0    0  501    0  0.00000000000E+00  0.00000000000E+00 -0.17194678284E+03  0.17194678291E+03  0.50400001928E-02 0. -1.
    10030    2    1    2    0    0  0.00000000000E+00  0.00000000000E+00  0.75972350755E+03  0.11036170733E+04  0.80049412027E+03 0.  0.
        4    1    3    3  502    0  0.15173542151E+03 -0.20240223923E+03 -0.47761066095E+02  0.25743550051E+03  0.12699999809E+01 0. -1.
       -4    1    3    3    0  502 -0.15173542151E+03  0.20240223923E+03  0.80748457365E+03  0.84618157281E+03  0.12699999809E+01 0.  1.
</event>
<event>
 5   0  0.1119792E-02  0.8042301E+03  0.7818609E-02  0.9553914E-01
        2   -1    0    0  501    0  0.00000000000E+00  0.00000000000E+00  0.80237121339E+03  0.80237121339E+03  0.25500000920E-02 0.  1.
       -2   -1    0    0    0  501  0.00000000000E+00  0.00000000000E+00 -0.20152332335E+03  0.20152332337E+03  0.25500000920E-02 0. -1.
    10030    2    1    2    0    0  0.00000000000E+00  0.00000000000E+00  0.60084789003E+03  0.10038945368E+04  0.80423010014E+03 0.  0.
        4    1    3    3  502    0  0.49016506636E+02  0.10675777951E+03 -0.17962398354E+03  0.21463044931E+03  0.12699999809E+01 0. -1.
       -4    1    3    3    0  502 -0.49016506636E+02 -0.10675777951E+03  0.78047187357E+03  0.78926408745E+03  0.12699999809E+01 0.  1.
</event>
<event>
 5   0  0.1119792E-02  0.7018023E+03  0.7818609E-02  0.9714155E-01
       -2   -1    0    0    0  501  0.00000000000E+00  0.00000000000E+00  0.14050706709E+03  0.14050706711E+03  0.25500000920E-02 0. -1.
        2   -1    0    0  501    0  0.00000000000E+00  0.00000000000E+00 -0.87633741818E+03  0.87633741818E+03  0.25500000920E-02 0.  1.
    10030    2    1    2    0    0  0.00000000000E+00  0.00000000000E+00 -0.73583035109E+03  0.10168444853E+04  0.70180225255E+03 0.  0.
        4    1    3    3  502    0  0.32826932342E+03  0.10710485410E+03 -0.27745676645E+03  0.44296282984E+03  0.12699999809E+01 0. -1.
       -4    1    3    3    0  502 -0.32826932342E+03 -0.10710485410E+03 -0.45837358464E+03  0.57388165545E+03  0.12699999809E+01 0.  1.
</event>
<event>
 5   0  0.1154714E-02  0.7940584E+03  0.7818609E-02  0.9568657E-01
       -2   -1    0    0    0  501  0.00000000000E+00  0.00000000000E+00  0.20492254238E+03  0.20492254240E+03  0.25500000920E-02 0.  1.
        2   -1    0    0  501    0  0.00000000000E+00  0.00000000000E+00 -0.76922808838E+03  0.76922808839E+03  0.25500000920E-02 0. -1.
    10030    2    1    2    0    0  0.00000000000E+00  0.00000000000E+00 -0.56430554600E+03  0.97415063079E+03  0.79405837456E+03 0.  0.
        5    1    3    3  502    0 -0.99456008315E+02  0.65987568368E+02  0.18235617788E+03  0.21799477603E+03  0.46999998093E+01 0.  1.
       -5    1    3    3    0  502  0.99456008315E+02 -0.65987568368E+02 -0.74666172388E+03  0.75615585475E+03  0.46999998093E+01 0. -1.
</event>
<event>
 5   0  0.1106332E-02  0.8064368E+03  0.7818609E-02  0.9550747E-01
       -2   -1    0    0    0  501  0.00000000000E+00  0.00000000000E+00  0.85607738153E+02  0.85607738191E+02  0.25500000920E-02 0. -1.
        2   -1    0    0  501    0  0.00000000000E+00  0.00000000000E+00 -0.18991868317E+04  0.18991868317E+04  0.25500000920E-02 0.  1.
    10030    2    1    2    0    0  0.00000000000E+00  0.00000000000E+00 -0.18135790936E+04  0.19847945699E+04  0.80643682711E+03 0.  0.
        1    1    3    3  502    0 -0.20549194493E+03  0.10897515892E+03 -0.17174242317E+04  0.17331037235E+04  0.50400001928E-02 0.  1.
       -1    1    3    3    0  502  0.20549194493E+03 -0.10897515892E+03 -0.96154861882E+02  0.25169084644E+03  0.50400001928E-02 0. -1.
</event>
<event>
 5   0  0.6596225E-03  0.7992281E+03  0.7818609E-02  0.9561135E-01
        1   -1    0    0  501    0  0.00000000000E+00  0.00000000000E+00  0.31061494066E+03  0.31061494070E+03  0.50400001928E-02 0. -1.
       -1   -1    0    0    0  501  0.00000000000E+00  0.00000000000E+00 -0.51411362769E+03  0.51411362772E+03  0.50400001928E-02 0.  1.
    10030    2    1    2    0    0  0.00000000000E+00  0.00000000000E+00 -0.20349868703E+03  0.82472856842E+03  0.79922806253E+03 0.  0.
        5    1    3    3  502    0 -0.33369653424E+03 -0.20258859540E+03 -0.18975691514E+03  0.43407982306E+03  0.46999998093E+01 0.  1.
       -5    1    3    3    0  502  0.33369653424E+03  0.20258859540E+03 -0.13741771894E+02  0.39064874535E+03  0.46999998093E+01 0. -1.
</event>
<event>
 5   0  0.1154714E-02  0.8020847E+03  0.7818609E-02  0.9557004E-01
        2   -1    0    0  501    0  0.00000000000E+00  0.00000000000E+00  0.19344669064E+04  0.19344669064E+04  0.25500000920E-02 0. -1.
       -2   -1    0    0    0  501  0.00000000000E+00  0.00000000000E+00 -0.83141751347E+02  0.83141751386E+02  0.25500000920E-02 0.  1.
    10030    2    1    2    0    0  0.00000000000E+00  0.00000000000E+00  0.18513251551E+04  0.20176086578E+04  0.80208470018E+03 0.  0.
        5    1    3    3  502    0  0.11538929134E+03 -0.21906870935E+03  0.13216846189E+03  0.28070692953E+03  0.46999998093E+01 0.  1.
       -5    1    3    3    0  502 -0.11538929134E+03  0.21906870935E+03  0.17191566932E+04  0.17369017283E+04  0.46999998093E+01 0. -1.
</event>
<event>
 5   0  0.4385875E-03  0.7983101E+03  0.7818609E-02  0.9562466E-01
        4   -1    0    0  501    0  0.00000000000E+00  0.00000000000E+00  0.62468886241E+03  0.62469015337E+03  0.12699999809E+01 0. -1.
       -4   -1    0    0    0  501  0.00000000000E+00  0.00000000000E+00 -0.25504344291E+03  0.25504660490E+03  0.12699999809E+01 0.  1.
    10030    2    1    2    0    0  0.00000000000E+00  0.00000000000E+00  0.36964541950E+03  0.87973675827E+03  0.79831010748E+03 0.  0.
        5    1    3    3  502    0  0.57649765309E+02 -0.19918747842E+03 -0.19099525827E+03  0.28195819846E+03  0.46999998093E+01 0.  1.
       -5    1    3    3    0  502 -0.57649765309E+02  0.19918747842E+03  0.56064067777E+03  0.59777855981E+03  0.46999998093E+01 0. -1.
</event>
<event>
 5   0  0.1154714E-02  0.8257774E+03  0.7818609E-02  0.9523437E-01
        2   -1    0    0  501    0  0.00000000000E+00  0.00000000000E+00  0.71322162780E+03  0.71322162780E+03  0.25500000920E-02 0. -1.
       -2   -1    0    0    0  501  0.00000000000E+00  0.00000000000E+00 -0.23902400162E+03  0.23902400163E+03  0.25500000920E-02 0.  1.
    10030    2    1    2    0    0  0.00000000000E+00  0.00000000000E+00  0.47419762618E+03  0.95224562944E+03  0.82577742165E+03 0.  0.
        5    1    3    3  502    0  0.24317383727E+03 -0.10594173356E+03  0.60193534465E+03  0.65780347763E+03  0.46999998093E+01 0. -1.
       -5    1    3    3    0  502 -0.24317383727E+03  0.10594173356E+03 -0.12773771847E+03  0.29444215181E+03  0.46999998093E+01 0.  1.
</event>
<event>
 5   0  0.6517392E-03  0.8010332E+03  0.7818609E-02  0.9558523E-01
       -1   -1    0    0    0  501  0.00000000000E+00  0.00000000000E+00  0.99562364266E+02  0.99562364394E+02  0.50400001928E-02 0. -1.
        1   -1    0    0  501    0  0.00000000000E+00  0.00000000000E+00 -0.16111865164E+04  0.16111865164E+04  0.50400001928E-02 0.  1.
    10030    2    1    2    0    0  0.00000000000E+00  0.00000000000E+00 -0.15116241521E+04  0.17107488808E+04  0.80103318024E+03 0.  0.
        3    1    3    3  502    0  0.12047004128E+03 -0.23672640932E+03 -0.11560328073E+03  0.28968353843E+03  0.10100000352E+00 0. -1.
       -3    1    3    3    0  502 -0.12047004128E+03  0.23672640932E+03 -0.13960208714E+04  0.14210653424E+04  0.10100000352E+00 0.  1.
</event>
<event>
 5   0  0.6551489E-03  0.8088170E+03  0.7818609E-02  0.9547342E-01
       -1   -1    0    0    0  501  0.00000000000E+00  0.00000000000E+00  0.67057919687E+03  0.67057919689E+03  0.50400001928E-02 0. -1.
        1   -1    0    0  501    0  0.00000000000E+00  0.00000000000E+00 -0.24388801751E+03  0.24388801756E+03  0.50400001928E-02 0.  1.
    10030    2    1    2    0    0  0.00000000000E+00  0.00000000000E+00  0.42669117936E+03  0.91446721446E+03  0.80881699028E+03 0.  0.
        4    1    3    3  502    0  0.26579549266E+03 -0.30351879513E+03  0.18189647537E+03  0.44255942377E+03  0.12699999809E+01 0. -1.
       -4    1    3    3    0  502 -0.26579549266E+03  0.30351879513E+03  0.24479470399E+03  0.47190779069E+03  0.12699999809E+01 0.  1.
</event>
<event>
 5   0  0.6517392E-03  0.7993505E+03  0.7818609E-02  0.9560958E-01
       -1   -1    0    0    0  501  0.00000000000E+00  0.00000000000E+00  0.24425618952E+03  0.24425618957E+03  0.50400001928E-02 0.  1.
        1   -1    0    0  501    0  0.00000000000E+00  0.00000000000E+00 -0.65398674236E+03  0.65398674238E+03  0.50400001928E-02 0. -1.
    10030    2    1    2    0    0  0.00000000000E+00  0.00000000000E+00 -0.40973055284E+03  0.89824293195E+03  0.79935051065E+03 0.  0.
        3    1    3    3  502    0  0.40434082417E+02  0.39761515990E+03 -0.20795684662E+03  0.45053167553E+03  0.10100000352E+00 0.  1.
       -3    1    3    3    0  502 -0.40434082417E+02 -0.39761515990E+03 -0.20177370622E+03  0.44771125642E+03  0.10100000352E+00 0. -1.
</event>
<event>
 5   0  0.6517392E-03  0.7951937E+03  0.7818609E-02  0.9567000E-01
       -1   -1    0    0    0  501  0.00000000000E+00  0.00000000000E+00  0.73982263501E+02  0.73982263673E+02  0.50400001928E-02 0. -1.
        1   -1    0    0  501    0  0.00000000000E+00  0.00000000000E+00 -0.21367723058E+04  0.21367723059E+04  0.50400001928E-02 0.  1.
    10030    2    1    2    0    0  0.00000000000E+00  0.00000000000E+00 -0.20627900423E+04  0.22107545695E+04  0.79519369205E+03 0.  0.
        3    1    3    3  502    0  0.31171704529E+02 -0.24180257258E+03 -0.19045692767E+04  0.19201104914E+04  0.10100000352E+00 0.  1.
       -3    1    3    3    0  502 -0.31171704529E+02  0.24180257258E+03 -0.15822076567E+03  0.29064407814E+03  0.10100000352E+00 0. -1.
</event>
<event>
 5   0  0.1121480E-02  0.8017616E+03  0.7818609E-02  0.9557471E-01
       -2   -1    0    0    0  501  0.00000000000E+00  0.00000000000E+00  0.30176481469E+03  0.30176481470E+03  0.25500000920E-02 0.  1.
        2   -1    0    0  501    0  0.00000000000E+00  0.00000000000E+00 -0.53255192078E+03  0.53255192079E+03  0.25500000920E-02 0. -1.
    10030    2    1    2    0    0  0.00000000000E+00  0.00000000000E+00 -0.23078710609E+03  0.83431673549E+03  0.80176163963E+03 0.  0.
        2    1    3    3  502    0 -0.14667616654E+03 -0.19913423127E+03 -0.44369905082E+03  0.50797360915E+03  0.25500000920E-02 0. -1.
       -2    1    3    3    0  502  0.14667616654E+03  0.19913423127E+03  0.21291194472E+03  0.32634312634E+03  0.25500000920E-02 0.  1.
</event>
<event>
 5   0  0.6596225E-03  0.7898799E+03  0.7818609E-02  0.9574782E-01
       -1   -1    0    0    0  501  0.00000000000E+00  0.00000000000E+00  0.10520044340E+03  0.10520044352E+03  0.50400001928E-02 0.  1.
        1   -1    0    0  501    0  0.00000000000E+00  0.00000000000E+00 -0.14826701270E+04  0.14826701270E+04  0.50400001928E-02 0. -1.
    10030    2    1    2    0    0  0.00000000000E+00  0.00000000000E+00 -0.13774696836E+04  0.15878705705E+04  0.78987987666E+03 0.  0.
        5    1    3    3  502    0  0.25240024698E+03  0.23923307296E+03 -0.31255610509E+03  0.46760213505E+03  0.46999998093E+01 0.  1.
       -5    1    3    3    0  502 -0.25240024698E+03 -0.23923307296E+03 -0.10649135785E+04  0.11202684355E+04  0.46999998093E+01 0. -1.
</event>
<event>
 5   0  0.6600401E-03  0.7951604E+03  0.7818609E-02  0.9567049E-01
        1   -1    0    0  501    0  0.00000000000E+00  0.00000000000E+00  0.30829959349E+04  0.30829959349E+04  0.50400001928E-02 0.  1.
       -1   -1    0    0    0  501  0.00000000000E+00  0.00000000000E+00 -0.51271567287E+02  0.51271567534E+02  0.50400001928E-02 0. -1.
    10030    2    1    2    0    0  0.00000000000E+00  0.00000000000E+00  0.30317243676E+04  0.31342675024E+04  0.79516044649E+03 0.  0.
        2    1    3    3  502    0 -0.15921107080E+03  0.22370982877E+03  0.38249549270E+03  0.47084716681E+03  0.25500000920E-02 0. -1.
       -2    1    3    3    0  502  0.15921107080E+03 -0.22370982877E+03  0.26492288749E+04  0.26634203356E+04  0.25500000920E-02 0.  1.
</event>
<event>
 5   0  0.6517392E-03  0.7959463E+03  0.7818609E-02  0.9565903E-01
        1   -1    0    0  501    0  0.00000000000E+00  0.00000000000E+00  0.63706432795E+03  0.63706432797E+03  0.50400001928E-02 0. -1.
       -1   -1    0    0    0  501  0.00000000000E+00  0.00000000000E+00 -0.24861326374E+03  0.24861326379E+03  0.50400001928E-02 0.  1.
    10030    2    1    2    0    0  0.00000000000E+00  0.00000000000E+00  0.38845106421E+03  0.88567759176E+03  0.79594633441E+03 0.  0.
        3    1    3    3  502    0 -0.30877773554E+03 -0.10024902858E+03  0.45037003186E+03  0.55518171213E+03  0.10100000352E+00 0.  1.
       -3    1    3    3    0  502  0.30877773554E+03  0.10024902858E+03 -0.61918967649E+02  0.33049587963E+03  0.10100000352E+00 0. -1.
</event>
<event>
 5   0  0.1106332E-02  0.8013225E+03  0.7818609E-02  0.9558105E-01
       -2   -1    0    0    0  501  0.00000000000E+00  0.00000000000E+00  0.18132818028E+03  0.18132818030E+03  0.25500000920E-02 0.  1.
        2   -1    0    0  501    0  0.00000000000E+00  0.00000000000E+00 -0.88529788631E+03  0.88529788632E+03  0.25500000920E-02 0. -1.
    10030    2    1    2    0    0  0.00000000000E+00  0.00000000000E+00 -0.70396970603E+03  0.10666260666E+04  0.80132254365E+03 0.  0.
        1    1    3    3  502    0 -0.19391635566E+03  0.35047632297E+03 -0.36476939296E+03  0.54175078775E+03  0.50400001928E-02 0. -1.
       -1    1    3    3    0  502  0.19391635566E+03 -0.35047632297E+03 -0.33920031307E+03  0.52487527887E+03  0.50400001928E-02 0.  1.
</event>
<event>
 5   0  0.1121480E-02  0.8028194E+03  0.7818609E-02  0.9555945E-01
        2   -1    0    0  501    0  0.00000000000E+00  0.00000000000E+00  0.20152107968E+04  0.20152107968E+04  0.25500000920E-02 0.  1.
       -2   -1    0    0    0  501  0.00000000000E+00  0.00000000000E+00 -0.79956767489E+02  0.79956767529E+02  0.25500000920E-02 0. -1.
    10030    2    1    2    0    0  0.00000000000E+00  0.00000000000E+00  0.19352540293E+04  0.20951675643E+04  0.80281938483E+03 0.  0.
        2    1    3    3  502    0  0.35982751341E+03 -0.56679350312E+01  0.50354574305E+03  0.61892348497E+03  0.25500000920E-02 0. -1.
       -2    1    3    3    0  502 -0.35982751341E+03  0.56679350312E+01  0.14317082863E+04  0.14762440794E+04  0.25500000920E-02 0.  1.
</event>
<event>
 5   0  0.6517392E-03  0.7989772E+03  0.7818609E-02  0.9561499E-01
        1   -1    0    0  501    0  0.00000000000E+00  0.00000000000E+00  0.89883697851E+03  0.89883697852E+03  0.50400001928E-02 0. -1.
       -1   -1    0    0    0  501  0.00000000000E+00  0.00000000000E+00 -0.17755293887E+03  0.17755293894E+03  0.50400001928E-02 0.  1.
    10030    2    1    2    0    0  0.00000000000E+00  0.00000000000E+00  0.72128403964E+03  0.10763899175E+04  0.79897721405E+03 0.  0.
        3    1    3    3  502    0 -0.10520425720E+03 -0.36702504863E+03  0.20229004642E+03  0.43208401398E+03  0.10100000352E+00 0.  1.
       -3    1    3    3    0  502  0.10520425720E+03  0.36702504863E+03  0.51899399322E+03  0.64430590348E+03  0.10100000352E+00 0. -1.
</event>
<event>
 5   0  0.1106332E-02  0.7963727E+03  0.7818609E-02  0.9565282E-01
       -2   -1    0    0    0  501  0.00000000000E+00  0.00000000000E+00  0.88629116960E+02  0.88629116997E+02  0.25500000920E-02 0. -1.
        2   -1    0    0  501    0  0.00000000000E+00  0.00000000000E+00 -0.17889422255E+04  0.17889422255E+04  0.25500000920E-02 0.  1.
    10030    2    1    2    0    0  0.00000000000E+00  0.00000000000E+00 -0.17003131086E+04  0.18775713425E+04  0.79637270113E+03 0.  0.
        1    1    3    3  502    0 -0.21210653104E+03 -0.33685822579E+03 -0.87248902228E+03  0.95900976993E+03  0.50400001928E-02 0.  1.
       -1    1    3    3    0  502  0.21210653104E+03  0.33685822579E+03 -0.82782408627E+03  0.91856157259E+03  0.50400001928E-02 0. -1.
</event>
<event>
 5   0  0.6557679E-03  0.8177557E+03  0.7818609E-02  0.9534666E-01
        1   -1    0    0  501    0  0.00000000000E+00  0.00000000000E+00  0.38207033939E+03  0.38207033942E+03  0.50400001928E-02 0. -1.
       -1   -1    0    0    0  501  0.00000000000E+00  0.00000000000E+00 -0.43756630243E+03  0.43756630245E+03  0.50400001928E-02 0.  1.
    10030    2    1    2    0    0  0.00000000000E+00  0.00000000000E+00 -0.55495963035E+02  0.81963664188E+03  0.81775572318E+03 0.  0.
        1    1    3    3  502    0 -0.23867071474E+03 -0.16595621415E+02 -0.36008563716E+03  0.43232024107E+03  0.50400001928E-02 0.  1.
       -1    1    3    3    0  502  0.23867071474E+03  0.16595621415E+02  0.30458967412E+03  0.38731640081E+03  0.50400001928E-02 0. -1.
</event>
<event>
 5   0  0.6517392E-03  0.7997315E+03  0.7818609E-02  0.9560406E-01
        1   -1    0    0  501    0  0.00000000000E+00  0.00000000000E+00  0.26486205945E+03  0.26486205949E+03  0.50400001928E-02 0. -1.
       -1   -1    0    0    0  501  0.00000000000E+00  0.00000000000E+00 -0.60368261286E+03  0.60368261288E+03  0.50400001928E-02 0.  1.
    10030    2    1    2    0    0  0.00000000000E+00  0.00000000000E+00 -0.33882055341E+03  0.86854467237E+03  0.79973150525E+03 0.  0.
        3    1    3    3  502    0 -0.13542274388E+03  0.37388057149E+03 -0.12376265782E+03  0.41646513296E+03  0.10100000352E+00 0.  1.
       -3    1    3    3    0  502  0.13542274388E+03 -0.37388057149E+03 -0.21505789559E+03  0.45207953941E+03  0.10100000352E+00 0. -1.
</event>
<event>
 5   0  0.1119792E-02  0.7542831E+03  0.7818609E-02  0.9628655E-01
       -2   -1    0    0    0  501  0.00000000000E+00  0.00000000000E+00  0.99249685683E+02  0.99249685716E+02  0.25500000920E-02 0. -1.
        2   -1    0    0  501    0  0.00000000000E+00  0.00000000000E+00 -0.14331101617E+04  0.14331101617E+04  0.25500000920E-02 0.  1.
    10030    2    1    2    0    0  0.00000000000E+00  0.00000000000E+00 -0.13338604760E+04  0.15323598474E+04  0.75428305860E+03 0.  0.
        4    1    3    3  502    0  0.30723138144E+03 -0.13628306755E+03 -0.10144961752E+04  0.10687227417E+04  0.12699999809E+01 0.  1.
       -4    1    3    3    0  502 -0.30723138144E+03  0.13628306755E+03 -0.31936430078E+03  0.46363710567E+03  0.12699999809E+01 0. -1.
</event>
<event>
 5   0  0.4385875E-03  0.8038607E+03  0.7818609E-02  0.9554446E-01
        4   -1    0    0  501    0  0.00000000000E+00  0.00000000000E+00  0.14566853582E+03  0.14567407191E+03  0.12699999809E+01 0. -1.
       -4   -1    0    0    0  501  0.00000000000E+00  0.00000000000E+00 -0.11089839689E+04  0.11089846961E+04  0.12699999809E+01 0.  1.
    10030    2    1    2    0    0  0.00000000000E+00  0.00000000000E+00 -0.96331543307E+03  0.12546587680E+04  0.80386068477E+03 0.  0.
        2    1    3    3  502    0 -0.21075447244E+03 -0.13985970487E+03  0.58736686595E+01  0.25300728189E+03  0.25500000920E-02 0. -1.
       -2    1    3    3    0  502  0.21075447244E+03  0.13985970487E+03 -0.96918910173E+03  0.10016514861E+04  0.25500000920E-02 0.  1.
</event>
<event>
 5   0  0.4385875E-03  0.8039924E+03  0.7818609E-02  0.9554256E-01
        3   -1    0    0  501    0  0.00000000000E+00  0.00000000000E+00  0.50959478860E+03  0.50959479861E+03  0.10100000352E+00 0.  1.
       -3   -1    0    0    0  501  0.00000000000E+00  0.00000000000E+00 -0.31711655325E+03  0.31711656933E+03  0.10100000352E+00 0. -1.
    10030    2    1    2    0    0  0.00000000000E+00  0.00000000000E+00  0.19247823536E+03  0.82671136794E+03  0.80399242210E+03 0.  0.
        2    1    3    3  502    0  0.29298708295E+03  0.14891500730E+02  0.37884683867E+03  0.47915353984E+03  0.25500000920E-02 0.  1.
       -2    1    3    3    0  502 -0.29298708295E+03 -0.14891500730E+02 -0.18636860331E+03  0.34755782810E+03  0.25500000920E-02 0. -1.
</event>
<event>
 5   0  0.1106332E-02  0.8052097E+03  0.7818609E-02  0.9552507E-01
       -2   -1    0    0    0  501  0.00000000000E+00  0.00000000000E+00  0.83265571305E+03  0.83265571305E+03  0.25500000920E-02 0.  1.
        2   -1    0    0  501    0  0.00000000000E+00  0.00000000000E+00 -0.19466708615E+03  0.19466708617E+03  0.25500000920E-02 0. -1.
    10030    2    1    2    0    0  0.00000000000E+00  0.00000000000E+00  0.63798862690E+03  0.10273227992E+04  0.80520969054E+03 0.  0.
        1    1    3    3  502    0 -0.19451965290E+03 -0.14950656510E+03 -0.88279234600E+02  0.26073613416E+03  0.50400001928E-02 0. -1.
       -1    1    3    3    0  502  0.19451965290E+03  0.14950656510E+03  0.72626786150E+03  0.76658666506E+03  0.50400001928E-02 0.  1.
</event>
<event>
 5   0  0.1154714E-02  0.8002337E+03  0.7818609E-02  0.9559679E-01
       -2   -1    0    0    0  501  0.00000000000E+00  0.00000000000E+00  0.18025298318E+03  0.18025298320E+03  0.25500000920E-02 0.  1.
        2   -1    0    0  501    0  0.00000000000E+00  0.00000000000E+00 -0.88816001660E+03  0.88816001661E+03  0.25500000920E-02 0. -1.
    10030    2    1    2    0    0  0.00000000000E+00  0.00000000000E+00 -0.70790703342E+03  0.10684129998E+04  0.80023369723E+03 0.  0.
        5    1    3    3  502    0 -0.76356522100E+01  0.14191054288E+01 -0.88802250932E+03  0.88806890730E+03  0.46999998093E+01 0. -1.
       -5    1    3    3    0  502  0.76356522100E+01 -0.14191054288E+01  0.18011547590E+03  0.18034409251E+03  0.46999998093E+01 0.  1.
</event>
<event>
 5   0  0.1119792E-02  0.8069301E+03  0.7818609E-02  0.9550040E-01
        2   -1    0    0  501    0  0.00000000000E+00  0.00000000000E+00  0.95704650184E+03  0.95704650185E+03  0.25500000920E-02 0.  1.
       -2   -1    0    0    0  501  0.00000000000E+00  0.00000000000E+00 -0.17009000211E+03  0.17009000213E+03  0.25500000920E-02 0. -1.
    10030    2    1    2    0    0  0.00000000000E+00  0.00000000000E+00  0.78695649973E+03  0.11271365040E+04  0.80693008750E+03 0.  0.
        4    1    3    3  502    0 -0.82571182632E+02  0.38817165092E+03  0.49504542821E+03  0.63448153612E+03  0.12699999809E+01 0.  1.
       -4    1    3    3    0  502  0.82571182632E+02 -0.38817165092E+03  0.29191107152E+03  0.49265496786E+03  0.12699999809E+01 0. -1.
</event>
<event>
 5   0  0.6517392E-03  0.8014090E+03  0.7818609E-02  0.9557980E-01
       -1   -1    0    0    0  501  0.00000000000E+00  0.00000000000E+00  0.22714421921E+03  0.22714421926E+03  0.50400001928E-02 0.  1.
        1   -1    0    0  501    0  0.00000000000E+00  0.00000000000E+00 -0.70688168781E+03  0.70688168783E+03  0.50400001928E-02 0. -1.
    10030    2    1    2    0    0  0.00000000000E+00  0.00000000000E+00 -0.47973746860E+03  0.93402590709E+03  0.80140898194E+03 0.  0.
        3    1    3    3  502    0  0.21282366445E+03 -0.33851562886E+03 -0.27020113022E+03  0.48259237883E+03  0.10100000352E+00 0. -1.
       -3    1    3    3    0  502 -0.21282366445E+03  0.33851562886E+03 -0.20953633838E+03  0.45143352826E+03  0.10100000352E+00 0.  1.
</event>
<event>
 5   0  0.6517392E-03  0.7945255E+03  0.7818609E-02  0.9567975E-01
        1   -1    0    0  501    0  0.00000000000E+00  0.00000000000E+00  0.45708770363E+03  0.45708770366E+03  0.50400001928E-02 0. -1.
       -1   -1    0    0    0  501  0.00000000000E+00  0.00000000000E+00 -0.34526785486E+03  0.34526785490E+03  0.50400001928E-02 0.  1.
    10030    2    1    2    0    0  0.00000000000E+00  0.00000000000E+00  0.11181984876E+03  0.80235555855E+03  0.79452549598E+03 0.  0.
        3    1    3    3  502    0 -0.26773513541E+03 -0.16794865307E+03 -0.18714610471E+03  0.36730440715E+03  0.10100000352E+00 0.  1.
       -3    1    3    3    0  502  0.26773513541E+03  0.16794865307E+03  0.29896595347E+03  0.43505115141E+03  0.10100000352E+00 0. -1.
</event>
<event>
 5   0  0.1092868E-02  0.8020296E+03  0.7818609E-02  0.9557084E-01
        2   -1    0    0  501    0  0.00000000000E+00  0.00000000000E+00  0.19260299323E+03  0.19260299324E+03  0.25500000920E-02 0. -1.
       -2   -1    0    0    0  501  0.00000000000E+00  0.00000000000E+00 -0.83494474611E+03  0.83494474611E+03  0.25500000920E-02 0.  1.
    10030    2    1    2    0    0  0.00000000000E+00  0.00000000000E+00 -0.64234175288E+03  0.10275477394E+04  0.80202956876E+03 0.  0.
        3    1    3    3  502    0  0.12620753907E+03  0.55820079152E+02  0.16122289168E+03  0.21221935622E+03  0.10100000352E+00 0. -1.
       -3    1    3    3    0  502 -0.12620753907E+03 -0.55820079152E+02 -0.80356464456E+03  0.81532838313E+03  0.10100000352E+00 0.  1.
</event>
<event>
 5   0  0.1119792E-02  0.8017043E+03  0.7818609E-02  0.9557553E-01
        2   -1    0    0  501    0  0.00000000000E+00  0.00000000000E+00  0.24063781548E+04  0.24063781548E+04  0.25500000920E-02 0.  1.
       -2   -1    0    0    0  501  0.00000000000E+00  0.00000000000E+00 -0.66773568154E+02  0.66773568202E+02  0.25500000920E-02 0. -1.
    10030    2    1    2    0    0  0.00000000000E+00  0.00000000000E+00  0.23396045867E+04  0.24731517230E+04  0.80170432402E+03 0.  0.
        4    1    3    3  502    0  0.29609337170E+03 -0.25869055910E+03  0.92908865121E+03  0.10088604586E+04  0.12699999809E+01 0. -1.
       -4    1    3    3    0  502 -0.29609337170E+03  0.25869055910E+03  0.14105159355E+04  0.14642912645E+04  0.12699999809E+01 0.  1.
</event>
<event>
 5   0  0.6600401E-03  0.7991927E+03  0.7818609E-02  0.9561186E-01
       -1   -1    0    0    0  501  0.00000000000E+00  0.00000000000E+00  0.22493323246E+03  0.22493323252E+03  0.50400001928E-02 0. -1.
        1   -1    0    0  501    0  0.00000000000E+00  0.00000000000E+00 -0.70988730080E+03  0.70988730081E+03  0.50400001928E-02 0.  1.
    10030    2    1    2    0    0  0.00000000000E+00  0.00000000000E+00 -0.48495406834E+03  0.93482053333E+03  0.79919270589E+03 0.  0.
        2    1    3    3  502    0 -0.10375751168E+03 -0.38581440883E+03 -0.25145150715E+03  0.47206592733E+03  0.25500000920E-02 0.  1.
       -2    1    3    3    0  502  0.10375751168E+03  0.38581440883E+03 -0.23350256119E+03  0.46275460600E+03  0.25500000920E-02 0. -1.
</event>
<event>
 5   0  0.6557679E-03  0.7977027E+03  0.7818609E-02  0.9563348E-01
        1   -1    0    0  501    0  0.00000000000E+00  0.00000000000E+00  0.58213845801E+03  0.58213845804E+03  0.50400001928E-02 0.  1.
       -1   -1    0    0    0  501  0.00000000000E+00  0.00000000000E+00 -0.27327241340E+03  0.27327241344E+03  0.50400001928E-02 0. -1.
    10030    2    1    2    0    0  0.00000000000E+00  0.00000000000E+00  0.30886604462E+03  0.85541087148E+03  0.79770265483E+03 0.  0.
        1    1    3    3  502    0  0.23363019296E+03  0.29560309218E+03  0.29473436903E+03  0.47836450901E+03  0.50400001928E-02 0.  1.
       -1    1    3    3    0  502 -0.23363019296E+03 -0.29560309218E+03  0.14131675591E+02  0.37704636247E+03  0.50400001928E-02 0. -1.
</event>
<event>
 5   0  0.6600401E-03  0.8109858E+03  0.7818609E-02  0.9544250E-01
        1   -1    0    0  501    0  0.00000000000E+00  0.00000000000E+00  0.35631597272E+03  0.35631597276E+03  0.50400001928E-02 0.  1.
       -1   -1    0    0    0  501  0.00000000000E+00  0.00000000000E+00 -0.46145695730E+03  0.46145695732E+03  0.50400001928E-02 0. -1.
    10030    2    1    2    0    0  0.00000000000E+00  0.00000000000E+00 -0.10514098457E+03  0.81777293008E+03  0.81098578196E+03 0.  0.
        2    1    3    3  502    0 -0.41477987498E+02  0.10054926708E+02  0.35404480500E+03  0.35660797657E+03  0.25500000920E-02 0.  1.
       -2    1    3    3    0  502  0.41477987498E+02 -0.10054926708E+02 -0.45918578957E+03  0.46116495351E+03  0.25500000920E-02 0. -1.
</event>
<event>
 5   0  0.4385875E-03  0.8017238E+03  0.7818609E-02  0.9557525E-01
        3   -1    0    0  501    0  0.00000000000E+00  0.00000000000E+00  0.39809079295E+03  0.39809080576E+03  0.10100000352E+00 0.  1.
       -3   -1    0    0    0  501  0.00000000000E+00  0.00000000000E+00 -0.40365223217E+03  0.40365224481E+03  0.10100000352E+00 0. -1.
    10030    2    1    2    0    0  0.00000000000E+00  0.00000000000E+00 -0.55614392191E+01  0.80174305057E+03  0.80172376136E+03 0.  0.
        4    1    3    3  502    0 -0.55413714730E+02  0.58072486389E+02  0.38996979065E+03  0.39814713860E+03  0.12699999809E+01 0.  1.
       -4    1    3    3    0  502  0.55413714730E+02 -0.58072486389E+02 -0.39553122987E+03  0.40359591197E+03  0.12699999809E+01 0. -1.
</event>
<event>
 5   0  0.1119792E-02  0.7992393E+03  0.7818609E-02  0.9561119E-01
       -2   -1    0    0    0  501  0.00000000000E+00  0.00000000000E+00  0.12767452521E+04  0.12767452521E+04  0.25500000920E-02 0.  1.
        2   -1    0    0  501    0  0.00000000000E+00  0.00000000000E+00 -0.12508045027E+03  0.12508045030E+03  0.25500000920E-02 0. -1.
    10030    2    1    2    0    0  0.00000000000E+00  0.00000000000E+00  0.11516648018E+04  0.14018257024E+04  0.79923931595E+03 0.  0.
        4    1    3    3  502    0  0.17122308824E+03 -0.67234942511E+02  0.11980679051E+04  0.12121081641E+04  0.12699999809E+01 0.  1.
       -4    1    3    3    0  502 -0.17122308824E+03  0.67234942511E+02 -0.46403103250E+02  0.18971753829E+03  0.12699999809E+01 0. -1.
</event>
<event>
 5   0  0.1119792E-02  0.7872906E+03  0.7818609E-02  0.9578598E-01
       -2   -1    0    0    0  501  0.00000000000E+00  0.00000000000E+00  0.90053615390E+02  0.90053615426E+02  0.25500000920E-02 0. -1.
        2   -1    0    0  501    0  0.00000000000E+00  0.00000000000E+00 -0.17207152756E+04  0.17207152756E+04  0.25500000920E-02 0.  1.
    10030    2    1    2    0    0  0.00000000000E+00  0.00000000000E+00 -0.16306616602E+04  0.18107688910E+04  0.78729062399E+03 0.  0.
        4    1    3    3  502    0  0.12860523343E+03 -0.32948513385E+03 -0.41792121646E+03  0.54750298224E+03  0.12699999809E+01 0. -1.
       -4    1    3    3    0  502 -0.12860523343E+03  0.32948513385E+03 -0.12127404437E+04  0.12632659088E+04  0.12699999809E+01 0.  1.
</event>
<event>
 5   0  0.1154714E-02  0.8084879E+03  0.7818609E-02  0.9547812E-01
       -2   -1    0    0    0  501  0.00000000000E+00  0.00000000000E+00  0.94165336533E+02  0.94165336568E+02  0.25500000920E-02 0.  1.
        2   -1    0    0  501    0  0.00000000000E+00  0.00000000000E+00 -0.17353857457E+04  0.17353857457E+04  0.25500000920E-02 0. -1.
    10030    2    1    2    0    0  0.00000000000E+00  0.00000000000E+00 -0.16412204092E+04  0.18295510823E+04  0.80848792890E+03 0.  0.
        5    1    3    3  502    0  0.26155227007E+03  0.72254711455E+01 -0.12338813061E+03  0.28932424403E+03  0.46999998093E+01 0.  1.
       -5    1    3    3    0  502 -0.26155227007E+03 -0.72254711455E+01 -0.15178322786E+04  0.15402268382E+04  0.46999998093E+01 0. -1.
</event>
<event>
 5   0  0.4385875E-03  0.8030487E+03  0.7818609E-02  0.9555615E-01
       -3   -1    0    0    0  501  0.00000000000E+00  0.00000000000E+00  0.30841491731E+03  0.30841493385E+03  0.10100000352E+00 0.  1.
        3   -1    0    0  501    0  0.00000000000E+00  0.00000000000E+00 -0.52274320020E+03  0.52274320995E+03  0.10100000352E+00 0. -1.
    10030    2    1    2    0    0  0.00000000000E+00  0.00000000000E+00 -0.21432828288E+03  0.83115814381E+03  0.80304872030E+03 0.  0.
        3    1    3    3  502    0  0.37364949567E+02  0.39755424409E+03 -0.15078539195E+03  0.42682755426E+03  0.10100000352E+00 0.  1.
       -3    1    3    3    0  502 -0.37364949567E+02 -0.39755424409E+03 -0.63542890936E+02  0.40433058954E+03  0.10100000352E+00 0. -1.
</event>
<event>
 5   0  0.6517392E-03  0.8035263E+03  0.7818609E-02  0.9554927E-01
       -1   -1    0    0    0  501  0.00000000000E+00  0.00000000000E+00  0.28389827087E+03  0.28389827091E+03  0.50400001928E-02 0.  1.
        1   -1    0    0  501    0  0.00000000000E+00  0.00000000000E+00 -0.56856152786E+03  0.56856152788E+03  0.50400001928E-02 0. -1.
    10030    2    1    2    0    0  0.00000000000E+00  0.00000000000E+00 -0.28466325699E+03  0.85245979879E+03  0.80352631487E+03 0.  0.
        3    1    3    3  502    0 -0.10202930454E+03 -0.31649772654E+03  0.96859995248E+02  0.34635625990E+03  0.10100000352E+00 0.  1.
       -3    1    3    3    0  502  0.10202930454E+03  0.31649772654E+03 -0.38152325224E+03  0.50610353890E+03  0.10100000352E+00 0. -1.
</event>
<event>
 5   0  0.6600401E-03  0.8005951E+03  0.7818609E-02  0.9559156E-01
        1   -1    0    0  501    0  0.00000000000E+00  0.00000000000E+00  0.11339122339E+04  0.11339122339E+04  0.50400001928E-02 0.  1.
       -1   -1    0    0    0  501  0.00000000000E+00  0.00000000000E+00 -0.14131439402E+03  0.14131439411E+03  0.50400001928E-02 0. -1.
    10030    2    1    2    0    0  0.00000000000E+00  0.00000000000E+00  0.99259783989E+03  0.12752266280E+04  0.80059507934E+03 0.  0.
        2    1    3    3  502    0  0.14961185799E+03 -0.17179786768E+03 -0.27987587334E+02  0.22952455302E+03  0.25500000920E-02 0. -1.
       -2    1    3    3    0  502 -0.14961185799E+03  0.17179786768E+03  0.10205854272E+04  0.10457020750E+04  0.25500000920E-02 0.  1.
</event>
<event>
 5   0  0.1106332E-02  0.8051087E+03  0.7818609E-02  0.9552652E-01
       -2   -1    0    0    0  501  0.00000000000E+00  0.00000000000E+00  0.48148023669E+03  0.48148023670E+03  0.25500000920E-02 0.  1.
        2   -1    0    0  501    0  0.00000000000E+00  0.00000000000E+00 -0.33656628692E+03  0.33656628693E+03  0.25500000920E-02 0. -1.
    10030    2    1    2    0    0  0.00000000000E+00  0.00000000000E+00  0.14491394977E+03  0.81804652363E+03  0.80510872681E+03 0.  0.
        1    1    3    3  502    0 -0.13500574558E+03  0.18837218127E+03 -0.26198182257E+03  0.34977865201E+03  0.50400001928E-02 0. -1.
       -1    1    3    3    0  502  0.13500574558E+03 -0.18837218127E+03  0.40689577234E+03  0.46826787162E+03  0.50400001928E-02 0.  1.
</event>
<event>
 5   0  0.6551489E-03  0.8165856E+03  0.7818609E-02  0.9536316E-01
       -1   -1    0    0    0  501  0.00000000000E+00  0.00000000000E+00  0.20555262676E+03  0.20555262683E+03  0.50400001928E-02 0.  1.
        1   -1    0    0  501    0  0.00000000000E+00  0.00000000000E+00 -0.81099914785E+03  0.81099914786E+03  0.50400001928E-02 0. -1.
    10030    2    1    2    0    0  0.00000000000E+00  0.00000000000E+00 -0.60544652108E+03  0.10165517747E+04  0.81658558690E+03 0.  0.
        4    1    3    3  502    0 -0.13440997244E+03 -0.14099599664E+03 -0.74941781150E+03  0.77432201367E+03  0.12699999809E+01 0. -1.
       -4    1    3    3    0  502  0.13440997244E+03  0.14099599664E+03  0.14397129042E+03  0.24222976102E+03  0.12699999809E+01 0.  1.
</event>
<event>
 5   0  0.1106332E-02  0.8001615E+03  0.7818609E-02  0.9559783E-01
       -2   -1    0    0    0  501  0.00000000000E+00  0.00000000000E+00  0.10558956839E+03  0.10558956842E+03  0.25500000920E-02 0. -1.
        2   -1    0    0  501    0  0.00000000000E+00  0.00000000000E+00 -0.15159129167E+04  0.15159129167E+04  0.25500000920E-02 0.  1.
    10030    2    1    2    0    0  0.00000000000E+00  0.00000000000E+00 -0.14103233483E+04  0.16215024851E+04  0.80016146024E+03 0.  0.
        1    1    3    3  502    0 -0.23578632420E+00  0.38866351266E+03 -0.89746503981E+03  0.97800965199E+03  0.50400001928E-02 0. -1.
       -1    1    3    3    0  502  0.23578632420E+00 -0.38866351266E+03 -0.51285830849E+03  0.64349283312E+03  0.50400001928E-02 0.  1.
</event>
<event>
 5   0  0.4385875E-03  0.8020682E+03  0.7818609E-02  0.9557028E-01
        3   -1    0    0  501    0  0.00000000000E+00  0.00000000000E+00  0.11771867131E+04  0.11771867174E+04  0.10100000352E+00 0.  1.
       -3   -1    0    0    0  501  0.00000000000E+00  0.00000000000E+00 -0.13662089608E+03  0.13662093341E+03  0.10100000352E+00 0. -1.
    10030    2    1    2    0    0  0.00000000000E+00  0.00000000000E+00  0.10405658170E+04  0.13138076508E+04  0.80206815412E+03 0.  0.
        2    1    3    3  502    0 -0.27297241691E+02 -0.37152890698E+03  0.27705157527E+03  0.46425902629E+03  0.25500000920E-02 0. -1.
       -2    1    3    3    0  502  0.27297241691E+02  0.37152890698E+03  0.76351424170E+03  0.84954862451E+03  0.25500000920E-02 0.  1.
</event>
<event>
 5   0  0.1121480E-02  0.8041665E+03  0.7818609E-02  0.9554006E-01
        2   -1    0    0  501    0  0.00000000000E+00  0.00000000000E+00  0.14082067455E+03  0.14082067458E+03  0.25500000920E-02 0. -1.
       -2   -1    0    0    0  501  0.00000000000E+00  0.00000000000E+00 -0.11480625374E+04  0.11480625374E+04  0.25500000920E-02 0.  1.
    10030    2    1    2    0    0  0.00000000000E+00  0.00000000000E+00 -0.10072418629E+04  0.12888832120E+04  0.80416650259E+03 0.  0.
        2    1    3    3  502    0  0.71063793969E+02  0.26387348478E+03 -0.97634357195E+03  0.10138668795E+04  0.25500000920E-02 0.  1.
       -2    1    3    3    0  502 -0.71063793969E+02 -0.26387348478E+03 -0.30898290940E+02  0.27501633256E+03  0.25500000920E-02 0. -1.
</event>
<event>
 5   0  0.6551489E-03  0.8153966E+03  0.7818609E-02  0.9537995E-01
        1   -1    0    0  501    0  0.00000000000E+00  0.00000000000E+00  0.51785330949E+03  0.51785330952E+03  0.50400001928E-02 0. -1.
       -1   -1    0    0    0  501  0.00000000000E+00  0.00000000000E+00 -0.32097488117E+03  0.32097488121E+03  0.50400001928E-02 0.  1.
    10030    2    1    2    0    0  0.00000000000E+00  0.00000000000E+00  0.19687842833E+03  0.83882819072E+03  0.81539660167E+03 0.  0.
        4    1    3    3  502    0  0.27118096142E+03  0.25273772150E+03 -0.76145638665E+02  0.37843789569E+03  0.12699999809E+01 0.  1.
       -4    1    3    3    0  502 -0.27118096142E+03 -0.25273772150E+03  0.27302406699E+03  0.46039029504E+03  0.12699999809E+01 0. -1.
</event>
<event>
 5   0  0.1119792E-02  0.7979324E+03  0.7818609E-02  0.9563015E-01
        2   -1    0    0  501    0  0.00000000000E+00  0.00000000000E+00  0.24532570528E+03  0.24532570529E+03  0.25500000920E-02 0.  1.
       -2   -1    0    0    0  501  0.00000000000E+00  0.00000000000E+00 -0.64882743281E+03  0.64882743281E+03  0.25500000920E-02 0. -1.
    10030    2    1    2    0    0  0.00000000000E+00  0.00000000000E+00 -0.40350172753E+03  0.89415313810E+03  0.79793244718E+03 0.  0.
        4    1    3    3  502    0  0.15892054913E+03  0.31861025234E+03 -0.32035389052E-01  0.35604753582E+03  0.12699999809E+01 0.  1.
       -4    1    3    3    0  502 -0.15892054913E+03 -0.31861025234E+03 -0.40346969214E+03  0.53810560229E+03  0.12699999809E+01 0. -1.
</event>
<event>
 5   0  0.6517392E-03  0.7975317E+03  0.7818609E-02  0.9563597E-01
        1   -1    0    0  501    0  0.00000000000E+00  0.00000000000E+00  0.97929584656E+03  0.97929584657E+03  0.50400001928E-02 0.  1.
       -1   -1    0    0    0  501  0.00000000000E+00  0.00000000000E+00 -0.16237604673E+03  0.16237604681E+03  0.50400001928E-02 0. -1.
    10030    2    1    2    0    0  0.00000000000E+00  0.00000000000E+00  0.81691979983E+03  0.11416718934E+04  0.79753166255E+03 0.  0.
        3    1    3    3  502    0  0.23086427698E+03 -0.18058771361E+03  0.21412841168E+02  0.29388561832E+03  0.10100000352E+00 0. -1.
       -3    1    3    3    0  502 -0.23086427698E+03  0.18058771361E+03  0.79550695866E+03  0.84778627505E+03  0.10100000352E+00 0.  1.
</event>
<event>
 5   0  0.1154714E-02  0.7910899E+03  0.7818609E-02  0.9573004E-01
        2   -1    0    0  501    0  0.00000000000E+00  0.00000000000E+00  0.57316857597E+03  0.57316857598E+03  0.25500000920E-02 0. -1.
       -2   -1    0    0    0  501  0.00000000000E+00  0.00000000000E+00 -0.27296650920E+03  0.27296650921E+03  0.25500000920E-02 0.  1.
    10030    2    1    2    0    0  0.00000000000E+00  0.00000000000E+00  0.30020206677E+03  0.84613508519E+03  0.79108994526E+03 0.  0.
        5    1    3    3  502    0 -0.87646726028E+02 -0.54970316963E+02 -0.25820744443E+03  0.27820290920E+03  0.46999998093E+01 0.  1.
       -5    1    3    3    0  502  0.87646726028E+02  0.54970316963E+02  0.55840951120E+03  0.56793217599E+03  0.46999998093E+01 0. -1.
</event>
<event>
 5   0  0.1154714E-02  0.8051441E+03  0.7818609E-02  0.9552601E-01
       -2   -1    0    0    0  501  0.00000000000E+00  0.00000000000E+00  0.95536447711E+02  0.95536447745E+02  0.25500000920E-02 0.  1.
        2   -1    0    0  501    0  0.00000000000E+00  0.00000000000E+00 -0.16963602995E+04  0.16963602995E+04  0.25500000920E-02 0. -1.
    10030    2    1    2    0    0  0.00000000000E+00  0.00000000000E+00 -0.16008238518E+04  0.17918967472E+04  0.80514405440E+03 0.  0.
        5    1    3    3  502    0  0.16748097112E+03 -0.90159172913E+02 -0.15899797771E+04  0.16013233070E+04  0.46999998093E+01 0. -1.
       -5    1    3    3    0  502 -0.16748097112E+03  0.90159172913E+02 -0.10844074679E+02  0.19057344018E+03  0.46999998093E+01 0.  1.
</event>
<event>
 5   0  0.1106332E-02  0.7870261E+03  0.7818609E-02  0.9578989E-01
       -2   -1    0    0    0  501  0.00000000000E+00  0.00000000000E+00  0.13393798855E+03  0.13393798858E+03  0.25500000920E-02 0. -1.
        2   -1    0    0  501    0  0.00000000000E+00  0.00000000000E+00 -0.11561508167E+04  0.11561508167E+04  0.25500000920E-02 0.  1.
    10030    2    1    2    0    0  0.00000000000E+00  0.00000000000E+00 -0.10222128282E+04  0.12900888053E+04  0.78702608565E+03 0.  0.
        1    1    3    3  502    0 -0.30497700208E+02  0.22812670756E+03  0.12103842286E+02  0.23047430973E+03  0.50400001928E-02 0. -1.
       -1    1    3    3    0  502  0.30497700208E+02 -0.22812670756E+03 -0.10343166704E+04  0.10596144956E+04  0.50400001928E-02 0.  1.
</event>
<event>
 5   0  0.6600401E-03  0.7947310E+03  0.7818609E-02  0.9567675E-01
       -1   -1    0    0    0  501  0.00000000000E+00  0.00000000000E+00  0.20247918237E+03  0.20247918244E+03  0.50400001928E-02 0. -1.
        1   -1    0    0  501    0  0.00000000000E+00  0.00000000000E+00 -0.77983005843E+03  0.77983005845E+03  0.50400001928E-02 0.  1.
    10030    2    1    2    0    0  0.00000000000E+00  0.00000000000E+00 -0.57735087606E+03  0.98230924089E+03  0.79473103038E+03 0.  0.
        2    1    3    3  502    0 -0.22883817591E+03  0.14398772789E+03  0.71261090859E+02  0.27960243135E+03  0.25500000920E-02 0. -1.
       -2    1    3    3    0  502  0.22883817591E+03 -0.14398772789E+03 -0.64861196692E+03  0.70270680954E+03  0.25500000920E-02 0.  1.
</event>
<event>
 5   0  0.6517392E-03  0.7944591E+03  0.7818609E-02  0.9568072E-01
       -1   -1    0    0    0  501  0.00000000000E+00  0.00000000000E+00  0.21614840408E+03  0.21614840414E+03  0.50400001928E-02 0.  1.
        1   -1    0    0  501    0  0.00000000000E+00  0.00000000000E+00 -0.73001370049E+03  0.73001370051E+03  0.50400001928E-02 0. -1.
    10030    2    1    2    0    0  0.00000000000E+00  0.00000000000E+00 -0.51386529641E+03  0.94616210464E+03  0.79445905206E+03 0.  0.
        3    1    3    3  502    0  0.24551039464E+03 -0.25762269849E+03 -0.46711609066E+03  0.58723271452E+03  0.10100000352E+00 0. -1.
       -3    1    3    3    0  502 -0.24551039464E+03  0.25762269849E+03 -0.46749205755E+02  0.35892939012E+03  0.10100000352E+00 0.  1.
</event>
<event>
 5   0  0.6557679E-03  0.8025639E+03  0.7818609E-02  0.9556313E-01
       -1   -1    0    0    0  501  0.00000000000E+00  0.00000000000E+00  0.51621475972E+03  0.51621475974E+03  0.50400001928E-02 0.  1.
        1   -1    0    0  501    0  0.00000000000E+00  0.00000000000E+00 -0.31193837052E+03  0.31193837056E+03  0.50400001928E-02 0. -1.
    10030    2    1    2    0    0  0.00000000000E+00  0.00000000000E+00  0.20427638920E+03  0.82815313030E+03  0.80256386914E+03 0.  0.
        1    1    3    3  502    0 -0.93056016792E+02 -0.35500277592E+03  0.26961146682E+03  0.45538635930E+03  0.50400001928E-02 0.  1.
       -1    1    3    3    0  502  0.93056016792E+02  0.35500277592E+03 -0.65335077617E+02  0.37276677100E+03  0.50400001928E-02 0. -1.
</event>
<event>
 5   0  0.1119792E-02  0.8027887E+03  0.7818609E-02  0.9555989E-01
       -2   -1    0    0    0  501  0.00000000000E+00  0.00000000000E+00  0.92984303965E+03  0.92984303966E+03  0.25500000920E-02 0. -1.
        2   -1    0    0  501    0  0.00000000000E+00  0.00000000000E+00 -0.17327380787E+03  0.17327380789E+03  0.25500000920E-02 0.  1.
    10030    2    1    2    0    0  0.00000000000E+00  0.00000000000E+00  0.75656923178E+03  0.11031168475E+04  0.80278874983E+03 0.  0.
        4    1    3    3  502    0 -0.13623254240E+03  0.27500714254E+03  0.22798325339E+02  0.30774926579E+03  0.12699999809E+01 0.  1.
       -4    1    3    3    0  502  0.13623254240E+03 -0.27500714254E+03  0.73377090645E+03  0.79536758175E+03  0.12699999809E+01 0. -1.
</event>
<event>
 5   0  0.6596225E-03  0.7915086E+03  0.7818609E-02  0.9572390E-01
        1   -1    0    0  501    0  0.00000000000E+00  0.00000000000E+00  0.16565986246E+04  0.16565986247E+04  0.50400001928E-02 0.  1.
       -1   -1    0    0    0  501  0.00000000000E+00  0.00000000000E+00 -0.94544011508E+02  0.94544011642E+02  0.50400001928E-02 0. -1.
    10030    2    1    2    0    0  0.00000000000E+00  0.00000000000E+00  0.15620546131E+04  0.17511426363E+04  0.79150863433E+03 0.  0.
        5    1    3    3  502    0 -0.59164123460E+02  0.35784353347E+03  0.43088568618E+03  0.56323791820E+03  0.46999998093E+01 0. -1.
       -5    1    3    3    0  502  0.59164123460E+02 -0.35784353347E+03  0.11311689270E+04  0.11879047181E+04  0.46999998093E+01 0.  1.
</event>
<event>
 5   0  0.6551489E-03  0.8032505E+03  0.7818609E-02  0.9555324E-01
        1   -1    0    0  501    0  0.00000000000E+00  0.00000000000E+00  0.72857664983E+03  0.72857664984E+03  0.50400001928E-02 0.  1.
       -1   -1    0    0    0  501  0.00000000000E+00  0.00000000000E+00 -0.22139449604E+03  0.22139449609E+03  0.50400001928E-02 0. -1.
    10030    2    1    2    0    0  0.00000000000E+00  0.00000000000E+00  0.50718215379E+03  0.94997114594E+03  0.80325054684E+03 0.  0.
        4    1    3    3  502    0 -0.33845722512E+03 -0.19849549905E+02  0.50821708184E+03  0.61092840255E+03  0.12699999809E+01 0.  1.
       -4    1    3    3    0  502  0.33845722512E+03  0.19849549905E+02 -0.10349280478E+01  0.33904274339E+03  0.12699999809E+01 0. -1.
</event>
<event>
 5   0  0.6600401E-03  0.7891863E+03  0.7818609E-02  0.9575803E-01
       -1   -1    0    0    0  501  0.00000000000E+00  0.00000000000E+00  0.34202751851E+03  0.34202751855E+03  0.50400001928E-02 0.  1.
        1   -1    0    0  501    0  0.00000000000E+00  0.00000000000E+00 -0.45523750172E+03  0.45523750175E+03  0.50400001928E-02 0. -1.
    10030    2    1    2    0    0  0.00000000000E+00  0.00000000000E+00 -0.11320998321E+03  0.79726502030E+03  0.78918629758E+03 0.  0.
        2    1    3    3  502    0  0.14249654002E+03  0.19120335299E+03 -0.37421123442E+03  0.44373193945E+03  0.25500000920E-02 0. -1.
       -2    1    3    3    0  502 -0.14249654002E+03 -0.19120335299E+03  0.26100125121E+03  0.35353308085E+03  0.25500000920E-02 0.  1.
</event>
<event>
 5   0  0.1092868E-02  0.7981375E+03  0.7818609E-02  0.9562717E-01
       -2   -1    0    0    0  501  0.00000000000E+00  0.00000000000E+00  0.47332160949E+03  0.47332160950E+03  0.25500000920E-02 0. -1.
        2   -1    0    0  501    0  0.00000000000E+00  0.00000000000E+00 -0.33646439770E+03  0.33646439771E+03  0.25500000920E-02 0.  1.
    10030    2    1    2    0    0  0.00000000000E+00  0.00000000000E+00  0.13685721179E+03  0.80978600721E+03  0.79813750761E+03 0.  0.
        3    1    3    3  502    0 -0.16361017322E+03 -0.30806979445E+03 -0.12825775567E+03  0.37165218837E+03  0.10100000352E+00 0.  1.
       -3    1    3    3    0  502  0.16361017322E+03  0.30806979445E+03  0.26511496747E+03  0.43813381884E+03  0.10100000352E+00 0. -1.
</event>
<event>
 5   0  0.1119792E-02  0.7998254E+03  0.7818609E-02  0.9560270E-01
       -2   -1    0    0    0  501  0.00000000000E+00  0.00000000000E+00  0.23457158034E+03  0.23457158035E+03  0.25500000920E-02 0.  1.
        2   -1    0    0  501    0  0.00000000000E+00  0.00000000000E+00 -0.68179693119E+03  0.68179693119E+03  0.25500000920E-02 0. -1.
    10030    2    1    2    0    0  0.00000000000E+00  0.00000000000E+00 -0.44722535085E+03  0.91636851155E+03  0.79982544003E+03 0.  0.
        4    1    3    3  502    0  0.30830432307E+03  0.18118957629E+03 -0.42871520792E+03  0.55828268877E+03  0.12699999809E+01 0.  1.
       -4    1    3    3    0  502 -0.30830432307E+03 -0.18118957629E+03 -0.18510142927E+02  0.35808582277E+03  0.12699999809E+01 0. -1.
</event>
<event>
 5   0  0.1106332E-02  0.7996876E+03  0.7818609E-02  0.9560469E-01
       -2   -1    0    0    0  501  0.00000000000E+00  0.00000000000E+00  0.15723288969E+03  0.15723288971E+03  0.25500000920E-02 0.  1.
        2   -1    0    0  501    0  0.00000000000E+00  0.00000000000E+00 -0.10168042675E+04  0.10168042675E+04  0.25500000920E-02 0. -1.
    10030    2    1    2    0    0  0.00000000000E+00  0.00000000000E+00 -0.85957137779E+03  0.11740371572E+04  0.79968762211E+03 0.  0.
        1    1    3    3  502    0 -0.15353217676E+03  0.34485529938E+03 -0.62332021159E+03  0.72871489145E+03  0.50400001928E-02 0. -1.
       -1    1    3    3    0  502  0.15353217676E+03 -0.34485529938E+03 -0.23625116619E+03  0.44532226574E+03  0.50400001928E-02 0.  1.
</event>
<event>
 5   0  0.1092868E-02  0.8095951E+03  0.7818609E-02  0.9546231E-01
       -2   -1    0    0    0  501  0.00000000000E+00  0.00000000000E+00  0.28145018710E+03  0.28145018711E+03  0.25500000920E-02 0. -1.
        2   -1    0    0  501    0  0.00000000000E+00  0.00000000000E+00 -0.58220274412E+03  0.58220274412E+03  0.25500000920E-02 0.  1.
    10030    2    1    2    0    0  0.00000000000E+00  0.00000000000E+00 -0.30075255702E+03  0.86365293123E+03  0.80959513652E+03 0.  0.
        3    1    3    3  502    0 -0.19373141763E+03 -0.65880713801E+02  0.22221404575E+03  0.30207817358E+03  0.10100000352E+00 0. -1.
       -3    1    3    3    0  502  0.19373141763E+03  0.65880713801E+02 -0.52296660276E+03  0.56157475765E+03  0.10100000352E+00 0.  1.
</event>
<event>
 5   0  0.6596225E-03  0.8031785E+03  0.7818609E-02  0.9555428E-01
        1   -1    0    0  501    0  0.00000000000E+00  0.00000000000E+00  0.34064465411E+03  0.34064465415E+03  0.50400001928E-02 0.  1.
       -1   -1    0    0    0  501  0.00000000000E+00  0.00000000000E+00 -0.47343741498E+03  0.47343741500E+03  0.50400001928E-02 0. -1.
    10030    2    1    2    0    0  0.00000000000E+00  0.00000000000E+00 -0.13279276086E+03  0.81408206915E+03  0.80317849696E+03 0.  0.
        5    1    3    3  502    0 -0.79131783268E+02  0.24252847272E+03 -0.38071910349E+03  0.45831323891E+03  0.46999998093E+01 0. -1.
       -5    1    3    3    0  502  0.79131783268E+02 -0.24252847272E+03  0.24792634262E+03  0.35576883024E+03  0.46999998093E+01 0.  1.
</event>
<event>
 5   0  0.6551489E-03  0.8005717E+03  0.7818609E-02  0.9559190E-01
       -1   -1    0    0    0  501  0.00000000000E+00  0.00000000000E+00  0.51542619891E+03  0.51542619893E+03  0.50400001928E-02 0.  1.
        1   -1    0    0  501    0  0.00000000000E+00  0.00000000000E+00 -0.31086656675E+03  0.31086656679E+03  0.50400001928E-02 0. -1.
    10030    2    1    2    0    0  0.00000000000E+00  0.00000000000E+00  0.20455963216E+03  0.82629276572E+03  0.80057172794E+03 0.  0.
        4    1    3    3  502    0  0.24633505733E+03 -0.27767693730E+03  0.25689842156E+03  0.45142425043E+03  0.12699999809E+01 0.  1.
       -4    1    3    3    0  502 -0.24633505733E+03  0.27767693730E+03 -0.52338789401E+02  0.37486851529E+03  0.12699999809E+01 0. -1.
</event>
<event>
 5   0  0.6517392E-03  0.8037790E+03  0.7818609E-02  0.9554563E-01
       -1   -1    0    0    0  501  0.00000000000E+00  0.00000000000E+00  0.13065203953E+03  0.13065203963E+03  0.50400001928E-02 0. -1.
        1   -1    0    0  501    0  0.00000000000E+00  0.00000000000E+00 -0.12362238661E+04  0.12362238661E+04  0.50400001928E-02 0.  1.
    10030    2    1    2    0    0  0.00000000000E+00  0.00000000000E+00 -0.11055718266E+04  0.13668759058E+04  0.80377899823E+03 0.  0.
        3    1    3    3  502    0 -0.16608542941E+03  0.14178363407E+03  0.20957020547E+02  0.21937678926E+03  0.10100000352E+00 0. -1.
       -3    1    3    3    0  502  0.16608542941E+03 -0.14178363407E+03 -0.11265288471E+04  0.11474991165E+04  0.10100000352E+00 0.  1.
</event>
<event>
 5   0  0.6557679E-03  0.7997811E+03  0.7818609E-02  0.9560334E-01
        1   -1    0    0  501    0  0.00000000000E+00  0.00000000000E+00  0.18449471422E+04  0.18449471422E+04  0.50400001928E-02 0. -1.
       -1   -1    0    0    0  501  0.00000000000E+00  0.00000000000E+00 -0.86675890102E+02  0.86675890249E+02  0.50400001928E-02 0.  1.
    10030    2    1    2    0    0  0.00000000000E+00  0.00000000000E+00  0.17582712521E+04  0.19316230325E+04  0.79978105977E+03 0.  0.
        1    1    3    3  502    0 -0.17096892970E+03  0.13834019021E+03  0.72505440624E+02  0.23157163491E+03  0.50400001928E-02 0.  1.
       -1    1    3    3    0  502  0.17096892970E+03 -0.13834019021E+03  0.16857658115E+04  0.17000513976E+04  0.50400001928E-02 0. -1.
</event>
<event>
 5   0  0.1119792E-02  0.7833915E+03  0.7818609E-02  0.9584373E-01
        2   -1    0    0  501    0  0.00000000000E+00  0.00000000000E+00  0.29494699243E+03  0.29494699244E+03  0.25500000920E-02 0. -1.
       -2   -1    0    0    0  501  0.00000000000E+00  0.00000000000E+00 -0.52018013479E+03  0.52018013480E+03  0.25500000920E-02 0.  1.
    10030    2    1    2    0    0  0.00000000000E+00  0.00000000000E+00 -0.22523314237E+03  0.81512712724E+03  0.78339151460E+03 0.  0.
        4    1    3    3  502    0 -0.10199777156E+03 -0.11342472353E+03  0.26276877248E+03  0.30383836822E+03  0.12699999809E+01 0. -1.
       -4    1    3    3    0  502  0.10199777156E+03  0.11342472353E+03 -0.48800191484E+03  0.51128875902E+03  0.12699999809E+01 0.  1.
</event>
<event>
 5   0  0.1106332E-02  0.7715738E+03  0.7818609E-02  0.9602099E-01
        2   -1    0    0  501    0  0.00000000000E+00  0.00000000000E+00  0.41159725551E+03  0.41159725552E+03  0.25500000920E-02 0. -1.
       -2   -1    0    0    0  501  0.00000000000E+00  0.00000000000E+00 -0.36159503488E+03  0.36159503489E+03  0.25500000920E-02 0.  1.
    10030    2    1    2    0    0  0.00000000000E+00  0.00000000000E+00  0.50002220635E+02  0.77319229041E+03  0.77157377864E+03 0.  0.
        1    1    3    3  502    0  0.12223713034E+03 -0.13134443554E+03  0.36724093690E+03  0.40872873955E+03  0.50400001928E-02 0. -1.
       -1    1    3    3    0  502 -0.12223713034E+03  0.13134443554E+03 -0.31723871626E+03  0.36446355085E+03  0.50400001928E-02 0.  1.
</event>
<event>
 5   0  0.1121480E-02  0.8567832E+03  0.7818609E-02  0.9481278E-01
        2   -1    0    0  501    0  0.00000000000E+00  0.00000000000E+00  0.65773628724E+03  0.65773628725E+03  0.25500000920E-02 0.  1.
       -2   -1    0    0    0  501  0.00000000000E+00  0.00000000000E+00 -0.27901661579E+03  0.27901661580E+03  0.25500000920E-02 0. -1.
    10030    2    1    2    0    0  0.00000000000E+00  0.00000000000E+00  0.37871967146E+03  0.93675290304E+03  0.85678317666E+03 0.  0.
        2    1    3    3  502    0  0.63056111696E+01 -0.91690562678E+02  0.64683023782E+03  0.65332708238E+03  0.25500000920E-02 0.  1.
       -2    1    3    3    0  502 -0.63056111696E+01  0.91690562678E+02 -0.26811056636E+03  0.28342582066E+03  0.25500000920E-02 0. -1.
</event>
<event>
 5   0  0.6517392E-03  0.7992337E+03  0.7818609E-02  0.9561127E-01
       -1   -1    0    0    0  501  0.00000000000E+00  0.00000000000E+00  0.46393496097E+03  0.46393496099E+03  0.50400001928E-02 0.  1.
        1   -1    0    0  501    0  0.00000000000E+00  0.00000000000E+00 -0.34421555360E+03  0.34421555364E+03  0.50400001928E-02 0. -1.
    10030    2    1    2    0    0  0.00000000000E+00  0.00000000000E+00  0.11971940736E+03  0.80815051464E+03  0.79923370663E+03 0.  0.
        3    1    3    3  502    0 -0.14155983987E+03  0.54307616944E+02  0.43372128854E+03  0.45945910793E+03  0.10100000352E+00 0.  1.
       -3    1    3    3    0  502  0.14155983987E+03 -0.54307616944E+02 -0.31400188118E+03  0.34869140671E+03  0.10100000352E+00 0. -1.
</event>
<event>
 5   0  0.1092868E-02  0.7603929E+03  0.7818609E-02  0.9619185E-01
        2   -1    0    0  501    0  0.00000000000E+00  0.00000000000E+00  0.11883773365E+04  0.11883773365E+04  0.25500000920E-02 0.  1.
       -2   -1    0    0    0  501  0.00000000000E+00  0.00000000000E+00 -0.12163588583E+03  0.12163588586E+03  0.25500000920E-02 0. -1.
    10030    2    1    2    0    0  0.00000000000E+00  0.00000000000E+00  0.10667414507E+04  0.13100132224E+04  0.76039287227E+03 0.  0.
        3    1    3    3  502    0 -0.96274973803E+02 -0.33278607695E+03  0.80321967198E+03  0.87474413130E+03  0.10100000352E+00 0.  1.
       -3    1    3    3    0  502  0.96274973803E+02  0.33278607695E+03  0.26352177873E+03  0.43526909110E+03  0.10100000352E+00 0. -1.
</event>
<event>
 5   0  0.1154714E-02  0.8115114E+03  0.7818609E-02  0.9543503E-01
        2   -1    0    0  501    0  0.00000000000E+00  0.00000000000E+00  0.47500658832E+03  0.47500658833E+03  0.25500000920E-02 0.  1.
       -2   -1    0    0    0  501  0.00000000000E+00  0.00000000000E+00 -0.34660085866E+03  0.34660085867E+03  0.25500000920E-02 0. -1.
    10030    2    1    2    0    0  0.00000000000E+00  0.00000000000E+00  0.12840572966E+03  0.82160744700E+03  0.81151140815E+03 0.  0.
        5    1    3    3  502    0  0.11094560929E+03 -0.33863549691E+03 -0.13220201469E+03  0.38010839332E+03  0.46999998093E+01 0. -1.
       -5    1    3    3    0  502 -0.11094560929E+03  0.33863549691E+03  0.26060774434E+03  0.44149905368E+03  0.46999998093E+01 0.  1.
</event>
<event>
 5   0  0.1106332E-02  0.7968027E+03  0.7818609E-02  0.9564657E-01
       -2   -1    0    0    0  501  0.00000000000E+00  0.00000000000E+00  0.19873131756E+03  0.19873131758E+03  0.25500000920E-02 0. -1.
        2   -1    0    0  501    0  0.00000000000E+00  0.00000000000E+00 -0.79868454092E+03  0.79868454092E+03  0.25500000920E-02 0.  1.
    10030    2    1    2    0    0  0.00000000000E+00  0.00000000000E+00 -0.59995322336E+03  0.99741585850E+03  0.79680268860E+03 0.  0.
        1    1    3    3  502    0 -0.26957239066E+03 -0.24179237215E+03 -0.92051150882E+02  0.37363918349E+03  0.50400001928E-02 0.  1.
       -1    1    3    3    0  502  0.26957239066E+03  0.24179237215E+03 -0.50790207248E+03  0.62377667501E+03  0.50400001928E-02 0. -1.
</event>
<event>
 5   0  0.6517392E-03  0.7967066E+03  0.7818609E-02  0.9564796E-01
       -1   -1    0    0    0  501  0.00000000000E+00  0.00000000000E+00  0.15592178436E+03  0.15592178444E+03  0.50400001928E-02 0. -1.
        1   -1    0    0  501    0  0.00000000000E+00  0.00000000000E+00 -0.10177240409E+04  0.10177240409E+04  0.50400001928E-02 0.  1.
    10030    2    1    2    0    0  0.00000000000E+00  0.00000000000E+00 -0.86180225657E+03  0.11736458254E+04  0.79670659217E+03 0.  0.
        3    1    3    3  502    0  0.91849839207E+02 -0.38761958843E+03 -0.43089829521E+03  0.58682083238E+03  0.10100000352E+00 0. -1.
       -3    1    3    3    0  502 -0.91849839207E+02  0.38761958843E+03 -0.43090396136E+03  0.58682499300E+03  0.10100000352E+00 0.  1.
</event>
<event>
 5   0  0.6551489E-03  0.7964083E+03  0.7818609E-02  0.9565231E-01
        1   -1    0    0  501    0  0.00000000000E+00  0.00000000000E+00  0.53039442573E+03  0.53039442576E+03  0.50400001928E-02 0.  1.
       -1   -1    0    0    0  501  0.00000000000E+00  0.00000000000E+00 -0.29895964899E+03  0.29895964903E+03  0.50400001928E-02 0. -1.
    10030    2    1    2    0    0  0.00000000000E+00  0.00000000000E+00  0.23143477674E+03  0.82935407479E+03  0.79640826558E+03 0.  0.
        4    1    3    3  502    0  0.10688730879E+03 -0.38165904121E+03  0.75703943627E+02  0.40351111570E+03  0.12699999809E+01 0. -1.
       -4    1    3    3    0  502 -0.10688730879E+03  0.38165904121E+03  0.15573083312E+03  0.42584295908E+03  0.12699999809E+01 0.  1.
</event>
<event>
 5   0  0.6517392E-03  0.7984804E+03  0.7818609E-02  0.9562219E-01
       -1   -1    0    0    0  501  0.00000000000E+00  0.00000000000E+00  0.91498881534E+02  0.91498881673E+02  0.50400001928E-02 0. -1.
        1   -1    0    0  501    0  0.00000000000E+00  0.00000000000E+00 -0.17420183255E+04  0.17420183255E+04  0.50400001928E-02 0.  1.
    10030    2    1    2    0    0  0.00000000000E+00  0.00000000000E+00 -0.16505194440E+04  0.18335172072E+04  0.79848037804E+03 0.  0.
        3    1    3    3  502    0  0.19679225442E+03  0.21953441530E+03 -0.14434189747E+04  0.14732212656E+04  0.10100000352E+00 0.  1.
       -3    1    3    3    0  502 -0.19679225442E+03 -0.21953441530E+03 -0.20710046927E+03  0.36029594152E+03  0.10100000352E+00 0. -1.
</event>
<event>
 5   0  0.1119792E-02  0.7989764E+03  0.7818609E-02  0.9561500E-01
        2   -1    0    0  501    0  0.00000000000E+00  0.00000000000E+00  0.13293539351E+04  0.13293539352E+04  0.25500000920E-02 0. -1.
       -2   -1    0    0    0  501  0.00000000000E+00  0.00000000000E+00 -0.12005141083E+03  0.12005141085E+03  0.25500000920E-02 0.  1.
    10030    2    1    2    0    0  0.00000000000E+00  0.00000000000E+00  0.12093025243E+04  0.14494053460E+04  0.79897638369E+03 0.  0.
        4    1    3    3  502    0 -0.19824948164E+03  0.10520537549E+03  0.51316800557E+01  0.22449716043E+03  0.12699999809E+01 0.  1.
       -4    1    3    3    0  502  0.19824948164E+03 -0.10520537549E+03  0.12041708443E+04  0.12249081856E+04  0.12699999809E+01 0. -1.
</event>
<event>
 5   0  0.1154714E-02  0.7925404E+03  0.7818609E-02  0.9570878E-01
       -2   -1    0    0    0  501  0.00000000000E+00  0.00000000000E+00  0.69738051028E+02  0.69738051075E+02  0.25500000920E-02 0.  1.
        2   -1    0    0  501    0  0.00000000000E+00  0.00000000000E+00 -0.22517131514E+04  0.22517131514E+04  0.25500000920E-02 0. -1.
    10030    2    1    2    0    0  0.00000000000E+00  0.00000000000E+00 -0.21819751004E+04  0.23214512025E+04  0.79254043861E+03 0.  0.
        5    1    3    3  502    0  0.12333299749E+03 -0.21956473474E+03 -0.19870719105E+04  0.20029719340E+04  0.46999998093E+01 0. -1.
       -5    1    3    3    0  502 -0.12333299749E+03  0.21956473474E+03 -0.19490318987E+03  0.31847926845E+03  0.46999998093E+01 0.  1.
</event>
<event>
 5   0  0.1121480E-02  0.7992909E+03  0.7818609E-02  0.9561044E-01
        2   -1    0    0  501    0  0.00000000000E+00  0.00000000000E+00  0.14431107599E+03  0.14431107602E+03  0.25500000920E-02 0.  1.
       -2   -1    0    0    0  501  0.00000000000E+00  0.00000000000E+00 -0.11067513604E+04  0.11067513604E+04  0.25500000920E-02 0. -1.
    10030    2    1    2    0    0  0.00000000000E+00  0.00000000000E+00 -0.96244028440E+03  0.12510624364E+04  0.79929088495E+03 0.  0.
        2    1    3    3  502    0 -0.28617538565E+03 -0.19337571065E+03 -0.16651465854E+03  0.38342880478E+03  0.25500000920E-02 0.  1.
       -2    1    3    3    0  502  0.28617538565E+03  0.19337571065E+03 -0.79592562587E+03  0.86763363163E+03  0.25500000920E-02 0. -1.
</event>
<event>
 5   0  0.1092868E-02  0.7994159E+03  0.7818609E-02  0.9560863E-01
        2   -1    0    0  501    0  0.00000000000E+00  0.00000000000E+00  0.41806191663E+03  0.41806191663E+03  0.25500000920E-02 0. -1.
       -2   -1    0    0    0  501  0.00000000000E+00  0.00000000000E+00 -0.38215980416E+03  0.38215980417E+03  0.25500000920E-02 0.  1.
    10030    2    1    2    0    0  0.00000000000E+00  0.00000000000E+00  0.35902112468E+02  0.80022172080E+03  0.79941593727E+03 0.  0.
        3    1    3    3  502    0  0.39841087144E+03 -0.59976773159E+01 -0.13691807449E+02  0.39869119680E+03  0.10100000352E+00 0.  1.
       -3    1    3    3    0  502 -0.39841087144E+03  0.59976773159E+01  0.49593919917E+02  0.40153052400E+03  0.10100000352E+00 0. -1.
</event>
<event>
 5   0  0.1121480E-02  0.7911441E+03  0.7818609E-02  0.9572925E-01
        2   -1    0    0  501    0  0.00000000000E+00  0.00000000000E+00  0.27992630211E+03  0.27992630212E+03  0.25500000920E-02 0.  1.
       -2   -1    0    0    0  501  0.00000000000E+00  0.00000000000E+00 -0.55899444767E+03  0.55899444768E+03  0.25500000920E-02 0. -1.
    10030    2    1    2    0    0  0.00000000000E+00  0.00000000000E+00 -0.27906814556E+03  0.83892074980E+03  0.79114410481E+03 0.  0.
        2    1    3    3  502    0 -0.36945739268E+03 -0.74955044968E+02 -0.26660493018E+03  0.46173067104E+03  0.25500000920E-02 0. -1.
       -2    1    3    3    0  502  0.36945739268E+03  0.74955044968E+02 -0.12463215373E+02  0.37719007876E+03  0.25500000920E-02 0.  1.
</event>
<event>
 5   0  0.1092868E-02  0.8025151E+03  0.7818609E-02  0.9556384E-01
       -2   -1    0    0    0  501  0.00000000000E+00  0.00000000000E+00  0.58796413783E+02  0.58796413838E+02  0.25500000920E-02 0. -1.
        2   -1    0    0  501    0  0.00000000000E+00  0.00000000000E+00 -0.27383915429E+04  0.27383915429E+04  0.25500000920E-02 0.  1.
    10030    2    1    2    0    0  0.00000000000E+00  0.00000000000E+00 -0.26795951292E+04  0.27971879568E+04  0.80251505241E+03 0.  0.
        3    1    3    3  502    0 -0.23093703699E+03  0.14638930455E+03 -0.23634147357E+04  0.23791786328E+04  0.10100000352E+00 0.  1.
       -3    1    3    3    0  502  0.23093703699E+03 -0.14638930455E+03 -0.31618039344E+03  0.41800932398E+03  0.10100000352E+00 0. -1.
</event>
<event>
 5   0  0.1092868E-02  0.7946667E+03  0.7818609E-02  0.9567769E-01
        2   -1    0    0  501    0  0.00000000000E+00  0.00000000000E+00  0.73440760037E+03  0.73440760038E+03  0.25500000920E-02 0.  1.
       -2   -1    0    0    0  501  0.00000000000E+00  0.00000000000E+00 -0.21496754096E+03  0.21496754098E+03  0.25500000920E-02 0. -1.
    10030    2    1    2    0    0  0.00000000000E+00  0.00000000000E+00  0.51944005941E+03  0.94937514136E+03  0.79466671234E+03 0.  0.
        3    1    3    3  502    0  0.13420540890E+03  0.21598200243E+03  0.62446935611E+03  0.67425611163E+03  0.10100000352E+00 0.  1.
       -3    1    3    3    0  502 -0.13420540890E+03 -0.21598200243E+03 -0.10502929670E+03  0.27511902973E+03  0.10100000352E+00 0. -1.
</event>
<event>
 5   0  0.1119792E-02  0.8085392E+03  0.7818609E-02  0.9547739E-01
        2   -1    0    0  501    0  0.00000000000E+00  0.00000000000E+00  0.11165789898E+04  0.11165789899E+04  0.25500000920E-02 0. -1.
       -2   -1    0    0    0  501  0.00000000000E+00  0.00000000000E+00 -0.14637022185E+03  0.14637022187E+03  0.25500000920E-02 0.  1.
    10030    2    1    2    0    0  0.00000000000E+00  0.00000000000E+00  0.97020876800E+03  0.12629492117E+04  0.80853921234E+03 0.  0.
        4    1    3    3  502    0 -0.18186345865E+03 -0.35433974171E+03  0.37686990230E+03  0.54832791859E+03  0.12699999809E+01 0.  1.
       -4    1    3    3    0  502  0.18186345865E+03  0.35433974171E+03  0.59333886570E+03  0.71462129313E+03  0.12699999809E+01 0. -1.
</event>
<event>
 5   0  0.6517392E-03  0.8049368E+03  0.7818609E-02  0.9552899E-01
        1   -1    0    0  501    0  0.00000000000E+00  0.00000000000E+00  0.80171700987E+03  0.80171700989E+03  0.50400001928E-02 0. -1.
       -1   -1    0    0    0  501  0.00000000000E+00  0.00000000000E+00 -0.20204238678E+03  0.20204238684E+03  0.50400001928E-02 0.  1.
    10030    2    1    2    0    0  0.00000000000E+00  0.00000000000E+00  0.59967462309E+03  0.10037593967E+04  0.80493681301E+03 0.  0.
        3    1    3    3  502    0 -0.51360420506E+02  0.39618060217E+03  0.23895278894E+03  0.46550554011E+03  0.10100000352E+00 0.  1.
       -3    1    3    3    0  502  0.51360420506E+02 -0.39618060217E+03  0.36072183416E+03  0.53825385662E+03  0.10100000352E+00 0. -1.
</event>
<event>
 5   0  0.6600401E-03  0.8022404E+03  0.7818609E-02  0.9556780E-01
       -1   -1    0    0    0  501  0.00000000000E+00  0.00000000000E+00  0.32919700752E+03  0.32919700756E+03  0.50400001928E-02 0. -1.
        1   -1    0    0  501    0  0.00000000000E+00  0.00000000000E+00 -0.48875718414E+03  0.48875718417E+03  0.50400001928E-02 0.  1.
    10030    2    1    2    0    0  0.00000000000E+00  0.00000000000E+00 -0.15956017662E+03  0.81795419173E+03  0.80224036910E+03 0.  0.
        2    1    3    3  502    0 -0.13841121992E+03 -0.33023909393E+02 -0.46215821274E+03  0.48356846258E+03  0.25500000920E-02 0.  1.
       -2    1    3    3    0  502  0.13841121992E+03  0.33023909393E+02  0.30259803612E+03  0.33438572915E+03  0.25500000920E-02 0. -1.
</event>
<event>
 5   0  0.6600401E-03  0.8051538E+03  0.7818609E-02  0.9552587E-01
        1   -1    0    0  501    0  0.00000000000E+00  0.00000000000E+00  0.14362445187E+04  0.14362445187E+04  0.50400001928E-02 0.  1.
       -1   -1    0    0    0  501  0.00000000000E+00  0.00000000000E+00 -0.11284161968E+03  0.11284161979E+03  0.50400001928E-02 0. -1.
    10030    2    1    2    0    0  0.00000000000E+00  0.00000000000E+00  0.13234028990E+04  0.15490861385E+04  0.80515379360E+03 0.  0.
        2    1    3    3  502    0 -0.26147533677E+03  0.28892781269E+03  0.85619808029E+03  0.94070387763E+03  0.25500000920E-02 0.  1.
       -2    1    3    3    0  502  0.26147533677E+03 -0.28892781269E+03  0.46720481869E+03  0.60838226084E+03  0.25500000920E-02 0. -1.
</event>
<event>
 5   0  0.6517392E-03  0.8012577E+03  0.7818609E-02  0.9558198E-01
        1   -1    0    0  501    0  0.00000000000E+00  0.00000000000E+00  0.30428516933E+03  0.30428516937E+03  0.50400001928E-02 0. -1.
       -1   -1    0    0    0  501  0.00000000000E+00  0.00000000000E+00 -0.52747714202E+03  0.52747714204E+03  0.50400001928E-02 0.  1.
    10030    2    1    2    0    0  0.00000000000E+00  0.00000000000E+00 -0.22319197269E+03  0.83176231142E+03  0.80125769015E+03 0.  0.
        3    1    3    3  502    0 -0.63195563873E+02  0.18917681790E+03  0.24908237057E+03  0.31909808093E+03  0.10100000352E+00 0. -1.
       -3    1    3    3    0  502  0.63195563873E+02 -0.18917681790E+03 -0.47227434326E+03  0.51266423049E+03  0.10100000352E+00 0.  1.
</event>
<event>
 5   0  0.1106332E-02  0.8018351E+03  0.7818609E-02  0.9557365E-01
        2   -1    0    0  501    0  0.00000000000E+00  0.00000000000E+00  0.69165834088E+03  0.69165834088E+03  0.25500000920E-02 0.  1.
       -2   -1    0    0    0  501  0.00000000000E+00  0.00000000000E+00 -0.23239055259E+03  0.23239055261E+03  0.25500000920E-02 0. -1.
    10030    2    1    2    0    0  0.00000000000E+00  0.00000000000E+00  0.45926778828E+03  0.92404889349E+03  0.80183505548E+03 0.  0.
        1    1    3    3  502    0 -0.18499518364E+03  0.12851155107E+03 -0.15257360309E+03  0.27206091434E+03  0.50400001928E-02 0. -1.
       -1    1    3    3    0  502  0.18499518364E+03 -0.12851155107E+03  0.61184139137E+03  0.65198797915E+03  0.50400001928E-02 0.  1.
</event>
<event>
 5   0  0.6517392E-03  0.7895162E+03  0.7818609E-02  0.9575317E-01
       -1   -1    0    0    0  501  0.00000000000E+00  0.00000000000E+00  0.19716617211E+03  0.19716617218E+03  0.50400001928E-02 0.  1.
        1   -1    0    0  501    0  0.00000000000E+00  0.00000000000E+00 -0.79036868186E+03  0.79036868187E+03  0.50400001928E-02 0. -1.
    10030    2    1    2    0    0  0.00000000000E+00  0.00000000000E+00 -0.59320250974E+03  0.98753485405E+03  0.78951622554E+03 0.  0.
        3    1    3    3  502    0  0.14229749190E+03  0.34833202279E+03 -0.14728688869E+03  0.40407575042E+03  0.10100000352E+00 0.  1.
       -3    1    3    3    0  502 -0.14229749190E+03 -0.34833202279E+03 -0.44591562106E+03  0.58345910363E+03  0.10100000352E+00 0. -1.
</event>
<event>
 5   0  0.1092868E-02  0.7947123E+03  0.7818609E-02  0.9567702E-01
       -2   -1    0    0    0  501  0.00000000000E+00  0.00000000000E+00  0.19125227038E+03  0.19125227040E+03  0.25500000920E-02 0. -1.
        2   -1    0    0  501    0  0.00000000000E+00  0.00000000000E+00 -0.82556891580E+03  0.82556891580E+03  0.25500000920E-02 0.  1.
    10030    2    1    2    0    0  0.00000000000E+00  0.00000000000E+00 -0.63431664541E+03  0.10168211862E+04  0.79471234926E+03 0.  0.
        3    1    3    3  502    0 -0.28680573106E+03  0.26983389899E+03 -0.24916418030E+03  0.46599426966E+03  0.10100000352E+00 0.  1.
       -3    1    3    3    0  502  0.28680573106E+03 -0.26983389899E+03 -0.38515246511E+03  0.55082691655E+03  0.10100000352E+00 0. -1.
</event>
<event>
 5   0  0.6557679E-03  0.8021667E+03  0.7818609E-02  0.9556886E-01
        1   -1    0    0  501    0  0.00000000000E+00  0.00000000000E+00  0.14279605684E+04  0.14279605684E+04  0.50400001928E-02 0.  1.
       -1   -1    0    0    0  501  0.00000000000E+00  0.00000000000E+00 -0.11265567759E+03  0.11265567770E+03  0.50400001928E-02 0. -1.
    10030    2    1    2    0    0  0.00000000000E+00  0.00000000000E+00  0.13153048908E+04  0.15406162461E+04  0.80216672954E+03 0.  0.
        1    1    3    3  502    0  0.18185014412E+02 -0.15394173242E+03 -0.52799903245E+02  0.16375769154E+03  0.50400001928E-02 0. -1.
       -1    1    3    3    0  502 -0.18185014412E+02  0.15394173242E+03  0.13681047941E+04  0.13768585546E+04  0.50400001928E-02 0.  1.
</event>
<event>
 5   0  0.1119792E-02  0.7955844E+03  0.7818609E-02  0.9566431E-01
        2   -1    0    0  501    0  0.00000000000E+00  0.00000000000E+00  0.91782009481E+03  0.91782009482E+03  0.25500000920E-02 0.  1.
       -2   -1    0    0    0  501  0.00000000000E+00  0.00000000000E+00 -0.17240704542E+03  0.17240704544E+03  0.25500000920E-02 0. -1.
    10030    2    1    2    0    0  0.00000000000E+00  0.00000000000E+00  0.74541304939E+03  0.10902271403E+04  0.79558444125E+03 0.  0.
        4    1    3    3  502    0 -0.17880946713E+03  0.35284070830E+03  0.43032058304E+03  0.58450560995E+03  0.12699999809E+01 0. -1.
       -4    1    3    3    0  502  0.17880946713E+03 -0.35284070830E+03  0.31509246634E+03  0.50572153031E+03  0.12699999809E+01 0.  1.
</event>
<event>
 5   0  0.1119792E-02  0.8049437E+03  0.7818609E-02  0.9552889E-01
       -2   -1    0    0    0  501  0.00000000000E+00  0.00000000000E+00  0.65850720404E+03  0.65850720405E+03  0.25500000920E-02 0.  1.
        2   -1    0    0  501    0  0.00000000000E+00  0.00000000000E+00 -0.24598604063E+03  0.24598604065E+03  0.25500000920E-02 0. -1.
    10030    2    1    2    0    0  0.00000000000E+00  0.00000000000E+00  0.41252116341E+03  0.90449324470E+03  0.80494367470E+03 0.  0.
        4    1    3    3  502    0 -0.71101488762E+02  0.37462774675E+03  0.35095104674E+03  0.51823703114E+03  0.12699999809E+01 0.  1.
       -4    1    3    3    0  502  0.71101488762E+02 -0.37462774675E+03  0.61570116673E+02  0.38625621355E+03  0.12699999809E+01 0. -1.
</event>
<event>
 5   0  0.6596225E-03  0.8054907E+03  0.7818609E-02  0.9552103E-01
        1   -1    0    0  501    0  0.00000000000E+00  0.00000000000E+00  0.80146695911E+03  0.80146695912E+03  0.50400001928E-02 0.  1.
       -1   -1    0    0    0  501  0.00000000000E+00  0.00000000000E+00 -0.20238366277E+03  0.20238366283E+03  0.50400001928E-02 0. -1.
    10030    2    1    2    0    0  0.00000000000E+00  0.00000000000E+00  0.59908329634E+03  0.10038506220E+04  0.80549070463E+03 0.  0.
        5    1    3    3  502    0  0.72911942203E+01 -0.39264646882E+03  0.18837054591E+03  0.43558003117E+03  0.46999998093E+01 0. -1.
       -5    1    3    3    0  502 -0.72911942203E+01  0.39264646882E+03  0.41071275042E+03  0.56827059078E+03  0.46999998093E+01 0.  1.
</event>
<event>
 5   0  0.6517392E-03  0.7903825E+03  0.7818609E-02  0.9574043E-01
        1   -1    0    0  501    0  0.00000000000E+00  0.00000000000E+00  0.56594098474E+03  0.56594098476E+03  0.50400001928E-02 0.  1.
       -1   -1    0    0    0  501  0.00000000000E+00  0.00000000000E+00 -0.27595830404E+03  0.27595830409E+03  0.50400001928E-02 0. -1.
    10030    2    1    2    0    0  0.00000000000E+00  0.00000000000E+00  0.28998268070E+03  0.84189928885E+03  0.79038247542E+03 0.  0.
        3    1    3    3  502    0 -0.27918760718E+03  0.25146058823E+03  0.27543977989E+03  0.46588113290E+03  0.10100000352E+00 0.  1.
       -3    1    3    3    0  502  0.27918760718E+03 -0.25146058823E+03  0.14542900805E+02  0.37601815595E+03  0.10100000352E+00 0. -1.
</event>
<event>
 5   0  0.6600401E-03  0.7989640E+03  0.7818609E-02  0.9561518E-01
       -1   -1    0    0    0  501  0.00000000000E+00  0.00000000000E+00  0.71331830239E+02  0.71331830418E+02  0.50400001928E-02 0.  1.
        1   -1    0    0  501    0  0.00000000000E+00  0.00000000000E+00 -0.22372323540E+04  0.22372323540E+04  0.50400001928E-02 0. -1.
    10030    2    1    2    0    0  0.00000000000E+00  0.00000000000E+00 -0.21659005238E+04  0.23085641844E+04  0.79896402596E+03 0.  0.
        2    1    3    3  502    0  0.26842294487E+03 -0.98945804667E+02 -0.18886073005E+04  0.19101514822E+04  0.25500000920E-02 0. -1.
       -2    1    3    3    0  502 -0.26842294487E+03  0.98945804667E+02 -0.27729322328E+03  0.39841270221E+03  0.25500000920E-02 0.  1.
</event>
<event>
 5   0  0.1119792E-02  0.8025493E+03  0.7818609E-02  0.9556334E-01
        2   -1    0    0  501    0  0.00000000000E+00  0.00000000000E+00  0.17122616747E+03  0.17122616748E+03  0.25500000920E-02 0. -1.
       -2   -1    0    0    0  501  0.00000000000E+00  0.00000000000E+00 -0.94040140658E+03  0.94040140658E+03  0.25500000920E-02 0.  1.
    10030    2    1    2    0    0  0.00000000000E+00  0.00000000000E+00 -0.76917523911E+03  0.11116275741E+04  0.80254926015E+03 0.  0.
        4    1    3    3  502    0 -0.27135071209E+03  0.29110034622E+02 -0.79206063182E+03  0.83775907064E+03  0.12699999809E+01 0.  1.
       -4    1    3    3    0  502  0.27135071209E+03 -0.29110034622E+02  0.22885392702E+02  0.27386850343E+03  0.12699999809E+01 0. -1.
</event>
<event>
 5   0  0.6517392E-03  0.8005825E+03  0.7818609E-02  0.9559174E-01
       -1   -1    0    0    0  501  0.00000000000E+00  0.00000000000E+00  0.32158841947E+03  0.32158841951E+03  0.50400001928E-02 0. -1.
        1   -1    0    0  501    0  0.00000000000E+00  0.00000000000E+00 -0.49825515936E+03  0.49825515938E+03  0.50400001928E-02 0.  1.
    10030    2    1    2    0    0  0.00000000000E+00  0.00000000000E+00 -0.17666673989E+03  0.81984357890E+03  0.80058251097E+03 0.  0.
        3    1    3    3  502    0 -0.25051334306E+03  0.30272666251E+03 -0.10123752933E+02  0.39306852814E+03  0.10100000352E+00 0. -1.
       -3    1    3    3    0  502  0.25051334306E+03 -0.30272666251E+03 -0.16654298695E+03  0.42677505075E+03  0.10100000352E+00 0.  1.
</event>
<event>
 5   0  0.1121480E-02  0.7980714E+03  0.7818609E-02  0.9562813E-01
       -2   -1    0    0    0  501  0.00000000000E+00  0.00000000000E+00  0.31424040112E+03  0.31424040113E+03  0.25500000920E-02 0.  1.
        2   -1    0    0  501    0  0.00000000000E+00  0.00000000000E+00 -0.50671240606E+03  0.50671240607E+03  0.25500000920E-02 0. -1.
    10030    2    1    2    0    0  0.00000000000E+00  0.00000000000E+00 -0.19247200495E+03  0.82095280720E+03  0.79807144978E+03 0.  0.
        2    1    3    3  502    0  0.28165692042E+03  0.11976884992E+02 -0.38674299063E+03  0.47858563225E+03  0.25500000920E-02 0. -1.
       -2    1    3    3    0  502 -0.28165692042E+03 -0.11976884992E+02  0.19427098568E+03  0.34236717494E+03  0.25500000920E-02 0.  1.
</event>
<event>
 5   0  0.1119792E-02  0.8049510E+03  0.7818609E-02  0.9552878E-01
        2   -1    0    0  501    0  0.00000000000E+00  0.00000000000E+00  0.64417313112E+03  0.64417313112E+03  0.25500000920E-02 0. -1.
       -2   -1    0    0    0  501  0.00000000000E+00  0.00000000000E+00 -0.25146425867E+03  0.25146425869E+03  0.25500000920E-02 0.  1.
    10030    2    1    2    0    0  0.00000000000E+00  0.00000000000E+00  0.39270887244E+03  0.89563738981E+03  0.80495097710E+03 0.  0.
        4    1    3    3  502    0 -0.13324943341E+03 -0.29060746439E+03 -0.75683267842E+02  0.32853870365E+03  0.12699999809E+01 0.  1.
       -4    1    3    3    0  502  0.13324943341E+03  0.29060746439E+03  0.46839214028E+03  0.56709868616E+03  0.12699999809E+01 0. -1.
</event>
<event>
 5   0  0.6596225E-03  0.7999031E+03  0.7818609E-02  0.9560157E-01
        1   -1    0    0  501    0  0.00000000000E+00  0.00000000000E+00  0.10606135553E+04  0.10606135554E+04  0.50400001928E-02 0.  1.
       -1   -1    0    0    0  501  0.00000000000E+00  0.00000000000E+00 -0.15081954006E+03  0.15081954014E+03  0.50400001928E-02 0. -1.
    10030    2    1    2    0    0  0.00000000000E+00  0.00000000000E+00  0.90979401528E+03  0.12114330955E+04  0.79990311577E+03 0.  0.
        5    1    3    3  502    0  0.24850406146E+03  0.87309095713E+02 -0.86180679002E+00  0.26343875847E+03  0.46999998093E+01 0. -1.
       -5    1    3    3    0  502 -0.24850406146E+03 -0.87309095713E+02  0.91065582207E+03  0.94799433702E+03  0.46999998093E+01 0.  1.
</event>
<event>
 5   0  0.4385875E-03  0.7971106E+03  0.7818609E-02  0.9564209E-01
       -4   -1    0    0    0  501  0.00000000000E+00  0.00000000000E+00  0.24616060633E+03  0.24616388242E+03  0.12699999809E+01 0.  1.
        4   -1    0    0  501    0  0.00000000000E+00  0.00000000000E+00 -0.64528733811E+03  0.64528858786E+03  0.12699999809E+01 0. -1.
    10030    2    1    2    0    0  0.00000000000E+00  0.00000000000E+00 -0.39912673178E+03  0.89145247028E+03  0.79711063143E+03 0.  0.
        3    1    3    3  502    0 -0.48285802274E+02 -0.33768412548E+03 -0.43007536077E+03  0.54893252175E+03  0.10100000352E+00 0. -1.
       -3    1    3    3    0  502  0.48285802274E+02  0.33768412548E+03  0.30948628983E+02  0.34251994852E+03  0.10100000352E+00 0.  1.
</event>
<event>
 5   0  0.1121480E-02  0.7975736E+03  0.7818609E-02  0.9563536E-01
       -2   -1    0    0    0  501  0.00000000000E+00  0.00000000000E+00  0.17570727599E+03  0.17570727601E+03  0.25500000920E-02 0. -1.
        2   -1    0    0  501    0  0.00000000000E+00  0.00000000000E+00 -0.90509011439E+03  0.90509011439E+03  0.25500000920E-02 0.  1.
    10030    2    1    2    0    0  0.00000000000E+00  0.00000000000E+00 -0.72938283840E+03  0.10807973904E+04  0.79757361675E+03 0.  0.
        2    1    3    3  502    0 -0.14930492262E+03  0.36690323118E+03 -0.30228323528E+03  0.49828214428E+03  0.25500000920E-02 0. -1.
       -2    1    3    3    0  502  0.14930492262E+03 -0.36690323118E+03 -0.42709960312E+03  0.58251524612E+03  0.25500000920E-02 0.  1.
</event>
<event>
 5   0  0.1092868E-02  0.7962911E+03  0.7818609E-02  0.9565401E-01
        2   -1    0    0  501    0  0.00000000000E+00  0.00000000000E+00  0.12185553032E+03  0.12185553034E+03  0.25500000920E-02 0. -1.
       -2   -1    0    0    0  501  0.00000000000E+00  0.00000000000E+00 -0.13008838734E+04  0.13008838734E+04  0.25500000920E-02 0.  1.
    10030    2    1    2    0    0  0.00000000000E+00  0.00000000000E+00 -0.11790283431E+04  0.14227394038E+04  0.79629113846E+03 0.  0.
        3    1    3    3  502    0 -0.21664884100E+02  0.22279224624E+03 -0.11778108894E+04  0.11988929283E+04  0.10100000352E+00 0.  1.
       -3    1    3    3    0  502  0.21664884100E+02 -0.22279224624E+03 -0.12174537386E+01  0.22384647548E+03  0.10100000352E+00 0. -1.
</event>
<event>
 5   0  0.1154714E-02  0.8015269E+03  0.7818609E-02  0.9557810E-01
        2   -1    0    0  501    0  0.00000000000E+00  0.00000000000E+00  0.30215150488E+03  0.30215150489E+03  0.25500000920E-02 0.  1.
       -2   -1    0    0    0  501  0.00000000000E+00  0.00000000000E+00 -0.53155901408E+03  0.53155901409E+03  0.25500000920E-02 0. -1.
    10030    2    1    2    0    0  0.00000000000E+00  0.00000000000E+00 -0.22940750921E+03  0.83371051898E+03  0.80152693291E+03 0.  0.
        5    1    3    3  502    0  0.26744045299E+03 -0.25868596003E+03  0.40088478122E+02  0.37426193753E+03  0.46999998093E+01 0.  1.
       -5    1    3    3    0  502 -0.26744045299E+03  0.25868596003E+03 -0.26949598733E+03  0.45944858145E+03  0.46999998093E+01 0. -1.
</event>
<event>
 5   0  0.6600401E-03  0.7988833E+03  0.7818609E-02  0.9561635E-01
        1   -1    0    0  501    0  0.00000000000E+00  0.00000000000E+00  0.83286467273E+03  0.83286467275E+03  0.50400001928E-02 0.  1.
       -1   -1    0    0    0  501  0.00000000000E+00  0.00000000000E+00 -0.19157211902E+03  0.19157211909E+03  0.50400001928E-02 0. -1.
    10030    2    1    2    0    0  0.00000000000E+00  0.00000000000E+00  0.64129255371E+03  0.10244367918E+04  0.79888334631E+03 0.  0.
        2    1    3    3  502    0 -0.67936233980E+02 -0.27848266257E+03 -0.36077639571E+02  0.28891092282E+03  0.25500000920E-02 0. -1.
       -2    1    3    3    0  502  0.67936233980E+02  0.27848266257E+03  0.67737019328E+03  0.73552586902E+03  0.25500000920E-02 0.  1.
</event>
<event>
 5   0  0.1121480E-02  0.8038635E+03  0.7818609E-02  0.9554442E-01
       -2   -1    0    0    0  501  0.00000000000E+00  0.00000000000E+00  0.16334002441E+03  0.16334002443E+03  0.25500000920E-02 0. -1.
        2   -1    0    0  501    0  0.00000000000E+00  0.00000000000E+00 -0.98903586035E+03  0.98903586036E+03  0.25500000920E-02 0.  1.
    10030    2    1    2    0    0  0.00000000000E+00  0.00000000000E+00 -0.82569583594E+03  0.11523758848E+04  0.80386352471E+03 0.  0.
        2    1    3    3  502    0  0.39931699776E+03 -0.45603687247E+02 -0.41847001509E+03  0.58021626531E+03  0.25500000920E-02 0.  1.
       -2    1    3    3    0  502 -0.39931699776E+03  0.45603687247E+02 -0.40722582085E+03  0.57215961948E+03  0.25500000920E-02 0. -1.
</event>
<event>
 5   0  0.6600401E-03  0.7993402E+03  0.7818609E-02  0.9560973E-01
       -1   -1    0    0    0  501  0.00000000000E+00  0.00000000000E+00  0.23896313640E+03  0.23896313646E+03  0.50400001928E-02 0.  1.
        1   -1    0    0  501    0  0.00000000000E+00  0.00000000000E+00 -0.66845543941E+03  0.66845543943E+03  0.50400001928E-02 0. -1.
    10030    2    1    2    0    0  0.00000000000E+00  0.00000000000E+00 -0.42949230301E+03  0.90741857589E+03  0.79934024891E+03 0.  0.
        2    1    3    3  502    0 -0.13319483916E+03 -0.11462881520E+03  0.19275383216E+03  0.26083456495E+03  0.25500000920E-02 0.  1.
       -2    1    3    3    0  502  0.13319483916E+03  0.11462881520E+03 -0.62224613517E+03  0.64658401094E+03  0.25500000920E-02 0. -1.
</event>
<event>
 5   0  0.1154714E-02  0.7999412E+03  0.7818609E-02  0.9560102E-01
        2   -1    0    0  501    0  0.00000000000E+00  0.00000000000E+00  0.21044288000E+04  0.21044288000E+04  0.25500000920E-02 0.  1.
       -2   -1    0    0    0  501  0.00000000000E+00  0.00000000000E+00 -0.76018960773E+02  0.76018960816E+02  0.25500000920E-02 0. -1.
    10030    2    1    2    0    0  0.00000000000E+00  0.00000000000E+00  0.20284098392E+04  0.21804477608E+04  0.79994122396E+03 0.  0.
        5    1    3    3  502    0  0.29144072081E+03 -0.25916996786E+03  0.12556714774E+04  0.13148534956E+04  0.46999998093E+01 0.  1.
       -5    1    3    3    0  502 -0.29144072081E+03  0.25916996786E+03  0.77273836188E+03  0.86559426517E+03  0.46999998093E+01 0. -1.
</event>
<event>
 5   0  0.6551489E-03  0.7947925E+03  0.7818609E-02  0.9567585E-01
        1   -1    0    0  501    0  0.00000000000E+00  0.00000000000E+00  0.69200165628E+03  0.69200165629E+03  0.50400001928E-02 0. -1.
       -1   -1    0    0    0  501  0.00000000000E+00  0.00000000000E+00 -0.22821300460E+03  0.22821300465E+03  0.50400001928E-02 0.  1.
    10030    2    1    2    0    0  0.00000000000E+00  0.00000000000E+00  0.46378865168E+03  0.92021466095E+03  0.79479249417E+03 0.  0.
        4    1    3    3  502    0 -0.23588708023E+03  0.23285247418E+03 -0.21924333897E+02  0.33218259838E+03  0.12699999809E+01 0.  1.
       -4    1    3    3    0  502  0.23588708023E+03 -0.23285247418E+03  0.48571298558E+03  0.58803206257E+03  0.12699999809E+01 0. -1.
</event>
<event>
 5   0  0.6600401E-03  0.7916581E+03  0.7818609E-02  0.9572171E-01
        1   -1    0    0  501    0  0.00000000000E+00  0.00000000000E+00  0.40041379428E+03  0.40041379431E+03  0.50400001928E-02 0.  1.
       -1   -1    0    0    0  501  0.00000000000E+00  0.00000000000E+00 -0.39129676382E+03  0.39129676386E+03  0.50400001928E-02 0. -1.
    10030    2    1    2    0    0  0.00000000000E+00  0.00000000000E+00  0.91170304515E+01  0.79171055816E+03  0.79165806234E+03 0.  0.
        2    1    3    3  502    0 -0.16595091374E+03  0.23079300511E+02 -0.35408520623E+03  0.39172527766E+03  0.25500000920E-02 0. -1.
       -2    1    3    3    0  502  0.16595091374E+03 -0.23079300511E+02  0.36320223668E+03  0.39998528050E+03  0.25500000920E-02 0.  1.
</event>
<event>
 5   0  0.6557679E-03  0.7982678E+03  0.7818609E-02  0.9562528E-01
        1   -1    0    0  501    0  0.00000000000E+00  0.00000000000E+00  0.21651725862E+03  0.21651725868E+03  0.50400001928E-02 0.  1.
       -1   -1    0    0    0  501  0.00000000000E+00  0.00000000000E+00 -0.73577437496E+03  0.73577437498E+03  0.50400001928E-02 0. -1.
    10030    2    1    2    0    0  0.00000000000E+00  0.00000000000E+00 -0.51925711634E+03  0.95229163366E+03  0.79826775124E+03 0.  0.
        1    1    3    3  502    0  0.78576804805E+02  0.39127284094E+03 -0.26708809099E+03  0.48021328457E+03  0.50400001928E-02 0.  1.
       -1    1    3    3    0  502 -0.78576804805E+02 -0.39127284094E+03 -0.25216902535E+03  0.47207834909E+03  0.50400001928E-02 0. -1.
</event>
<event>
 5   0  0.1154714E-02  0.8004780E+03  0.7818609E-02  0.9559326E-01
       -2   -1    0    0    0  501  0.00000000000E+00  0.00000000000E+00  0.95486526227E+02  0.95486526261E+02  0.25500000920E-02 0. -1.
        2   -1    0    0  501    0  0.00000000000E+00  0.00000000000E+00 -0.16776319648E+04  0.16776319648E+04  0.25500000920E-02 0.  1.
    10030    2    1    2    0    0  0.00000000000E+00  0.00000000000E+00 -0.15821454386E+04  0.17731184911E+04  0.80047797882E+03 0.  0.
        5    1    3    3  502    0 -0.15990115321E+03 -0.34952172108E+03 -0.54406113986E+03  0.66615195429E+03  0.46999998093E+01 0. -1.
       -5    1    3    3    0  502  0.15990115321E+03  0.34952172108E+03 -0.10380842988E+04  0.11069665368E+04  0.46999998093E+01 0.  1.
</event>
<event>
 5   0  0.6596225E-03  0.7976926E+03  0.7818609E-02  0.9563363E-01
        1   -1    0    0  501    0  0.00000000000E+00  0.00000000000E+00  0.32876228628E+03  0.32876228632E+03  0.50400001928E-02 0. -1.
       -1   -1    0    0    0  501  0.00000000000E+00  0.00000000000E+00 -0.48387054275E+03  0.48387054278E+03  0.50400001928E-02 0.  1.
    10030    2    1    2    0    0  0.00000000000E+00  0.00000000000E+00 -0.15510825647E+03  0.81263282910E+03  0.79769263736E+03 0.  0.
        5    1    3    3  502    0  0.28665265490E+03  0.21711072986E+03 -0.25326494043E+03  0.43985455963E+03  0.46999998093E+01 0.  1.
       -5    1    3    3    0  502 -0.28665265490E+03 -0.21711072986E+03  0.98156683958E+02  0.37277826946E+03  0.46999998093E+01 0. -1.
</event>
<event>
 5   0  0.6517392E-03  0.7899019E+03  0.7818609E-02  0.9574750E-01
        1   -1    0    0  501    0  0.00000000000E+00  0.00000000000E+00  0.57302477093E+03  0.57302477095E+03  0.50400001928E-02 0. -1.
       -1   -1    0    0    0  501  0.00000000000E+00  0.00000000000E+00 -0.27221556149E+03  0.27221556153E+03  0.50400001928E-02 0.  1.
    10030    2    1    2    0    0  0.00000000000E+00  0.00000000000E+00  0.30080920944E+03  0.84524033248E+03  0.78990191744E+03 0.  0.
        3    1    3    3  502    0 -0.92730939893E+02  0.38028699532E+03  0.94096569908E+02  0.40258092440E+03  0.10100000352E+00 0.  1.
       -3    1    3    3    0  502  0.92730939893E+02 -0.38028699532E+03  0.20671263953E+03  0.44265940808E+03  0.10100000352E+00 0. -1.
</event>
<event>
 5   0  0.1106332E-02  0.8105426E+03  0.7818609E-02  0.9544881E-01
       -2   -1    0    0    0  501  0.00000000000E+00  0.00000000000E+00  0.11119142706E+03  0.11119142709E+03  0.25500000920E-02 0. -1.
        2   -1    0    0  501    0  0.00000000000E+00  0.00000000000E+00 -0.14771357310E+04  0.14771357310E+04  0.25500000920E-02 0.  1.
    10030    2    1    2    0    0  0.00000000000E+00  0.00000000000E+00 -0.13659443039E+04  0.15883271581E+04  0.81054260815E+03 0.  0.
        1    1    3    3  502    0 -0.29539634429E+03 -0.25712985106E+03 -0.47866655243E+03  0.61846295683E+03  0.50400001928E-02 0. -1.
       -1    1    3    3    0  502  0.29539634429E+03  0.25712985106E+03 -0.88727775148E+03  0.96986420123E+03  0.50400001928E-02 0.  1.
</event>
<event>
 5   0  0.6557679E-03  0.7990966E+03  0.7818609E-02  0.9561326E-01
       -1   -1    0    0    0  501  0.00000000000E+00  0.00000000000E+00  0.49254478844E+03  0.49254478846E+03  0.50400001928E-02 0. -1.
        1   -1    0    0  501    0  0.00000000000E+00  0.00000000000E+00 -0.32411028691E+03  0.32411028695E+03  0.50400001928E-02 0.  1.
    10030    2    1    2    0    0  0.00000000000E+00  0.00000000000E+00  0.16843450153E+03  0.81665507541E+03  0.79909657169E+03 0.  0.
        1    1    3    3  502    0  0.12865377825E+03  0.17880221714E+03  0.42488362723E+03  0.47858972432E+03  0.50400001928E-02 0. -1.
       -1    1    3    3    0  502 -0.12865377825E+03 -0.17880221714E+03 -0.25644912570E+03  0.33806535109E+03  0.50400001928E-02 0.  1.
</event>
<event>
 5   0  0.1092868E-02  0.7886849E+03  0.7818609E-02  0.9576541E-01
        2   -1    0    0  501    0  0.00000000000E+00  0.00000000000E+00  0.77603774092E+03  0.77603774093E+03  0.25500000920E-02 0. -1.
       -2   -1    0    0    0  501  0.00000000000E+00  0.00000000000E+00 -0.20038453222E+03  0.20038453223E+03  0.25500000920E-02 0.  1.
    10030    2    1    2    0    0  0.00000000000E+00  0.00000000000E+00  0.57565320871E+03  0.97642227316E+03  0.78868487930E+03 0.  0.
        3    1    3    3  502    0  0.44865706988E+02  0.14456840352E+03 -0.16298434165E+03  0.22243394702E+03  0.10100000352E+00 0.  1.
       -3    1    3    3    0  502 -0.44865706988E+02 -0.14456840352E+03  0.73863755036E+03  0.75398832614E+03  0.10100000352E+00 0. -1.
</event>
<event>
 5   0  0.6557679E-03  0.7965509E+03  0.7818609E-02  0.9565023E-01
        1   -1    0    0  501    0  0.00000000000E+00  0.00000000000E+00  0.22404081809E+03  0.22404081815E+03  0.50400001928E-02 0.  1.
       -1   -1    0    0    0  501  0.00000000000E+00  0.00000000000E+00 -0.70801091044E+03  0.70801091046E+03  0.50400001928E-02 0. -1.
    10030    2    1    2    0    0  0.00000000000E+00  0.00000000000E+00 -0.48397009235E+03  0.93205172861E+03  0.79655092400E+03 0.  0.
        1    1    3    3  502    0  0.34969385563E+03 -0.50575710203E+02 -0.45704226913E+03  0.57769484239E+03  0.50400001928E-02 0. -1.
       -1    1    3    3    0  502 -0.34969385563E+03  0.50575710203E+02 -0.26927823224E+02  0.35435688623E+03  0.50400001928E-02 0.  1.
</event>
<event>
 5   0  0.6551489E-03  0.8056279E+03  0.7818609E-02  0.9551906E-01
       -1   -1    0    0    0  501  0.00000000000E+00  0.00000000000E+00  0.73849219729E+03  0.73849219731E+03  0.50400001928E-02 0. -1.
        1   -1    0    0  501    0  0.00000000000E+00  0.00000000000E+00 -0.21971671821E+03  0.21971671827E+03  0.50400001928E-02 0.  1.
    10030    2    1    2    0    0  0.00000000000E+00  0.00000000000E+00  0.51877547908E+03  0.95820891558E+03  0.80562790927E+03 0.  0.
        4    1    3    3  502    0  0.30081288043E+03  0.47705984875E+02  0.57293060232E+03  0.64885694726E+03  0.12699999809E+01 0. -1.
       -4    1    3    3    0  502 -0.30081288043E+03 -0.47705984875E+02 -0.54155123243E+02  0.30935196832E+03  0.12699999809E+01 0.  1.
</event>
<event>
 5   0  0.1106332E-02  0.7980308E+03  0.7818609E-02  0.9562872E-01
       -2   -1    0    0    0  501  0.00000000000E+00  0.00000000000E+00  0.88624328173E+02  0.88624328210E+02  0.25500000920E-02 0.  1.
        2   -1    0    0  501    0  0.00000000000E+00  0.00000000000E+00 -0.17964963357E+04  0.17964963357E+04  0.25500000920E-02 0. -1.
    10030    2    1    2    0    0  0.00000000000E+00  0.00000000000E+00 -0.17078720075E+04  0.18851206639E+04  0.79803077848E+03 0.  0.
        1    1    3    3  502    0 -0.26549885050E+03  0.28394473052E+02 -0.15543533908E+04  0.15771209051E+04  0.50400001928E-02 0. -1.
       -1    1    3    3    0  502  0.26549885050E+03 -0.28394473052E+02 -0.15351861666E+03  0.30799975877E+03  0.50400001928E-02 0.  1.
</event>
<event>
 5   0  0.6557679E-03  0.8290326E+03  0.7818609E-02  0.9518919E-01
       -1   -1    0    0    0  501  0.00000000000E+00  0.00000000000E+00  0.12349337846E+03  0.12349337856E+03  0.50400001928E-02 0. -1.
        1   -1    0    0  501    0  0.00000000000E+00  0.00000000000E+00 -0.13913601646E+04  0.13913601646E+04  0.50400001928E-02 0.  1.
    10030    2    1    2    0    0  0.00000000000E+00  0.00000000000E+00 -0.12678667861E+04  0.15148535431E+04  0.82903261085E+03 0.  0.
        1    1    3    3  502    0 -0.28916871111E+03  0.26501659717E+03 -0.87889065357E+03  0.96244538609E+03  0.50400001928E-02 0.  1.
       -1    1    3    3    0  502  0.28916871111E+03 -0.26501659717E+03 -0.38897613254E+03  0.55240815705E+03  0.50400001928E-02 0. -1.
</event>
<event>
 5   0  0.6557679E-03  0.7966072E+03  0.7818609E-02  0.9564941E-01
       -1   -1    0    0    0  501  0.00000000000E+00  0.00000000000E+00  0.24040376688E+03  0.24040376694E+03  0.50400001928E-02 0.  1.
        1   -1    0    0  501    0  0.00000000000E+00  0.00000000000E+00 -0.65991372347E+03  0.65991372349E+03  0.50400001928E-02 0. -1.
    10030    2    1    2    0    0  0.00000000000E+00  0.00000000000E+00 -0.41950995659E+03  0.90031749042E+03  0.79660716786E+03 0.  0.
        1    1    3    3  502    0  0.28171558829E+03 -0.22624643278E+03 -0.20318727950E+02  0.36188944688E+03  0.50400001928E-02 0.  1.
       -1    1    3    3    0  502 -0.28171558829E+03  0.22624643278E+03 -0.39919122863E+03  0.53842804354E+03  0.50400001928E-02 0. -1.
</event>
<event>
 5   0  0.1092868E-02  0.7991850E+03  0.7818609E-02  0.9561198E-01
        2   -1    0    0  501    0  0.00000000000E+00  0.00000000000E+00  0.46447380984E+03  0.46447380984E+03  0.25500000920E-02 0. -1.
       -2   -1    0    0    0  501  0.00000000000E+00  0.00000000000E+00 -0.34377431662E+03  0.34377431663E+03  0.25500000920E-02 0.  1.
    10030    2    1    2    0    0  0.00000000000E+00  0.00000000000E+00  0.12069949322E+03  0.80824812647E+03  0.79918500129E+03 0.  0.
        3    1    3    3  502    0  0.11757719171E+03 -0.10427298187E+03 -0.31120868047E+03  0.34863749620E+03  0.10100000352E+00 0.  1.
       -3    1    3    3    0  502 -0.11757719171E+03  0.10427298187E+03  0.43190817369E+03  0.45961063027E+03  0.10100000352E+00 0. -1.
</event>
<event>
 5   0  0.1154714E-02  0.7819987E+03  0.7818609E-02  0.9586445E-01
       -2   -1    0    0    0  501  0.00000000000E+00  0.00000000000E+00  0.20383552362E+03  0.20383552363E+03  0.25500000920E-02 0.  1.
        2   -1    0    0  501    0  0.00000000000E+00  0.00000000000E+00 -0.75001892960E+03  0.75001892960E+03  0.25500000920E-02 0. -1.
    10030    2    1    2    0    0  0.00000000000E+00  0.00000000000E+00 -0.54618340598E+03  0.95385445324E+03  0.78199872442E+03 0.  0.
        5    1    3    3  502    0  0.88376492609E+02 -0.12098947391E+03 -0.71357634597E+03  0.72915166376E+03  0.46999998093E+01 0. -1.
       -5    1    3    3    0  502 -0.88376492609E+02  0.12098947391E+03  0.16739293998E+03  0.22470278948E+03  0.46999998093E+01 0.  1.
</event>
<event>
 5   0  0.1121480E-02  0.7992223E+03  0.7818609E-02  0.9561143E-01
       -2   -1    0    0    0  501  0.00000000000E+00  0.00000000000E+00  0.52047785138E+03  0.52047785138E+03  0.25500000920E-02 0.  1.
        2   -1    0    0  501    0  0.00000000000E+00  0.00000000000E+00 -0.30681241647E+03  0.30681241648E+03  0.25500000920E-02 0. -1.
    10030    2    1    2    0    0  0.00000000000E+00  0.00000000000E+00  0.21366543491E+03  0.82729026786E+03  0.79922229025E+03 0.  0.
        2    1    3    3  502    0  0.28637900822E+03 -0.23988460617E+03 -0.40035717574E+02  0.37571321419E+03  0.25500000920E-02 0. -1.
       -2    1    3    3    0  502 -0.28637900822E+03  0.23988460617E+03  0.25370115248E+03  0.45157705367E+03  0.25500000920E-02 0.  1.
</event>
<event>
 5   0  0.1121480E-02  0.7969596E+03  0.7818609E-02  0.9564428E-01
       -2   -1    0    0    0  501  0.00000000000E+00  0.00000000000E+00  0.94623604348E+03  0.94623604349E+03  0.25500000920E-02 0.  1.
        2   -1    0    0  501    0  0.00000000000E+00  0.00000000000E+00 -0.16780819216E+03  0.16780819218E+03  0.25500000920E-02 0. -1.
    10030    2    1    2    0    0  0.00000000000E+00  0.00000000000E+00  0.77842785133E+03  0.11140442357E+04  0.79695962212E+03 0.  0.
        2    1    3    3  502    0 -0.19189450514E+03 -0.21000073319E+03 -0.84468823299E+00  0.28447235815E+03  0.25500000920E-02 0. -1.
       -2    1    3    3    0  502  0.19189450514E+03  0.21000073319E+03  0.77927253956E+03  0.82957187751E+03  0.25500000920E-02 0.  1.
</event>
<event>
 5   0  0.1092868E-02  0.7998681E+03  0.7818609E-02  0.9560208E-01
        2   -1    0    0  501    0  0.00000000000E+00  0.00000000000E+00  0.14481224615E+04  0.14481224615E+04  0.25500000920E-02 0. -1.
       -2   -1    0    0    0  501  0.00000000000E+00  0.00000000000E+00 -0.11045147333E+03  0.11045147335E+03  0.25500000920E-02 0.  1.
    10030    2    1    2    0    0  0.00000000000E+00  0.00000000000E+00  0.13376709882E+04  0.15585739348E+04  0.79986813776E+03 0.  0.
        3    1    3    3  502    0  0.14249654414E+03  0.16626534218E+02  0.13962579713E+04  0.14036089339E+04  0.10100000352E+00 0. -1.
       -3    1    3    3    0  502 -0.14249654414E+03 -0.16626534218E+02 -0.58586983113E+02  0.15496500096E+03  0.10100000352E+00 0.  1.
</event>
<event>
 5   0  0.6600401E-03  0.7964975E+03  0.7818609E-02  0.9565101E-01
       -1   -1    0    0    0  501  0.00000000000E+00  0.00000000000E+00  0.18284329013E+03  0.18284329020E+03  0.50400001928E-02 0. -1.
        1   -1    0    0  501    0  0.00000000000E+00  0.00000000000E+00 -0.86742078407E+03  0.86742078408E+03  0.50400001928E-02 0.  1.
    10030    2    1    2    0    0  0.00000000000E+00  0.00000000000E+00 -0.68457749394E+03  0.10502640743E+04  0.79649750817E+03 0.  0.
        2    1    3    3  502    0 -0.63978195750E+02 -0.75224491578E+01  0.17592775821E+03  0.18735093511E+03  0.25500000920E-02 0. -1.
       -2    1    3    3    0  502  0.63978195750E+02  0.75224491578E+01 -0.86050525215E+03  0.86291313917E+03  0.25500000920E-02 0.  1.
</event>
<event>
 5   0  0.1106332E-02  0.8009013E+03  0.7818609E-02  0.9558713E-01
        2   -1    0    0  501    0  0.00000000000E+00  0.00000000000E+00  0.48832105651E+03  0.48832105652E+03  0.25500000920E-02 0.  1.
       -2   -1    0    0    0  501  0.00000000000E+00  0.00000000000E+00 -0.32839199567E+03  0.32839199568E+03  0.25500000920E-02 0. -1.
    10030    2    1    2    0    0  0.00000000000E+00  0.00000000000E+00  0.15992906084E+03  0.81671305220E+03  0.80090130798E+03 0.  0.
        1    1    3    3  502    0  0.46205734897E+02 -0.20880700862E+03 -0.26528325818E+03  0.34074997268E+03  0.50400001928E-02 0. -1.
       -1    1    3    3    0  502 -0.46205734897E+02  0.20880700862E+03  0.42521231902E+03  0.47596307952E+03  0.50400001928E-02 0.  1.
</event>
<event>
 5   0  0.6557679E-03  0.8193129E+03  0.7818609E-02  0.9532476E-01
        1   -1    0    0  501    0  0.00000000000E+00  0.00000000000E+00  0.89504520001E+03  0.89504520002E+03  0.50400001928E-02 0.  1.
       -1   -1    0    0    0  501  0.00000000000E+00  0.00000000000E+00 -0.18749714283E+03  0.18749714290E+03  0.50400001928E-02 0. -1.
    10030    2    1    2    0    0  0.00000000000E+00  0.00000000000E+00  0.70754805717E+03  0.10825423429E+04  0.81931292619E+03 0.  0.
        1    1    3    3  502    0 -0.16339580756E+03  0.36628681117E+03  0.46395806216E+03  0.61328729110E+03  0.50400001928E-02 0.  1.
       -1    1    3    3    0  502  0.16339580756E+03 -0.36628681117E+03  0.24358999501E+03  0.46925505182E+03  0.50400001928E-02 0. -1.
</event>
<event>
 5   0  0.6517392E-03  0.7876851E+03  0.7818609E-02  0.9578015E-01
        1   -1    0    0  501    0  0.00000000000E+00  0.00000000000E+00  0.74768174479E+03  0.74768174480E+03  0.50400001928E-02 0. -1.
       -1   -1    0    0    0  501  0.00000000000E+00  0.00000000000E+00 -0.20745720787E+03  0.20745720793E+03  0.50400001928E-02 0.  1.
    10030    2    1    2    0    0  0.00000000000E+00  0.00000000000E+00  0.54022453691E+03  0.95513895274E+03  0.78768513300E+03 0.  0.
        3    1    3    3  502    0 -0.23372782289E+03  0.10859671696E+03 -0.91007507447E+02  0.27332090798E+03  0.10100000352E+00 0.  1.
       -3    1    3    3    0  502  0.23372782289E+03 -0.10859671696E+03  0.63123204436E+03  0.68181804476E+03  0.10100000352E+00 0. -1.
</event>
<event>
 5   0  0.6551489E-03  0.8043493E+03  0.7818609E-02  0.9553743E-01
       -1   -1    0    0    0  501  0.00000000000E+00  0.00000000000E+00  0.10686257225E+03  0.10686257237E+03  0.50400001928E-02 0. -1.
        1   -1    0    0  501    0  0.00000000000E+00  0.00000000000E+00 -0.15135742735E+04  0.15135742735E+04  0.50400001928E-02 0.  1.
    10030    2    1    2    0    0  0.00000000000E+00  0.00000000000E+00 -0.14067117013E+04  0.16204368459E+04  0.80434927802E+03 0.  0.
        4    1    3    3  502    0  0.86048643057E+02  0.37116812908E+03 -0.96270437666E+03  0.10353605550E+04  0.12699999809E+01 0.  1.
       -4    1    3    3    0  502 -0.86048643057E+02 -0.37116812908E+03 -0.44400732463E+03  0.58507629095E+03  0.12699999809E+01 0. -1.
</event>
<event>
 5   0  0.1119792E-02  0.8002048E+03  0.7818609E-02  0.9559721E-01
       -2   -1    0    0    0  501  0.00000000000E+00  0.00000000000E+00  0.38141663783E+03  0.38141663783E+03  0.25500000920E-02 0.  1.
        2   -1    0    0  501    0  0.00000000000E+00  0.00000000000E+00 -0.41970363585E+03  0.41970363586E+03  0.25500000920E-02 0. -1.
    10030    2    1    2    0    0  0.00000000000E+00  0.00000000000E+00 -0.38286998026E+02  0.80112027369E+03  0.80020484796E+03 0.  0.
        4    1    3    3  502    0 -0.67820906903E+02 -0.14065828298E+03 -0.38793416551E+03  0.41818531497E+03  0.12699999809E+01 0. -1.
       -4    1    3    3    0  502  0.67820906903E+02  0.14065828298E+03  0.34964716748E+03  0.38293495873E+03  0.12699999809E+01 0.  1.
</event>
<event>
 5   0  0.6517392E-03  0.7991656E+03  0.7818609E-02  0.9561226E-01
       -1   -1    0    0    0  501  0.00000000000E+00  0.00000000000E+00  0.29957885697E+03  0.29957885701E+03  0.50400001928E-02 0.  1.
        1   -1    0    0  501    0  0.00000000000E+00  0.00000000000E+00 -0.53296957350E+03  0.53296957352E+03  0.50400001928E-02 0. -1.
    10030    2    1    2    0    0  0.00000000000E+00  0.00000000000E+00 -0.23339071653E+03  0.83254843053E+03  0.79916560400E+03 0.  0.
        3    1    3    3  502    0 -0.27339906633E+03 -0.13272608255E+03  0.15357000805E+03  0.34050994116E+03  0.10100000352E+00 0.  1.
       -3    1    3    3    0  502  0.27339906633E+03  0.13272608255E+03 -0.38696072457E+03  0.49203848937E+03  0.10100000352E+00 0. -1.
</event>
<event>
 5   0  0.1154714E-02  0.7975046E+03  0.7818609E-02  0.9563636E-01
        2   -1    0    0  501    0  0.00000000000E+00  0.00000000000E+00  0.34905350169E+03  0.34905350170E+03  0.25500000920E-02 0. -1.
       -2   -1    0    0    0  501  0.00000000000E+00  0.00000000000E+00 -0.45552724054E+03  0.45552724055E+03  0.25500000920E-02 0.  1.
    10030    2    1    2    0    0  0.00000000000E+00  0.00000000000E+00 -0.10647373886E+03  0.80458074225E+03  0.79750455405E+03 0.  0.
        5    1    3    3  502    0  0.60973851292E+02  0.62025661196E+02  0.33933824840E+03  0.35033916426E+03  0.46999998093E+01 0. -1.
       -5    1    3    3    0  502 -0.60973851292E+02 -0.62025661196E+02 -0.44581198726E+03  0.45424157799E+03  0.46999998093E+01 0.  1.
</event>
<event>
 5   0  0.6517392E-03  0.7997857E+03  0.7818609E-02  0.9560327E-01
       -1   -1    0    0    0  501  0.00000000000E+00  0.00000000000E+00  0.30680777057E+03  0.30680777061E+03  0.50400001928E-02 0. -1.
        1   -1    0    0  501    0  0.00000000000E+00  0.00000000000E+00 -0.52121987913E+03  0.52121987915E+03  0.50400001928E-02 0.  1.
    10030    2    1    2    0    0  0.00000000000E+00  0.00000000000E+00 -0.21441210855E+03  0.82802764976E+03  0.79978574411E+03 0.  0.
        3    1    3    3  502    0  0.20088533539E+03  0.46479546240E+01 -0.46515720988E+03  0.50670283358E+03  0.10100000352E+00 0.  1.
       -3    1    3    3    0  502 -0.20088533539E+03 -0.46479546240E+01  0.25074510133E+03  0.32132481618E+03  0.10100000352E+00 0. -1.
</event>
<event>
 5   0  0.1106332E-02  0.8054436E+03  0.7818609E-02  0.9552171E-01
       -2   -1    0    0    0  501  0.00000000000E+00  0.00000000000E+00  0.56055456380E+03  0.56055456381E+03  0.25500000920E-02 0. -1.
        2   -1    0    0  501    0  0.00000000000E+00  0.00000000000E+00 -0.28932925174E+03  0.28932925175E+03  0.25500000920E-02 0.  1.
    10030    2    1    2    0    0  0.00000000000E+00  0.00000000000E+00  0.27122531206E+03  0.84988381556E+03  0.80544356105E+03 0.  0.
        1    1    3    3  502    0  0.21067383630E+03  0.19472313702E+03 -0.16261991500E+03  0.32976628416E+03  0.50400001928E-02 0.  1.
       -1    1    3    3    0  502 -0.21067383630E+03 -0.19472313702E+03  0.43384522707E+03  0.52011753139E+03  0.50400001928E-02 0. -1.
</event>
<event>
 5   0  0.6517392E-03  0.8231360E+03  0.7818609E-02  0.9527119E-01
       -1   -1    0    0    0  501  0.00000000000E+00  0.00000000000E+00  0.19730001187E+03  0.19730001193E+03  0.50400001928E-02 0. -1.
        1   -1    0    0  501    0  0.00000000000E+00  0.00000000000E+00 -0.85853131664E+03  0.85853131665E+03  0.50400001928E-02 0.  1.
    10030    2    1    2    0    0  0.00000000000E+00  0.00000000000E+00 -0.66123130477E+03  0.10558313286E+04  0.82313604951E+03 0.  0.
        3    1    3    3  502    0  0.22515978274E+02  0.39994825092E+03 -0.20945265751E+03  0.45203539533E+03  0.10100000352E+00 0.  1.
       -3    1    3    3    0  502 -0.22515978274E+02 -0.39994825092E+03 -0.45177864726E+03  0.60379593325E+03  0.10100000352E+00 0. -1.
</event>
<event>
 5   0  0.1154714E-02  0.8006897E+03  0.7818609E-02  0.9559019E-01
        2   -1    0    0  501    0  0.00000000000E+00  0.00000000000E+00  0.84183020531E+03  0.84183020531E+03  0.25500000920E-02 0. -1.
       -2   -1    0    0    0  501  0.00000000000E+00  0.00000000000E+00 -0.19038995195E+03  0.19038995196E+03  0.25500000920E-02 0.  1.
    10030    2    1    2    0    0  0.00000000000E+00  0.00000000000E+00  0.65144025336E+03  0.10322201573E+04  0.80068973353E+03 0.  0.
        5    1    3    3  502    0  0.34946416331E+03  0.81340510733E+02  0.96871080351E+02  0.37168209041E+03  0.46999998093E+01 0.  1.
       -5    1    3    3    0  502 -0.34946416331E+03 -0.81340510733E+02  0.55456917301E+03  0.66053806687E+03  0.46999998093E+01 0. -1.
</event>
<event>
 5   0  0.1092868E-02  0.8008880E+03  0.7818609E-02  0.9558733E-01
        2   -1    0    0  501    0  0.00000000000E+00  0.00000000000E+00  0.96887920660E+03  0.96887920660E+03  0.25500000920E-02 0. -1.
       -2   -1    0    0    0  501  0.00000000000E+00  0.00000000000E+00 -0.16550609749E+03  0.16550609751E+03  0.25500000920E-02 0.  1.
    10030    2    1    2    0    0  0.00000000000E+00  0.00000000000E+00  0.80337310911E+03  0.11343853041E+04  0.80088804819E+03 0.  0.
        3    1    3    3  502    0 -0.36490295591E+03  0.64933311837E+02  0.18694795019E+03  0.41511450047E+03  0.10100000352E+00 0.  1.
       -3    1    3    3    0  502  0.36490295591E+03 -0.64933311837E+02  0.61642515892E+03  0.71927080364E+03  0.10100000352E+00 0. -1.
</event>
<event>
 5   0  0.4385875E-03  0.8012980E+03  0.7818609E-02  0.9558140E-01
       -3   -1    0    0    0  501  0.00000000000E+00  0.00000000000E+00  0.37023484210E+03  0.37023485588E+03  0.10100000352E+00 0. -1.
        3   -1    0    0  501    0  0.00000000000E+00  0.00000000000E+00 -0.43356157918E+03  0.43356159095E+03  0.10100000352E+00 0.  1.
    10030    2    1    2    0    0  0.00000000000E+00  0.00000000000E+00 -0.63326737080E+02  0.80379644683E+03  0.80129797972E+03 0.  0.
        3    1    3    3  502    0 -0.10823822647E+03 -0.13850315113E+03  0.32948832997E+03  0.37344505128E+03  0.10100000352E+00 0. -1.
       -3    1    3    3    0  502  0.10823822647E+03  0.13850315113E+03 -0.39281506705E+03  0.43035139554E+03  0.10100000352E+00 0.  1.
</event>
<event>
 5   0  0.1092868E-02  0.7936506E+03  0.7818609E-02  0.9569253E-01
       -2   -1    0    0    0  501  0.00000000000E+00  0.00000000000E+00  0.22231048681E+03  0.22231048683E+03  0.25500000920E-02 0. -1.
        2   -1    0    0  501    0  0.00000000000E+00  0.00000000000E+00 -0.70833506322E+03  0.70833506323E+03  0.25500000920E-02 0.  1.
    10030    2    1    2    0    0  0.00000000000E+00  0.00000000000E+00 -0.48602457641E+03  0.93064555005E+03  0.79365058493E+03 0.  0.
        3    1    3    3  502    0 -0.22626950218E+03 -0.15625713070E+03  0.92478463466E+02  0.29011455482E+03  0.10100000352E+00 0. -1.
       -3    1    3    3    0  502  0.22626950218E+03  0.15625713070E+03 -0.57850303988E+03  0.64053099524E+03  0.10100000352E+00 0.  1.
</event>
<event>
 5   0  0.6551489E-03  0.7976141E+03  0.7818609E-02  0.9563477E-01
        1   -1    0    0  501    0  0.00000000000E+00  0.00000000000E+00  0.26558507233E+03  0.26558507238E+03  0.50400001928E-02 0.  1.
       -1   -1    0    0    0  501  0.00000000000E+00  0.00000000000E+00 -0.59885545040E+03  0.59885545042E+03  0.50400001928E-02 0. -1.
    10030    2    1    2    0    0  0.00000000000E+00  0.00000000000E+00 -0.33327037807E+03  0.86444052280E+03  0.79761411256E+03 0.  0.
        4    1    3    3  502    0  0.11673433386E+03  0.27654624066E+03 -0.45119936023E+03  0.54192914989E+03  0.12699999809E+01 0.  1.
       -4    1    3    3    0  502 -0.11673433386E+03 -0.27654624066E+03  0.11792898216E+03  0.32251137291E+03  0.12699999809E+01 0. -1.
</event>
<event>
 5   0  0.6551489E-03  0.7969398E+03  0.7818609E-02  0.9564457E-01
        1   -1    0    0  501    0  0.00000000000E+00  0.00000000000E+00  0.62718862054E+03  0.62718862056E+03  0.50400001928E-02 0.  1.
       -1   -1    0    0    0  501  0.00000000000E+00  0.00000000000E+00 -0.25315869636E+03  0.25315869641E+03  0.50400001928E-02 0. -1.
    10030    2    1    2    0    0  0.00000000000E+00  0.00000000000E+00  0.37402992418E+03  0.88034731697E+03  0.79693978085E+03 0.  0.
        4    1    3    3  502    0  0.28156090731E+03  0.50093434776E+02  0.49352718448E+03  0.57040037820E+03  0.12699999809E+01 0.  1.
       -4    1    3    3    0  502 -0.28156090731E+03 -0.50093434776E+02 -0.11949726029E+03  0.30994693877E+03  0.12699999809E+01 0. -1.
</event>
<event>
 5   0  0.6557679E-03  0.7969439E+03  0.7818609E-02  0.9564451E-01
       -1   -1    0    0    0  501  0.00000000000E+00  0.00000000000E+00  0.33203657730E+03  0.33203657733E+03  0.50400001928E-02 0. -1.
        1   -1    0    0  501    0  0.00000000000E+00  0.00000000000E+00 -0.47820006058E+03  0.47820006060E+03  0.50400001928E-02 0.  1.
    10030    2    1    2    0    0  0.00000000000E+00  0.00000000000E+00 -0.14616348328E+03  0.81023663794E+03  0.79694394132E+03 0.  0.
        1    1    3    3  502    0 -0.17229372951E+03  0.31662847882E+03 -0.24574132203E+03  0.43626542404E+03  0.50400001928E-02 0.  1.
       -1    1    3    3    0  502  0.17229372951E+03 -0.31662847882E+03  0.99577838754E+02  0.37397121390E+03  0.50400001928E-02 0. -1.
</event>
<event>
 5   0  0.6596225E-03  0.7972613E+03  0.7818609E-02  0.9563990E-01
       -1   -1    0    0    0  501  0.00000000000E+00  0.00000000000E+00  0.17555431836E+03  0.17555431843E+03  0.50400001928E-02 0.  1.
        1   -1    0    0  501    0  0.00000000000E+00  0.00000000000E+00 -0.90516932573E+03  0.90516932574E+03  0.50400001928E-02 0. -1.
    10030    2    1    2    0    0  0.00000000000E+00  0.00000000000E+00 -0.72961500737E+03  0.10807236442E+04  0.79726127216E+03 0.  0.
        5    1    3    3  502    0  0.44966832586E+02 -0.36523936246E+03 -0.15717229485E+03  0.40018374304E+03  0.46999998093E+01 0.  1.
       -5    1    3    3    0  502 -0.44966832586E+02  0.36523936246E+03 -0.57244271252E+03  0.68053990113E+03  0.46999998093E+01 0. -1.
</event>
<event>
 5   0  0.6517392E-03  0.8006475E+03  0.7818609E-02  0.9559080E-01
       -1   -1    0    0    0  501  0.00000000000E+00  0.00000000000E+00  0.20148230618E+03  0.20148230624E+03  0.50400001928E-02 0. -1.
        1   -1    0    0  501    0  0.00000000000E+00  0.00000000000E+00 -0.79540045120E+03  0.79540045122E+03  0.50400001928E-02 0.  1.
    10030    2    1    2    0    0  0.00000000000E+00  0.00000000000E+00 -0.59391814502E+03  0.99688275746E+03  0.80064753115E+03 0.  0.
        3    1    3    3  502    0 -0.13155627095E+03 -0.29902210793E+03 -0.58505234206E+03  0.67008023893E+03  0.10100000352E+00 0.  1.
       -3    1    3    3    0  502  0.13155627095E+03  0.29902210793E+03 -0.88658029586E+01  0.32680251853E+03  0.10100000352E+00 0. -1.
</event>
<event>
 5   0  0.6600401E-03  0.7987439E+03  0.7818609E-02  0.9561837E-01
       -1   -1    0    0    0  501  0.00000000000E+00  0.00000000000E+00  0.45353912098E+03  0.45353912101E+03  0.50400001928E-02 0. -1.
        1   -1    0    0  501    0  0.00000000000E+00  0.00000000000E+00 -0.35167407241E+03  0.35167407245E+03  0.50400001928E-02 0.  1.
    10030    2    1    2    0    0  0.00000000000E+00  0.00000000000E+00  0.10186504857E+03  0.80521319346E+03  0.79874388812E+03 0.  0.
        2    1    3    3  502    0  0.10026815743E+03 -0.15258329495E+03 -0.30713804159E+03  0.35730818895E+03  0.25500000920E-02 0.  1.
       -2    1    3    3    0  502 -0.10026815743E+03  0.15258329495E+03  0.40900309017E+03  0.44790500451E+03  0.25500000920E-02 0. -1.
</event>
<event>
 5   0  0.6600401E-03  0.8043113E+03  0.7818609E-02  0.9553798E-01
        1   -1    0    0  501    0  0.00000000000E+00  0.00000000000E+00  0.22762223962E+04  0.22762223962E+04  0.50400001928E-02 0.  1.
       -1   -1    0    0    0  501  0.00000000000E+00  0.00000000000E+00 -0.71051574158E+02  0.71051574337E+02  0.50400001928E-02 0. -1.
    10030    2    1    2    0    0  0.00000000000E+00  0.00000000000E+00  0.22051708220E+04  0.23472739705E+04  0.80431134419E+03 0.  0.
        2    1    3    3  502    0 -0.36573755233E+03  0.10424371605E+03  0.14841941208E+04  0.15321432367E+04  0.25500000920E-02 0.  1.
       -2    1    3    3    0  502  0.36573755233E+03 -0.10424371605E+03  0.72097670122E+03  0.81513073383E+03  0.25500000920E-02 0. -1.
</event>
<event>
 5   0  0.1121480E-02  0.7974547E+03  0.7818609E-02  0.9563709E-01
       -2   -1    0    0    0  501  0.00000000000E+00  0.00000000000E+00  0.12622007810E+03  0.12622007813E+03  0.25500000920E-02 0. -1.
        2   -1    0    0  501    0  0.00000000000E+00  0.00000000000E+00 -0.12595738954E+04  0.12595738954E+04  0.25500000920E-02 0.  1.
    10030    2    1    2    0    0  0.00000000000E+00  0.00000000000E+00 -0.11333538173E+04  0.13857939735E+04  0.79745473970E+03 0.  0.
        2    1    3    3  502    0 -0.30318927042E+03 -0.20269704872E+03 -0.28661152290E+03  0.46384910512E+03  0.25500000920E-02 0. -1.
       -2    1    3    3    0  502  0.30318927042E+03  0.20269704872E+03 -0.84674229435E+03  0.92194486837E+03  0.25500000920E-02 0.  1.
</event>
<event>
 5   0  0.6517392E-03  0.8027451E+03  0.7818609E-02  0.9556052E-01
        1   -1    0    0  501    0  0.00000000000E+00  0.00000000000E+00  0.41396192647E+03  0.41396192650E+03  0.50400001928E-02 0. -1.
       -1   -1    0    0    0  501  0.00000000000E+00  0.00000000000E+00 -0.38916600385E+03  0.38916600388E+03  0.50400001928E-02 0.  1.
    10030    2    1    2    0    0  0.00000000000E+00  0.00000000000E+00  0.24795922622E+02  0.80312793038E+03  0.80274506213E+03 0.  0.
        3    1    3    3  502    0  0.11283566030E+03 -0.31548420265E+03 -0.20870004282E+03  0.39473774387E+03  0.10100000352E+00 0.  1.
       -3    1    3    3    0  502 -0.11283566030E+03  0.31548420265E+03  0.23349596545E+03  0.40839018651E+03  0.10100000352E+00 0. -1.
</event>
<event>
 5   0  0.6557679E-03  0.7911766E+03  0.7818609E-02  0.9572877E-01
        1   -1    0    0  501    0  0.00000000000E+00  0.00000000000E+00  0.77308574547E+03  0.77308574549E+03  0.50400001928E-02 0.  1.
       -1   -1    0    0    0  501  0.00000000000E+00  0.00000000000E+00 -0.20242268629E+03  0.20242268635E+03  0.50400001928E-02 0. -1.
    10030    2    1    2    0    0  0.00000000000E+00  0.00000000000E+00  0.57066305918E+03  0.97550843184E+03  0.79117657541E+03 0.  0.
        1    1    3    3  502    0  0.23616618482E+03 -0.27021998533E+03  0.80133921080E+02  0.36771558664E+03  0.50400001928E-02 0. -1.
       -1    1    3    3    0  502 -0.23616618482E+03  0.27021998533E+03  0.49052913810E+03  0.60779284520E+03  0.50400001928E-02 0.  1.
</event>
<event>
 5   0  0.1121480E-02  0.7959710E+03  0.7818609E-02  0.9565867E-01
       -2   -1    0    0    0  501  0.00000000000E+00  0.00000000000E+00  0.27840886960E+03  0.27840886962E+03  0.25500000920E-02 0. -1.
        2   -1    0    0  501    0  0.00000000000E+00  0.00000000000E+00 -0.56892034976E+03  0.56892034976E+03  0.25500000920E-02 0.  1.
    10030    2    1    2    0    0  0.00000000000E+00  0.00000000000E+00 -0.29051148015E+03  0.84732921938E+03  0.79597103334E+03 0.  0.
        2    1    3    3  502    0 -0.13169534576E+03  0.20460560373E+03  0.19000190805E+03  0.30871968231E+03  0.25500000920E-02 0. -1.
       -2    1    3    3    0  502  0.13169534576E+03 -0.20460560373E+03 -0.48051338820E+03  0.53860953707E+03  0.25500000920E-02 0.  1.
</event>
<event>
 5   0  0.6600401E-03  0.7978951E+03  0.7818609E-02  0.9563069E-01
       -1   -1    0    0    0  501  0.00000000000E+00  0.00000000000E+00  0.17589020686E+03  0.17589020694E+03  0.50400001928E-02 0.  1.
        1   -1    0    0  501    0  0.00000000000E+00  0.00000000000E+00 -0.90487774601E+03  0.90487774603E+03  0.50400001928E-02 0. -1.
    10030    2    1    2    0    0  0.00000000000E+00  0.00000000000E+00 -0.72898753915E+03  0.10807679530E+04  0.79789506573E+03 0.  0.
        2    1    3    3  502    0 -0.34538626676E+03  0.11454773028E+03 -0.58601653167E+03  0.68980303795E+03  0.25500000920E-02 0. -1.
       -2    1    3    3    0  502  0.34538626676E+03 -0.11454773028E+03 -0.14297100748E+03  0.39096491501E+03  0.25500000920E-02 0.  1.
</event>
<event>
 5   0  0.6517392E-03  0.8019960E+03  0.7818609E-02  0.9557132E-01
       -1   -1    0    0    0  501  0.00000000000E+00  0.00000000000E+00  0.71941587115E+03  0.71941587116E+03  0.50400001928E-02 0. -1.
        1   -1    0    0  501    0  0.00000000000E+00  0.00000000000E+00 -0.22351385341E+03  0.22351385346E+03  0.50400001928E-02 0.  1.
    10030    2    1    2    0    0  0.00000000000E+00  0.00000000000E+00  0.49590201774E+03  0.94292972463E+03  0.80199604387E+03 0.  0.
        3    1    3    3  502    0  0.17216041289E+03  0.34211363243E+03  0.38765240159E+03  0.54493608792E+03  0.10100000352E+00 0. -1.
       -3    1    3    3    0  502 -0.17216041289E+03 -0.34211363243E+03  0.10824961615E+03  0.39799363670E+03  0.10100000352E+00 0.  1.
</event>
<event>
 5   0  0.1106332E-02  0.8014261E+03  0.7818609E-02  0.9557955E-01
       -2   -1    0    0    0  501  0.00000000000E+00  0.00000000000E+00  0.22480873328E+03  0.22480873329E+03  0.25500000920E-02 0.  1.
        2   -1    0    0  501    0  0.00000000000E+00  0.00000000000E+00 -0.71425585654E+03  0.71425585654E+03  0.25500000920E-02 0. -1.
    10030    2    1    2    0    0  0.00000000000E+00  0.00000000000E+00 -0.48944712326E+03  0.93906458983E+03  0.80142611476E+03 0.  0.
        1    1    3    3  502    0 -0.23747832691E+03  0.10763973971E+03 -0.60126575561E+03  0.65536461471E+03  0.50400001928E-02 0. -1.
       -1    1    3    3    0  502  0.23747832691E+03 -0.10763973971E+03  0.11181863236E+03  0.28369997512E+03  0.50400001928E-02 0.  1.
</event>
<event>
 5   0  0.1121480E-02  0.7925089E+03  0.7818609E-02  0.9570924E-01
        2   -1    0    0  501    0  0.00000000000E+00  0.00000000000E+00  0.84684924495E+03  0.84684924495E+03  0.25500000920E-02 0.  1.
       -2   -1    0    0    0  501  0.00000000000E+00  0.00000000000E+00 -0.18541387387E+03  0.18541387388E+03  0.25500000920E-02 0. -1.
    10030    2    1    2    0    0  0.00000000000E+00  0.00000000000E+00  0.66143537108E+03  0.10322631188E+04  0.79250892512E+03 0.  0.
        2    1    3    3  502    0  0.39409062486E+03  0.34517633247E+02  0.36038301529E+03  0.53513998666E+03  0.25500000920E-02 0.  1.
       -2    1    3    3    0  502 -0.39409062486E+03 -0.34517633247E+02  0.30105235580E+03  0.49712313218E+03  0.25500000920E-02 0. -1.
</event>
<event>
 5   0  0.1119792E-02  0.8012596E+03  0.7818609E-02  0.9558196E-01
        2   -1    0    0  501    0  0.00000000000E+00  0.00000000000E+00  0.20397609243E+04  0.20397609243E+04  0.25500000920E-02 0. -1.
       -2   -1    0    0    0  501  0.00000000000E+00  0.00000000000E+00 -0.78687761316E+02  0.78687761357E+02  0.25500000920E-02 0.  1.
    10030    2    1    2    0    0  0.00000000000E+00  0.00000000000E+00  0.19610731630E+04  0.21184486856E+04  0.80125956043E+03 0.  0.
        4    1    3    3  502    0  0.66154424490E+02  0.18769918939E+03  0.61253475466E+02  0.20823302989E+03  0.12699999809E+01 0.  1.
       -4    1    3    3    0  502 -0.66154424490E+02 -0.18769918939E+03  0.18998196875E+04  0.19102156557E+04  0.12699999809E+01 0. -1.
</event>
<event>
 5   0  0.1154714E-02  0.7950446E+03  0.7818609E-02  0.9567218E-01
       -2   -1    0    0    0  501  0.00000000000E+00  0.00000000000E+00  0.12422700155E+04  0.12422700155E+04  0.25500000920E-02 0. -1.
        2   -1    0    0  501    0  0.00000000000E+00  0.00000000000E+00 -0.12720583485E+03  0.12720583488E+03  0.25500000920E-02 0.  1.
    10030    2    1    2    0    0  0.00000000000E+00  0.00000000000E+00  0.11150641806E+04  0.13694758503E+04  0.79504463887E+03 0.  0.
        5    1    3    3  502    0 -0.19563534446E+03  0.29963699241E+03  0.25945053931E+03  0.44203188524E+03  0.46999998093E+01 0.  1.
       -5    1    3    3    0  502  0.19563534446E+03 -0.29963699241E+03  0.85561364130E+03  0.92744396510E+03  0.46999998093E+01 0. -1.
</event>
<event>
 5   0  0.1119792E-02  0.7813377E+03  0.7818609E-02  0.9587430E-01
        2   -1    0    0  501    0  0.00000000000E+00  0.00000000000E+00  0.57512326993E+03  0.57512326993E+03  0.25500000920E-02 0. -1.
       -2   -1    0    0    0  501  0.00000000000E+00  0.00000000000E+00 -0.26537295231E+03  0.26537295233E+03  0.25500000920E-02 0.  1.
    10030    2    1    2    0    0  0.00000000000E+00  0.00000000000E+00  0.30975031761E+03  0.84049622226E+03  0.78133772491E+03 0.  0.
        4    1    3    3  502    0  0.25367924331E+02 -0.37771625602E+02  0.57226109698E+03  0.57406846569E+03  0.12699999809E+01 0. -1.
       -4    1    3    3    0  502 -0.25367924331E+02  0.37771625602E+02 -0.26251077937E+03  0.26642775657E+03  0.12699999809E+01 0.  1.
</event>
<event>
 5   0  0.1106332E-02  0.8034758E+03  0.7818609E-02  0.9555000E-01
       -2   -1    0    0    0  501  0.00000000000E+00  0.00000000000E+00  0.15915466340E+03  0.15915466342E+03  0.25500000920E-02 0.  1.
        2   -1    0    0  501    0  0.00000000000E+00  0.00000000000E+00 -0.10140659647E+04  0.10140659647E+04  0.25500000920E-02 0. -1.
    10030    2    1    2    0    0  0.00000000000E+00  0.00000000000E+00 -0.85491130134E+03  0.11732206282E+04  0.80347576764E+03 0.  0.
        1    1    3    3  502    0 -0.28780110060E+03 -0.27311408633E+03 -0.33542307599E+03  0.51954731988E+03  0.50400001928E-02 0. -1.
       -1    1    3    3    0  502  0.28780110060E+03  0.27311408633E+03 -0.51948822535E+03  0.65367330828E+03  0.50400001928E-02 0.  1.
</event>
<event>
 5   0  0.6600401E-03  0.8050047E+03  0.7818609E-02  0.9552801E-01
       -1   -1    0    0    0  501  0.00000000000E+00  0.00000000000E+00  0.19650233334E+03  0.19650233340E+03  0.50400001928E-02 0. -1.
        1   -1    0    0  501    0  0.00000000000E+00  0.00000000000E+00 -0.82445918016E+03  0.82445918017E+03  0.50400001928E-02 0.  1.
    10030    2    1    2    0    0  0.00000000000E+00  0.00000000000E+00 -0.62795684682E+03  0.10209615136E+04  0.80500472715E+03 0.  0.
        2    1    3    3  502    0  0.10456461952E+03  0.17918020263E+03  0.12347071815E+03  0.24142146324E+03  0.25500000920E-02 0. -1.
       -2    1    3    3    0  502 -0.10456461952E+03 -0.17918020263E+03 -0.75142756497E+03  0.77954005033E+03  0.25500000920E-02 0.  1.
</event>
<event>
 5   0  0.1121480E-02  0.8016931E+03  0.7818609E-02  0.9557570E-01
        2   -1    0    0  501    0  0.00000000000E+00  0.00000000000E+00  0.14699578548E+04  0.14699578548E+04  0.25500000920E-02 0.  1.
       -2   -1    0    0    0  501  0.00000000000E+00  0.00000000000E+00 -0.10930785316E+03  0.10930785319E+03  0.25500000920E-02 0. -1.
    10030    2    1    2    0    0  0.00000000000E+00  0.00000000000E+00  0.13606500017E+04  0.15792657080E+04  0.80169305192E+03 0.  0.
        2    1    3    3  502    0 -0.13547185463E+03 -0.22341106087E+03  0.81481724253E+02  0.27368667653E+03  0.25500000920E-02 0. -1.
       -2    1    3    3    0  502  0.13547185463E+03  0.22341106087E+03  0.12791682774E+04  0.13055790315E+04  0.25500000920E-02 0.  1.
</event>
<event>
 5   0  0.1092868E-02  0.8023540E+03  0.7818609E-02  0.9556616E-01
       -2   -1    0    0    0  501  0.00000000000E+00  0.00000000000E+00  0.21271906072E+03  0.21271906073E+03  0.25500000920E-02 0.  1.
        2   -1    0    0  501    0  0.00000000000E+00  0.00000000000E+00 -0.75659872143E+03  0.75659872144E+03  0.25500000920E-02 0. -1.
    10030    2    1    2    0    0  0.00000000000E+00  0.00000000000E+00 -0.54387966071E+03  0.96931778217E+03  0.80235396023E+03 0.  0.
        3    1    3    3  502    0  0.39065650736E+02 -0.39900740747E+03 -0.28944353898E+03  0.49448013989E+03  0.10100000352E+00 0. -1.
       -3    1    3    3    0  502 -0.39065650736E+02  0.39900740747E+03 -0.25443612173E+03  0.47483764228E+03  0.10100000352E+00 0.  1.
</event>
<event>
 5   0  0.4385875E-03  0.8361726E+03  0.7818609E-02  0.9509086E-01
        4   -1    0    0  501    0  0.00000000000E+00  0.00000000000E+00  0.51697902775E+03  0.51698058768E+03  0.12699999809E+01 0. -1.
       -4   -1    0    0    0  501  0.00000000000E+00  0.00000000000E+00 -0.33810749772E+03  0.33810988290E+03  0.12699999809E+01 0.  1.
    10030    2    1    2    0    0  0.00000000000E+00  0.00000000000E+00  0.17887153003E+03  0.85509047058E+03  0.83617264283E+03 0.  0.
        2    1    3    3  502    0  0.27119343959E+03  0.36946093702E+02 -0.23376088479E+03  0.35993755956E+03  0.25500000920E-02 0.  1.
       -2    1    3    3    0  502 -0.27119343959E+03 -0.36946093702E+02  0.41263241483E+03  0.49515291102E+03  0.25500000920E-02 0. -1.
</event>
<event>
 5   0  0.1106332E-02  0.8014951E+03  0.7818609E-02  0.9557856E-01
       -2   -1    0    0    0  501  0.00000000000E+00  0.00000000000E+00  0.64601217701E+03  0.64601217702E+03  0.25500000920E-02 0. -1.
        2   -1    0    0  501    0  0.00000000000E+00  0.00000000000E+00 -0.24859995657E+03  0.24859995659E+03  0.25500000920E-02 0.  1.
    10030    2    1    2    0    0  0.00000000000E+00  0.00000000000E+00  0.39741222044E+03  0.89461213361E+03  0.80149510082E+03 0.  0.
        1    1    3    3  502    0 -0.35933061741E+03  0.12078301653E+03  0.53639015449E+02  0.38286312658E+03  0.50400001928E-02 0.  1.
       -1    1    3    3    0  502  0.35933061741E+03 -0.12078301653E+03  0.34377320499E+03  0.51174900702E+03  0.50400001928E-02 0. -1.
</event>
<event>
 5   0  0.6557679E-03  0.7956601E+03  0.7818609E-02  0.9566320E-01
       -1   -1    0    0    0  501  0.00000000000E+00  0.00000000000E+00  0.14724737630E+03  0.14724737639E+03  0.50400001928E-02 0.  1.
        1   -1    0    0  501    0  0.00000000000E+00  0.00000000000E+00 -0.10748493568E+04  0.10748493568E+04  0.50400001928E-02 0. -1.
    10030    2    1    2    0    0  0.00000000000E+00  0.00000000000E+00 -0.92760198052E+03  0.12220967332E+04  0.79566009770E+03 0.  0.
        1    1    3    3  502    0 -0.29477594757E+03 -0.24124715219E+02 -0.87247393042E+03  0.92124134755E+03  0.50400001928E-02 0. -1.
       -1    1    3    3    0  502  0.29477594757E+03  0.24124715219E+02 -0.55128050094E+02  0.30085538566E+03  0.50400001928E-02 0.  1.
</event>
<event>
 5   0  0.1121480E-02  0.8004770E+03  0.7818609E-02  0.9559327E-01
       -2   -1    0    0    0  501  0.00000000000E+00  0.00000000000E+00  0.71712518095E+02  0.71712518140E+02  0.25500000920E-02 0. -1.
        2   -1    0    0  501    0  0.00000000000E+00  0.00000000000E+00 -0.22337922696E+04  0.22337922696E+04  0.25500000920E-02 0.  1.
    10030    2    1    2    0    0  0.00000000000E+00  0.00000000000E+00 -0.21620797515E+04  0.23055047877E+04  0.80047702929E+03 0.  0.
        2    1    3    3  502    0  0.56116668742E+02  0.18053053196E+03 -0.64988884409E+02  0.19990975110E+03  0.25500000920E-02 0. -1.
       -2    1    3    3    0  502 -0.56116668742E+02 -0.18053053196E+03 -0.20970908671E+04  0.21055950366E+04  0.25500000920E-02 0.  1.
</event>
<event>
 5   0  0.6517392E-03  0.8859640E+03  0.7818609E-02  0.9443299E-01
        1   -1    0    0  501    0  0.00000000000E+00  0.00000000000E+00  0.93912002572E+03  0.93912002573E+03  0.50400001928E-02 0. -1.
       -1   -1    0    0    0  501  0.00000000000E+00  0.00000000000E+00 -0.20895419413E+03  0.20895419419E+03  0.50400001928E-02 0.  1.
    10030    2    1    2    0    0  0.00000000000E+00  0.00000000000E+00  0.73016583159E+03  0.11480742199E+04  0.88596403585E+03 0.  0.
        3    1    3    3  502    0 -0.31567950222E+03 -0.29876475232E+03  0.25422066762E+03  0.50352962514E+03  0.10100000352E+00 0. -1.
       -3    1    3    3    0  502  0.31567950222E+03  0.29876475232E+03  0.47594516397E+03  0.64454459478E+03  0.10100000352E+00 0.  1.
</event>
<event>
 5   0  0.1154714E-02  0.8023026E+03  0.7818609E-02  0.9556690E-01
       -2   -1    0    0    0  501  0.00000000000E+00  0.00000000000E+00  0.35396299195E+03  0.35396299196E+03  0.25500000920E-02 0. -1.
        2   -1    0    0  501    0  0.00000000000E+00  0.00000000000E+00 -0.45463043019E+03  0.45463043020E+03  0.25500000920E-02 0.  1.
    10030    2    1    2    0    0  0.00000000000E+00  0.00000000000E+00 -0.10066743824E+03  0.80859342215E+03  0.80230255467E+03 0.  0.
        5    1    3    3  502    0 -0.27228925420E+03  0.16573094063E+03  0.19507520554E+03  0.37374404136E+03  0.46999998093E+01 0. -1.
       -5    1    3    3    0  502  0.27228925420E+03 -0.16573094063E+03 -0.29574264378E+03  0.43484938080E+03  0.46999998093E+01 0.  1.
</event>
<event>
 5   0  0.6600401E-03  0.7949815E+03  0.7818609E-02  0.9567310E-01
        1   -1    0    0  501    0  0.00000000000E+00  0.00000000000E+00  0.84137428440E+03  0.84137428441E+03  0.50400001928E-02 0.  1.
       -1   -1    0    0    0  501  0.00000000000E+00  0.00000000000E+00 -0.18778668361E+03  0.18778668367E+03  0.50400001928E-02 0. -1.
    10030    2    1    2    0    0  0.00000000000E+00  0.00000000000E+00  0.65358760079E+03  0.10291609681E+04  0.79498147546E+03 0.  0.
        2    1    3    3  502    0 -0.31044318083E+03  0.12003376464E+03  0.45493603726E+02  0.33593562056E+03  0.25500000920E-02 0. -1.
       -2    1    3    3    0  502  0.31044318083E+03 -0.12003376464E+03  0.60809399706E+03  0.69322534752E+03  0.25500000920E-02 0.  1.
</event>
<event>
 5   0  0.1119792E-02  0.8012627E+03  0.7818609E-02  0.9558191E-01
        2   -1    0    0  501    0  0.00000000000E+00  0.00000000000E+00  0.74668621143E+03  0.74668621144E+03  0.25500000920E-02 0.  1.
       -2   -1    0    0    0  501  0.00000000000E+00  0.00000000000E+00 -0.21495708127E+03  0.21495708129E+03  0.25500000920E-02 0. -1.
    10030    2    1    2    0    0  0.00000000000E+00  0.00000000000E+00  0.53172913016E+03  0.96164329272E+03  0.80126272507E+03 0.  0.
        4    1    3    3  502    0  0.97762584519E+02  0.26660486159E+03 -0.73312140133E+02  0.29327795340E+03  0.12699999809E+01 0. -1.
       -4    1    3    3    0  502 -0.97762584519E+02 -0.26660486159E+03  0.60504127029E+03  0.66836533933E+03  0.12699999809E+01 0.  1.
</event>
<event>
 5   0  0.6557679E-03  0.8679664E+03  0.7818609E-02  0.9466535E-01
       -1   -1    0    0    0  501  0.00000000000E+00  0.00000000000E+00  0.32537329367E+03  0.32537329371E+03  0.50400001928E-02 0.  1.
        1   -1    0    0  501    0  0.00000000000E+00  0.00000000000E+00 -0.57884719217E+03  0.57884719219E+03  0.50400001928E-02 0. -1.
    10030    2    1    2    0    0  0.00000000000E+00  0.00000000000E+00 -0.25347389850E+03  0.90422048591E+03  0.86796639907E+03 0.  0.
        1    1    3    3  502    0  0.92551152787E+02 -0.26565685574E+03 -0.47099729209E+03  0.54861437282E+03  0.50400001928E-02 0. -1.
       -1    1    3    3    0  502 -0.92551152787E+02  0.26565685574E+03  0.21752339359E+03  0.35560611309E+03  0.50400001928E-02 0.  1.
</event>
<event>
 5   0  0.1106332E-02  0.7992353E+03  0.7818609E-02  0.9561125E-01
       -2   -1    0    0    0  501  0.00000000000E+00  0.00000000000E+00  0.10468205188E+03  0.10468205191E+03  0.25500000920E-02 0. -1.
        2   -1    0    0  501    0  0.00000000000E+00  0.00000000000E+00 -0.15255173408E+04  0.15255173408E+04  0.25500000920E-02 0.  1.
    10030    2    1    2    0    0  0.00000000000E+00  0.00000000000E+00 -0.14208352890E+04  0.16301993927E+04  0.79923534816E+03 0.  0.
        1    1    3    3  502    0 -0.22564785853E+02  0.11678639620E+03  0.67737621256E+02  0.13688176379E+03  0.50400001928E-02 0. -1.
       -1    1    3    3    0  502  0.22564785853E+02 -0.11678639620E+03 -0.14885729102E+04  0.14933176290E+04  0.50400001928E-02 0.  1.
</event>
<event>
 5   0  0.6551489E-03  0.7981121E+03  0.7818609E-02  0.9562754E-01
       -1   -1    0    0    0  501  0.00000000000E+00  0.00000000000E+00  0.28601628373E+03  0.28601628377E+03  0.50400001928E-02 0. -1.
        1   -1    0    0  501    0  0.00000000000E+00  0.00000000000E+00 -0.55677162463E+03  0.55677162465E+03  0.50400001928E-02 0.  1.
    10030    2    1    2    0    0  0.00000000000E+00  0.00000000000E+00 -0.27075534091E+03  0.84278790843E+03  0.79811214999E+03 0.  0.
        4    1    3    3  502    0  0.73358476852E+02  0.26728074736E+03  0.16778823520E+03  0.32399840865E+03  0.12699999809E+01 0. -1.
       -4    1    3    3    0  502 -0.73358476852E+02 -0.26728074736E+03 -0.43854357611E+03  0.51878949978E+03  0.12699999809E+01 0.  1.
</event>
<event>
 5   0  0.4385875E-03  0.8753494E+03  0.7818609E-02  0.9456932E-01
        3   -1    0    0  501    0  0.00000000000E+00  0.00000000000E+00  0.21786081246E+03  0.21786083587E+03  0.10100000352E+00 0. -1.
       -3   -1    0    0    0  501  0.00000000000E+00  0.00000000000E+00 -0.87927293295E+03  0.87927293875E+03  0.10100000352E+00 0.  1.
    10030    2    1    2    0    0  0.00000000000E+00  0.00000000000E+00 -0.66141212049E+03  0.10971337746E+04  0.87534937384E+03 0.  0.
        4    1    3    3  502    0 -0.28306135221E+03 -0.32306156671E+03 -0.22535603049E+03  0.48505613941E+03  0.12699999809E+01 0. -1.
       -4    1    3    3    0  502  0.28306135221E+03  0.32306156671E+03 -0.43605609000E+03  0.61207763521E+03  0.12699999809E+01 0.  1.
</event>
<event>
 5   0  0.1092868E-02  0.7972569E+03  0.7818609E-02  0.9563996E-01
        2   -1    0    0  501    0  0.00000000000E+00  0.00000000000E+00  0.88847964209E+03  0.88847964210E+03  0.25500000920E-02 0. -1.
       -2   -1    0    0    0  501  0.00000000000E+00  0.00000000000E+00 -0.17885007604E+03  0.17885007606E+03  0.25500000920E-02 0.  1.
    10030    2    1    2    0    0  0.00000000000E+00  0.00000000000E+00  0.70962956605E+03  0.10673297182E+04  0.79725692612E+03 0.  0.
        3    1    3    3  502    0  0.12739330470E+02 -0.27244051487E+03  0.74401783238E+03  0.79243212314E+03  0.10100000352E+00 0. -1.
       -3    1    3    3    0  502 -0.12739330470E+02  0.27244051487E+03 -0.34388266323E+02  0.27489759502E+03  0.10100000352E+00 0.  1.
</event>
<event>
 5   0  0.6517392E-03  0.8068008E+03  0.7818609E-02  0.9550225E-01
       -1   -1    0    0    0  501  0.00000000000E+00  0.00000000000E+00  0.17641990977E+03  0.17641990984E+03  0.50400001928E-02 0.  1.
        1   -1    0    0  501    0  0.00000000000E+00  0.00000000000E+00 -0.92241216849E+03  0.92241216850E+03  0.50400001928E-02 0. -1.
    10030    2    1    2    0    0  0.00000000000E+00  0.00000000000E+00 -0.74599225872E+03  0.10988320783E+04  0.80680077238E+03 0.  0.
        3    1    3    3  502    0 -0.24307758674E+03 -0.64061121256E+02 -0.80269748506E+03  0.84113839714E+03  0.10100000352E+00 0. -1.
       -3    1    3    3    0  502  0.24307758674E+03  0.64061121256E+02  0.56705226336E+02  0.25769368120E+03  0.10100000352E+00 0.  1.
</event>
<event>
 5   0  0.1106332E-02  0.8164795E+03  0.7818609E-02  0.9536465E-01
       -2   -1    0    0    0  501  0.00000000000E+00  0.00000000000E+00  0.68988527068E+03  0.68988527069E+03  0.25500000920E-02 0. -1.
        2   -1    0    0  501    0  0.00000000000E+00  0.00000000000E+00 -0.24157598290E+03  0.24157598291E+03  0.25500000920E-02 0.  1.
    10030    2    1    2    0    0  0.00000000000E+00  0.00000000000E+00  0.44830928778E+03  0.93146125360E+03  0.81647954625E+03 0.  0.
        1    1    3    3  502    0 -0.46971957585E+02  0.38384113661E+03  0.37342131877E+03  0.53757219449E+03  0.50400001928E-02 0. -1.
       -1    1    3    3    0  502  0.46971957585E+02 -0.38384113661E+03  0.74887969012E+02  0.39388905911E+03  0.50400001928E-02 0.  1.
</event>
<event>
 5   0  0.6551489E-03  0.8032941E+03  0.7818609E-02  0.9555261E-01
       -1   -1    0    0    0  501  0.00000000000E+00  0.00000000000E+00  0.23563629423E+03  0.23563629428E+03  0.50400001928E-02 0. -1.
        1   -1    0    0  501    0  0.00000000000E+00  0.00000000000E+00 -0.68461589402E+03  0.68461589404E+03  0.50400001928E-02 0.  1.
    10030    2    1    2    0    0  0.00000000000E+00  0.00000000000E+00 -0.44897959979E+03  0.92025218833E+03  0.80329409875E+03 0.  0.
        4    1    3    3  502    0  0.90567419319E+02 -0.19708318096E+03  0.16277404276E+03  0.27118488077E+03  0.12699999809E+01 0. -1.
       -4    1    3    3    0  502 -0.90567419319E+02  0.19708318096E+03 -0.61175364256E+03  0.64906730756E+03  0.12699999809E+01 0.  1.
</event>
<event>
 5   0  0.1092868E-02  0.8015366E+03  0.7818609E-02  0.9557796E-01
       -2   -1    0    0    0  501  0.00000000000E+00  0.00000000000E+00  0.87507740685E+03  0.87507740685E+03  0.25500000920E-02 0. -1.
        2   -1    0    0  501    0  0.00000000000E+00  0.00000000000E+00 -0.18354403910E+03  0.18354403912E+03  0.25500000920E-02 0.  1.
    10030    2    1    2    0    0  0.00000000000E+00  0.00000000000E+00  0.69153336775E+03  0.10586214460E+04  0.80153662871E+03 0.  0.
        3    1    3    3  502    0  0.30498273007E+03 -0.10381363307E+03  0.30932930228E+02  0.32364887212E+03  0.10100000352E+00 0.  1.
       -3    1    3    3    0  502 -0.30498273007E+03  0.10381363307E+03  0.66060043752E+03  0.73497257384E+03  0.10100000352E+00 0. -1.
</event>
<event>
 5   0  0.6551489E-03  0.8046303E+03  0.7818609E-02  0.9553339E-01
        1   -1    0    0  501    0  0.00000000000E+00  0.00000000000E+00  0.43919076624E+03  0.43919076626E+03  0.50400001928E-02 0.  1.
       -1   -1    0    0    0  501  0.00000000000E+00  0.00000000000E+00 -0.36853566205E+03  0.36853566209E+03  0.50400001928E-02 0. -1.
    10030    2    1    2    0    0  0.00000000000E+00  0.00000000000E+00  0.70655104185E+02  0.80772642835E+03  0.80463025006E+03 0.  0.
        4    1    3    3  502    0  0.38970151683E+03 -0.99936775531E+02  0.34220764361E+02  0.40376639897E+03  0.12699999809E+01 0.  1.
       -4    1    3    3    0  502 -0.38970151683E+03  0.99936775531E+02  0.36434339824E+02  0.40396002938E+03  0.12699999809E+01 0. -1.
</event>
<event>
 5   0  0.6596225E-03  0.7945275E+03  0.7818609E-02  0.9567972E-01
       -1   -1    0    0    0  501  0.00000000000E+00  0.00000000000E+00  0.57702752595E+03  0.57702752598E+03  0.50400001928E-02 0.  1.
        1   -1    0    0  501    0  0.00000000000E+00  0.00000000000E+00 -0.27350253570E+03  0.27350253575E+03  0.50400001928E-02 0. -1.
    10030    2    1    2    0    0  0.00000000000E+00  0.00000000000E+00  0.30352499025E+03  0.85053006173E+03  0.79452751129E+03 0.  0.
        5    1    3    3  502    0 -0.48653203020E+02 -0.38751542805E+03  0.74116801716E+02  0.39755594756E+03  0.46999998093E+01 0.  1.
       -5    1    3    3    0  502  0.48653203020E+02  0.38751542805E+03  0.22940818853E+03  0.45297411417E+03  0.46999998093E+01 0. -1.
</event>
<event>
 5   0  0.6551489E-03  0.7977918E+03  0.7818609E-02  0.9563219E-01
       -1   -1    0    0    0  501  0.00000000000E+00  0.00000000000E+00  0.21244357175E+03  0.21244357181E+03  0.50400001928E-02 0.  1.
        1   -1    0    0  501    0  0.00000000000E+00  0.00000000000E+00 -0.74898912962E+03  0.74898912963E+03  0.50400001928E-02 0. -1.
    10030    2    1    2    0    0  0.00000000000E+00  0.00000000000E+00 -0.53654555786E+03  0.96143270145E+03  0.79779176716E+03 0.  0.
        4    1    3    3  502    0 -0.35026405428E+02  0.10288777940E+03 -0.73079859062E+03  0.73883755805E+03  0.12699999809E+01 0. -1.
       -4    1    3    3    0  502  0.35026405428E+02 -0.10288777940E+03  0.19425303276E+03  0.22259514340E+03  0.12699999809E+01 0.  1.
</event>
<event>
 5   0  0.6517392E-03  0.8082025E+03  0.7818609E-02  0.9548220E-01
       -1   -1    0    0    0  501  0.00000000000E+00  0.00000000000E+00  0.75687941463E+03  0.75687941465E+03  0.50400001928E-02 0. -1.
        1   -1    0    0  501    0  0.00000000000E+00  0.00000000000E+00 -0.21575142512E+03  0.21575142518E+03  0.50400001928E-02 0.  1.
    10030    2    1    2    0    0  0.00000000000E+00  0.00000000000E+00  0.54112798951E+03  0.97263083983E+03  0.80820248054E+03 0.  0.
        3    1    3    3  502    0  0.27483706274E+03 -0.15155680325E+03 -0.35767503474E+02  0.31588637225E+03  0.10100000352E+00 0.  1.
       -3    1    3    3    0  502 -0.27483706274E+03  0.15155680325E+03  0.57689549298E+03  0.65674446758E+03  0.10100000352E+00 0. -1.
</event>
<event>
 5   0  0.1121480E-02  0.8005084E+03  0.7818609E-02  0.9559282E-01
       -2   -1    0    0    0  501  0.00000000000E+00  0.00000000000E+00  0.26056936509E+03  0.26056936510E+03  0.25500000920E-02 0. -1.
        2   -1    0    0  501    0  0.00000000000E+00  0.00000000000E+00 -0.61482059641E+03  0.61482059641E+03  0.25500000920E-02 0.  1.
    10030    2    1    2    0    0  0.00000000000E+00  0.00000000000E+00 -0.35425123132E+03  0.87538996152E+03  0.80050836962E+03 0.  0.
        2    1    3    3  502    0  0.14070179381E+03 -0.28543444025E+03  0.88345431673E+02  0.33026463596E+03  0.25500000920E-02 0. -1.
       -2    1    3    3    0  502 -0.14070179381E+03  0.28543444025E+03 -0.44259666299E+03  0.54512532555E+03  0.25500000920E-02 0.  1.
</event>
<event>
 5   0  0.1119792E-02  0.8043173E+03  0.7818609E-02  0.9553789E-01
       -2   -1    0    0    0  501  0.00000000000E+00  0.00000000000E+00  0.72243986485E+02  0.72243986530E+02  0.25500000920E-02 0.  1.
        2   -1    0    0  501    0  0.00000000000E+00  0.00000000000E+00 -0.22386858938E+04  0.22386858938E+04  0.25500000920E-02 0. -1.
    10030    2    1    2    0    0  0.00000000000E+00  0.00000000000E+00 -0.21664419073E+04  0.23109298803E+04  0.80431733416E+03 0.  0.
        4    1    3    3  502    0 -0.21810612717E+03  0.31611897922E+03 -0.14259403852E+04  0.14767562720E+04  0.12699999809E+01 0.  1.
       -4    1    3    3    0  502  0.21810612717E+03 -0.31611897922E+03 -0.74050152204E+03  0.83417360829E+03  0.12699999809E+01 0. -1.
</event>
<event>
 5   0  0.1154714E-02  0.8121054E+03  0.7818609E-02  0.9542658E-01
        2   -1    0    0  501    0  0.00000000000E+00  0.00000000000E+00  0.13838048063E+04  0.13838048063E+04  0.25500000920E-02 0. -1.
       -2   -1    0    0    0  501  0.00000000000E+00  0.00000000000E+00 -0.11914888778E+03  0.11914888780E+03  0.25500000920E-02 0.  1.
    10030    2    1    2    0    0  0.00000000000E+00  0.00000000000E+00  0.12646559185E+04  0.15029536941E+04  0.81210542073E+03 0.  0.
        5    1    3    3  502    0  0.95006080524E+02  0.38761609354E+03  0.77062676453E+03  0.86784796566E+03  0.46999998093E+01 0.  1.
       -5    1    3    3    0  502 -0.95006080524E+02 -0.38761609354E+03  0.49402915402E+03  0.63510572846E+03  0.46999998093E+01 0. -1.
</event>
<event>
 5   0  0.1154714E-02  0.8063046E+03  0.7818609E-02  0.9550936E-01
       -2   -1    0    0    0  501  0.00000000000E+00  0.00000000000E+00  0.12922410463E+04  0.12922410463E+04  0.25500000920E-02 0. -1.
        2   -1    0    0  501    0  0.00000000000E+00  0.00000000000E+00 -0.12577512163E+03  0.12577512166E+03  0.25500000920E-02 0.  1.
    10030    2    1    2    0    0  0.00000000000E+00  0.00000000000E+00  0.11664659247E+04  0.14180161680E+04  0.80630459457E+03 0.  0.
        5    1    3    3  502    0  0.29252726800E+02 -0.14664252816E+03 -0.75149863059E+02  0.16741966732E+03  0.46999998093E+01 0.  1.
       -5    1    3    3    0  502 -0.29252726800E+02  0.14664252816E+03  0.12416157878E+04  0.12505965007E+04  0.46999998093E+01 0. -1.
</event>
<event>
 5   0  0.6600401E-03  0.8106825E+03  0.7818609E-02  0.9544682E-01
        1   -1    0    0  501    0  0.00000000000E+00  0.00000000000E+00  0.12984301531E+04  0.12984301531E+04  0.50400001928E-02 0.  1.
       -1   -1    0    0    0  501  0.00000000000E+00  0.00000000000E+00 -0.12653859712E+03  0.12653859722E+03  0.50400001928E-02 0. -1.
    10030    2    1    2    0    0  0.00000000000E+00  0.00000000000E+00  0.11718915560E+04  0.14249687504E+04  0.81068250286E+03 0.  0.
        2    1    3    3  502    0 -0.14754537612E+03 -0.10220808881E+03  0.12247708409E+04  0.12378528766E+04  0.25500000920E-02 0.  1.
       -2    1    3    3    0  502  0.14754537612E+03  0.10220808881E+03 -0.52879284879E+02  0.18711587375E+03  0.25500000920E-02 0. -1.
</event>
<event>
 5   0  0.6557679E-03  0.7758125E+03  0.7818609E-02  0.9595703E-01
       -1   -1    0    0    0  501  0.00000000000E+00  0.00000000000E+00  0.18017761879E+03  0.18017761886E+03  0.50400001928E-02 0.  1.
        1   -1    0    0  501    0  0.00000000000E+00  0.00000000000E+00 -0.83512729343E+03  0.83512729345E+03  0.50400001928E-02 0. -1.
    10030    2    1    2    0    0  0.00000000000E+00  0.00000000000E+00 -0.65494967464E+03  0.10153049123E+04  0.77581247002E+03 0.  0.
        1    1    3    3  502    0  0.37128363465E+02  0.32657551291E+03 -0.59708321652E+03  0.68157057483E+03  0.50400001928E-02 0. -1.
       -1    1    3    3    0  502 -0.37128363465E+02 -0.32657551291E+03 -0.57866458123E+02  0.33373433747E+03  0.50400001928E-02 0.  1.
</event>
<event>
 5   0  0.1092868E-02  0.7985336E+03  0.7818609E-02  0.9562142E-01
       -2   -1    0    0    0  501  0.00000000000E+00  0.00000000000E+00  0.36393347479E+03  0.36393347480E+03  0.25500000920E-02 0. -1.
        2   -1    0    0  501    0  0.00000000000E+00  0.00000000000E+00 -0.43803054585E+03  0.43803054586E+03  0.25500000920E-02 0.  1.
    10030    2    1    2    0    0  0.00000000000E+00  0.00000000000E+00 -0.74097071059E+02  0.80196402066E+03  0.79853360261E+03 0.  0.
        3    1    3    3  502    0  0.31795083569E+03 -0.20052072922E+03  0.98112946671E+02  0.38849383169E+03  0.10100000352E+00 0. -1.
       -3    1    3    3    0  502 -0.31795083569E+03  0.20052072922E+03 -0.17221001773E+03  0.41347018897E+03  0.10100000352E+00 0.  1.
</event>
<event>
 5   0  0.1106332E-02  0.7967846E+03  0.7818609E-02  0.9564683E-01
       -2   -1    0    0    0  501  0.00000000000E+00  0.00000000000E+00  0.21948819535E+03  0.21948819536E+03  0.25500000920E-02 0. -1.
        2   -1    0    0  501    0  0.00000000000E+00  0.00000000000E+00 -0.72312050752E+03  0.72312050752E+03  0.25500000920E-02 0.  1.
    10030    2    1    2    0    0  0.00000000000E+00  0.00000000000E+00 -0.50363231217E+03  0.94260870289E+03  0.79678457621E+03 0.  0.
        1    1    3    3  502    0 -0.17078390629E+03  0.18506713395E+03  0.11338796922E+03  0.27617715022E+03  0.50400001928E-02 0. -1.
       -1    1    3    3    0  502  0.17078390629E+03 -0.18506713395E+03 -0.61702028139E+03  0.66643155267E+03  0.50400001928E-02 0.  1.
</event>
<event>
 5   0  0.4385875E-03  0.7963885E+03  0.7818609E-02  0.9565259E-01
        3   -1    0    0  501    0  0.00000000000E+00  0.00000000000E+00  0.61348353044E+02  0.61348436184E+02  0.10100000352E+00 0.  1.
       -3   -1    0    0    0  501  0.00000000000E+00  0.00000000000E+00 -0.25845607433E+04  0.25845607453E+04  0.10100000352E+00 0. -1.
    10030    2    1    2    0    0  0.00000000000E+00  0.00000000000E+00 -0.25232123903E+04  0.26459091815E+04  0.79638849200E+03 0.  0.
        2    1    3    3  502    0 -0.41871753701E+02 -0.34326219069E+03 -0.60568558483E+03  0.69745050218E+03  0.25500000920E-02 0.  1.
       -2    1    3    3    0  502  0.41871753701E+02  0.34326219069E+03 -0.19175268054E+04  0.19484586793E+04  0.25500000920E-02 0. -1.
</event>
<event>
 5   0  0.1154714E-02  0.8087229E+03  0.7818609E-02  0.9547476E-01
        2   -1    0    0  501    0  0.00000000000E+00  0.00000000000E+00  0.10871409834E+04  0.10871409834E+04  0.25500000920E-02 0. -1.
       -2   -1    0    0    0  501  0.00000000000E+00  0.00000000000E+00 -0.15040201414E+03  0.15040201416E+03  0.25500000920E-02 0.  1.
    10030    2    1    2    0    0  0.00000000000E+00  0.00000000000E+00  0.93673896926E+03  0.12375429976E+04  0.80872292801E+03 0.  0.
        5    1    3    3  502    0  0.90485043477E+02 -0.75947871774E+02  0.10601019626E+04  0.10666742162E+04  0.46999998093E+01 0. -1.
       -5    1    3    3    0  502 -0.90485043477E+02  0.75947871774E+02 -0.12336299336E+03  0.17086878138E+03  0.46999998093E+01 0.  1.
</event>
<event>
 5   0  0.6517392E-03  0.8005782E+03  0.7818609E-02  0.9559181E-01
        1   -1    0    0  501    0  0.00000000000E+00  0.00000000000E+00  0.16960089500E+03  0.16960089507E+03  0.50400001928E-02 0.  1.
       -1   -1    0    0    0  501  0.00000000000E+00  0.00000000000E+00 -0.94475532101E+03  0.94475532102E+03  0.50400001928E-02 0. -1.
    10030    2    1    2    0    0  0.00000000000E+00  0.00000000000E+00 -0.77515442602E+03  0.11143562161E+04  0.80057816119E+03 0.  0.
        3    1    3    3  502    0 -0.24145584409E+03  0.91982543538E+02  0.37977643346E+02  0.26115900244E+03  0.10100000352E+00 0.  1.
       -3    1    3    3    0  502  0.24145584409E+03 -0.91982543538E+02 -0.81313206936E+03  0.85319721365E+03  0.10100000352E+00 0. -1.
</event>
<event>
 5   0  0.4385875E-03  0.8025895E+03  0.7818609E-02  0.9556276E-01
        3   -1    0    0  501    0  0.00000000000E+00  0.00000000000E+00  0.11721517171E+03  0.11721521522E+03  0.10100000352E+00 0. -1.
       -3   -1    0    0    0  501  0.00000000000E+00  0.00000000000E+00 -0.13738616841E+04  0.13738616878E+04  0.10100000352E+00 0.  1.
    10030    2    1    2    0    0  0.00000000000E+00  0.00000000000E+00 -0.12566465124E+04  0.14910769030E+04  0.80258948015E+03 0.  0.
        4    1    3    3  502    0 -0.29919556457E+03  0.25435893618E+03 -0.78174245205E+03  0.87483674392E+03  0.12699999809E+01 0.  1.
       -4    1    3    3    0  502  0.29919556457E+03 -0.25435893618E+03 -0.47490406033E+03  0.61624015910E+03  0.12699999809E+01 0. -1.
</event>
<event>
 5   0  0.1121480E-02  0.8019352E+03  0.7818609E-02  0.9557220E-01
        2   -1    0    0  501    0  0.00000000000E+00  0.00000000000E+00  0.12765632375E+04  0.12765632375E+04  0.25500000920E-02 0.  1.
       -2   -1    0    0    0  501  0.00000000000E+00  0.00000000000E+00 -0.12594362192E+03  0.12594362195E+03  0.25500000920E-02 0. -1.
    10030    2    1    2    0    0  0.00000000000E+00  0.00000000000E+00  0.11506196156E+04  0.14025068594E+04  0.80193515389E+03 0.  0.
        2    1    3    3  502    0  0.35717511806E+03 -0.35022355034E+02  0.26258183977E+03  0.44469073848E+03  0.25500000920E-02 0.  1.
       -2    1    3    3    0  502 -0.35717511806E+03  0.35022355034E+02  0.88803777578E+03  0.95781612094E+03  0.25500000920E-02 0. -1.
</event>
<event>
 5   0  0.6557679E-03  0.8010722E+03  0.7818609E-02  0.9558466E-01
       -1   -1    0    0    0  501  0.00000000000E+00  0.00000000000E+00  0.18536763403E+03  0.18536763410E+03  0.50400001928E-02 0. -1.
        1   -1    0    0  501    0  0.00000000000E+00  0.00000000000E+00 -0.86546483146E+03  0.86546483148E+03  0.50400001928E-02 0.  1.
    10030    2    1    2    0    0  0.00000000000E+00  0.00000000000E+00 -0.68009719744E+03  0.10508324656E+04  0.80107220196E+03 0.  0.
        1    1    3    3  502    0 -0.28522744188E+03 -0.47796440193E+01 -0.70887095138E+03  0.76411750688E+03  0.50400001928E-02 0.  1.
       -1    1    3    3    0  502  0.28522744188E+03  0.47796440193E+01  0.28773753941E+02  0.28671495869E+03  0.50400001928E-02 0. -1.
</event>
<event>
 5   0  0.1092868E-02  0.7941622E+03  0.7818609E-02  0.9568506E-01
        2   -1    0    0  501    0  0.00000000000E+00  0.00000000000E+00  0.44932356687E+03  0.44932356687E+03  0.25500000920E-02 0.  1.
       -2   -1    0    0    0  501  0.00000000000E+00  0.00000000000E+00 -0.35091280498E+03  0.35091280499E+03  0.25500000920E-02 0. -1.
    10030    2    1    2    0    0  0.00000000000E+00  0.00000000000E+00  0.98410761885E+02  0.80023637187E+03  0.79416218294E+03 0.  0.
        3    1    3    3  502    0  0.17511785543E+03  0.20980143703E+03 -0.24107869591E+03  0.36441988707E+03  0.10100000352E+00 0. -1.
       -3    1    3    3    0  502 -0.17511785543E+03 -0.20980143703E+03  0.33948945779E+03  0.43581648480E+03  0.10100000352E+00 0.  1.
</event>
<event>
 5   0  0.1121480E-02  0.7982485E+03  0.7818609E-02  0.9562556E-01
        2   -1    0    0  501    0  0.00000000000E+00  0.00000000000E+00  0.82732068154E+03  0.82732068155E+03  0.25500000920E-02 0.  1.
       -2   -1    0    0    0  501  0.00000000000E+00  0.00000000000E+00 -0.19254947798E+03  0.19254947799E+03  0.25500000920E-02 0. -1.
    10030    2    1    2    0    0  0.00000000000E+00  0.00000000000E+00  0.63477120357E+03  0.10198701595E+04  0.79824849605E+03 0.  0.
        2    1    3    3  502    0  0.36799999027E+02 -0.99122968255E+02  0.80910172896E+03  0.81598113371E+03  0.25500000920E-02 0.  1.
       -2    1    3    3    0  502 -0.36799999027E+02  0.99122968255E+02 -0.17433052539E+03  0.20388902583E+03  0.25500000920E-02 0. -1.
</event>
<event>
 5   0  0.6557679E-03  0.7997963E+03  0.7818609E-02  0.9560312E-01
       -1   -1    0    0    0  501  0.00000000000E+00  0.00000000000E+00  0.34000681188E+03  0.34000681192E+03  0.50400001928E-02 0. -1.
        1   -1    0    0  501    0  0.00000000000E+00  0.00000000000E+00 -0.47033919561E+03  0.47033919564E+03  0.50400001928E-02 0.  1.
    10030    2    1    2    0    0  0.00000000000E+00  0.00000000000E+00 -0.13033238373E+03  0.81034600756E+03  0.79979630014E+03 0.  0.
        1    1    3    3  502    0 -0.15464933529E+03 -0.17342973213E+03  0.26458683251E+03  0.35213702000E+03  0.50400001928E-02 0. -1.
       -1    1    3    3    0  502  0.15464933529E+03  0.17342973213E+03 -0.39491921624E+03  0.45820898756E+03  0.50400001928E-02 0.  1.
</event>
<event>
 5   0  0.1154714E-02  0.8415935E+03  0.7818609E-02  0.9501690E-01
        2   -1    0    0  501    0  0.00000000000E+00  0.00000000000E+00  0.67777574161E+03  0.67777574162E+03  0.25500000920E-02 0. -1.
       -2   -1    0    0    0  501  0.00000000000E+00  0.00000000000E+00 -0.26125145684E+03  0.26125145685E+03  0.25500000920E-02 0.  1.
    10030    2    1    2    0    0  0.00000000000E+00  0.00000000000E+00  0.41652428477E+03  0.93902719847E+03  0.84159348836E+03 0.  0.
        5    1    3    3  502    0 -0.11148906216E+03 -0.29774353449E+03 -0.99267995575E+02  0.33310245910E+03  0.46999998093E+01 0.  1.
       -5    1    3    3    0  502  0.11148906216E+03  0.29774353449E+03  0.51579228035E+03  0.60592473937E+03  0.46999998093E+01 0. -1.
</event>
<event>
 5   0  0.1121480E-02  0.8022177E+03  0.7818609E-02  0.9556813E-01
        2   -1    0    0  501    0  0.00000000000E+00  0.00000000000E+00  0.33024802112E+03  0.33024802113E+03  0.25500000920E-02 0.  1.
       -2   -1    0    0    0  501  0.00000000000E+00  0.00000000000E+00 -0.48717421602E+03  0.48717421603E+03  0.25500000920E-02 0. -1.
    10030    2    1    2    0    0  0.00000000000E+00  0.00000000000E+00 -0.15692619490E+03  0.81742223716E+03  0.80221772802E+03 0.  0.
        2    1    3    3  502    0  0.31084788440E+03 -0.25298031235E+03 -0.94983815692E+02  0.41188271501E+03  0.25500000920E-02 0. -1.
       -2    1    3    3    0  502 -0.31084788440E+03  0.25298031235E+03 -0.61942379207E+02  0.40553952215E+03  0.25500000920E-02 0.  1.
</event>
<event>
 5   0  0.1154714E-02  0.7949964E+03  0.7818609E-02  0.9567288E-01
        2   -1    0    0  501    0  0.00000000000E+00  0.00000000000E+00  0.11866338516E+04  0.11866338516E+04  0.25500000920E-02 0. -1.
       -2   -1    0    0    0  501  0.00000000000E+00  0.00000000000E+00 -0.13315381205E+03  0.13315381208E+03  0.25500000920E-02 0.  1.
    10030    2    1    2    0    0  0.00000000000E+00  0.00000000000E+00  0.10534800396E+04  0.13197876637E+04  0.79499640471E+03 0.  0.
        5    1    3    3  502    0 -0.20144359011E+03  0.80850414614E+02  0.10795029554E+04  0.11011198982E+04  0.46999998093E+01 0. -1.
       -5    1    3    3    0  502  0.20144359011E+03 -0.80850414614E+02 -0.26022915781E+02  0.21866776553E+03  0.46999998093E+01 0.  1.
</event>
<event>
 5   0  0.6557679E-03  0.8130061E+03  0.7818609E-02  0.9541380E-01
       -1   -1    0    0    0  501  0.00000000000E+00  0.00000000000E+00  0.28019547188E+03  0.28019547192E+03  0.50400001928E-02 0.  1.
        1   -1    0    0  501    0  0.00000000000E+00  0.00000000000E+00 -0.58974804129E+03  0.58974804131E+03  0.50400001928E-02 0. -1.
    10030    2    1    2    0    0  0.00000000000E+00  0.00000000000E+00 -0.30955256941E+03  0.86994351323E+03  0.81300610268E+03 0.  0.
        1    1    3    3  502    0  0.14330326143E+03  0.22527932201E+02  0.25155661212E+03  0.29038605613E+03  0.50400001928E-02 0.  1.
       -1    1    3    3    0  502 -0.14330326143E+03 -0.22527932201E+02 -0.56110918153E+03  0.57955745711E+03  0.50400001928E-02 0. -1.
</event>
<event>
 5   0  0.1119792E-02  0.7967697E+03  0.7818609E-02  0.9564705E-01
       -2   -1    0    0    0  501  0.00000000000E+00  0.00000000000E+00  0.41141331345E+03  0.41141331345E+03  0.25500000920E-02 0.  1.
        2   -1    0    0  501    0  0.00000000000E+00  0.00000000000E+00 -0.38576896411E+03  0.38576896412E+03  0.25500000920E-02 0. -1.
    10030    2    1    2    0    0  0.00000000000E+00  0.00000000000E+00  0.25644349335E+02  0.79718227757E+03  0.79676969761E+03 0.  0.
        4    1    3    3  502    0 -0.13182033519E+03  0.33138222182E+03 -0.16480312403E+03  0.39287715675E+03  0.12699999809E+01 0. -1.
       -4    1    3    3    0  502  0.13182033519E+03 -0.33138222182E+03  0.19044747337E+03  0.40430512082E+03  0.12699999809E+01 0.  1.
</event>
<event>
 5   0  0.1092868E-02  0.8019606E+03  0.7818609E-02  0.9557184E-01
        2   -1    0    0  501    0  0.00000000000E+00  0.00000000000E+00  0.10117153904E+04  0.10117153904E+04  0.25500000920E-02 0.  1.
       -2   -1    0    0    0  501  0.00000000000E+00  0.00000000000E+00 -0.15892333861E+03  0.15892333864E+03  0.25500000920E-02 0. -1.
    10030    2    1    2    0    0  0.00000000000E+00  0.00000000000E+00  0.85279205180E+03  0.11706387291E+04  0.80196056658E+03 0.  0.
        3    1    3    3  502    0 -0.38396924425E+03  0.38658490928E+02  0.58535367061E+03  0.70111752891E+03  0.10100000352E+00 0.  1.
       -3    1    3    3    0  502  0.38396924425E+03 -0.38658490928E+02  0.26743838119E+03  0.46952120014E+03  0.10100000352E+00 0. -1.
</event>
<event>
 5   0  0.1154714E-02  0.8114349E+03  0.7818609E-02  0.9543611E-01
        2   -1    0    0  501    0  0.00000000000E+00  0.00000000000E+00  0.58637199505E+03  0.58637199505E+03  0.25500000920E-02 0. -1.
       -2   -1    0    0    0  501  0.00000000000E+00  0.00000000000E+00 -0.28072053182E+03  0.28072053183E+03  0.25500000920E-02 0.  1.
    10030    2    1    2    0    0  0.00000000000E+00  0.00000000000E+00  0.30565146323E+03  0.86709252688E+03  0.81143492234E+03 0.  0.
        5    1    3    3  502    0  0.27110761525E+03 -0.14209425256E+02  0.47497254797E+03  0.54710351684E+03  0.46999998093E+01 0. -1.
       -5    1    3    3    0  502 -0.27110761525E+03  0.14209425256E+02 -0.16932108474E+03  0.31998901004E+03  0.46999998093E+01 0.  1.
</event>
<event>
 5   0  0.1092868E-02  0.7746984E+03  0.7818609E-02  0.9597380E-01
       -2   -1    0    0    0  501  0.00000000000E+00  0.00000000000E+00  0.14489643385E+03  0.14489643387E+03  0.25500000920E-02 0. -1.
        2   -1    0    0  501    0  0.00000000000E+00  0.00000000000E+00 -0.10354940715E+04  0.10354940715E+04  0.25500000920E-02 0.  1.
    10030    2    1    2    0    0  0.00000000000E+00  0.00000000000E+00 -0.89059763764E+03  0.11803905054E+04  0.77469838840E+03 0.  0.
        3    1    3    3  502    0 -0.19267481761E+03 -0.25707509747E+03 -0.77501994401E+03  0.83896788669E+03  0.10100000352E+00 0.  1.
       -3    1    3    3    0  502  0.19267481761E+03  0.25707509747E+03 -0.11557769363E+03  0.34142261868E+03  0.10100000352E+00 0. -1.
</event>
<event>
 5   0  0.6517392E-03  0.7335902E+03  0.7818609E-02  0.9661452E-01
        1   -1    0    0  501    0  0.00000000000E+00  0.00000000000E+00  0.62268398880E+03  0.62268398882E+03  0.50400001928E-02 0. -1.
       -1   -1    0    0    0  501  0.00000000000E+00  0.00000000000E+00 -0.21606246727E+03  0.21606246732E+03  0.50400001928E-02 0.  1.
    10030    2    1    2    0    0  0.00000000000E+00  0.00000000000E+00  0.40662152153E+03  0.83874645614E+03  0.73359018254E+03 0.  0.
        3    1    3    3  502    0 -0.19618412333E+03  0.40123323830E+02  0.55467407299E+03  0.58971300546E+03  0.10100000352E+00 0. -1.
       -3    1    3    3    0  502  0.19618412333E+03 -0.40123323830E+02 -0.14805255146E+03  0.24903345068E+03  0.10100000352E+00 0.  1.
</event>
<event>
 5   0  0.6517392E-03  0.8017434E+03  0.7818609E-02  0.9557497E-01
       -1   -1    0    0    0  501  0.00000000000E+00  0.00000000000E+00  0.18065105960E+03  0.18065105967E+03  0.50400001928E-02 0.  1.
        1   -1    0    0  501    0  0.00000000000E+00  0.00000000000E+00 -0.88954977096E+03  0.88954977098E+03  0.50400001928E-02 0. -1.
    10030    2    1    2    0    0  0.00000000000E+00  0.00000000000E+00 -0.70889871136E+03  0.10702008307E+04  0.80174337226E+03 0.  0.
        3    1    3    3  502    0 -0.31167552322E+03 -0.21188281739E+03 -0.53680138840E+03  0.65589000668E+03  0.10100000352E+00 0. -1.
       -3    1    3    3    0  502  0.31167552322E+03  0.21188281739E+03 -0.17209732297E+03  0.41431082397E+03  0.10100000352E+00 0.  1.
</event>
<event>
 5   0  0.1119792E-02  0.7989641E+03  0.7818609E-02  0.9561518E-01
       -2   -1    0    0    0  501  0.00000000000E+00  0.00000000000E+00  0.18419502993E+03  0.18419502995E+03  0.25500000920E-02 0. -1.
        2   -1    0    0  501    0  0.00000000000E+00  0.00000000000E+00 -0.86639628495E+03  0.86639628496E+03  0.25500000920E-02 0.  1.
    10030    2    1    2    0    0  0.00000000000E+00  0.00000000000E+00 -0.68220125502E+03  0.10505913149E+04  0.79896405338E+03 0.  0.
        4    1    3    3  502    0  0.33291179411E+03  0.84496613922E+02 -0.60934341436E+03  0.69947905612E+03  0.12699999809E+01 0.  1.
       -4    1    3    3    0  502 -0.33291179411E+03 -0.84496613922E+02 -0.72857840664E+02  0.35111225879E+03  0.12699999809E+01 0. -1.
</event>
<event>
 5   0  0.6596225E-03  0.8029168E+03  0.7818609E-02  0.9555805E-01
        1   -1    0    0  501    0  0.00000000000E+00  0.00000000000E+00  0.40514188482E+03  0.40514188486E+03  0.50400001928E-02 0.  1.
       -1   -1    0    0    0  501  0.00000000000E+00  0.00000000000E+00 -0.39780839634E+03  0.39780839637E+03  0.50400001928E-02 0. -1.
    10030    2    1    2    0    0  0.00000000000E+00  0.00000000000E+00  0.73334884813E+01  0.80295028123E+03  0.80291679150E+03 0.  0.
        5    1    3    3  502    0  0.29591932774E+03 -0.19101642363E+03 -0.18893212677E+03  0.39971610069E+03  0.46999998093E+01 0. -1.
       -5    1    3    3    0  502 -0.29591932774E+03  0.19101642363E+03  0.19626561526E+03  0.40323418054E+03  0.46999998093E+01 0.  1.
</event>
<event>
 5   0  0.4385875E-03  0.7992277E+03  0.7818609E-02  0.9561136E-01
        3   -1    0    0  501    0  0.00000000000E+00  0.00000000000E+00  0.39861279701E+03  0.39861280980E+03  0.10100000352E+00 0.  1.
       -3   -1    0    0    0  501  0.00000000000E+00  0.00000000000E+00 -0.40061743802E+03  0.40061745075E+03  0.10100000352E+00 0. -1.
    10030    2    1    2    0    0  0.00000000000E+00  0.00000000000E+00 -0.20046410111E+01  0.79923026055E+03  0.79922774651E+03 0.  0.
        2    1    3    3  502    0 -0.20276636083E+03  0.29786255422E+03 -0.17378871240E+03  0.40004851563E+03  0.25500000920E-02 0. -1.
       -2    1    3    3    0  502  0.20276636083E+03 -0.29786255422E+03  0.17178407139E+03  0.39918174492E+03  0.25500000920E-02 0.  1.
</event>
<event>
 5   0  0.6517392E-03  0.8006650E+03  0.7818609E-02  0.9559055E-01
       -1   -1    0    0    0  501  0.00000000000E+00  0.00000000000E+00  0.12866845390E+03  0.12866845399E+03  0.50400001928E-02 0. -1.
        1   -1    0    0  501    0  0.00000000000E+00  0.00000000000E+00 -0.12455741099E+04  0.12455741099E+04  0.50400001928E-02 0.  1.
    10030    2    1    2    0    0  0.00000000000E+00  0.00000000000E+00 -0.11169056560E+04  0.13742425639E+04  0.80066496115E+03 0.  0.
        3    1    3    3  502    0 -0.12807135485E+03 -0.32022925992E+03 -0.20957197059E+03  0.40357090071E+03  0.10100000352E+00 0. -1.
       -3    1    3    3    0  502  0.12807135485E+03  0.32022925992E+03 -0.90733368539E+03  0.97067166317E+03  0.10100000352E+00 0.  1.
</event>
<event>
 5   0  0.6596225E-03  0.8232594E+03  0.7818609E-02  0.9526947E-01
        1   -1    0    0  501    0  0.00000000000E+00  0.00000000000E+00  0.54573180725E+03  0.54573180727E+03  0.50400001928E-02 0. -1.
       -1   -1    0    0    0  501  0.00000000000E+00  0.00000000000E+00 -0.31048036336E+03  0.31048036340E+03  0.50400001928E-02 0.  1.
    10030    2    1    2    0    0  0.00000000000E+00  0.00000000000E+00  0.23525144389E+03  0.85621217067E+03  0.82325939979E+03 0.  0.
        5    1    3    3  502    0 -0.39416181205E+03 -0.11537381999E+03  0.14596083167E+03  0.43589139335E+03  0.46999998093E+01 0.  1.
       -5    1    3    3    0  502  0.39416181205E+03  0.11537381999E+03  0.89290612222E+02  0.42032077732E+03  0.46999998093E+01 0. -1.
</event>
<event>
 5   0  0.6517392E-03  0.7992225E+03  0.7818609E-02  0.9561143E-01
        1   -1    0    0  501    0  0.00000000000E+00  0.00000000000E+00  0.26023283058E+03  0.26023283063E+03  0.50400001928E-02 0.  1.
       -1   -1    0    0    0  501  0.00000000000E+00  0.00000000000E+00 -0.61363946311E+03  0.61363946313E+03  0.50400001928E-02 0. -1.
    10030    2    1    2    0    0  0.00000000000E+00  0.00000000000E+00 -0.35340663253E+03  0.87387229376E+03  0.79922245832E+03 0.  0.
        3    1    3    3  502    0  0.37641043279E+03  0.12482498704E+03 -0.23052533127E+03  0.45870255052E+03  0.10100000352E+00 0.  1.
       -3    1    3    3    0  502 -0.37641043279E+03 -0.12482498704E+03 -0.12288130126E+03  0.41516974324E+03  0.10100000352E+00 0. -1.
</event>
<event>
 5   0  0.1106332E-02  0.8108741E+03  0.7818609E-02  0.9544409E-01
        2   -1    0    0  501    0  0.00000000000E+00  0.00000000000E+00  0.70137526043E+03  0.70137526043E+03  0.25500000920E-02 0. -1.
       -2   -1    0    0    0  501  0.00000000000E+00  0.00000000000E+00 -0.23436695590E+03  0.23436695591E+03  0.25500000920E-02 0.  1.
    10030    2    1    2    0    0  0.00000000000E+00  0.00000000000E+00  0.46700830453E+03  0.93574221634E+03  0.81087405862E+03 0.  0.
        1    1    3    3  502    0 -0.25020376776E+03 -0.14709551284E+03 -0.93179907949E+02  0.30483029798E+03  0.50400001928E-02 0.  1.
       -1    1    3    3    0  502  0.25020376776E+03  0.14709551284E+03  0.56018821248E+03  0.63091191836E+03  0.50400001928E-02 0. -1.
</event>
<event>
 5   0  0.6600401E-03  0.8017446E+03  0.7818609E-02  0.9557495E-01
       -1   -1    0    0    0  501  0.00000000000E+00  0.00000000000E+00  0.63649923384E+03  0.63649923386E+03  0.50400001928E-02 0. -1.
        1   -1    0    0  501    0  0.00000000000E+00  0.00000000000E+00 -0.25247258645E+03  0.25247258650E+03  0.50400001928E-02 0.  1.
    10030    2    1    2    0    0  0.00000000000E+00  0.00000000000E+00  0.38402664740E+03  0.88897182036E+03  0.80174461737E+03 0.  0.
        2    1    3    3  502    0 -0.10792083026E+03  0.14667663689E+03 -0.20396478295E+03  0.27342745675E+03  0.25500000920E-02 0.  1.
       -2    1    3    3    0  502  0.10792083026E+03 -0.14667663689E+03  0.58799143034E+03  0.61554436361E+03  0.25500000920E-02 0. -1.
</event>
<event>
 5   0  0.6517392E-03  0.7989089E+03  0.7818609E-02  0.9561598E-01
       -1   -1    0    0    0  501  0.00000000000E+00  0.00000000000E+00  0.21187837398E+03  0.21187837404E+03  0.50400001928E-02 0.  1.
        1   -1    0    0  501    0  0.00000000000E+00  0.00000000000E+00 -0.75309177843E+03  0.75309177844E+03  0.50400001928E-02 0. -1.
    10030    2    1    2    0    0  0.00000000000E+00  0.00000000000E+00 -0.54121340445E+03  0.96497015248E+03  0.79890890971E+03 0.  0.
        3    1    3    3  502    0 -0.15109938584E+03 -0.18601382486E+03 -0.65661519678E+03  0.69898189839E+03  0.10100000352E+00 0. -1.
       -3    1    3    3    0  502  0.15109938584E+03  0.18601382486E+03  0.11540179233E+03  0.26598825409E+03  0.10100000352E+00 0.  1.
</event>
<event>
 5   0  0.6600401E-03  0.8013034E+03  0.7818609E-02  0.9558132E-01
       -1   -1    0    0    0  501  0.00000000000E+00  0.00000000000E+00  0.11697548252E+03  0.11697548263E+03  0.50400001928E-02 0.  1.
        1   -1    0    0  501    0  0.00000000000E+00  0.00000000000E+00 -0.13722686722E+04  0.13722686722E+04  0.50400001928E-02 0. -1.
    10030    2    1    2    0    0  0.00000000000E+00  0.00000000000E+00 -0.12552931897E+04  0.14892441549E+04  0.80130341361E+03 0.  0.
        2    1    3    3  502    0 -0.95483519666E+02  0.36601931618E+03 -0.87304642357E+03  0.95147112414E+03  0.25500000920E-02 0. -1.
       -2    1    3    3    0  502  0.95483519666E+02 -0.36601931618E+03 -0.38224676612E+03  0.53777303071E+03  0.25500000920E-02 0.  1.
</event>
<event>
 5   0  0.6517392E-03  0.7855696E+03  0.7818609E-02  0.9581143E-01
       -1   -1    0    0    0  501  0.00000000000E+00  0.00000000000E+00  0.41496384071E+03  0.41496384074E+03  0.50400001928E-02 0. -1.
        1   -1    0    0  501    0  0.00000000000E+00  0.00000000000E+00 -0.37179119131E+03  0.37179119135E+03  0.50400001928E-02 0.  1.
    10030    2    1    2    0    0  0.00000000000E+00  0.00000000000E+00  0.43172649393E+02  0.78675503208E+03  0.78556960408E+03 0.  0.
        3    1    3    3  502    0 -0.38532120201E+03  0.66616861309E+02 -0.15478380040E+02  0.39134361548E+03  0.10100000352E+00 0. -1.
       -3    1    3    3    0  502  0.38532120201E+03 -0.66616861309E+02  0.58651029433E+02  0.39541141660E+03  0.10100000352E+00 0.  1.
</event>
<event>
 5   0  0.1154714E-02  0.7962038E+03  0.7818609E-02  0.9565528E-01
       -2   -1    0    0    0  501  0.00000000000E+00  0.00000000000E+00  0.23762603214E+03  0.23762603216E+03  0.25500000920E-02 0. -1.
        2   -1    0    0  501    0  0.00000000000E+00  0.00000000000E+00 -0.66695193377E+03  0.66695193377E+03  0.25500000920E-02 0.  1.
    10030    2    1    2    0    0  0.00000000000E+00  0.00000000000E+00 -0.42932590163E+03  0.90457796593E+03  0.79620384741E+03 0.  0.
        5    1    3    3  502    0 -0.35874149554E+03 -0.13178736167E+03 -0.88152322507E+02  0.39224519281E+03  0.46999998093E+01 0. -1.
       -5    1    3    3    0  502  0.35874149554E+03  0.13178736167E+03 -0.34117357912E+03  0.51233277312E+03  0.46999998093E+01 0.  1.
</event>
<event>
 5   0  0.1106332E-02  0.7958570E+03  0.7818609E-02  0.9566033E-01
       -2   -1    0    0    0  501  0.00000000000E+00  0.00000000000E+00  0.39565779150E+03  0.39565779150E+03  0.25500000920E-02 0.  1.
        2   -1    0    0  501    0  0.00000000000E+00  0.00000000000E+00 -0.40021226054E+03  0.40021226055E+03  0.25500000920E-02 0. -1.
    10030    2    1    2    0    0  0.00000000000E+00  0.00000000000E+00 -0.45544690449E+01  0.79587005205E+03  0.79585702018E+03 0.  0.
        1    1    3    3  502    0 -0.19773081691E+03  0.53074535994E+01  0.34301301808E+03  0.39595905801E+03  0.50400001928E-02 0.  1.
       -1    1    3    3    0  502  0.19773081691E+03 -0.53074535994E+01 -0.34756748713E+03  0.39991099404E+03  0.50400001928E-02 0. -1.
</event>
<event>
 5   0  0.6557679E-03  0.8013356E+03  0.7818609E-02  0.9558086E-01
        1   -1    0    0  501    0  0.00000000000E+00  0.00000000000E+00  0.14733804497E+04  0.14733804497E+04  0.50400001928E-02 0. -1.
       -1   -1    0    0    0  501  0.00000000000E+00  0.00000000000E+00 -0.10895670737E+03  0.10895670749E+03  0.50400001928E-02 0.  1.
    10030    2    1    2    0    0  0.00000000000E+00  0.00000000000E+00  0.13644237423E+04  0.15823371572E+04  0.80133559162E+03 0.  0.
        1    1    3    3  502    0  0.73615945678E+02  0.37018719759E+03  0.94770026308E+03  0.10200949257E+04  0.50400001928E-02 0.  1.
       -1    1    3    3    0  502 -0.73615945678E+02 -0.37018719759E+03  0.41672347921E+03  0.56224223149E+03  0.50400001928E-02 0. -1.
</event>
<event>
 5   0  0.1121480E-02  0.7988146E+03  0.7818609E-02  0.9561734E-01
       -2   -1    0    0    0  501  0.00000000000E+00  0.00000000000E+00  0.24647481867E+03  0.24647481869E+03  0.25500000920E-02 0. -1.
        2   -1    0    0  501    0  0.00000000000E+00  0.00000000000E+00 -0.64723126663E+03  0.64723126664E+03  0.25500000920E-02 0.  1.
    10030    2    1    2    0    0  0.00000000000E+00  0.00000000000E+00 -0.40075644796E+03  0.89370608532E+03  0.79881464456E+03 0.  0.
        2    1    3    3  502    0 -0.10296850401E+03  0.37979814394E+03 -0.12386518493E+03  0.41254300018E+03  0.25500000920E-02 0. -1.
       -2    1    3    3    0  502  0.10296850401E+03 -0.37979814394E+03 -0.27689126303E+03  0.48116308514E+03  0.25500000920E-02 0.  1.
</event>
<event>
 5   0  0.1154714E-02  0.7952794E+03  0.7818609E-02  0.9566875E-01
       -2   -1    0    0    0  501  0.00000000000E+00  0.00000000000E+00  0.18814819859E+03  0.18814819860E+03  0.25500000920E-02 0. -1.
        2   -1    0    0  501    0  0.00000000000E+00  0.00000000000E+00 -0.84038706767E+03  0.84038706768E+03  0.25500000920E-02 0.  1.
    10030    2    1    2    0    0  0.00000000000E+00  0.00000000000E+00 -0.65223886908E+03  0.10285352663E+04  0.79527935446E+03 0.  0.
        5    1    3    3  502    0  0.33892639678E+03  0.83930114686E+02 -0.80120685849E+02  0.35826914587E+03  0.46999998093E+01 0. -1.
       -5    1    3    3    0  502 -0.33892639678E+03 -0.83930114686E+02 -0.57211818324E+03  0.67026612041E+03  0.46999998093E+01 0.  1.
</event>
<event>
 5   0  0.6600401E-03  0.7990321E+03  0.7818609E-02  0.9561419E-01
       -1   -1    0    0    0  501  0.00000000000E+00  0.00000000000E+00  0.22525572266E+03  0.22525572271E+03  0.50400001928E-02 0. -1.
        1   -1    0    0  501    0  0.00000000000E+00  0.00000000000E+00 -0.70858604742E+03  0.70858604743E+03  0.50400001928E-02 0.  1.
    10030    2    1    2    0    0  0.00000000000E+00  0.00000000000E+00 -0.48333032476E+03  0.93384177015E+03  0.79903206997E+03 0.  0.
        2    1    3    3  502    0 -0.82351071941E+02 -0.23235845253E+03 -0.60909757017E+03  0.65709360026E+03  0.25500000920E-02 0.  1.
       -2    1    3    3    0  502  0.82351071941E+02  0.23235845253E+03  0.12576724541E+03  0.27674816989E+03  0.25500000920E-02 0. -1.
</event>
<event>
 5   0  0.1121480E-02  0.7974950E+03  0.7818609E-02  0.9563650E-01
        2   -1    0    0  501    0  0.00000000000E+00  0.00000000000E+00  0.28447623910E+03  0.28447623911E+03  0.25500000920E-02 0. -1.
       -2   -1    0    0    0  501  0.00000000000E+00  0.00000000000E+00 -0.55892037958E+03  0.55892037959E+03  0.25500000920E-02 0.  1.
    10030    2    1    2    0    0  0.00000000000E+00  0.00000000000E+00 -0.27444414048E+03  0.84339661870E+03  0.79749499697E+03 0.  0.
        2    1    3    3  502    0  0.34876215964E+03  0.87933096843E+01 -0.34143525659E+03  0.48814997771E+03  0.25500000920E-02 0.  1.
       -2    1    3    3    0  502 -0.34876215964E+03 -0.87933096843E+01  0.66991116107E+02  0.35524664099E+03  0.25500000920E-02 0. -1.
</event>
<event>
 5   0  0.1092868E-02  0.7694445E+03  0.7818609E-02  0.9605329E-01
        2   -1    0    0  501    0  0.00000000000E+00  0.00000000000E+00  0.65675297339E+03  0.65675297340E+03  0.25500000920E-02 0.  1.
       -2   -1    0    0    0  501  0.00000000000E+00  0.00000000000E+00 -0.22536816709E+03  0.22536816711E+03  0.25500000920E-02 0. -1.
    10030    2    1    2    0    0  0.00000000000E+00  0.00000000000E+00  0.43138480630E+03  0.88212114051E+03  0.76944451094E+03 0.  0.
        3    1    3    3  502    0 -0.46056490652E+02 -0.36835188010E+03  0.33151619106E+03  0.49770202234E+03  0.10100000352E+00 0. -1.
       -3    1    3    3    0  502  0.46056490652E+02  0.36835188010E+03  0.99868615243E+02  0.38441911817E+03  0.10100000352E+00 0.  1.
</event>
<event>
 5   0  0.6596225E-03  0.8007976E+03  0.7818609E-02  0.9558863E-01
        1   -1    0    0  501    0  0.00000000000E+00  0.00000000000E+00  0.91372562141E+03  0.91372562142E+03  0.50400001928E-02 0.  1.
       -1   -1    0    0    0  501  0.00000000000E+00  0.00000000000E+00 -0.17545663055E+03  0.17545663062E+03  0.50400001928E-02 0. -1.
    10030    2    1    2    0    0  0.00000000000E+00  0.00000000000E+00  0.73826899086E+03  0.10891822520E+04  0.80079764942E+03 0.  0.
        5    1    3    3  502    0 -0.66965912759E+02 -0.12094757612E+03  0.88019355396E+03  0.89099693157E+03  0.46999998093E+01 0.  1.
       -5    1    3    3    0  502  0.66965912759E+02  0.12094757612E+03 -0.14192456310E+03  0.19818532048E+03  0.46999998093E+01 0. -1.
</event>
<event>
 5   0  0.6596225E-03  0.8035032E+03  0.7818609E-02  0.9554960E-01
       -1   -1    0    0    0  501  0.00000000000E+00  0.00000000000E+00  0.39636608610E+03  0.39636608613E+03  0.50400001928E-02 0. -1.
        1   -1    0    0  501    0  0.00000000000E+00  0.00000000000E+00 -0.40721027529E+03  0.40721027532E+03  0.50400001928E-02 0.  1.
    10030    2    1    2    0    0  0.00000000000E+00  0.00000000000E+00 -0.10844189193E+02  0.80357636145E+03  0.80350318745E+03 0.  0.
        5    1    3    3  502    0 -0.20638142163E+03  0.22523179227E+02  0.33853024624E+03  0.39714657547E+03  0.46999998093E+01 0. -1.
       -5    1    3    3    0  502  0.20638142163E+03 -0.22523179227E+02 -0.34937443543E+03  0.40642978597E+03  0.46999998093E+01 0.  1.
</event>
<event>
 5   0  0.1106332E-02  0.7982247E+03  0.7818609E-02  0.9562590E-01
        2   -1    0    0  501    0  0.00000000000E+00  0.00000000000E+00  0.11308526724E+04  0.11308526724E+04  0.25500000920E-02 0.  1.
       -2   -1    0    0    0  501  0.00000000000E+00  0.00000000000E+00 -0.14085889913E+03  0.14085889916E+03  0.25500000920E-02 0. -1.
    10030    2    1    2    0    0  0.00000000000E+00  0.00000000000E+00  0.98999377326E+03  0.12717115715E+04  0.79822468649E+03 0.  0.
        1    1    3    3  502    0 -0.31047850868E+03  0.25038810127E+03  0.47249096317E+03  0.61833552050E+03  0.50400001928E-02 0.  1.
       -1    1    3    3    0  502  0.31047850868E+03 -0.25038810127E+03  0.51750281009E+03  0.65337605105E+03  0.50400001928E-02 0. -1.
</event>
<event>
 5   0  0.6551489E-03  0.8006258E+03  0.7818609E-02  0.9559112E-01
       -1   -1    0    0    0  501  0.00000000000E+00  0.00000000000E+00  0.24623413713E+03  0.24623413719E+03  0.50400001928E-02 0. -1.
        1   -1    0    0  501    0  0.00000000000E+00  0.00000000000E+00 -0.65080507042E+03  0.65080507043E+03  0.50400001928E-02 0.  1.
    10030    2    1    2    0    0  0.00000000000E+00  0.00000000000E+00 -0.40457093328E+03  0.89703920762E+03  0.80062581769E+03 0.  0.
        4    1    3    3  502    0 -0.23494014345E+03 -0.19532116061E+03 -0.49208657315E+03  0.57922192220E+03  0.12699999809E+01 0.  1.
       -4    1    3    3    0  502  0.23494014345E+03  0.19532116061E+03  0.87515639870E+02  0.31781728542E+03  0.12699999809E+01 0. -1.
</event>
<event>
 5   0  0.6600401E-03  0.8003955E+03  0.7818609E-02  0.9559445E-01
        1   -1    0    0  501    0  0.00000000000E+00  0.00000000000E+00  0.10424362678E+04  0.10424362678E+04  0.50400001928E-02 0. -1.
       -1   -1    0    0    0  501  0.00000000000E+00  0.00000000000E+00 -0.15363839469E+03  0.15363839477E+03  0.50400001928E-02 0.  1.
    10030    2    1    2    0    0  0.00000000000E+00  0.00000000000E+00  0.88879787313E+03  0.11960746626E+04  0.80039548928E+03 0.  0.
        2    1    3    3  502    0 -0.19244044710E+03  0.36134127826E+02 -0.77169846451E+02  0.21046183997E+03  0.25500000920E-02 0.  1.
       -2    1    3    3    0  502  0.19244044710E+03 -0.36134127826E+02  0.96596771958E+03  0.98561282264E+03  0.25500000920E-02 0. -1.
</event>
<event>
 5   0  0.1119792E-02  0.8083817E+03  0.7818609E-02  0.9547964E-01
       -2   -1    0    0    0  501  0.00000000000E+00  0.00000000000E+00  0.40356137129E+03  0.40356137130E+03  0.25500000920E-02 0.  1.
        2   -1    0    0  501    0  0.00000000000E+00  0.00000000000E+00 -0.40482132772E+03  0.40482132773E+03  0.25500000920E-02 0. -1.
    10030    2    1    2    0    0  0.00000000000E+00  0.00000000000E+00 -0.12599564328E+01  0.80838269903E+03  0.80838171713E+03 0.  0.
        4    1    3    3  502    0 -0.98029794913E+02 -0.14148504383E+03 -0.36633628637E+03  0.40476134441E+03  0.12699999809E+01 0. -1.
       -4    1    3    3    0  502  0.98029794913E+02  0.14148504383E+03  0.36507632994E+03  0.40362135461E+03  0.12699999809E+01 0.  1.
</event>
<event>
 5   0  0.1121480E-02  0.8131223E+03  0.7818609E-02  0.9541215E-01
        2   -1    0    0  501    0  0.00000000000E+00  0.00000000000E+00  0.81884436341E+03  0.81884436342E+03  0.25500000920E-02 0. -1.
       -2   -1    0    0    0  501  0.00000000000E+00  0.00000000000E+00 -0.20186004084E+03  0.20186004085E+03  0.25500000920E-02 0.  1.
    10030    2    1    2    0    0  0.00000000000E+00  0.00000000000E+00  0.61698432257E+03  0.10207044043E+04  0.81312227038E+03 0.  0.
        2    1    3    3  502    0  0.35093907313E+02 -0.34558171684E+03  0.43291049258E+02  0.35004631165E+03  0.25500000920E-02 0.  1.
       -2    1    3    3    0  502 -0.35093907313E+02  0.34558171684E+03  0.57369327332E+03  0.67065809262E+03  0.25500000920E-02 0. -1.
</event>
<event>
 5   0  0.1092868E-02  0.8006863E+03  0.7818609E-02  0.9559024E-01
       -2   -1    0    0    0  501  0.00000000000E+00  0.00000000000E+00  0.33244926608E+03  0.33244926608E+03  0.25500000920E-02 0.  1.
        2   -1    0    0  501    0  0.00000000000E+00  0.00000000000E+00 -0.48210251186E+03  0.48210251186E+03  0.25500000920E-02 0. -1.
    10030    2    1    2    0    0  0.00000000000E+00  0.00000000000E+00 -0.14965324578E+03  0.81455177795E+03  0.80068627126E+03 0.  0.
        3    1    3    3  502    0 -0.23280856675E+03  0.29644483204E+03 -0.21205227830E+03  0.43248762541E+03  0.10100000352E+00 0. -1.
       -3    1    3    3    0  502  0.23280856675E+03 -0.29644483204E+03  0.62399032521E+02  0.38206415254E+03  0.10100000352E+00 0.  1.
</event>
<event>
 5   0  0.4385875E-03  0.8000645E+03  0.7818609E-02  0.9559924E-01
        4   -1    0    0  501    0  0.00000000000E+00  0.00000000000E+00  0.31827916483E+03  0.31828169860E+03  0.12699999809E+01 0.  1.
       -4   -1    0    0    0  501  0.00000000000E+00  0.00000000000E+00 -0.50277901347E+03  0.50278061746E+03  0.12699999809E+01 0. -1.
    10030    2    1    2    0    0  0.00000000000E+00  0.00000000000E+00 -0.18449984865E+03  0.82106231605E+03  0.80006445534E+03 0.  0.
        1    1    3    3  502    0 -0.21411374110E+03 -0.38492616123E+02  0.25226810955E+03  0.33311495726E+03  0.50400001928E-02 0.  1.
       -1    1    3    3    0  502  0.21411374110E+03  0.38492616123E+02 -0.43676795820E+03  0.48794735880E+03  0.50400001928E-02 0. -1.
</event>
<event>
 5   0  0.1119792E-02  0.7951687E+03  0.7818609E-02  0.9567037E-01
        2   -1    0    0  501    0  0.00000000000E+00  0.00000000000E+00  0.16353297042E+04  0.16353297042E+04  0.25500000920E-02 0. -1.
       -2   -1    0    0    0  501  0.00000000000E+00  0.00000000000E+00 -0.96661433074E+02  0.96661433108E+02  0.25500000920E-02 0.  1.
    10030    2    1    2    0    0  0.00000000000E+00  0.00000000000E+00  0.15386682711E+04  0.17319911373E+04  0.79516869351E+03 0.  0.
        4    1    3    3  502    0  0.99015351933E+02  0.37386892442E+03  0.97002714239E+03  0.10442874520E+04  0.12699999809E+01 0. -1.
       -4    1    3    3    0  502 -0.99015351933E+02 -0.37386892442E+03  0.56864112871E+03  0.68770368527E+03  0.12699999809E+01 0.  1.
</event>
<event>
 5   0  0.1092868E-02  0.8100507E+03  0.7818609E-02  0.9545582E-01
        2   -1    0    0  501    0  0.00000000000E+00  0.00000000000E+00  0.21495369646E+03  0.21495369648E+03  0.25500000920E-02 0. -1.
       -2   -1    0    0    0  501  0.00000000000E+00  0.00000000000E+00 -0.76316689992E+03  0.76316689992E+03  0.25500000920E-02 0.  1.
    10030    2    1    2    0    0  0.00000000000E+00  0.00000000000E+00 -0.54821320346E+03  0.97812059640E+03  0.81005072969E+03 0.  0.
        3    1    3    3  502    0 -0.25811642738E+03  0.25987861026E+03 -0.48284559014E+03  0.60605350941E+03  0.10100000352E+00 0.  1.
       -3    1    3    3    0  502  0.25811642738E+03 -0.25987861026E+03 -0.65367613312E+02  0.37206708699E+03  0.10100000352E+00 0. -1.
</event>
<event>
 5   0  0.6517392E-03  0.8030216E+03  0.7818609E-02  0.9555654E-01
        1   -1    0    0  501    0  0.00000000000E+00  0.00000000000E+00  0.76039172103E+03  0.76039172104E+03  0.50400001928E-02 0.  1.
       -1   -1    0    0    0  501  0.00000000000E+00  0.00000000000E+00 -0.21201035788E+03  0.21201035794E+03  0.50400001928E-02 0. -1.
    10030    2    1    2    0    0  0.00000000000E+00  0.00000000000E+00  0.54838136315E+03  0.97240207898E+03  0.80302159607E+03 0.  0.
        3    1    3    3  502    0 -0.24883193615E+03  0.96223993741E+02  0.63753902417E+03  0.69110954773E+03  0.10100000352E+00 0.  1.
       -3    1    3    3    0  502  0.24883193615E+03 -0.96223993741E+02 -0.89157661019E+02  0.28129253125E+03  0.10100000352E+00 0. -1.
</event>
<event>
 5   0  0.1092868E-02  0.7988390E+03  0.7818609E-02  0.9561699E-01
       -2   -1    0    0    0  501  0.00000000000E+00  0.00000000000E+00  0.24704901826E+03  0.24704901827E+03  0.25500000920E-02 0.  1.
        2   -1    0    0  501    0  0.00000000000E+00  0.00000000000E+00 -0.64576631213E+03  0.64576631214E+03  0.25500000920E-02 0. -1.
    10030    2    1    2    0    0  0.00000000000E+00  0.00000000000E+00 -0.39871729387E+03  0.89281533041E+03  0.79883899115E+03 0.  0.
        3    1    3    3  502    0  0.17976818846E+03  0.28421035445E+03 -0.44021951052E+03  0.55397234119E+03  0.10100000352E+00 0. -1.
       -3    1    3    3    0  502 -0.17976818846E+03 -0.28421035445E+03  0.41502216643E+02  0.33884298922E+03  0.10100000352E+00 0.  1.
</event>
<event>
 5   0  0.6600401E-03  0.7959074E+03  0.7818609E-02  0.9565960E-01
       -1   -1    0    0    0  501  0.00000000000E+00  0.00000000000E+00  0.50122381597E+03  0.50122381600E+03  0.50400001928E-02 0.  1.
        1   -1    0    0  501    0  0.00000000000E+00  0.00000000000E+00 -0.31596093428E+03  0.31596093432E+03  0.50400001928E-02 0. -1.
    10030    2    1    2    0    0  0.00000000000E+00  0.00000000000E+00  0.18526288170E+03  0.81718475031E+03  0.79590739462E+03 0.  0.
        2    1    3    3  502    0  0.38827755840E+03  0.86707978284E+02  0.82923007449E+02  0.40639138897E+03  0.25500000920E-02 0. -1.
       -2    1    3    3    0  502 -0.38827755840E+03 -0.86707978284E+02  0.10233987425E+03  0.41079336134E+03  0.25500000920E-02 0.  1.
</event>
<event>
 5   0  0.6557679E-03  0.8007829E+03  0.7818609E-02  0.9558885E-01
        1   -1    0    0  501    0  0.00000000000E+00  0.00000000000E+00  0.23520375030E+03  0.23520375035E+03  0.50400001928E-02 0. -1.
       -1   -1    0    0    0  501  0.00000000000E+00  0.00000000000E+00 -0.68159332957E+03  0.68159332959E+03  0.50400001928E-02 0.  1.
    10030    2    1    2    0    0  0.00000000000E+00  0.00000000000E+00 -0.44638957927E+03  0.91679707994E+03  0.80078288524E+03 0.  0.
        1    1    3    3  502    0 -0.27193447400E+03 -0.16070382209E+03 -0.50488832978E+03  0.59555545683E+03  0.50400001928E-02 0.  1.
       -1    1    3    3    0  502  0.27193447400E+03  0.16070382209E+03  0.58498750509E+02  0.32124162311E+03  0.50400001928E-02 0. -1.
</event>
<event>
 5   0  0.1119792E-02  0.7990188E+03  0.7818609E-02  0.9561438E-01
       -2   -1    0    0    0  501  0.00000000000E+00  0.00000000000E+00  0.16687169205E+03  0.16687169207E+03  0.25500000920E-02 0. -1.
        2   -1    0    0  501    0  0.00000000000E+00  0.00000000000E+00 -0.95646999556E+03  0.95646999556E+03  0.25500000920E-02 0.  1.
    10030    2    1    2    0    0  0.00000000000E+00  0.00000000000E+00 -0.78959830351E+03  0.11233416876E+04  0.79901881472E+03 0.  0.
        4    1    3    3  502    0 -0.59395407941E+02 -0.39106459261E+02 -0.94749729240E+03  0.95016307108E+03  0.12699999809E+01 0.  1.
       -4    1    3    3    0  502  0.59395407941E+02  0.39106459261E+02  0.15789898889E+03  0.17317861656E+03  0.12699999809E+01 0. -1.
</event>
<event>
 5   0  0.1119792E-02  0.8500329E+03  0.7818609E-02  0.9490293E-01
        2   -1    0    0  501    0  0.00000000000E+00  0.00000000000E+00  0.10879458980E+04  0.10879458980E+04  0.25500000920E-02 0. -1.
       -2   -1    0    0    0  501  0.00000000000E+00  0.00000000000E+00 -0.16603673481E+03  0.16603673483E+03  0.25500000920E-02 0.  1.
    10030    2    1    2    0    0  0.00000000000E+00  0.00000000000E+00  0.92190916318E+03  0.12539826328E+04  0.85003290424E+03 0.  0.
        4    1    3    3  502    0 -0.26756200446E+03  0.14144281378E+03  0.90115751761E+03  0.95062189131E+03  0.12699999809E+01 0. -1.
       -4    1    3    3    0  502  0.26756200446E+03 -0.14144281378E+03  0.20751645570E+02  0.30336074152E+03  0.12699999809E+01 0.  1.
</event>
<event>
 5   0  0.1119792E-02  0.8089183E+03  0.7818609E-02  0.9547197E-01
        2   -1    0    0  501    0  0.00000000000E+00  0.00000000000E+00  0.99293121024E+03  0.99293121024E+03  0.25500000920E-02 0. -1.
       -2   -1    0    0    0  501  0.00000000000E+00  0.00000000000E+00 -0.16475180846E+03  0.16475180848E+03  0.25500000920E-02 0.  1.
    10030    2    1    2    0    0  0.00000000000E+00  0.00000000000E+00  0.82817940178E+03  0.11576830187E+04  0.80891832115E+03 0.  0.
        4    1    3    3  502    0 -0.34259076475E+03 -0.54206215781E+02  0.11635951673E+03  0.36585228707E+03  0.12699999809E+01 0.  1.
       -4    1    3    3    0  502  0.34259076475E+03  0.54206215781E+02  0.71181988505E+03  0.79183073164E+03  0.12699999809E+01 0. -1.
</event>
<event>
 5   0  0.4385875E-03  0.8016628E+03  0.7818609E-02  0.9557613E-01
        3   -1    0    0  501    0  0.00000000000E+00  0.00000000000E+00  0.28731230488E+03  0.28731232264E+03  0.10100000352E+00 0. -1.
       -3   -1    0    0    0  501  0.00000000000E+00  0.00000000000E+00 -0.55920267385E+03  0.55920268297E+03  0.10100000352E+00 0.  1.
    10030    2    1    2    0    0  0.00000000000E+00  0.00000000000E+00 -0.27189036896E+03  0.84651500560E+03  0.80166282312E+03 0.  0.
        2    1    3    3  502    0 -0.36194878337E+03  0.92516291453E+02 -0.28932929901E+03  0.47252262299E+03  0.25500000920E-02 0.  1.
       -2    1    3    3    0  502  0.36194878337E+03 -0.92516291453E+02  0.17438930052E+02  0.37399238261E+03  0.25500000920E-02 0. -1.
</event>
<event>
 5   0  0.6557679E-03  0.8000981E+03  0.7818609E-02  0.9559875E-01
       -1   -1    0    0    0  501  0.00000000000E+00  0.00000000000E+00  0.19474254523E+03  0.19474254529E+03  0.50400001928E-02 0.  1.
        1   -1    0    0  501    0  0.00000000000E+00  0.00000000000E+00 -0.82179915678E+03  0.82179915679E+03  0.50400001928E-02 0. -1.
    10030    2    1    2    0    0  0.00000000000E+00  0.00000000000E+00 -0.62705661155E+03  0.10165417021E+04  0.80009814272E+03 0.  0.
        1    1    3    3  502    0 -0.47979942361E+01  0.23862254000E+03 -0.72143394464E+03  0.75988859306E+03  0.50400001928E-02 0. -1.
       -1    1    3    3    0  502  0.47979942361E+01 -0.23862254000E+03  0.94377333095E+02  0.25665310903E+03  0.50400001928E-02 0.  1.
</event>
<event>
 5   0  0.4385875E-03  0.7993635E+03  0.7818609E-02  0.9560939E-01
       -3   -1    0    0    0  501  0.00000000000E+00  0.00000000000E+00  0.18106459559E+03  0.18106462376E+03  0.10100000352E+00 0. -1.
        3   -1    0    0  501    0  0.00000000000E+00  0.00000000000E+00 -0.88225681112E+03  0.88225681690E+03  0.10100000352E+00 0.  1.
    10030    2    1    2    0    0  0.00000000000E+00  0.00000000000E+00 -0.70119221553E+03  0.10633214407E+04  0.79936347368E+03 0.  0.
        4    1    3    3  502    0 -0.29674504674E+02  0.18423772158E+03 -0.82074546665E+03  0.84169403479E+03  0.12699999809E+01 0.  1.
       -4    1    3    3    0  502  0.29674504674E+02 -0.18423772158E+03  0.11955325112E+03  0.22162740587E+03  0.12699999809E+01 0. -1.
</event>
<event>
 5   0  0.1092868E-02  0.7880072E+03  0.7818609E-02  0.9577540E-01
       -2   -1    0    0    0  501  0.00000000000E+00  0.00000000000E+00  0.10923087701E+03  0.10923087704E+03  0.25500000920E-02 0.  1.
        2   -1    0    0  501    0  0.00000000000E+00  0.00000000000E+00 -0.14211992858E+04  0.14211992858E+04  0.25500000920E-02 0. -1.
    10030    2    1    2    0    0  0.00000000000E+00  0.00000000000E+00 -0.13119684088E+04  0.15304301628E+04  0.78800721928E+03 0.  0.
        3    1    3    3  502    0 -0.15353422258E+03  0.17825174271E+03 -0.42152199443E+02  0.23900472673E+03  0.10100000352E+00 0.  1.
       -3    1    3    3    0  502  0.15353422258E+03 -0.17825174271E+03 -0.12698162093E+04  0.12914254361E+04  0.10100000352E+00 0. -1.
</event>
<event>
 5   0  0.4385875E-03  0.8022091E+03  0.7818609E-02  0.9556825E-01
       -3   -1    0    0    0  501  0.00000000000E+00  0.00000000000E+00  0.11955104687E+04  0.11955104730E+04  0.10100000352E+00 0.  1.
        3   -1    0    0  501    0  0.00000000000E+00  0.00000000000E+00 -0.13457418041E+03  0.13457421831E+03  0.10100000352E+00 0. -1.
    10030    2    1    2    0    0  0.00000000000E+00  0.00000000000E+00  0.10609362883E+04  0.13300846913E+04  0.80220912371E+03 0.  0.
        1    1    3    3  502    0  0.28405021663E+03  0.81898649056E+02  0.97995247172E+03  0.10235715711E+04  0.50400001928E-02 0.  1.
       -1    1    3    3    0  502 -0.28405021663E+03 -0.81898649056E+02  0.80983816606E+02  0.30651312022E+03  0.50400001928E-02 0. -1.
</event>
<event>
 5   0  0.1106332E-02  0.8055943E+03  0.7818609E-02  0.9551955E-01
        2   -1    0    0  501    0  0.00000000000E+00  0.00000000000E+00  0.28739216972E+03  0.28739216973E+03  0.25500000920E-02 0.  1.
       -2   -1    0    0    0  501  0.00000000000E+00  0.00000000000E+00 -0.56454400510E+03  0.56454400511E+03  0.25500000920E-02 0. -1.
    10030    2    1    2    0    0  0.00000000000E+00  0.00000000000E+00 -0.27715183539E+03  0.85193617484E+03  0.80559425652E+03 0.  0.
        1    1    3    3  502    0  0.42846022159E+01 -0.11347563092E+03  0.27011403957E+03  0.29301309020E+03  0.50400001928E-02 0.  1.
       -1    1    3    3    0  502 -0.42846022159E+01  0.11347563092E+03 -0.54726587495E+03  0.55892308464E+03  0.50400001928E-02 0. -1.
</event>
<event>
 5   0  0.4385875E-03  0.7984695E+03  0.7818609E-02  0.9562235E-01
       -4   -1    0    0    0  501  0.00000000000E+00  0.00000000000E+00  0.58269796748E+03  0.58269935147E+03  0.12699999809E+01 0. -1.
        4   -1    0    0  501    0  0.00000000000E+00  0.00000000000E+00 -0.27353196341E+03  0.27353491167E+03  0.12699999809E+01 0.  1.
    10030    2    1    2    0    0  0.00000000000E+00  0.00000000000E+00  0.30916600408E+03  0.85623426315E+03  0.79846947049E+03 0.  0.
        1    1    3    3  502    0 -0.31572505883E+03 -0.12670077805E+03  0.37863107084E+03  0.50901560660E+03  0.50400001928E-02 0. -1.
       -1    1    3    3    0  502  0.31572505883E+03  0.12670077805E+03 -0.69465066765E+02  0.34721865655E+03  0.50400001928E-02 0.  1.
</event>
<event>
 5   0  0.6557679E-03  0.7981478E+03  0.7818609E-02  0.9562702E-01
       -1   -1    0    0    0  501  0.00000000000E+00  0.00000000000E+00  0.27942996248E+03  0.27942996253E+03  0.50400001928E-02 0.  1.
        1   -1    0    0  501    0  0.00000000000E+00  0.00000000000E+00 -0.56994598227E+03  0.56994598229E+03  0.50400001928E-02 0. -1.
    10030    2    1    2    0    0  0.00000000000E+00  0.00000000000E+00 -0.29051601979E+03  0.84937594482E+03  0.79814781707E+03 0.  0.
        1    1    3    3  502    0 -0.30598167726E+03  0.60736139758E+02 -0.41012289155E+03  0.51528094443E+03  0.50400001928E-02 0. -1.
       -1    1    3    3    0  502  0.30598167726E+03 -0.60736139758E+02  0.11960687177E+03  0.33409500039E+03  0.50400001928E-02 0.  1.
</event>
<event>
 5   0  0.6600401E-03  0.8008799E+03  0.7818609E-02  0.9558744E-01
        1   -1    0    0  501    0  0.00000000000E+00  0.00000000000E+00  0.19092376087E+04  0.19092376087E+04  0.50400001928E-02 0. -1.
       -1   -1    0    0    0  501  0.00000000000E+00  0.00000000000E+00 -0.83987523405E+02  0.83987523556E+02  0.50400001928E-02 0.  1.
    10030    2    1    2    0    0  0.00000000000E+00  0.00000000000E+00  0.18252500853E+04  0.19932251323E+04  0.80087986242E+03 0.  0.
        2    1    3    3  502    0 -0.25967872680E+03  0.18985028273E+02  0.15544784942E+03  0.30324496096E+03  0.25500000920E-02 0.  1.
       -2    1    3    3    0  502  0.25967872680E+03 -0.18985028273E+02  0.16698022359E+04  0.16899801713E+04  0.25500000920E-02 0. -1.
</event>
<event>
 5   0  0.1092868E-02  0.7982214E+03  0.7818609E-02  0.9562595E-01
        2   -1    0    0  501    0  0.00000000000E+00  0.00000000000E+00  0.71770810057E+03  0.71770810057E+03  0.25500000920E-02 0.  1.
       -2   -1    0    0    0  501  0.00000000000E+00  0.00000000000E+00 -0.22194171330E+03  0.22194171332E+03  0.25500000920E-02 0. -1.
    10030    2    1    2    0    0  0.00000000000E+00  0.00000000000E+00  0.49576638726E+03  0.93964981389E+03  0.79822143670E+03 0.  0.
        3    1    3    3  502    0  0.22778707199E+03 -0.32342654933E+03  0.18561861281E+03  0.43697364062E+03  0.10100000352E+00 0. -1.
       -3    1    3    3    0  502 -0.22778707199E+03  0.32342654933E+03  0.31014777445E+03  0.50267617327E+03  0.10100000352E+00 0.  1.
</event>
<event>
 5   0  0.6600401E-03  0.7916541E+03  0.7818609E-02  0.9572177E-01
       -1   -1    0    0    0  501  0.00000000000E+00  0.00000000000E+00  0.99085988191E+03  0.99085988192E+03  0.50400001928E-02 0.  1.
        1   -1    0    0  501    0  0.00000000000E+00  0.00000000000E+00 -0.15812433718E+03  0.15812433726E+03  0.50400001928E-02 0. -1.
    10030    2    1    2    0    0  0.00000000000E+00  0.00000000000E+00  0.83273554473E+03  0.11489842192E+04  0.79165412174E+03 0.  0.
        2    1    3    3  502    0 -0.16823166717E+03 -0.15743799231E+03  0.88349850422E+03  0.91304886081E+03  0.25500000920E-02 0.  1.
       -2    1    3    3    0  502  0.16823166717E+03  0.15743799231E+03 -0.50762959495E+02  0.23593535836E+03  0.25500000920E-02 0. -1.
</event>
<event>
 5   0  0.1119792E-02  0.7985947E+03  0.7818609E-02  0.9562053E-01
       -2   -1    0    0    0  501  0.00000000000E+00  0.00000000000E+00  0.39274292653E+03  0.39274292654E+03  0.25500000920E-02 0.  1.
        2   -1    0    0  501    0  0.00000000000E+00  0.00000000000E+00 -0.40596117260E+03  0.40596117260E+03  0.25500000920E-02 0. -1.
    10030    2    1    2    0    0  0.00000000000E+00  0.00000000000E+00 -0.13218246064E+02  0.79870409914E+03  0.79859471321E+03 0.  0.
        4    1    3    3  502    0 -0.41865240296E+02 -0.36115440921E+03 -0.17171220120E+03  0.40208444210E+03  0.12699999809E+01 0. -1.
       -4    1    3    3    0  502  0.41865240296E+02  0.36115440921E+03  0.15849395514E+03  0.39661965704E+03  0.12699999809E+01 0.  1.
</event>
<event>
 5   0  0.6517392E-03  0.7992057E+03  0.7818609E-02  0.9561167E-01
       -1   -1    0    0    0  501  0.00000000000E+00  0.00000000000E+00  0.26415342090E+03  0.26415342094E+03  0.50400001928E-02 0. -1.
        1   -1    0    0  501    0  0.00000000000E+00  0.00000000000E+00 -0.60450646888E+03  0.60450646890E+03  0.50400001928E-02 0.  1.
    10030    2    1    2    0    0  0.00000000000E+00  0.00000000000E+00 -0.34035304799E+03  0.86865988985E+03  0.79920573506E+03 0.  0.
        3    1    3    3  502    0 -0.24372839719E+03  0.78585921811E+02  0.16324473499E+03  0.30369085005E+03  0.10100000352E+00 0. -1.
       -3    1    3    3    0  502  0.24372839719E+03 -0.78585921811E+02 -0.50359778298E+03  0.56496903979E+03  0.10100000352E+00 0.  1.
</event>
<event>
 5   0  0.6557679E-03  0.8113619E+03  0.7818609E-02  0.9543715E-01
        1   -1    0    0  501    0  0.00000000000E+00  0.00000000000E+00  0.50257322659E+03  0.50257322661E+03  0.50400001928E-02 0. -1.
       -1   -1    0    0    0  501  0.00000000000E+00  0.00000000000E+00 -0.32746876166E+03  0.32746876170E+03  0.50400001928E-02 0.  1.
    10030    2    1    2    0    0  0.00000000000E+00  0.00000000000E+00  0.17510446493E+03  0.83004198831E+03  0.81136189750E+03 0.  0.
        1    1    3    3  502    0  0.71971634287E+01  0.12644146301E+03 -0.30672702624E+03  0.33184440839E+03  0.50400001928E-02 0.  1.
       -1    1    3    3    0  502 -0.71971634287E+01 -0.12644146301E+03  0.48183149117E+03  0.49819757992E+03  0.50400001928E-02 0. -1.
</event>
<event>
 5   0  0.1119792E-02  0.8166283E+03  0.7818609E-02  0.9536255E-01
        2   -1    0    0  501    0  0.00000000000E+00  0.00000000000E+00  0.40831253027E+03  0.40831253028E+03  0.25500000920E-02 0. -1.
       -2   -1    0    0    0  501  0.00000000000E+00  0.00000000000E+00 -0.40831575587E+03  0.40831575588E+03  0.25500000920E-02 0.  1.
    10030    2    1    2    0    0  0.00000000000E+00  0.00000000000E+00 -0.32255966357E-02  0.81662828616E+03  0.81662828615E+03 0.  0.
        4    1    3    3  502    0 -0.39926552435E+02  0.89665191591E+02  0.39633769937E+03  0.40831257758E+03  0.12699999809E+01 0. -1.
       -4    1    3    3    0  502  0.39926552435E+02 -0.89665191591E+02 -0.39634092496E+03  0.40831570858E+03  0.12699999809E+01 0.  1.
</event>
<event>
 5   0  0.1154714E-02  0.8029000E+03  0.7818609E-02  0.9555829E-01
       -2   -1    0    0    0  501  0.00000000000E+00  0.00000000000E+00  0.16199625017E+03  0.16199625019E+03  0.25500000920E-02 0.  1.
        2   -1    0    0  501    0  0.00000000000E+00  0.00000000000E+00 -0.99485075242E+03  0.99485075243E+03  0.25500000920E-02 0. -1.
    10030    2    1    2    0    0  0.00000000000E+00  0.00000000000E+00 -0.83285450225E+03  0.11568470026E+04  0.80289997231E+03 0.  0.
        5    1    3    3  502    0  0.18741883366E+03 -0.32535580358E+03 -0.62099438871E+03  0.72569851794E+03  0.46999998093E+01 0.  1.
       -5    1    3    3    0  502 -0.18741883366E+03  0.32535580358E+03 -0.21186011355E+03  0.43114848468E+03  0.46999998093E+01 0. -1.
</event>
<event>
 5   0  0.6600401E-03  0.8024195E+03  0.7818609E-02  0.9556522E-01
       -1   -1    0    0    0  501  0.00000000000E+00  0.00000000000E+00  0.93858059247E+03  0.93858059248E+03  0.50400001928E-02 0.  1.
        1   -1    0    0  501    0  0.00000000000E+00  0.00000000000E+00 -0.17150285496E+03  0.17150285504E+03  0.50400001928E-02 0. -1.
    10030    2    1    2    0    0  0.00000000000E+00  0.00000000000E+00  0.76707773751E+03  0.11100834475E+04  0.80241946953E+03 0.  0.
        2    1    3    3  502    0  0.26125852945E+00  0.20973476372E+03  0.85670203360E+03  0.88200176516E+03  0.25500000920E-02 0.  1.
       -2    1    3    3    0  502 -0.26125852945E+00 -0.20973476372E+03 -0.89624296098E+02  0.22808168235E+03  0.25500000920E-02 0. -1.
</event>
<event>
 5   0  0.6600401E-03  0.8038616E+03  0.7818609E-02  0.9554444E-01
       -1   -1    0    0    0  501  0.00000000000E+00  0.00000000000E+00  0.23265662153E+03  0.23265662158E+03  0.50400001928E-02 0.  1.
        1   -1    0    0  501    0  0.00000000000E+00  0.00000000000E+00 -0.69436390636E+03  0.69436390637E+03  0.50400001928E-02 0. -1.
    10030    2    1    2    0    0  0.00000000000E+00  0.00000000000E+00 -0.46170728483E+03  0.92702052796E+03  0.80386158161E+03 0.  0.
        2    1    3    3  502    0 -0.35879598015E+03 -0.20279358195E+02 -0.23267818615E+02  0.36012108954E+03  0.25500000920E-02 0.  1.
       -2    1    3    3    0  502  0.35879598015E+03  0.20279358195E+02 -0.43843946621E+03  0.56689943842E+03  0.25500000920E-02 0. -1.
</event>
<event>
 5   0  0.6557679E-03  0.8117649E+03  0.7818609E-02  0.9543142E-01
       -1   -1    0    0    0  501  0.00000000000E+00  0.00000000000E+00  0.64025013360E+03  0.64025013362E+03  0.50400001928E-02 0.  1.
        1   -1    0    0  501    0  0.00000000000E+00  0.00000000000E+00 -0.25730658814E+03  0.25730658818E+03  0.50400001928E-02 0. -1.
    10030    2    1    2    0    0  0.00000000000E+00  0.00000000000E+00  0.38294354546E+03  0.89755672180E+03  0.81176493509E+03 0.  0.
        1    1    3    3  502    0 -0.15273552206E+03  0.64504357079E+02  0.60110046084E+03  0.62354688342E+03  0.50400001928E-02 0.  1.
       -1    1    3    3    0  502  0.15273552206E+03 -0.64504357079E+02 -0.21815691537E+03  0.27400983838E+03  0.50400001928E-02 0. -1.
</event>
<event>
 5   0  0.6596225E-03  0.7898256E+03  0.7818609E-02  0.9574862E-01
        1   -1    0    0  501    0  0.00000000000E+00  0.00000000000E+00  0.87959323986E+03  0.87959323987E+03  0.50400001928E-02 0.  1.
       -1   -1    0    0    0  501  0.00000000000E+00  0.00000000000E+00 -0.17730482504E+03  0.17730482511E+03  0.50400001928E-02 0. -1.
    10030    2    1    2    0    0  0.00000000000E+00  0.00000000000E+00  0.70228841482E+03  0.10568980650E+04  0.78982561505E+03 0.  0.
        5    1    3    3  502    0 -0.22463211605E+03  0.24895769961E+03  0.72070373564E+02  0.34300984315E+03  0.46999998093E+01 0. -1.
       -5    1    3    3    0  502  0.22463211605E+03 -0.24895769961E+03  0.63021804125E+03  0.71388822183E+03  0.46999998093E+01 0.  1.
</event>
<event>
 5   0  0.6517392E-03  0.8005150E+03  0.7818609E-02  0.9559272E-01
        1   -1    0    0  501    0  0.00000000000E+00  0.00000000000E+00  0.29165469898E+03  0.29165469903E+03  0.50400001928E-02 0. -1.
       -1   -1    0    0    0  501  0.00000000000E+00  0.00000000000E+00 -0.54930044310E+03  0.54930044312E+03  0.50400001928E-02 0.  1.
    10030    2    1    2    0    0  0.00000000000E+00  0.00000000000E+00 -0.25764574411E+03  0.84095514215E+03  0.80051497278E+03 0.  0.
        3    1    3    3  502    0 -0.15576570870E+03 -0.34900801865E+03 -0.25372625435E+03  0.45874456447E+03  0.10100000352E+00 0.  1.
       -3    1    3    3    0  502  0.15576570870E+03  0.34900801865E+03 -0.39194897627E+01  0.38221057768E+03  0.10100000352E+00 0. -1.
</event>
<event>
 5   0  0.1106332E-02  0.7986232E+03  0.7818609E-02  0.9562012E-01
        2   -1    0    0  501    0  0.00000000000E+00  0.00000000000E+00  0.19265777606E+04  0.19265777606E+04  0.25500000920E-02 0. -1.
       -2   -1    0    0    0  501  0.00000000000E+00  0.00000000000E+00 -0.82763206871E+02  0.82763206911E+02  0.25500000920E-02 0.  1.
    10030    2    1    2    0    0  0.00000000000E+00  0.00000000000E+00  0.18438145537E+04  0.20093409675E+04  0.79862319975E+03 0.  0.
        1    1    3    3  502    0 -0.19497781906E+03  0.23255496873E+03  0.15748658740E+04  0.16038393574E+04  0.50400001928E-02 0. -1.
       -1    1    3    3    0  502  0.19497781906E+03 -0.23255496873E+03  0.26894867973E+03  0.40550161006E+03  0.50400001928E-02 0.  1.
</event>
<event>
 5   0  0.6517392E-03  0.7909226E+03  0.7818609E-02  0.9573250E-01
       -1   -1    0    0    0  501  0.00000000000E+00  0.00000000000E+00  0.26382971410E+03  0.26382971415E+03  0.50400001928E-02 0.  1.
        1   -1    0    0  501    0  0.00000000000E+00  0.00000000000E+00 -0.59276727940E+03  0.59276727943E+03  0.50400001928E-02 0. -1.
    10030    2    1    2    0    0  0.00000000000E+00  0.00000000000E+00 -0.32893756530E+03  0.85659699357E+03  0.79092255470E+03 0.  0.
        3    1    3    3  502    0 -0.12758847979E+03  0.22459474902E+03  0.15984193647E+03  0.30376154516E+03  0.10100000352E+00 0.  1.
       -3    1    3    3    0  502  0.12758847979E+03 -0.22459474902E+03 -0.48877950178E+03  0.55283544841E+03  0.10100000352E+00 0. -1.
</event>
<event>
 5   0  0.6557679E-03  0.8009839E+03  0.7818609E-02  0.9558594E-01
       -1   -1    0    0    0  501  0.00000000000E+00  0.00000000000E+00  0.33321078487E+03  0.33321078491E+03  0.50400001928E-02 0.  1.
        1   -1    0    0  501    0  0.00000000000E+00  0.00000000000E+00 -0.48135831724E+03  0.48135831727E+03  0.50400001928E-02 0. -1.
    10030    2    1    2    0    0  0.00000000000E+00  0.00000000000E+00 -0.14814753238E+03  0.81456910218E+03  0.80098385182E+03 0.  0.
        1    1    3    3  502    0  0.78907581415E+02 -0.88040377362E+02 -0.46320746204E+03  0.47805718002E+03  0.50400001928E-02 0. -1.
       -1    1    3    3    0  502 -0.78907581415E+02  0.88040377362E+02  0.31505992966E+03  0.33651192216E+03  0.50400001928E-02 0.  1.
</event>
<event>
 5   0  0.6557679E-03  0.8002444E+03  0.7818609E-02  0.9559663E-01
       -1   -1    0    0    0  501  0.00000000000E+00  0.00000000000E+00  0.33027897747E+03  0.33027897751E+03  0.50400001928E-02 0.  1.
        1   -1    0    0  501    0  0.00000000000E+00  0.00000000000E+00 -0.48473499522E+03  0.48473499525E+03  0.50400001928E-02 0. -1.
    10030    2    1    2    0    0  0.00000000000E+00  0.00000000000E+00 -0.15445601775E+03  0.81501397276E+03  0.80024440915E+03 0.  0.
        1    1    3    3  502    0  0.37278346549E+01  0.70450966402E+02 -0.47835054654E+03  0.48352505707E+03  0.50400001928E-02 0. -1.
       -1    1    3    3    0  502 -0.37278346549E+01 -0.70450966402E+02  0.32389452879E+03  0.33148891569E+03  0.50400001928E-02 0.  1.
</event>
<event>
 5   0  0.6600401E-03  0.8690528E+03  0.7818609E-02  0.9465116E-01
        1   -1    0    0  501    0  0.00000000000E+00  0.00000000000E+00  0.46683946500E+03  0.46683946503E+03  0.50400001928E-02 0.  1.
       -1   -1    0    0    0  501  0.00000000000E+00  0.00000000000E+00 -0.40444997830E+03  0.40444997833E+03  0.50400001928E-02 0. -1.
    10030    2    1    2    0    0  0.00000000000E+00  0.00000000000E+00  0.62389486699E+02  0.87128944336E+03  0.86905284423E+03 0.  0.
        2    1    3    3  502    0 -0.32807630654E+03  0.16035332106E+03  0.26731298363E+03  0.45255218673E+03  0.25500000920E-02 0.  1.
       -2    1    3    3    0  502  0.32807630654E+03 -0.16035332106E+03 -0.20492349693E+03  0.41873725663E+03  0.25500000920E-02 0. -1.
</event>
<event>
 5   0  0.6517392E-03  0.8081367E+03  0.7818609E-02  0.9548314E-01
        1   -1    0    0  501    0  0.00000000000E+00  0.00000000000E+00  0.19461198430E+03  0.19461198436E+03  0.50400001928E-02 0. -1.
       -1   -1    0    0    0  501  0.00000000000E+00  0.00000000000E+00 -0.83895773799E+03  0.83895773801E+03  0.50400001928E-02 0.  1.
    10030    2    1    2    0    0  0.00000000000E+00  0.00000000000E+00 -0.64434575369E+03  0.10335697224E+04  0.80813669679E+03 0.  0.
        3    1    3    3  502    0  0.48531927288E+02 -0.16457925578E+03 -0.79004906597E+03  0.80846720171E+03  0.10100000352E+00 0.  1.
       -3    1    3    3    0  502 -0.48531927288E+02  0.16457925578E+03  0.14570331228E+03  0.22510252066E+03  0.10100000352E+00 0. -1.
</event>
<event>
 5   0  0.1106332E-02  0.7900901E+03  0.7818609E-02  0.9574473E-01
        2   -1    0    0  501    0  0.00000000000E+00  0.00000000000E+00  0.15531891720E+04  0.15531891720E+04  0.25500000920E-02 0.  1.
       -2   -1    0    0    0  501  0.00000000000E+00  0.00000000000E+00 -0.10047750811E+03  0.10047750814E+03  0.25500000920E-02 0. -1.
    10030    2    1    2    0    0  0.00000000000E+00  0.00000000000E+00  0.14527116639E+04  0.16536666801E+04  0.79009006488E+03 0.  0.
        1    1    3    3  502    0  0.15489815168E+03 -0.30825104346E+03  0.32349383099E+03  0.47292748060E+03  0.50400001928E-02 0. -1.
       -1    1    3    3    0  502 -0.15489815168E+03  0.30825104346E+03  0.11292178329E+04  0.11807391995E+04  0.50400001928E-02 0.  1.
</event>
<event>
 5   0  0.1092868E-02  0.7845199E+03  0.7818609E-02  0.9582698E-01
        2   -1    0    0  501    0  0.00000000000E+00  0.00000000000E+00  0.10199940838E+04  0.10199940838E+04  0.25500000920E-02 0. -1.
       -2   -1    0    0    0  501  0.00000000000E+00  0.00000000000E+00 -0.15085172215E+03  0.15085172217E+03  0.25500000920E-02 0.  1.
    10030    2    1    2    0    0  0.00000000000E+00  0.00000000000E+00  0.86914236169E+03  0.11708458060E+04  0.78451988921E+03 0.  0.
        3    1    3    3  502    0 -0.92921121078E+02  0.37859780013E+03  0.36956492414E+03  0.53716745281E+03  0.10100000352E+00 0. -1.
       -3    1    3    3    0  502  0.92921121078E+02 -0.37859780013E+03  0.49957743755E+03  0.63367835320E+03  0.10100000352E+00 0.  1.
</event>
<event>
 5   0  0.6517392E-03  0.7999869E+03  0.7818609E-02  0.9560036E-01
        1   -1    0    0  501    0  0.00000000000E+00  0.00000000000E+00  0.24436303846E+04  0.24436303846E+04  0.50400001928E-02 0. -1.
       -1   -1    0    0    0  501  0.00000000000E+00  0.00000000000E+00 -0.65474204043E+02  0.65474204237E+02  0.50400001928E-02 0.  1.
    10030    2    1    2    0    0  0.00000000000E+00  0.00000000000E+00  0.23781561805E+04  0.25091045888E+04  0.79998688653E+03 0.  0.
        3    1    3    3  502    0 -0.67868046056E+02 -0.21341986940E+02  0.24236265200E+04  0.24246705077E+04  0.10100000352E+00 0. -1.
       -3    1    3    3    0  502  0.67868046056E+02  0.21341986940E+02 -0.45470339491E+02  0.84434081131E+02  0.10100000352E+00 0.  1.
</event>
<event>
 5   0  0.4385875E-03  0.8007944E+03  0.7818609E-02  0.9558868E-01
        4   -1    0    0  501    0  0.00000000000E+00  0.00000000000E+00  0.10849517391E+03  0.10850260671E+03  0.12699999809E+01 0. -1.
       -4   -1    0    0    0  501  0.00000000000E+00  0.00000000000E+00 -0.14775917470E+04  0.14775922928E+04  0.12699999809E+01 0.  1.
    10030    2    1    2    0    0  0.00000000000E+00  0.00000000000E+00 -0.13690965731E+04  0.15860948995E+04  0.80079435796E+03 0.  0.
        2    1    3    3  502    0 -0.33985399747E+03 -0.18573811404E+03 -0.88574308549E+03  0.96671619419E+03  0.25500000920E-02 0.  1.
       -2    1    3    3    0  502  0.33985399747E+03  0.18573811404E+03 -0.48335348756E+03  0.61937870527E+03  0.25500000920E-02 0. -1.
</event>
<event>
 5   0  0.6551489E-03  0.7967046E+03  0.7818609E-02  0.9564799E-01
        1   -1    0    0  501    0  0.00000000000E+00  0.00000000000E+00  0.71644221259E+03  0.71644221261E+03  0.50400001928E-02 0.  1.
       -1   -1    0    0    0  501  0.00000000000E+00  0.00000000000E+00 -0.22148969033E+03  0.22148969039E+03  0.50400001928E-02 0. -1.
    10030    2    1    2    0    0  0.00000000000E+00  0.00000000000E+00  0.49495252226E+03  0.93793190300E+03  0.79670462241E+03 0.  0.
        4    1    3    3  502    0 -0.23004837329E+03 -0.86993445961E+02  0.61638069570E+03  0.66363912530E+03  0.12699999809E+01 0.  1.
       -4    1    3    3    0  502  0.23004837329E+03  0.86993445961E+02 -0.12142817344E+03  0.27429277770E+03  0.12699999809E+01 0. -1.
</event>
<event>
 5   0  0.6600401E-03  0.7995888E+03  0.7818609E-02  0.9560613E-01
       -1   -1    0    0    0  501  0.00000000000E+00  0.00000000000E+00  0.31721853622E+03  0.31721853626E+03  0.50400001928E-02 0.  1.
        1   -1    0    0  501    0  0.00000000000E+00  0.00000000000E+00 -0.50386575883E+03  0.50386575885E+03  0.50400001928E-02 0. -1.
    10030    2    1    2    0    0  0.00000000000E+00  0.00000000000E+00 -0.18664722261E+03  0.82108429511E+03  0.79958879055E+03 0.  0.
        2    1    3    3  502    0 -0.35859212255E+03  0.64009199025E+02 -0.26252601553E+03  0.44900489614E+03  0.25500000920E-02 0. -1.
       -2    1    3    3    0  502  0.35859212255E+03 -0.64009199025E+02  0.75878792924E+02  0.37207939897E+03  0.25500000920E-02 0.  1.
</event>
<event>
 5   0  0.6557679E-03  0.7940634E+03  0.7818609E-02  0.9568650E-01
       -1   -1    0    0    0  501  0.00000000000E+00  0.00000000000E+00  0.84909779108E+03  0.84909779109E+03  0.50400001928E-02 0.  1.
        1   -1    0    0  501    0  0.00000000000E+00  0.00000000000E+00 -0.18564901745E+03  0.18564901752E+03  0.50400001928E-02 0. -1.
    10030    2    1    2    0    0  0.00000000000E+00  0.00000000000E+00  0.66344877363E+03  0.10347468086E+04  0.79406339967E+03 0.  0.
        1    1    3    3  502    0  0.29877073702E+03 -0.25636330259E+03  0.26466740365E+03  0.47437846789E+03  0.50400001928E-02 0.  1.
       -1    1    3    3    0  502 -0.29877073702E+03  0.25636330259E+03  0.39878136998E+03  0.56036834072E+03  0.50400001928E-02 0. -1.
</event>
<event>
 5   0  0.6517392E-03  0.8100891E+03  0.7818609E-02  0.9545527E-01
       -1   -1    0    0    0  501  0.00000000000E+00  0.00000000000E+00  0.88722655716E+03  0.88722655717E+03  0.50400001928E-02 0.  1.
        1   -1    0    0  501    0  0.00000000000E+00  0.00000000000E+00 -0.18491454338E+03  0.18491454345E+03  0.50400001928E-02 0. -1.
    10030    2    1    2    0    0  0.00000000000E+00  0.00000000000E+00  0.70231201377E+03  0.10721411006E+04  0.81008911544E+03 0.  0.
        3    1    3    3  502    0 -0.16142189922E+03  0.35464946941E+03  0.49750625083E+03  0.63193809469E+03  0.10100000352E+00 0.  1.
       -3    1    3    3    0  502  0.16142189922E+03 -0.35464946941E+03  0.20480576294E+03  0.44020300594E+03  0.10100000352E+00 0. -1.
</event>
<event>
 5   0  0.1154714E-02  0.8039196E+03  0.7818609E-02  0.9554361E-01
       -2   -1    0    0    0  501  0.00000000000E+00  0.00000000000E+00  0.11076340746E+03  0.11076340749E+03  0.25500000920E-02 0. -1.
        2   -1    0    0  501    0  0.00000000000E+00  0.00000000000E+00 -0.14587098622E+04  0.14587098622E+04  0.25500000920E-02 0.  1.
    10030    2    1    2    0    0  0.00000000000E+00  0.00000000000E+00 -0.13479464547E+04  0.15694732697E+04  0.80391958518E+03 0.  0.
        5    1    3    3  502    0 -0.34585010320E+02 -0.31930936331E+03 -0.20220453411E+03  0.37955678896E+03  0.46999998093E+01 0. -1.
       -5    1    3    3    0  502  0.34585010320E+02  0.31930936331E+03 -0.11457419206E+04  0.11899164807E+04  0.46999998093E+01 0.  1.
</event>
<event>
 5   0  0.1119792E-02  0.7984683E+03  0.7818609E-02  0.9562237E-01
       -2   -1    0    0    0  501  0.00000000000E+00  0.00000000000E+00  0.32124606822E+03  0.32124606823E+03  0.25500000920E-02 0. -1.
        2   -1    0    0  501    0  0.00000000000E+00  0.00000000000E+00 -0.49615518958E+03  0.49615518958E+03  0.25500000920E-02 0.  1.
    10030    2    1    2    0    0  0.00000000000E+00  0.00000000000E+00 -0.17490912135E+03  0.81740125782E+03  0.79846829339E+03 0.  0.
        4    1    3    3  502    0  0.29294923784E+03 -0.27107067447E+03 -0.97042781537E+02  0.41075233518E+03  0.12699999809E+01 0. -1.
       -4    1    3    3    0  502 -0.29294923784E+03  0.27107067447E+03 -0.77866339817E+02  0.40664892264E+03  0.12699999809E+01 0.  1.
</event>
<event>
 5   0  0.6596225E-03  0.7991110E+03  0.7818609E-02  0.9561305E-01
        1   -1    0    0  501    0  0.00000000000E+00  0.00000000000E+00  0.28390209296E+03  0.28390209301E+03  0.50400001928E-02 0. -1.
       -1   -1    0    0    0  501  0.00000000000E+00  0.00000000000E+00 -0.56232273865E+03  0.56232273867E+03  0.50400001928E-02 0.  1.
    10030    2    1    2    0    0  0.00000000000E+00  0.00000000000E+00 -0.27842064569E+03  0.84622483168E+03  0.79911101219E+03 0.  0.
        5    1    3    3  502    0  0.17946210610E+03 -0.14855213982E+03  0.20449959048E+03  0.31002670574E+03  0.46999998093E+01 0. -1.
       -5    1    3    3    0  502 -0.17946210610E+03  0.14855213982E+03 -0.48292023616E+03  0.53619812594E+03  0.46999998093E+01 0.  1.
</event>
<event>
 5   0  0.6596225E-03  0.8018097E+03  0.7818609E-02  0.9557401E-01
        1   -1    0    0  501    0  0.00000000000E+00  0.00000000000E+00  0.21850122136E+03  0.21850122142E+03  0.50400001928E-02 0. -1.
       -1   -1    0    0    0  501  0.00000000000E+00  0.00000000000E+00 -0.73557796931E+03  0.73557796932E+03  0.50400001928E-02 0.  1.
    10030    2    1    2    0    0  0.00000000000E+00  0.00000000000E+00 -0.51707674795E+03  0.95407919074E+03  0.80180966503E+03 0.  0.
        5    1    3    3  502    0 -0.26183625514E+03 -0.16024981287E+03  0.48227874632E+02  0.31078327645E+03  0.46999998093E+01 0. -1.
       -5    1    3    3    0  502  0.26183625514E+03  0.16024981287E+03 -0.56530462258E+03  0.64329591429E+03  0.46999998093E+01 0.  1.
</event>
<event>
 5   0  0.1106332E-02  0.7968748E+03  0.7818609E-02  0.9564552E-01
       -2   -1    0    0    0  501  0.00000000000E+00  0.00000000000E+00  0.11461285891E+03  0.11461285894E+03  0.25500000920E-02 0.  1.
        2   -1    0    0  501    0  0.00000000000E+00  0.00000000000E+00 -0.13851181922E+04  0.13851181922E+04  0.25500000920E-02 0. -1.
    10030    2    1    2    0    0  0.00000000000E+00  0.00000000000E+00 -0.12705053332E+04  0.14997310511E+04  0.79687478552E+03 0.  0.
        1    1    3    3  502    0 -0.10237518722E+02  0.26037738125E+03 -0.12025210212E+04  0.12304300036E+04  0.50400001928E-02 0. -1.
       -1    1    3    3    0  502  0.10237518722E+02 -0.26037738125E+03 -0.67984312091E+02  0.26930104747E+03  0.50400001928E-02 0.  1.
</event>
<event>
 5   0  0.1119792E-02  0.7972179E+03  0.7818609E-02  0.9564053E-01
       -2   -1    0    0    0  501  0.00000000000E+00  0.00000000000E+00  0.21778788617E+03  0.21778788619E+03  0.25500000920E-02 0. -1.
        2   -1    0    0  501    0  0.00000000000E+00  0.00000000000E+00 -0.72955886353E+03  0.72955886354E+03  0.25500000920E-02 0.  1.
    10030    2    1    2    0    0  0.00000000000E+00  0.00000000000E+00 -0.51177097736E+03  0.94734674973E+03  0.79721786918E+03 0.  0.
        4    1    3    3  502    0 -0.34087347995E+03  0.20587352698E+03 -0.27676847787E+03  0.48495468004E+03  0.12699999809E+01 0.  1.
       -4    1    3    3    0  502  0.34087347995E+03 -0.20587352698E+03 -0.23500249949E+03  0.46239206969E+03  0.12699999809E+01 0. -1.
</event>
<event>
 5   0  0.1119792E-02  0.7989024E+03  0.7818609E-02  0.9561607E-01
       -2   -1    0    0    0  501  0.00000000000E+00  0.00000000000E+00  0.10359743743E+04  0.10359743743E+04  0.25500000920E-02 0.  1.
        2   -1    0    0  501    0  0.00000000000E+00  0.00000000000E+00 -0.15402046991E+03  0.15402046993E+03  0.25500000920E-02 0. -1.
    10030    2    1    2    0    0  0.00000000000E+00  0.00000000000E+00  0.88195390440E+03  0.11899948442E+04  0.79890239694E+03 0.  0.
        4    1    3    3  502    0 -0.10355016549E+03 -0.15722066213E+03 -0.83794158619E+02  0.20606806470E+03  0.12699999809E+01 0. -1.
       -4    1    3    3    0  502  0.10355016549E+03  0.15722066213E+03  0.96574806302E+03  0.98392677954E+03  0.12699999809E+01 0.  1.
</event>
<event>
 5   0  0.6551489E-03  0.8060858E+03  0.7818609E-02  0.9551250E-01
        1   -1    0    0  501    0  0.00000000000E+00  0.00000000000E+00  0.11247089603E+04  0.11247089603E+04  0.50400001928E-02 0.  1.
       -1   -1    0    0    0  501  0.00000000000E+00  0.00000000000E+00 -0.14443165617E+03  0.14443165626E+03  0.50400001928E-02 0. -1.
    10030    2    1    2    0    0  0.00000000000E+00  0.00000000000E+00  0.98027730415E+03  0.12691406166E+04  0.80608579671E+03 0.  0.
        4    1    3    3  502    0 -0.61783723150E+02 -0.29540462452E+03  0.69549115275E+02  0.30970923940E+03  0.12699999809E+01 0. -1.
       -4    1    3    3    0  502  0.61783723150E+02  0.29540462452E+03  0.91072818888E+03  0.95943137720E+03  0.12699999809E+01 0.  1.
</event>
<event>
 5   0  0.6517392E-03  0.8304091E+03  0.7818609E-02  0.9517015E-01
       -1   -1    0    0    0  501  0.00000000000E+00  0.00000000000E+00  0.10232325405E+03  0.10232325418E+03  0.50400001928E-02 0. -1.
        1   -1    0    0  501    0  0.00000000000E+00  0.00000000000E+00 -0.16848058959E+04  0.16848058959E+04  0.50400001928E-02 0.  1.
    10030    2    1    2    0    0  0.00000000000E+00  0.00000000000E+00 -0.15824826419E+04  0.17871291501E+04  0.83040910842E+03 0.  0.
        3    1    3    3  502    0 -0.20687923676E+03  0.13426551892E+03 -0.72397150374E+02  0.25703619542E+03  0.10100000352E+00 0. -1.
       -3    1    3    3    0  502  0.20687923676E+03 -0.13426551892E+03 -0.15100854915E+04  0.15300929547E+04  0.10100000352E+00 0.  1.
</event>
<event>
 5   0  0.6517392E-03  0.7968851E+03  0.7818609E-02  0.9564537E-01
        1   -1    0    0  501    0  0.00000000000E+00  0.00000000000E+00  0.69592648804E+03  0.69592648806E+03  0.50400001928E-02 0.  1.
       -1   -1    0    0    0  501  0.00000000000E+00  0.00000000000E+00 -0.22812245501E+03  0.22812245507E+03  0.50400001928E-02 0. -1.
    10030    2    1    2    0    0  0.00000000000E+00  0.00000000000E+00  0.46780403303E+03  0.92404894313E+03  0.79688508329E+03 0.  0.
        3    1    3    3  502    0  0.32242293411E+03  0.95441267173E+02  0.48176630907E+03  0.58750691117E+03  0.10100000352E+00 0.  1.
       -3    1    3    3    0  502 -0.32242293411E+03 -0.95441267173E+02 -0.13962276035E+02  0.33654203196E+03  0.10100000352E+00 0. -1.
</event>
<event>
 5   0  0.1119792E-02  0.7938818E+03  0.7818609E-02  0.9568915E-01
        2   -1    0    0  501    0  0.00000000000E+00  0.00000000000E+00  0.39626147456E+03  0.39626147457E+03  0.25500000920E-02 0.  1.
       -2   -1    0    0    0  501  0.00000000000E+00  0.00000000000E+00 -0.39762148038E+03  0.39762148038E+03  0.25500000920E-02 0. -1.
    10030    2    1    2    0    0  0.00000000000E+00  0.00000000000E+00 -0.13600058144E+01  0.79388295495E+03  0.79388179004E+03 0.  0.
        4    1    3    3  502    0 -0.34308991699E+03  0.18942392333E+03  0.62314909682E+02  0.39683356050E+03  0.12699999809E+01 0.  1.
       -4    1    3    3    0  502  0.34308991699E+03 -0.18942392333E+03 -0.63674915496E+02  0.39704939445E+03  0.12699999809E+01 0. -1.
</event>
<event>
 5   0  0.6551489E-03  0.8036526E+03  0.7818609E-02  0.9554745E-01
       -1   -1    0    0    0  501  0.00000000000E+00  0.00000000000E+00  0.14560832861E+03  0.14560832870E+03  0.50400001928E-02 0. -1.
        1   -1    0    0  501    0  0.00000000000E+00  0.00000000000E+00 -0.11088953117E+04  0.11088953117E+04  0.50400001928E-02 0.  1.
    10030    2    1    2    0    0  0.00000000000E+00  0.00000000000E+00 -0.96328698306E+03  0.12545036404E+04  0.80365264388E+03 0.  0.
        4    1    3    3  502    0 -0.75153018195E+02 -0.21134398784E+03  0.38778206788E+02  0.22763923116E+03  0.12699999809E+01 0. -1.
       -4    1    3    3    0  502  0.75153018195E+02  0.21134398784E+03 -0.10020651899E+04  0.10268644092E+04  0.12699999809E+01 0.  1.
</event>
<event>
 5   0  0.4385875E-03  0.7892497E+03  0.7818609E-02  0.9575709E-01
        3   -1    0    0  501    0  0.00000000000E+00  0.00000000000E+00  0.21540478383E+03  0.21540480751E+03  0.10100000352E+00 0.  1.
       -3   -1    0    0    0  501  0.00000000000E+00  0.00000000000E+00 -0.72295864399E+03  0.72295865105E+03  0.10100000352E+00 0. -1.
    10030    2    1    2    0    0  0.00000000000E+00  0.00000000000E+00 -0.50755386016E+03  0.93836345855E+03  0.78924968127E+03 0.  0.
        5    1    3    3  502    0 -0.35529124044E+03  0.11769250662E+03 -0.40238514746E+03  0.54956281583E+03  0.46999998093E+01 0. -1.
       -5    1    3    3    0  502  0.35529124044E+03 -0.11769250662E+03 -0.10516871271E+03  0.38880064272E+03  0.46999998093E+01 0.  1.
</event>
<event>
 5   0  0.1092868E-02  0.7991853E+03  0.7818609E-02  0.9561197E-01
        2   -1    0    0  501    0  0.00000000000E+00  0.00000000000E+00  0.13912699870E+04  0.13912699870E+04  0.25500000920E-02 0.  1.
       -2   -1    0    0    0  501  0.00000000000E+00  0.00000000000E+00 -0.11476874096E+03  0.11476874099E+03  0.25500000920E-02 0. -1.
    10030    2    1    2    0    0  0.00000000000E+00  0.00000000000E+00  0.12765012460E+04  0.15060387280E+04  0.79918534714E+03 0.  0.
        3    1    3    3  502    0 -0.88867655316E+02 -0.52764944894E+02 -0.89145723227E+02  0.13648651853E+03  0.10100000352E+00 0. -1.
       -3    1    3    3    0  502  0.88867655316E+02  0.52764944894E+02  0.13656469693E+04  0.13695522095E+04  0.10100000352E+00 0.  1.
</event>
<event>
 5   0  0.6596225E-03  0.8243728E+03  0.7818609E-02  0.9525393E-01
       -1   -1    0    0    0  501  0.00000000000E+00  0.00000000000E+00  0.35828180561E+03  0.35828180564E+03  0.50400001928E-02 0.  1.
        1   -1    0    0  501    0  0.00000000000E+00  0.00000000000E+00 -0.47420106872E+03  0.47420106874E+03  0.50400001928E-02 0. -1.
    10030    2    1    2    0    0  0.00000000000E+00  0.00000000000E+00 -0.11591926311E+03  0.83248287439E+03  0.82437276798E+03 0.  0.
        5    1    3    3  502    0  0.18461331133E+02 -0.13288798752E+03  0.33558637795E+03  0.36144203552E+03  0.46999998093E+01 0.  1.
       -5    1    3    3    0  502 -0.18461331133E+02  0.13288798752E+03 -0.45150564106E+03  0.47104083887E+03  0.46999998093E+01 0. -1.
</event>
<event>
 5   0  0.1092868E-02  0.8037267E+03  0.7818609E-02  0.9554639E-01
        2   -1    0    0  501    0  0.00000000000E+00  0.00000000000E+00  0.13826355432E+04  0.13826355432E+04  0.25500000920E-02 0. -1.
       -2   -1    0    0    0  501  0.00000000000E+00  0.00000000000E+00 -0.11680166999E+03  0.11680167002E+03  0.25500000920E-02 0.  1.
    10030    2    1    2    0    0  0.00000000000E+00  0.00000000000E+00  0.12658338732E+04  0.14994372132E+04  0.80372667108E+03 0.  0.
        3    1    3    3  502    0  0.25635532736E+03 -0.29183599671E+03  0.44077014937E+03  0.58750713836E+03  0.10100000352E+00 0.  1.
       -3    1    3    3    0  502 -0.25635532736E+03  0.29183599671E+03  0.82506372381E+03  0.91193007484E+03  0.10100000352E+00 0. -1.
</event>
<event>
 5   0  0.1106332E-02  0.8046145E+03  0.7818609E-02  0.9553362E-01
       -2   -1    0    0    0  501  0.00000000000E+00  0.00000000000E+00  0.55007145020E+03  0.55007145020E+03  0.25500000920E-02 0. -1.
        2   -1    0    0  501    0  0.00000000000E+00  0.00000000000E+00 -0.29423653434E+03  0.29423653435E+03  0.25500000920E-02 0.  1.
    10030    2    1    2    0    0  0.00000000000E+00  0.00000000000E+00  0.25583491586E+03  0.84430798455E+03  0.80461448446E+03 0.  0.
        1    1    3    3  502    0 -0.18970174875E+03 -0.20842427994E+02  0.49954995754E+03  0.53476286369E+03  0.50400001928E-02 0. -1.
       -1    1    3    3    0  502  0.18970174875E+03  0.20842427994E+02 -0.24371504167E+03  0.30954512086E+03  0.50400001928E-02 0.  1.
</event>
<event>
 5   0  0.6596225E-03  0.7982130E+03  0.7818609E-02  0.9562607E-01
       -1   -1    0    0    0  501  0.00000000000E+00  0.00000000000E+00  0.17626432692E+03  0.17626432700E+03  0.50400001928E-02 0.  1.
        1   -1    0    0  501    0  0.00000000000E+00  0.00000000000E+00 -0.90367689221E+03  0.90367689222E+03  0.50400001928E-02 0. -1.
    10030    2    1    2    0    0  0.00000000000E+00  0.00000000000E+00 -0.72741256528E+03  0.10799412192E+04  0.79821300217E+03 0.  0.
        5    1    3    3  502    0 -0.23882609581E+03  0.22762583496E+03 -0.59932443221E+02  0.33535863271E+03  0.46999998093E+01 0.  1.
       -5    1    3    3    0  502  0.23882609581E+03 -0.22762583496E+03 -0.66748012206E+03  0.74458258651E+03  0.46999998093E+01 0. -1.
</event>
<event>
 5   0  0.6600401E-03  0.8102677E+03  0.7818609E-02  0.9545273E-01
        1   -1    0    0  501    0  0.00000000000E+00  0.00000000000E+00  0.21051133523E+03  0.21051133529E+03  0.50400001928E-02 0. -1.
       -1   -1    0    0    0  501  0.00000000000E+00  0.00000000000E+00 -0.77968925033E+03  0.77968925035E+03  0.50400001928E-02 0.  1.
    10030    2    1    2    0    0  0.00000000000E+00  0.00000000000E+00 -0.56917791510E+03  0.99020058564E+03  0.81026767230E+03 0.  0.
        2    1    3    3  502    0 -0.24484003314E+03  0.16728233913E+03 -0.62193983811E+03  0.68901319657E+03  0.25500000920E-02 0.  1.
       -2    1    3    3    0  502  0.24484003314E+03 -0.16728233913E+03  0.52761923007E+02  0.30118738908E+03  0.25500000920E-02 0. -1.
</event>
<event>
 5   0  0.1121480E-02  0.7993024E+03  0.7818609E-02  0.9561027E-01
       -2   -1    0    0    0  501  0.00000000000E+00  0.00000000000E+00  0.36031129235E+03  0.36031129235E+03  0.25500000920E-02 0. -1.
        2   -1    0    0  501    0  0.00000000000E+00  0.00000000000E+00 -0.44328637380E+03  0.44328637381E+03  0.25500000920E-02 0.  1.
    10030    2    1    2    0    0  0.00000000000E+00  0.00000000000E+00 -0.82975081456E+02  0.80359766616E+03  0.79930241143E+03 0.  0.
        2    1    3    3  502    0  0.35007254404E+03 -0.11912409694E+03  0.11091780139E+03  0.38606229450E+03  0.25500000920E-02 0. -1.
       -2    1    3    3    0  502 -0.35007254404E+03  0.11912409694E+03 -0.19389288285E+03  0.41753537166E+03  0.25500000920E-02 0.  1.
</event>
<event>
 5   0  0.1121480E-02  0.7199122E+03  0.7818609E-02  0.9683773E-01
       -2   -1    0    0    0  501  0.00000000000E+00  0.00000000000E+00  0.49941960517E+03  0.49941960518E+03  0.25500000920E-02 0. -1.
        2   -1    0    0  501    0  0.00000000000E+00  0.00000000000E+00 -0.25943792557E+03  0.25943792559E+03  0.25500000920E-02 0.  1.
    10030    2    1    2    0    0  0.00000000000E+00  0.00000000000E+00  0.23998167960E+03  0.75885753077E+03  0.71991217899E+03 0.  0.
        2    1    3    3  502    0  0.31582093527E+03 -0.13441957376E+03  0.23428582230E+03  0.41557349711E+03  0.25500000920E-02 0. -1.
       -2    1    3    3    0  502 -0.31582093527E+03  0.13441957376E+03  0.56958572993E+01  0.34328403365E+03  0.25500000920E-02 0.  1.
</event>
<event>
 5   0  0.6557679E-03  0.7953891E+03  0.7818609E-02  0.9566715E-01
        1   -1    0    0  501    0  0.00000000000E+00  0.00000000000E+00  0.84589943015E+03  0.84589943017E+03  0.50400001928E-02 0.  1.
       -1   -1    0    0    0  501  0.00000000000E+00  0.00000000000E+00 -0.18697372024E+03  0.18697372030E+03  0.50400001928E-02 0. -1.
    10030    2    1    2    0    0  0.00000000000E+00  0.00000000000E+00  0.65892570992E+03  0.10328731505E+04  0.79538912098E+03 0.  0.
        1    1    3    3  502    0  0.13990305678E+03 -0.35038015583E+03  0.16612159631E+03  0.41223234186E+03  0.50400001928E-02 0. -1.
       -1    1    3    3    0  502 -0.13990305678E+03  0.35038015583E+03  0.49280411361E+03  0.62064080861E+03  0.50400001928E-02 0.  1.
</event>
<event>
 5   0  0.6600401E-03  0.8041453E+03  0.7818609E-02  0.9554036E-01
        1   -1    0    0  501    0  0.00000000000E+00  0.00000000000E+00  0.19070913364E+03  0.19070913371E+03  0.50400001928E-02 0.  1.
       -1   -1    0    0    0  501  0.00000000000E+00  0.00000000000E+00 -0.84769092888E+03  0.84769092890E+03  0.50400001928E-02 0. -1.
    10030    2    1    2    0    0  0.00000000000E+00  0.00000000000E+00 -0.65698179524E+03  0.10384000626E+04  0.80414526718E+03 0.  0.
        2    1    3    3  502    0 -0.11774803680E+03 -0.12964992703E+03 -0.79584613035E+03  0.81488942008E+03  0.25500000920E-02 0. -1.
       -2    1    3    3    0  502  0.11774803680E+03  0.12964992703E+03  0.13886433511E+03  0.22351064252E+03  0.25500000920E-02 0.  1.
</event>
<event>
 5   0  0.1106332E-02  0.8032173E+03  0.7818609E-02  0.9555372E-01
       -2   -1    0    0    0  501  0.00000000000E+00  0.00000000000E+00  0.14383415307E+03  0.14383415310E+03  0.25500000920E-02 0.  1.
        2   -1    0    0  501    0  0.00000000000E+00  0.00000000000E+00 -0.11213575068E+04  0.11213575068E+04  0.25500000920E-02 0. -1.
    10030    2    1    2    0    0  0.00000000000E+00  0.00000000000E+00 -0.97752335377E+03  0.12651916599E+04  0.80321729888E+03 0.  0.
        1    1    3    3  502    0 -0.18054212185E+03 -0.27783911816E+03 -0.13130397122E+03  0.35641375706E+03  0.50400001928E-02 0.  1.
       -1    1    3    3    0  502  0.18054212185E+03  0.27783911816E+03 -0.84621938255E+03  0.90877790288E+03  0.50400001928E-02 0. -1.
</event>
<event>
 5   0  0.6551489E-03  0.8019387E+03  0.7818609E-02  0.9557215E-01
        1   -1    0    0  501    0  0.00000000000E+00  0.00000000000E+00  0.77925143578E+03  0.77925143579E+03  0.50400001928E-02 0.  1.
       -1   -1    0    0    0  501  0.00000000000E+00  0.00000000000E+00 -0.20632159825E+03  0.20632159831E+03  0.50400001928E-02 0. -1.
    10030    2    1    2    0    0  0.00000000000E+00  0.00000000000E+00  0.57292983753E+03  0.98557303410E+03  0.80193865527E+03 0.  0.
        4    1    3    3  502    0 -0.38242022113E+03 -0.56043014926E+02  0.15530970032E+03  0.41654382839E+03  0.12699999809E+01 0. -1.
       -4    1    3    3    0  502  0.38242022113E+03  0.56043014926E+02  0.41762013721E+03  0.56902920572E+03  0.12699999809E+01 0.  1.
</event>
<event>
 5   0  0.1106332E-02  0.7979337E+03  0.7818609E-02  0.9563013E-01
       -2   -1    0    0    0  501  0.00000000000E+00  0.00000000000E+00  0.13740401509E+03  0.13740401511E+03  0.25500000920E-02 0. -1.
        2   -1    0    0  501    0  0.00000000000E+00  0.00000000000E+00 -0.11584417333E+04  0.11584417333E+04  0.25500000920E-02 0.  1.
    10030    2    1    2    0    0  0.00000000000E+00  0.00000000000E+00 -0.10210377182E+04  0.12958457484E+04  0.79793369502E+03 0.  0.
        1    1    3    3  502    0  0.19164335071E+02 -0.39844882568E+03 -0.52151023966E+03  0.65658332946E+03  0.50400001928E-02 0. -1.
       -1    1    3    3    0  502 -0.19164335071E+02  0.39844882568E+03 -0.49952747854E+03  0.63926241894E+03  0.50400001928E-02 0.  1.
</event>
<event>
 5   0  0.6557679E-03  0.7985886E+03  0.7818609E-02  0.9562062E-01
        1   -1    0    0  501    0  0.00000000000E+00  0.00000000000E+00  0.27788175131E+03  0.27788175135E+03  0.50400001928E-02 0.  1.
       -1   -1    0    0    0  501  0.00000000000E+00  0.00000000000E+00 -0.57375466949E+03  0.57375466951E+03  0.50400001928E-02 0. -1.
    10030    2    1    2    0    0  0.00000000000E+00  0.00000000000E+00 -0.29587291818E+03  0.85163642087E+03  0.79858863605E+03 0.  0.
        1    1    3    3  502    0 -0.76450713400E+01  0.70752426709E+02  0.27106429259E+03  0.28025025199E+03  0.50400001928E-02 0.  1.
       -1    1    3    3    0  502  0.76450713400E+01 -0.70752426709E+02 -0.56693721077E+03  0.57138616887E+03  0.50400001928E-02 0. -1.
</event>
<event>
 5   0  0.1119792E-02  0.7947977E+03  0.7818609E-02  0.9567578E-01
       -2   -1    0    0    0  501  0.00000000000E+00  0.00000000000E+00  0.15420318086E+03  0.15420318088E+03  0.25500000920E-02 0. -1.
        2   -1    0    0  501    0  0.00000000000E+00  0.00000000000E+00 -0.10241414270E+04  0.10241414270E+04  0.25500000920E-02 0.  1.
    10030    2    1    2    0    0  0.00000000000E+00  0.00000000000E+00 -0.86993824615E+03  0.11783446079E+04  0.79479774963E+03 0.  0.
        4    1    3    3  502    0 -0.19702586553E+03 -0.28906857879E+03 -0.15545652112E+03  0.38281611485E+03  0.12699999809E+01 0. -1.
       -4    1    3    3    0  502  0.19702586553E+03  0.28906857879E+03 -0.71448172503E+03  0.79552849304E+03  0.12699999809E+01 0.  1.
</event>
<event>
 5   0  0.6596225E-03  0.8029491E+03  0.7818609E-02  0.9555758E-01
        1   -1    0    0  501    0  0.00000000000E+00  0.00000000000E+00  0.52137594597E+03  0.52137594600E+03  0.50400001928E-02 0. -1.
       -1   -1    0    0    0  501  0.00000000000E+00  0.00000000000E+00 -0.30914700163E+03  0.30914700167E+03  0.50400001928E-02 0.  1.
    10030    2    1    2    0    0  0.00000000000E+00  0.00000000000E+00  0.21222894434E+03  0.83052294767E+03  0.80294909041E+03 0.  0.
        5    1    3    3  502    0  0.37020106235E+03 -0.10994696940E+03  0.21952726968E+03  0.44424258550E+03  0.46999998093E+01 0. -1.
       -5    1    3    3    0  502 -0.37020106235E+03  0.10994696940E+03 -0.72983253393E+01  0.38628036217E+03  0.46999998093E+01 0.  1.
</event>
<event>
 5   0  0.1092868E-02  0.8085205E+03  0.7818609E-02  0.9547765E-01
        2   -1    0    0  501    0  0.00000000000E+00  0.00000000000E+00  0.87270018950E+03  0.87270018950E+03  0.25500000920E-02 0.  1.
       -2   -1    0    0    0  501  0.00000000000E+00  0.00000000000E+00 -0.18726517340E+03  0.18726517342E+03  0.25500000920E-02 0. -1.
    10030    2    1    2    0    0  0.00000000000E+00  0.00000000000E+00  0.68543501609E+03  0.10599653629E+04  0.80852050642E+03 0.  0.
        3    1    3    3  502    0 -0.10205958077E+02  0.13744472874E+03 -0.15551382319E+03  0.20779743608E+03  0.10100000352E+00 0. -1.
       -3    1    3    3    0  502  0.10205958077E+02 -0.13744472874E+03  0.84094883928E+03  0.85216792684E+03  0.10100000352E+00 0.  1.
</event>
<event>
 5   0  0.1121480E-02  0.8010051E+03  0.7818609E-02  0.9558563E-01
       -2   -1    0    0    0  501  0.00000000000E+00  0.00000000000E+00  0.30444125028E+03  0.30444125030E+03  0.25500000920E-02 0. -1.
        2   -1    0    0  501    0  0.00000000000E+00  0.00000000000E+00 -0.52687432409E+03  0.52687432410E+03  0.25500000920E-02 0.  1.
    10030    2    1    2    0    0  0.00000000000E+00  0.00000000000E+00 -0.22243307381E+03  0.83131557439E+03  0.80100506359E+03 0.  0.
        2    1    3    3  502    0 -0.17112106605E+03 -0.19354409517E+02  0.26405328503E+03  0.31524775932E+03  0.25500000920E-02 0. -1.
       -2    1    3    3    0  502  0.17112106605E+03  0.19354409517E+02 -0.48648635884E+03  0.51606781507E+03  0.25500000920E-02 0.  1.
</event>
<event>
 5   0  0.1106332E-02  0.7997197E+03  0.7818609E-02  0.9560423E-01
        2   -1    0    0  501    0  0.00000000000E+00  0.00000000000E+00  0.12044192118E+04  0.12044192118E+04  0.25500000920E-02 0. -1.
       -2   -1    0    0    0  501  0.00000000000E+00  0.00000000000E+00 -0.13275105335E+03  0.13275105338E+03  0.25500000920E-02 0.  1.
    10030    2    1    2    0    0  0.00000000000E+00  0.00000000000E+00  0.10716681584E+04  0.13371702652E+04  0.79971974857E+03 0.  0.
        1    1    3    3  502    0  0.22128884709E+03  0.14433362748E+03  0.33977204418E+02  0.26637454892E+03  0.50400001928E-02 0. -1.
       -1    1    3    3    0  502 -0.22128884709E+03 -0.14433362748E+03  0.10376909540E+04  0.10707957163E+04  0.50400001928E-02 0.  1.
</event>
<event>
 5   0  0.6600401E-03  0.7864200E+03  0.7818609E-02  0.9579884E-01
       -1   -1    0    0    0  501  0.00000000000E+00  0.00000000000E+00  0.16496850836E+03  0.16496850844E+03  0.50400001928E-02 0.  1.
        1   -1    0    0  501    0  0.00000000000E+00  0.00000000000E+00 -0.93723413375E+03  0.93723413376E+03  0.50400001928E-02 0. -1.
    10030    2    1    2    0    0  0.00000000000E+00  0.00000000000E+00 -0.77226562539E+03  0.11022026422E+04  0.78642003300E+03 0.  0.
        2    1    3    3  502    0 -0.26869421311E+02  0.32112818931E+03 -0.70192798642E+03  0.77236531376E+03  0.25500000920E-02 0. -1.
       -2    1    3    3    0  502  0.26869421311E+02 -0.32112818931E+03 -0.70337638968E+02  0.32983732844E+03  0.25500000920E-02 0.  1.
</event>
<event>
 5   0  0.1121480E-02  0.8057659E+03  0.7818609E-02  0.9551708E-01
        2   -1    0    0  501    0  0.00000000000E+00  0.00000000000E+00  0.64934163172E+03  0.64934163173E+03  0.25500000920E-02 0.  1.
       -2   -1    0    0    0  501  0.00000000000E+00  0.00000000000E+00 -0.24996809537E+03  0.24996809538E+03  0.25500000920E-02 0. -1.
    10030    2    1    2    0    0  0.00000000000E+00  0.00000000000E+00  0.39937353635E+03  0.89930972711E+03  0.80576594848E+03 0.  0.
        2    1    3    3  502    0 -0.33560952271E+03  0.14817313849E+03  0.38552768055E+03  0.53218476414E+03  0.25500000920E-02 0.  1.
       -2    1    3    3    0  502  0.33560952271E+03 -0.14817313849E+03  0.13845855801E+02  0.36712496297E+03  0.25500000920E-02 0. -1.
</event>
<event>
 5   0  0.6517392E-03  0.7967033E+03  0.7818609E-02  0.9564801E-01
        1   -1    0    0  501    0  0.00000000000E+00  0.00000000000E+00  0.91937553255E+03  0.91937553256E+03  0.50400001928E-02 0.  1.
       -1   -1    0    0    0  501  0.00000000000E+00  0.00000000000E+00 -0.17259979942E+03  0.17259979949E+03  0.50400001928E-02 0. -1.
    10030    2    1    2    0    0  0.00000000000E+00  0.00000000000E+00  0.74677573313E+03  0.10919753321E+04  0.79670328871E+03 0.  0.
        3    1    3    3  502    0 -0.19437844196E+03 -0.30105702731E+03  0.61183475017E+03  0.70905576939E+03  0.10100000352E+00 0.  1.
       -3    1    3    3    0  502  0.19437844196E+03  0.30105702731E+03  0.13494098296E+03  0.38291956267E+03  0.10100000352E+00 0. -1.
</event>
<event>
 5   0  0.6551489E-03  0.8212211E+03  0.7818609E-02  0.9529798E-01
       -1   -1    0    0    0  501  0.00000000000E+00  0.00000000000E+00  0.36549273984E+03  0.36549273987E+03  0.50400001928E-02 0. -1.
        1   -1    0    0  501    0  0.00000000000E+00  0.00000000000E+00 -0.46129782052E+03  0.46129782054E+03  0.50400001928E-02 0.  1.
    10030    2    1    2    0    0  0.00000000000E+00  0.00000000000E+00 -0.95805080679E+02  0.82679056042E+03  0.82122105265E+03 0.  0.
        4    1    3    3  502    0  0.12276514081E+02  0.37272227647E+03 -0.22090150471E+03  0.43344168680E+03  0.12699999809E+01 0.  1.
       -4    1    3    3    0  502 -0.12276514081E+02 -0.37272227647E+03  0.12509642403E+03  0.39334887362E+03  0.12699999809E+01 0. -1.
</event>
<event>
 5   0  0.6600401E-03  0.7977547E+03  0.7818609E-02  0.9563273E-01
        1   -1    0    0  501    0  0.00000000000E+00  0.00000000000E+00  0.47237571412E+03  0.47237571415E+03  0.50400001928E-02 0. -1.
       -1   -1    0    0    0  501  0.00000000000E+00  0.00000000000E+00 -0.33681484411E+03  0.33681484415E+03  0.50400001928E-02 0.  1.
    10030    2    1    2    0    0  0.00000000000E+00  0.00000000000E+00  0.13556087001E+03  0.80919055830E+03  0.79775473058E+03 0.  0.
        2    1    3    3  502    0  0.38745917321E+03 -0.92395809804E+02  0.46465976925E+02  0.40102454238E+03  0.25500000920E-02 0.  1.
       -2    1    3    3    0  502 -0.38745917321E+03  0.92395809804E+02  0.89094893086E+02  0.40816601592E+03  0.25500000920E-02 0. -1.
</event>
<event>
 5   0  0.6596225E-03  0.8000014E+03  0.7818609E-02  0.9560015E-01
        1   -1    0    0  501    0  0.00000000000E+00  0.00000000000E+00  0.20281165562E+03  0.20281165568E+03  0.50400001928E-02 0. -1.
       -1   -1    0    0    0  501  0.00000000000E+00  0.00000000000E+00 -0.78891198700E+03  0.78891198702E+03  0.50400001928E-02 0.  1.
    10030    2    1    2    0    0  0.00000000000E+00  0.00000000000E+00 -0.58610033138E+03  0.99172364269E+03  0.80000136564E+03 0.  0.
        5    1    3    3  502    0  0.13670609596E+03  0.87099746103E+02 -0.74633520099E+03  0.76374946460E+03  0.46999998093E+01 0.  1.
       -5    1    3    3    0  502 -0.13670609596E+03 -0.87099746103E+02  0.16023486960E+03  0.22797417810E+03  0.46999998093E+01 0. -1.
</event>
<event>
 5   0  0.1092868E-02  0.7979609E+03  0.7818609E-02  0.9562973E-01
       -2   -1    0    0    0  501  0.00000000000E+00  0.00000000000E+00  0.33332702144E+03  0.33332702145E+03  0.25500000920E-02 0. -1.
        2   -1    0    0  501    0  0.00000000000E+00  0.00000000000E+00 -0.47756522650E+03  0.47756522651E+03  0.25500000920E-02 0.  1.
    10030    2    1    2    0    0  0.00000000000E+00  0.00000000000E+00 -0.14423820506E+03  0.81089224796E+03  0.79796088751E+03 0.  0.
        3    1    3    3  502    0 -0.31791359926E+03  0.67373916387E+02  0.16309918114E+03  0.36360645525E+03  0.10100000352E+00 0. -1.
       -3    1    3    3    0  502  0.31791359926E+03 -0.67373916387E+02 -0.30733738620E+03  0.44728579271E+03  0.10100000352E+00 0.  1.
</event>
<event>
 5   0  0.1119792E-02  0.7796323E+03  0.7818609E-02  0.9589976E-01
        2   -1    0    0  501    0  0.00000000000E+00  0.00000000000E+00  0.14625145971E+03  0.14625145973E+03  0.25500000920E-02 0.  1.
       -2   -1    0    0    0  501  0.00000000000E+00  0.00000000000E+00 -0.10390094380E+04  0.10390094380E+04  0.25500000920E-02 0. -1.
    10030    2    1    2    0    0  0.00000000000E+00  0.00000000000E+00 -0.89275797829E+03  0.11852608977E+04  0.77963234148E+03 0.  0.
        4    1    3    3  502    0  0.35131525085E+03 -0.16889802844E+03 -0.45012905923E+03  0.59545506325E+03  0.12699999809E+01 0.  1.
       -4    1    3    3    0  502 -0.35131525085E+03  0.16889802844E+03 -0.44262891906E+03  0.58980583447E+03  0.12699999809E+01 0. -1.
</event>
<event>
 5   0  0.1092868E-02  0.8043179E+03  0.7818609E-02  0.9553788E-01
       -2   -1    0    0    0  501  0.00000000000E+00  0.00000000000E+00  0.15889457343E+03  0.15889457345E+03  0.25500000920E-02 0. -1.
        2   -1    0    0  501    0  0.00000000000E+00  0.00000000000E+00 -0.10178560737E+04  0.10178560737E+04  0.25500000920E-02 0.  1.
    10030    2    1    2    0    0  0.00000000000E+00  0.00000000000E+00 -0.85896150027E+03  0.11767506471E+04  0.80431786416E+03 0.  0.
        3    1    3    3  502    0  0.47013156925E+02 -0.26604620450E+03 -0.86531246804E+03  0.90650785843E+03  0.10100000352E+00 0.  1.
       -3    1    3    3    0  502 -0.47013156925E+02  0.26604620450E+03  0.63509677751E+01  0.27024278871E+03  0.10100000352E+00 0. -1.
</event>
<event>
 5   0  0.6600401E-03  0.7979618E+03  0.7818609E-02  0.9562972E-01
       -1   -1    0    0    0  501  0.00000000000E+00  0.00000000000E+00  0.12679503199E+03  0.12679503209E+03  0.50400001928E-02 0.  1.
        1   -1    0    0  501    0  0.00000000000E+00  0.00000000000E+00 -0.12554573160E+04  0.12554573160E+04  0.50400001928E-02 0. -1.
    10030    2    1    2    0    0  0.00000000000E+00  0.00000000000E+00 -0.11286622840E+04  0.13822523481E+04  0.79796178010E+03 0.  0.
        2    1    3    3  502    0  0.12076038366E+03 -0.18860475328E+03  0.76478775238E+01  0.22408327305E+03  0.25500000920E-02 0.  1.
       -2    1    3    3    0  502 -0.12076038366E+03  0.18860475328E+03 -0.11363101615E+04  0.11581690751E+04  0.25500000920E-02 0. -1.
</event>
<event>
 5   0  0.4385875E-03  0.7840344E+03  0.7818609E-02  0.9583418E-01
       -4   -1    0    0    0  501  0.00000000000E+00  0.00000000000E+00  0.85273422240E+03  0.85273516813E+03  0.12699999809E+01 0. -1.
        4   -1    0    0  501    0  0.00000000000E+00  0.00000000000E+00 -0.18021406071E+03  0.18021853561E+03  0.12699999809E+01 0.  1.
    10030    2    1    2    0    0  0.00000000000E+00  0.00000000000E+00  0.67252016169E+03  0.10329537037E+04  0.78403442921E+03 0.  0.
        1    1    3    3  502    0  0.11911926056E+02 -0.17894459205E+03 -0.12300101720E+03  0.21746795457E+03  0.50400001928E-02 0.  1.
       -1    1    3    3    0  502 -0.11911926056E+02  0.17894459205E+03  0.79552117890E+03  0.81548574917E+03  0.50400001928E-02 0. -1.
</event>
<event>
 5   0  0.6596225E-03  0.8008146E+03  0.7818609E-02  0.9558839E-01
       -1   -1    0    0    0  501  0.00000000000E+00  0.00000000000E+00  0.45646050628E+03  0.45646050631E+03  0.50400001928E-02 0.  1.
        1   -1    0    0  501    0  0.00000000000E+00  0.00000000000E+00 -0.35123739860E+03  0.35123739864E+03  0.50400001928E-02 0. -1.
    10030    2    1    2    0    0  0.00000000000E+00  0.00000000000E+00  0.10522310768E+03  0.80769790495E+03  0.80081458732E+03 0.  0.
        5    1    3    3  502    0 -0.15750536005E+02 -0.13002963070E+03 -0.32898971952E+03  0.35413572228E+03  0.46999998093E+01 0. -1.
       -5    1    3    3    0  502  0.15750536005E+02  0.13002963070E+03  0.43421282720E+03  0.45356218267E+03  0.46999998093E+01 0.  1.
</event>
<event>
 5   0  0.6596225E-03  0.7943337E+03  0.7818609E-02  0.9568255E-01
        1   -1    0    0  501    0  0.00000000000E+00  0.00000000000E+00  0.83826883425E+03  0.83826883426E+03  0.50400001928E-02 0. -1.
       -1   -1    0    0    0  501  0.00000000000E+00  0.00000000000E+00 -0.18817530045E+03  0.18817530052E+03  0.50400001928E-02 0.  1.
    10030    2    1    2    0    0  0.00000000000E+00  0.00000000000E+00  0.65009353380E+03  0.10264441348E+04  0.79433365731E+03 0.  0.
        5    1    3    3  502    0  0.58336351183E+02  0.35304012098E+03  0.54766286519E+03  0.65421491943E+03  0.46999998093E+01 0. -1.
       -5    1    3    3    0  502 -0.58336351183E+02 -0.35304012098E+03  0.10243066860E+03  0.37222921535E+03  0.46999998093E+01 0.  1.
</event>
<event>
 5   0  0.6551489E-03  0.7984154E+03  0.7818609E-02  0.9562314E-01
        1   -1    0    0  501    0  0.00000000000E+00  0.00000000000E+00  0.12530695433E+04  0.12530695433E+04  0.50400001928E-02 0.  1.
       -1   -1    0    0    0  501  0.00000000000E+00  0.00000000000E+00 -0.12718110968E+03  0.12718110978E+03  0.50400001928E-02 0. -1.
    10030    2    1    2    0    0  0.00000000000E+00  0.00000000000E+00  0.11258884336E+04  0.13802506531E+04  0.79841536836E+03 0.  0.
        4    1    3    3  502    0  0.14345752745E+03  0.23679467908E+03  0.65760430431E+02  0.28456603686E+03  0.12699999809E+01 0. -1.
       -4    1    3    3    0  502 -0.14345752745E+03 -0.23679467908E+03  0.10601280032E+04  0.10956846163E+04  0.12699999809E+01 0.  1.
</event>
<event>
 5   0  0.6557679E-03  0.7915801E+03  0.7818609E-02  0.9572285E-01
       -1   -1    0    0    0  501  0.00000000000E+00  0.00000000000E+00  0.64916386943E+03  0.64916386945E+03  0.50400001928E-02 0.  1.
        1   -1    0    0  501    0  0.00000000000E+00  0.00000000000E+00 -0.24131005816E+03  0.24131005821E+03  0.50400001928E-02 0. -1.
    10030    2    1    2    0    0  0.00000000000E+00  0.00000000000E+00  0.40785381126E+03  0.89047392766E+03  0.79158011880E+03 0.  0.
        1    1    3    3  502    0  0.10697156795E+03  0.27521744223E+03 -0.92556671449E+02  0.30944190781E+03  0.50400001928E-02 0. -1.
       -1    1    3    3    0  502 -0.10697156795E+03 -0.27521744223E+03  0.50041048271E+03  0.58103201985E+03  0.50400001928E-02 0.  1.
</event>
<event>
 5   0  0.1119792E-02  0.8028282E+03  0.7818609E-02  0.9555932E-01
       -2   -1    0    0    0  501  0.00000000000E+00  0.00000000000E+00  0.75370577350E+03  0.75370577351E+03  0.25500000920E-02 0.  1.
        2   -1    0    0  501    0  0.00000000000E+00  0.00000000000E+00 -0.21378802042E+03  0.21378802044E+03  0.25500000920E-02 0. -1.
    10030    2    1    2    0    0  0.00000000000E+00  0.00000000000E+00  0.53991775308E+03  0.96749379394E+03  0.80282816420E+03 0.  0.
        4    1    3    3  502    0 -0.31928165570E+03 -0.22750793154E+03  0.16607461907E+03  0.42577344513E+03  0.12699999809E+01 0. -1.
       -4    1    3    3    0  502  0.31928165570E+03  0.22750793154E+03  0.37384313401E+03  0.54172034882E+03  0.12699999809E+01 0.  1.
</event>
<event>
 5   0  0.1154714E-02  0.7974917E+03  0.7818609E-02  0.9563655E-01
        2   -1    0    0  501    0  0.00000000000E+00  0.00000000000E+00  0.70169535138E+03  0.70169535138E+03  0.25500000920E-02 0.  1.
       -2   -1    0    0    0  501  0.00000000000E+00  0.00000000000E+00 -0.22659155184E+03  0.22659155186E+03  0.25500000920E-02 0. -1.
    10030    2    1    2    0    0  0.00000000000E+00  0.00000000000E+00  0.47510379953E+03  0.92828690324E+03  0.79749166416E+03 0.  0.
        5    1    3    3  502    0  0.30751816211E+03  0.19297528608E+03  0.42941658085E+03  0.56234115177E+03  0.46999998093E+01 0.  1.
       -5    1    3    3    0  502 -0.30751816211E+03 -0.19297528608E+03  0.45687218684E+02  0.36594575147E+03  0.46999998093E+01 0. -1.
</event>
<event>
 5   0  0.6596225E-03  0.8054304E+03  0.7818609E-02  0.9552190E-01
       -1   -1    0    0    0  501  0.00000000000E+00  0.00000000000E+00  0.41095551800E+03  0.41095551803E+03  0.50400001928E-02 0.  1.
        1   -1    0    0  501    0  0.00000000000E+00  0.00000000000E+00 -0.39464009348E+03  0.39464009351E+03  0.50400001928E-02 0. -1.
    10030    2    1    2    0    0  0.00000000000E+00  0.00000000000E+00  0.16315424526E+02  0.80559561154E+03  0.80543037952E+03 0.  0.
        5    1    3    3  502    0  0.17529557399E+03  0.30660092961E+03  0.20165221486E+03  0.40671657706E+03  0.46999998093E+01 0.  1.
       -5    1    3    3    0  502 -0.17529557399E+03 -0.30660092961E+03 -0.18533679033E+03  0.39887903448E+03  0.46999998093E+01 0. -1.
</event>
<event>
 5   0  0.1106332E-02  0.8093301E+03  0.7818609E-02  0.9546609E-01
       -2   -1    0    0    0  501  0.00000000000E+00  0.00000000000E+00  0.19432360094E+03  0.19432360096E+03  0.25500000920E-02 0.  1.
        2   -1    0    0  501    0  0.00000000000E+00  0.00000000000E+00 -0.84268620497E+03  0.84268620498E+03  0.25500000920E-02 0. -1.
    10030    2    1    2    0    0  0.00000000000E+00  0.00000000000E+00 -0.64836260404E+03  0.10370098059E+04  0.80933013739E+03 0.  0.
        1    1    3    3  502    0  0.27992554758E+03  0.27783951709E+03 -0.20814795124E+03  0.44595815844E+03  0.50400001928E-02 0.  1.
       -1    1    3    3    0  502 -0.27992554758E+03 -0.27783951709E+03 -0.44021465279E+03  0.59105164749E+03  0.50400001928E-02 0. -1.
</event>
<event>
 5   0  0.1121480E-02  0.7966519E+03  0.7818609E-02  0.9564876E-01
       -2   -1    0    0    0  501  0.00000000000E+00  0.00000000000E+00  0.23122466671E+03  0.23122466672E+03  0.25500000920E-02 0. -1.
        2   -1    0    0  501    0  0.00000000000E+00  0.00000000000E+00 -0.68618785364E+03  0.68618785364E+03  0.25500000920E-02 0.  1.
    10030    2    1    2    0    0  0.00000000000E+00  0.00000000000E+00 -0.45496318693E+03  0.91741252036E+03  0.79665188825E+03 0.  0.
        2    1    3    3  502    0 -0.10380023158E+03 -0.20077921384E+03  0.15022567062E+03  0.27139368619E+03  0.25500000920E-02 0. -1.
       -2    1    3    3    0  502  0.10380023158E+03  0.20077921384E+03 -0.60518885755E+03  0.64601883417E+03  0.25500000920E-02 0.  1.
</event>
<event>
 5   0  0.1121480E-02  0.7999551E+03  0.7818609E-02  0.9560082E-01
       -2   -1    0    0    0  501  0.00000000000E+00  0.00000000000E+00  0.20437234300E+03  0.20437234301E+03  0.25500000920E-02 0. -1.
        2   -1    0    0  501    0  0.00000000000E+00  0.00000000000E+00 -0.78279691237E+03  0.78279691237E+03  0.25500000920E-02 0.  1.
    10030    2    1    2    0    0  0.00000000000E+00  0.00000000000E+00 -0.57842456937E+03  0.98716925539E+03  0.79995509644E+03 0.  0.
        2    1    3    3  502    0 -0.31537352316E+03  0.24478744669E+03 -0.31945701618E+03  0.51130630581E+03  0.25500000920E-02 0.  1.
       -2    1    3    3    0  502  0.31537352316E+03 -0.24478744669E+03 -0.25896755320E+03  0.47586294958E+03  0.25500000920E-02 0. -1.
</event>
<event>
 5   0  0.6551489E-03  0.7988674E+03  0.7818609E-02  0.9561658E-01
        1   -1    0    0  501    0  0.00000000000E+00  0.00000000000E+00  0.92581423637E+03  0.92581423639E+03  0.50400001928E-02 0. -1.
       -1   -1    0    0    0  501  0.00000000000E+00  0.00000000000E+00 -0.17233186113E+03  0.17233186121E+03  0.50400001928E-02 0.  1.
    10030    2    1    2    0    0  0.00000000000E+00  0.00000000000E+00  0.75348237524E+03  0.10981460976E+04  0.79886742446E+03 0.  0.
        4    1    3    3  502    0 -0.24541244533E+03  0.19242585193E+03  0.33659910041E+02  0.31367113233E+03  0.12699999809E+01 0.  1.
       -4    1    3    3    0  502  0.24541244533E+03 -0.19242585193E+03  0.71982246520E+03  0.78447496526E+03  0.12699999809E+01 0. -1.
</event>
<event>
 5   0  0.6557679E-03  0.8036988E+03  0.7818609E-02  0.9554679E-01
       -1   -1    0    0    0  501  0.00000000000E+00  0.00000000000E+00  0.16568191632E+03  0.16568191639E+03  0.50400001928E-02 0.  1.
        1   -1    0    0  501    0  0.00000000000E+00  0.00000000000E+00 -0.97465628399E+03  0.97465628401E+03  0.50400001928E-02 0. -1.
    10030    2    1    2    0    0  0.00000000000E+00  0.00000000000E+00 -0.80897436768E+03  0.11403382004E+04  0.80369875186E+03 0.  0.
        1    1    3    3  502    0 -0.13508661094E+03 -0.19378170027E+03 -0.86574455320E+03  0.89739254021E+03  0.50400001928E-02 0. -1.
       -1    1    3    3    0  502  0.13508661094E+03  0.19378170027E+03  0.56770185517E+02  0.24294566019E+03  0.50400001928E-02 0.  1.
</event>
<event>
 5   0  0.1154714E-02  0.7995296E+03  0.7818609E-02  0.9560698E-01
        2   -1    0    0  501    0  0.00000000000E+00  0.00000000000E+00  0.10547878924E+04  0.10547878924E+04  0.25500000920E-02 0. -1.
       -2   -1    0    0    0  501  0.00000000000E+00  0.00000000000E+00 -0.15151094731E+03  0.15151094733E+03  0.25500000920E-02 0.  1.
    10030    2    1    2    0    0  0.00000000000E+00  0.00000000000E+00  0.90327694510E+03  0.12062988397E+04  0.79952964374E+03 0.  0.
        5    1    3    3  502    0 -0.95457669728E+02 -0.15532724049E+02  0.10368283324E+04  0.10413397683E+04  0.46999998093E+01 0. -1.
       -5    1    3    3    0  502  0.95457669728E+02  0.15532724049E+02 -0.13355138725E+03  0.16495907147E+03  0.46999998093E+01 0.  1.
</event>
<event>
 5   0  0.6596225E-03  0.7992435E+03  0.7818609E-02  0.9561113E-01
       -1   -1    0    0    0  501  0.00000000000E+00  0.00000000000E+00  0.16558188062E+03  0.16558188070E+03  0.50400001928E-02 0.  1.
        1   -1    0    0  501    0  0.00000000000E+00  0.00000000000E+00 -0.96446258148E+03  0.96446258150E+03  0.50400001928E-02 0. -1.
    10030    2    1    2    0    0  0.00000000000E+00  0.00000000000E+00 -0.79888070086E+03  0.11300444622E+04  0.79924346249E+03 0.  0.
        5    1    3    3  502    0  0.30006952927E+03  0.13154960545E+03 -0.76006674089E+02  0.33637200477E+03  0.46999998093E+01 0.  1.
       -5    1    3    3    0  502 -0.30006952927E+03 -0.13154960545E+03 -0.72287402677E+03  0.79367245742E+03  0.46999998093E+01 0. -1.
</event>
<event>
 5   0  0.1121480E-02  0.8095952E+03  0.7818609E-02  0.9546231E-01
        2   -1    0    0  501    0  0.00000000000E+00  0.00000000000E+00  0.18116060246E+04  0.18116060246E+04  0.25500000920E-02 0.  1.
       -2   -1    0    0    0  501  0.00000000000E+00  0.00000000000E+00 -0.90450740373E+02  0.90450740409E+02  0.25500000920E-02 0. -1.
    10030    2    1    2    0    0  0.00000000000E+00  0.00000000000E+00  0.17211552842E+04  0.19020567650E+04  0.80959522288E+03 0.  0.
        2    1    3    3  502    0  0.24736578990E+03  0.46845219166E+02  0.16052897751E+04  0.16249121732E+04  0.25500000920E-02 0.  1.
       -2    1    3    3    0  502 -0.24736578990E+03 -0.46845219166E+02  0.11586550918E+03  0.27714459186E+03  0.25500000920E-02 0. -1.
</event>
<event>
 5   0  0.1119792E-02  0.7997411E+03  0.7818609E-02  0.9560392E-01
        2   -1    0    0  501    0  0.00000000000E+00  0.00000000000E+00  0.91028265414E+03  0.91028265414E+03  0.25500000920E-02 0.  1.
       -2   -1    0    0    0  501  0.00000000000E+00  0.00000000000E+00 -0.17565582911E+03  0.17565582913E+03  0.25500000920E-02 0. -1.
    10030    2    1    2    0    0  0.00000000000E+00  0.00000000000E+00  0.73462682503E+03  0.10859384833E+04  0.79974109397E+03 0.  0.
        4    1    3    3  502    0  0.16913164100E+03 -0.26895055159E+03  0.37615743705E+02  0.31993197443E+03  0.12699999809E+01 0. -1.
       -4    1    3    3    0  502 -0.16913164100E+03  0.26895055159E+03  0.69701108132E+03  0.76600650884E+03  0.12699999809E+01 0.  1.
</event>
<event>
 5   0  0.6551489E-03  0.7988791E+03  0.7818609E-02  0.9561641E-01
       -1   -1    0    0    0  501  0.00000000000E+00  0.00000000000E+00  0.26845658059E+03  0.26845658064E+03  0.50400001928E-02 0. -1.
        1   -1    0    0  501    0  0.00000000000E+00  0.00000000000E+00 -0.59433050838E+03  0.59433050840E+03  0.50400001928E-02 0.  1.
    10030    2    1    2    0    0  0.00000000000E+00  0.00000000000E+00 -0.32587392779E+03  0.86278708905E+03  0.79887905481E+03 0.  0.
        4    1    3    3  502    0  0.23731250782E+03 -0.28336724012E+03 -0.32649896955E+03  0.49317077079E+03  0.12699999809E+01 0.  1.
       -4    1    3    3    0  502 -0.23731250782E+03  0.28336724012E+03  0.62504176162E+00  0.36961631826E+03  0.12699999809E+01 0. -1.
</event>
<event>
 5   0  0.1154714E-02  0.7810622E+03  0.7818609E-02  0.9587841E-01
       -2   -1    0    0    0  501  0.00000000000E+00  0.00000000000E+00  0.51534890033E+03  0.51534890033E+03  0.25500000920E-02 0.  1.
        2   -1    0    0  501    0  0.00000000000E+00  0.00000000000E+00 -0.29594422487E+03  0.29594422488E+03  0.25500000920E-02 0. -1.
    10030    2    1    2    0    0  0.00000000000E+00  0.00000000000E+00  0.21940467545E+03  0.81129312522E+03  0.78106217641E+03 0.  0.
        5    1    3    3  502    0 -0.26096765053E+02 -0.15355938850E+03 -0.26225108322E+03  0.30505613842E+03  0.46999998093E+01 0. -1.
       -5    1    3    3    0  502  0.26096765053E+02  0.15355938850E+03  0.48165575867E+03  0.50623698680E+03  0.46999998093E+01 0.  1.
</event>
<event>
 5   0  0.1092868E-02  0.8145840E+03  0.7818609E-02  0.9539144E-01
       -2   -1    0    0    0  501  0.00000000000E+00  0.00000000000E+00  0.13090429960E+03  0.13090429963E+03  0.25500000920E-02 0.  1.
        2   -1    0    0  501    0  0.00000000000E+00  0.00000000000E+00 -0.12672370858E+04  0.12672370858E+04  0.25500000920E-02 0. -1.
    10030    2    1    2    0    0  0.00000000000E+00  0.00000000000E+00 -0.11363327861E+04  0.13981413854E+04  0.81458402430E+03 0.  0.
        3    1    3    3  502    0 -0.33829579253E+03 -0.18997956020E+03 -0.35551099317E+03  0.52623602405E+03  0.10100000352E+00 0.  1.
       -3    1    3    3    0  502  0.33829579253E+03  0.18997956020E+03 -0.78082179297E+03  0.87190536133E+03  0.10100000352E+00 0. -1.
</event>
<event>
 5   0  0.1119792E-02  0.7837331E+03  0.7818609E-02  0.9583866E-01
       -2   -1    0    0    0  501  0.00000000000E+00  0.00000000000E+00  0.56415830253E+02  0.56415830311E+02  0.25500000920E-02 0.  1.
        2   -1    0    0  501    0  0.00000000000E+00  0.00000000000E+00 -0.27219201430E+04  0.27219201430E+04  0.25500000920E-02 0. -1.
    10030    2    1    2    0    0  0.00000000000E+00  0.00000000000E+00 -0.26655043128E+04  0.27783359734E+04  0.78373307914E+03 0.  0.
        4    1    3    3  502    0  0.26179002593E+03  0.10430222032E+03 -0.36746409066E+03  0.46308146331E+03  0.12699999809E+01 0.  1.
       -4    1    3    3    0  502 -0.26179002593E+03 -0.10430222032E+03 -0.22980402221E+04  0.23152545100E+04  0.12699999809E+01 0. -1.
</event>
<event>
 5   0  0.6600401E-03  0.8003412E+03  0.7818609E-02  0.9559523E-01
       -1   -1    0    0    0  501  0.00000000000E+00  0.00000000000E+00  0.83177074789E+02  0.83177074942E+02  0.50400001928E-02 0.  1.
        1   -1    0    0  501    0  0.00000000000E+00  0.00000000000E+00 -0.19252481539E+04  0.19252481539E+04  0.50400001928E-02 0. -1.
    10030    2    1    2    0    0  0.00000000000E+00  0.00000000000E+00 -0.18420710791E+04  0.20084252288E+04  0.80034120184E+03 0.  0.
        2    1    3    3  502    0 -0.14759233948E+03 -0.32141094359E+03 -0.45123640181E+03  0.57332607098E+03  0.25500000920E-02 0.  1.
       -2    1    3    3    0  502  0.14759233948E+03  0.32141094359E+03 -0.13908346773E+04  0.14350991578E+04  0.25500000920E-02 0. -1.
</event>
<event>
 5   0  0.1154714E-02  0.8001781E+03  0.7818609E-02  0.9559759E-01
        2   -1    0    0  501    0  0.00000000000E+00  0.00000000000E+00  0.17148027912E+04  0.17148027912E+04  0.25500000920E-02 0.  1.
       -2   -1    0    0    0  501  0.00000000000E+00  0.00000000000E+00 -0.93346728595E+02  0.93346728630E+02  0.25500000920E-02 0. -1.
    10030    2    1    2    0    0  0.00000000000E+00  0.00000000000E+00  0.16214560626E+04  0.18081495198E+04  0.80017805712E+03 0.  0.
        5    1    3    3  502    0  0.54575691114E+02  0.22716416594E+03  0.76879961394E+02  0.24599732277E+03  0.46999998093E+01 0. -1.
       -5    1    3    3    0  502 -0.54575691114E+02 -0.22716416594E+03  0.15445761012E+04  0.15621521970E+04  0.46999998093E+01 0.  1.
</event>
<event>
 5   0  0.6517392E-03  0.7900128E+03  0.7818609E-02  0.9574587E-01
        1   -1    0    0  501    0  0.00000000000E+00  0.00000000000E+00  0.96018104399E+03  0.96018104401E+03  0.50400001928E-02 0.  1.
       -1   -1    0    0    0  501  0.00000000000E+00  0.00000000000E+00 -0.16250068325E+03  0.16250068333E+03  0.50400001928E-02 0. -1.
    10030    2    1    2    0    0  0.00000000000E+00  0.00000000000E+00  0.79768036074E+03  0.11226817273E+04  0.79001284988E+03 0.  0.
        3    1    3    3  502    0  0.16676244184E+03  0.20689892908E+03  0.81416220405E+03  0.85643270814E+03  0.10100000352E+00 0.  1.
       -3    1    3    3    0  502 -0.16676244184E+03 -0.20689892908E+03 -0.16481843308E+02  0.26624901920E+03  0.10100000352E+00 0. -1.
</event>
<event>
 5   0  0.1119792E-02  0.7990181E+03  0.7818609E-02  0.9561439E-01
       -2   -1    0    0    0  501  0.00000000000E+00  0.00000000000E+00  0.16744351540E+03  0.16744351542E+03  0.25500000920E-02 0.  1.
        2   -1    0    0  501    0  0.00000000000E+00  0.00000000000E+00 -0.95320199984E+03  0.95320199984E+03  0.25500000920E-02 0. -1.
    10030    2    1    2    0    0  0.00000000000E+00  0.00000000000E+00 -0.78575848444E+03  0.11206455153E+04  0.79901813183E+03 0.  0.
        4    1    3    3  502    0  0.31903572071E+03  0.21821121604E+03 -0.53456899622E+03  0.65967078950E+03  0.12699999809E+01 0. -1.
       -4    1    3    3    0  502 -0.31903572071E+03 -0.21821121604E+03 -0.25118948822E+03  0.46097472576E+03  0.12699999809E+01 0.  1.
</event>
<event>
 5   0  0.6557679E-03  0.8021200E+03  0.7818609E-02  0.9556954E-01
        1   -1    0    0  501    0  0.00000000000E+00  0.00000000000E+00  0.22537546186E+03  0.22537546191E+03  0.50400001928E-02 0.  1.
       -1   -1    0    0    0  501  0.00000000000E+00  0.00000000000E+00 -0.71369396698E+03  0.71369396700E+03  0.50400001928E-02 0. -1.
    10030    2    1    2    0    0  0.00000000000E+00  0.00000000000E+00 -0.48831850513E+03  0.93906942892E+03  0.80211995978E+03 0.  0.
        1    1    3    3  502    0  0.23289462752E+03 -0.26284581373E+03 -0.47093530491E+03  0.58745884176E+03  0.50400001928E-02 0. -1.
       -1    1    3    3    0  502 -0.23289462752E+03  0.26284581373E+03 -0.17383200216E+02  0.35161058716E+03  0.50400001928E-02 0.  1.
</event>
<event>
 5   0  0.1154714E-02  0.7907732E+03  0.7818609E-02  0.9573469E-01
       -2   -1    0    0    0  501  0.00000000000E+00  0.00000000000E+00  0.31714640348E+03  0.31714640349E+03  0.25500000920E-02 0.  1.
        2   -1    0    0  501    0  0.00000000000E+00  0.00000000000E+00 -0.49292875775E+03  0.49292875775E+03  0.25500000920E-02 0. -1.
    10030    2    1    2    0    0  0.00000000000E+00  0.00000000000E+00 -0.17578235427E+03  0.81007516124E+03  0.79077324865E+03 0.  0.
        5    1    3    3  502    0  0.57435903983E+02  0.38714632849E+03 -0.14517872069E+03  0.41746869783E+03  0.46999998093E+01 0. -1.
       -5    1    3    3    0  502 -0.57435903983E+02 -0.38714632849E+03 -0.30603633577E+02  0.39260646341E+03  0.46999998093E+01 0.  1.
</event>
<event>
 5   0  0.6596225E-03  0.7958770E+03  0.7818609E-02  0.9566004E-01
        1   -1    0    0  501    0  0.00000000000E+00  0.00000000000E+00  0.49027298982E+03  0.49027298984E+03  0.50400001928E-02 0.  1.
       -1   -1    0    0    0  501  0.00000000000E+00  0.00000000000E+00 -0.32299364876E+03  0.32299364880E+03  0.50400001928E-02 0. -1.
    10030    2    1    2    0    0  0.00000000000E+00  0.00000000000E+00  0.16727934105E+03  0.81326663864E+03  0.79587703044E+03 0.  0.
        5    1    3    3  502    0 -0.19488858134E+03  0.32373073838E+03  0.21106321884E+03  0.43284283805E+03  0.46999998093E+01 0.  1.
       -5    1    3    3    0  502  0.19488858134E+03 -0.32373073838E+03 -0.43783877784E+02  0.38042380059E+03  0.46999998093E+01 0. -1.
</event>
<event>
 5   0  0.6596225E-03  0.8013803E+03  0.7818609E-02  0.9558021E-01
       -1   -1    0    0    0  501  0.00000000000E+00  0.00000000000E+00  0.32390604153E+03  0.32390604157E+03  0.50400001928E-02 0. -1.
        1   -1    0    0  501    0  0.00000000000E+00  0.00000000000E+00 -0.49567641955E+03  0.49567641958E+03  0.50400001928E-02 0.  1.
    10030    2    1    2    0    0  0.00000000000E+00  0.00000000000E+00 -0.17177037803E+03  0.81958246114E+03  0.80138027668E+03 0.  0.
        5    1    3    3  502    0 -0.39441642351E+03  0.48675790305E+02 -0.33768432769E+02  0.39886845544E+03  0.46999998093E+01 0. -1.
       -5    1    3    3    0  502  0.39441642351E+03 -0.48675790305E+02 -0.13800194526E+03  0.42071400570E+03  0.46999998093E+01 0.  1.
</event>
<event>
 5   0  0.1154714E-02  0.8173554E+03  0.7818609E-02  0.9535230E-01
       -2   -1    0    0    0  501  0.00000000000E+00  0.00000000000E+00  0.10045105481E+03  0.10045105484E+03  0.25500000920E-02 0.  1.
        2   -1    0    0  501    0  0.00000000000E+00  0.00000000000E+00 -0.16626749579E+04  0.16626749579E+04  0.25500000920E-02 0. -1.
    10030    2    1    2    0    0  0.00000000000E+00  0.00000000000E+00 -0.15622239031E+04  0.17631260128E+04  0.81735537768E+03 0.  0.
        5    1    3    3  502    0 -0.83281661708E+01  0.12967825970E+03  0.54638453716E+02  0.14104346853E+03  0.46999998093E+01 0.  1.
       -5    1    3    3    0  502  0.83281661708E+01 -0.12967825970E+03 -0.16168623568E+04  0.16220825442E+04  0.46999998093E+01 0. -1.
</event>
<event>
 5   0  0.6551489E-03  0.7978339E+03  0.7818609E-02  0.9563158E-01
        1   -1    0    0  501    0  0.00000000000E+00  0.00000000000E+00  0.29025281616E+03  0.29025281620E+03  0.50400001928E-02 0. -1.
       -1   -1    0    0    0  501  0.00000000000E+00  0.00000000000E+00 -0.54826246608E+03  0.54826246610E+03  0.50400001928E-02 0.  1.
    10030    2    1    2    0    0  0.00000000000E+00  0.00000000000E+00 -0.25800964992E+03  0.83851528231E+03  0.79783387946E+03 0.  0.
        4    1    3    3  502    0 -0.36032648612E+03  0.63874193365E+02 -0.29590393609E+03  0.47061219860E+03  0.12699999809E+01 0. -1.
       -4    1    3    3    0  502  0.36032648612E+03 -0.63874193365E+02  0.37894286171E+02  0.36790308371E+03  0.12699999809E+01 0.  1.
</event>
<event>
 5   0  0.6551489E-03  0.8009299E+03  0.7818609E-02  0.9558672E-01
       -1   -1    0    0    0  501  0.00000000000E+00  0.00000000000E+00  0.41381734717E+03  0.41381734720E+03  0.50400001928E-02 0.  1.
        1   -1    0    0  501    0  0.00000000000E+00  0.00000000000E+00 -0.38754334737E+03  0.38754334741E+03  0.50400001928E-02 0. -1.
    10030    2    1    2    0    0  0.00000000000E+00  0.00000000000E+00  0.26273999796E+02  0.80136069460E+03  0.80092985947E+03 0.  0.
        4    1    3    3  502    0 -0.36473928059E+03  0.16532698207E+03  0.14809198812E+02  0.40073517324E+03  0.12699999809E+01 0. -1.
       -4    1    3    3    0  502  0.36473928059E+03 -0.16532698207E+03  0.11464800984E+02  0.40062552136E+03  0.12699999809E+01 0.  1.
</event>
<event>
 5   0  0.6596225E-03  0.8012063E+03  0.7818609E-02  0.9558273E-01
       -1   -1    0    0    0  501  0.00000000000E+00  0.00000000000E+00  0.82137320656E+02  0.82137320810E+02  0.50400001928E-02 0. -1.
        1   -1    0    0  501    0  0.00000000000E+00  0.00000000000E+00 -0.19538365929E+04  0.19538365929E+04  0.50400001928E-02 0.  1.
    10030    2    1    2    0    0  0.00000000000E+00  0.00000000000E+00 -0.18716992722E+04  0.20359739137E+04  0.80120634770E+03 0.  0.
        5    1    3    3  502    0 -0.23845992958E+03 -0.23160018827E+03 -0.15038319550E+04  0.15401410403E+04  0.46999998093E+01 0.  1.
       -5    1    3    3    0  502  0.23845992958E+03  0.23160018827E+03 -0.36786731717E+03  0.49583287332E+03  0.46999998093E+01 0. -1.
</event>
<event>
 5   0  0.6600401E-03  0.7981782E+03  0.7818609E-02  0.9562658E-01
        1   -1    0    0  501    0  0.00000000000E+00  0.00000000000E+00  0.69033586046E+03  0.69033586048E+03  0.50400001928E-02 0.  1.
       -1   -1    0    0    0  501  0.00000000000E+00  0.00000000000E+00 -0.23071685213E+03  0.23071685218E+03  0.50400001928E-02 0. -1.
    10030    2    1    2    0    0  0.00000000000E+00  0.00000000000E+00  0.45961900834E+03  0.92105271266E+03  0.79817821737E+03 0.  0.
        2    1    3    3  502    0  0.38776193464E+02  0.17089835168E+03  0.64356272935E+03  0.66699537210E+03  0.25500000920E-02 0.  1.
       -2    1    3    3    0  502 -0.38776193464E+02 -0.17089835168E+03 -0.18394372101E+03  0.25405734056E+03  0.25500000920E-02 0. -1.
</event>
<event>
 5   0  0.6551489E-03  0.7973650E+03  0.7818609E-02  0.9563839E-01
       -1   -1    0    0    0  501  0.00000000000E+00  0.00000000000E+00  0.37887694344E+03  0.37887694348E+03  0.50400001928E-02 0.  1.
        1   -1    0    0  501    0  0.00000000000E+00  0.00000000000E+00 -0.41952339760E+03  0.41952339763E+03  0.50400001928E-02 0. -1.
    10030    2    1    2    0    0  0.00000000000E+00  0.00000000000E+00 -0.40646454158E+02  0.79840034111E+03  0.79736501707E+03 0.  0.
        4    1    3    3  502    0  0.78586461178E+02  0.79782209694E+02  0.36280278055E+03  0.37969527695E+03  0.12699999809E+01 0.  1.
       -4    1    3    3    0  502 -0.78586461178E+02 -0.79782209694E+02 -0.40344923471E+03  0.41870506416E+03  0.12699999809E+01 0. -1.
</event>
<event>
 5   0  0.6551489E-03  0.8026174E+03  0.7818609E-02  0.9556236E-01
        1   -1    0    0  501    0  0.00000000000E+00  0.00000000000E+00  0.33190329029E+03  0.33190329032E+03  0.50400001928E-02 0. -1.
       -1   -1    0    0    0  501  0.00000000000E+00  0.00000000000E+00 -0.48522773271E+03  0.48522773274E+03  0.50400001928E-02 0.  1.
    10030    2    1    2    0    0  0.00000000000E+00  0.00000000000E+00 -0.15332444243E+03  0.81713102307E+03  0.80261742082E+03 0.  0.
        4    1    3    3  502    0 -0.28965057390E+03  0.22992317325E+02 -0.35847256539E+03  0.46144370692E+03  0.12699999809E+01 0.  1.
       -4    1    3    3    0  502  0.28965057390E+03 -0.22992317325E+02  0.20514812296E+03  0.35568731615E+03  0.12699999809E+01 0. -1.
</event>
<event>
 5   0  0.6557679E-03  0.8001245E+03  0.7818609E-02  0.9559837E-01
       -1   -1    0    0    0  501  0.00000000000E+00  0.00000000000E+00  0.70343023707E+02  0.70343023888E+02  0.50400001928E-02 0. -1.
        1   -1    0    0  501    0  0.00000000000E+00  0.00000000000E+00 -0.22752760069E+04  0.22752760069E+04  0.50400001928E-02 0.  1.
    10030    2    1    2    0    0  0.00000000000E+00  0.00000000000E+00 -0.22049329832E+04  0.23456190308E+04  0.80012447610E+03 0.  0.
        1    1    3    3  502    0  0.29725110345E+02 -0.35984697577E+03 -0.59745032502E+03  0.69808331813E+03  0.50400001928E-02 0.  1.
       -1    1    3    3    0  502 -0.29725110345E+02  0.35984697577E+03 -0.16074826582E+04  0.16475357127E+04  0.50400001928E-02 0. -1.
</event>
<event>
 5   0  0.1121480E-02  0.7941451E+03  0.7818609E-02  0.9568531E-01
       -2   -1    0    0    0  501  0.00000000000E+00  0.00000000000E+00  0.18159773620E+03  0.18159773622E+03  0.25500000920E-02 0.  1.
        2   -1    0    0  501    0  0.00000000000E+00  0.00000000000E+00 -0.86821892973E+03  0.86821892973E+03  0.25500000920E-02 0. -1.
    10030    2    1    2    0    0  0.00000000000E+00  0.00000000000E+00 -0.68662119353E+03  0.10498166660E+04  0.79414505521E+03 0.  0.
        2    1    3    3  502    0  0.35258656726E+03  0.68863935311E+02 -0.11972168388E+03  0.37867243179E+03  0.25500000920E-02 0.  1.
       -2    1    3    3    0  502 -0.35258656726E+03 -0.68863935311E+02 -0.56689950965E+03  0.67114423416E+03  0.25500000920E-02 0. -1.
</event>
<event>
 5   0  0.6557679E-03  0.8021540E+03  0.7818609E-02  0.9556905E-01
       -1   -1    0    0    0  501  0.00000000000E+00  0.00000000000E+00  0.38867082959E+03  0.38867082962E+03  0.50400001928E-02 0. -1.
        1   -1    0    0  501    0  0.00000000000E+00  0.00000000000E+00 -0.41387912985E+03  0.41387912988E+03  0.50400001928E-02 0.  1.
    10030    2    1    2    0    0  0.00000000000E+00  0.00000000000E+00 -0.25208300264E+02  0.80254995950E+03  0.80215396221E+03 0.  0.
        1    1    3    3  502    0 -0.84069286876E+02 -0.60537082669E+02 -0.40026202365E+03  0.41345141308E+03  0.50400001928E-02 0.  1.
       -1    1    3    3    0  502  0.84069286876E+02  0.60537082669E+02  0.37505372339E+03  0.38909854642E+03  0.50400001928E-02 0. -1.
</event>
<event>
 5   0  0.6551489E-03  0.7992061E+03  0.7818609E-02  0.9561167E-01
        1   -1    0    0  501    0  0.00000000000E+00  0.00000000000E+00  0.17651301947E+03  0.17651301954E+03  0.50400001928E-02 0. -1.
       -1   -1    0    0    0  501  0.00000000000E+00  0.00000000000E+00 -0.90465063138E+03  0.90465063140E+03  0.50400001928E-02 0.  1.
    10030    2    1    2    0    0  0.00000000000E+00  0.00000000000E+00 -0.72813761192E+03  0.10811636509E+04  0.79920614251E+03 0.  0.
        4    1    3    3  502    0  0.73567234144E+02  0.34705911065E+03 -0.61284679908E+03  0.70812779656E+03  0.12699999809E+01 0.  1.
       -4    1    3    3    0  502 -0.73567234144E+02 -0.34705911065E+03 -0.11529081284E+03  0.37303585437E+03  0.12699999809E+01 0. -1.
</event>
<event>
 5   0  0.1154714E-02  0.7951748E+03  0.7818609E-02  0.9567028E-01
       -2   -1    0    0    0  501  0.00000000000E+00  0.00000000000E+00  0.15962921061E+03  0.15962921063E+03  0.25500000920E-02 0.  1.
        2   -1    0    0  501    0  0.00000000000E+00  0.00000000000E+00 -0.99026814157E+03  0.99026814157E+03  0.25500000920E-02 0. -1.
    10030    2    1    2    0    0  0.00000000000E+00  0.00000000000E+00 -0.83063893096E+03  0.11498973522E+04  0.79517475249E+03 0.  0.
        5    1    3    3  502    0  0.39625201874E+03 -0.10168129468E+02 -0.45952782441E+03  0.60688299088E+03  0.46999998093E+01 0. -1.
       -5    1    3    3    0  502 -0.39625201874E+03  0.10168129468E+02 -0.37111110655E+03  0.54301436133E+03  0.46999998093E+01 0.  1.
</event>
<event>
 5   0  0.4385875E-03  0.8006492E+03  0.7818609E-02  0.9559078E-01
       -4   -1    0    0    0  501  0.00000000000E+00  0.00000000000E+00  0.46970227753E+03  0.46970399447E+03  0.12699999809E+01 0.  1.
        4   -1    0    0  501    0  0.00000000000E+00  0.00000000000E+00 -0.34119088829E+03  0.34119325191E+03  0.12699999809E+01 0. -1.
    10030    2    1    2    0    0  0.00000000000E+00  0.00000000000E+00  0.12851138925E+03  0.81089724638E+03  0.80064921596E+03 0.  0.
        4    1    3    3  502    0  0.25617663742E+03  0.28162906740E+02 -0.24599603423E+03  0.35627977859E+03  0.12699999809E+01 0. -1.
       -4    1    3    3    0  502 -0.25617663742E+03 -0.28162906740E+02  0.37450742348E+03  0.45461746779E+03  0.12699999809E+01 0.  1.
</event>
<event>
 5   0  0.6517392E-03  0.8118877E+03  0.7818609E-02  0.9542968E-01
        1   -1    0    0  501    0  0.00000000000E+00  0.00000000000E+00  0.25692435152E+03  0.25692435157E+03  0.50400001928E-02 0.  1.
       -1   -1    0    0    0  501  0.00000000000E+00  0.00000000000E+00 -0.64139658680E+03  0.64139658682E+03  0.50400001928E-02 0. -1.
    10030    2    1    2    0    0  0.00000000000E+00  0.00000000000E+00 -0.38447223528E+03  0.89832093839E+03  0.81188768229E+03 0.  0.
        3    1    3    3  502    0 -0.11198060307E+03  0.23314296644E+03  0.15395508960E+03  0.30099414957E+03  0.10100000352E+00 0.  1.
       -3    1    3    3    0  502  0.11198060307E+03 -0.23314296644E+03 -0.53842732488E+03  0.59732678882E+03  0.10100000352E+00 0. -1.
</event>
<event>
 5   0  0.6551489E-03  0.8034087E+03  0.7818609E-02  0.9555096E-01
        1   -1    0    0  501    0  0.00000000000E+00  0.00000000000E+00  0.52545042184E+03  0.52545042187E+03  0.50400001928E-02 0.  1.
       -1   -1    0    0    0  501  0.00000000000E+00  0.00000000000E+00 -0.30710103157E+03  0.30710103161E+03  0.50400001928E-02 0. -1.
    10030    2    1    2    0    0  0.00000000000E+00  0.00000000000E+00  0.21834939027E+03  0.83255145348E+03  0.80340865471E+03 0.  0.
        4    1    3    3  502    0  0.86082095422E+02  0.27664674945E+03 -0.17916506574E+03  0.34065420123E+03  0.12699999809E+01 0. -1.
       -4    1    3    3    0  502 -0.86082095422E+02 -0.27664674945E+03  0.39751445602E+03  0.49189725225E+03  0.12699999809E+01 0.  1.
</event>
<event>
 5   0  0.6600401E-03  0.8002596E+03  0.7818609E-02  0.9559641E-01
        1   -1    0    0  501    0  0.00000000000E+00  0.00000000000E+00  0.61939599058E+03  0.61939599060E+03  0.50400001928E-02 0. -1.
       -1   -1    0    0    0  501  0.00000000000E+00  0.00000000000E+00 -0.25848381534E+03  0.25848381539E+03  0.50400001928E-02 0.  1.
    10030    2    1    2    0    0  0.00000000000E+00  0.00000000000E+00  0.36091217524E+03  0.87787980598E+03  0.80025955509E+03 0.  0.
        2    1    3    3  502    0  0.12020775630E+03  0.29137445941E+03 -0.89936447675E+02  0.32777666924E+03  0.25500000920E-02 0.  1.
       -2    1    3    3    0  502 -0.12020775630E+03 -0.29137445941E+03  0.45084862292E+03  0.55010313675E+03  0.25500000920E-02 0. -1.
</event>
<event>
 5   0  0.1119792E-02  0.8015014E+03  0.7818609E-02  0.9557846E-01
       -2   -1    0    0    0  501  0.00000000000E+00  0.00000000000E+00  0.38048868274E+03  0.38048868275E+03  0.25500000920E-02 0.  1.
        2   -1    0    0  501    0  0.00000000000E+00  0.00000000000E+00 -0.42209174254E+03  0.42209174255E+03  0.25500000920E-02 0. -1.
    10030    2    1    2    0    0  0.00000000000E+00  0.00000000000E+00 -0.41603059798E+02  0.80258042530E+03  0.80150141890E+03 0.  0.
        4    1    3    3  502    0 -0.37338596748E+03  0.14655983497E+02 -0.16579853763E+03  0.40880636803E+03  0.12699999809E+01 0. -1.
       -4    1    3    3    0  502  0.37338596748E+03 -0.14655983497E+02  0.12419547783E+03  0.39377405727E+03  0.12699999809E+01 0.  1.
</event>
<event>
 5   0  0.6596225E-03  0.7797566E+03  0.7818609E-02  0.9589790E-01
        1   -1    0    0  501    0  0.00000000000E+00  0.00000000000E+00  0.67028154972E+03  0.67028154974E+03  0.50400001928E-02 0. -1.
       -1   -1    0    0    0  501  0.00000000000E+00  0.00000000000E+00 -0.22677798540E+03  0.22677798546E+03  0.50400001928E-02 0.  1.
    10030    2    1    2    0    0  0.00000000000E+00  0.00000000000E+00  0.44350356431E+03  0.89705953520E+03  0.77975662750E+03 0.  0.
        5    1    3    3  502    0  0.24090135480E+02 -0.14664661719E+03  0.63638347599E+03  0.65352244298E+03  0.46999998093E+01 0. -1.
       -5    1    3    3    0  502 -0.24090135480E+02  0.14664661719E+03 -0.19287991168E+03  0.24353709222E+03  0.46999998093E+01 0.  1.
</event>
<event>
 5   0  0.6517392E-03  0.7968929E+03  0.7818609E-02  0.9564525E-01
       -1   -1    0    0    0  501  0.00000000000E+00  0.00000000000E+00  0.11458002830E+03  0.11458002842E+03  0.50400001928E-02 0.  1.
        1   -1    0    0  501    0  0.00000000000E+00  0.00000000000E+00 -0.13855779355E+04  0.13855779356E+04  0.50400001928E-02 0. -1.
    10030    2    1    2    0    0  0.00000000000E+00  0.00000000000E+00 -0.12709979072E+04  0.15001579640E+04  0.79689286398E+03 0.  0.
        3    1    3    3  502    0  0.67937351075E+02 -0.13014105928E+03  0.61810854630E+02  0.15928832642E+03  0.10100000352E+00 0.  1.
       -3    1    3    3    0  502 -0.67937351075E+02  0.13014105928E+03 -0.13328087619E+04  0.13408696376E+04  0.10100000352E+00 0. -1.
</event>
<event>
 5   0  0.1121480E-02  0.7586309E+03  0.7818609E-02  0.9621906E-01
       -2   -1    0    0    0  501  0.00000000000E+00  0.00000000000E+00  0.18488176435E+03  0.18488176436E+03  0.25500000920E-02 0.  1.
        2   -1    0    0  501    0  0.00000000000E+00  0.00000000000E+00 -0.77822814288E+03  0.77822814289E+03  0.25500000920E-02 0. -1.
    10030    2    1    2    0    0  0.00000000000E+00  0.00000000000E+00 -0.59334637854E+03  0.96310990725E+03  0.75863085128E+03 0.  0.
        2    1    3    3  502    0  0.22792621258E+03  0.90848985295E+02 -0.66391030933E+03  0.70779996846E+03  0.25500000920E-02 0. -1.
       -2    1    3    3    0  502 -0.22792621258E+03 -0.90848985295E+02  0.70563930788E+02  0.25530993879E+03  0.25500000920E-02 0.  1.
</event>
<event>
 5   0  0.1154714E-02  0.7913397E+03  0.7818609E-02  0.9572638E-01
        2   -1    0    0  501    0  0.00000000000E+00  0.00000000000E+00  0.20901146864E+03  0.20901146866E+03  0.25500000920E-02 0.  1.
       -2   -1    0    0    0  501  0.00000000000E+00  0.00000000000E+00 -0.74902409337E+03  0.74902409337E+03  0.25500000920E-02 0. -1.
    10030    2    1    2    0    0  0.00000000000E+00  0.00000000000E+00 -0.54001262472E+03  0.95803556203E+03  0.79133968892E+03 0.  0.
        5    1    3    3  502    0  0.83258013498E+01 -0.42881289080E+02  0.20604932546E+03  0.21068112977E+03  0.46999998093E+01 0.  1.
       -5    1    3    3    0  502 -0.83258013498E+01  0.42881289080E+02 -0.74606195018E+03  0.74735443226E+03  0.46999998093E+01 0. -1.
</event>
<event>
 5   0  0.1092868E-02  0.8011701E+03  0.7818609E-02  0.9558325E-01
        2   -1    0    0  501    0  0.00000000000E+00  0.00000000000E+00  0.68117318125E+03  0.68117318125E+03  0.25500000920E-02 0. -1.
       -2   -1    0    0    0  501  0.00000000000E+00  0.00000000000E+00 -0.23557647942E+03  0.23557647943E+03  0.25500000920E-02 0.  1.
    10030    2    1    2    0    0  0.00000000000E+00  0.00000000000E+00  0.44559670183E+03  0.91674966069E+03  0.80117009410E+03 0.  0.
        3    1    3    3  502    0  0.94825758901E+02 -0.37162239376E+03  0.35512410390E+03  0.52269328240E+03  0.10100000352E+00 0.  1.
       -3    1    3    3    0  502 -0.94825758901E+02  0.37162239376E+03  0.90472597927E+02  0.39405637829E+03  0.10100000352E+00 0. -1.
</event>
<event>
 5   0  0.6600401E-03  0.7984089E+03  0.7818609E-02  0.9562323E-01
       -1   -1    0    0    0  501  0.00000000000E+00  0.00000000000E+00  0.19742343062E+03  0.19742343069E+03  0.50400001928E-02 0.  1.
        1   -1    0    0  501    0  0.00000000000E+00  0.00000000000E+00 -0.80722023169E+03  0.80722023170E+03  0.50400001928E-02 0. -1.
    10030    2    1    2    0    0  0.00000000000E+00  0.00000000000E+00 -0.60979680107E+03  0.10046436624E+04  0.79840888634E+03 0.  0.
        2    1    3    3  502    0  0.35517501092E+03 -0.12852327377E+03 -0.14230549884E+03  0.40363148452E+03  0.25500000920E-02 0.  1.
       -2    1    3    3    0  502 -0.35517501092E+03  0.12852327377E+03 -0.46749130222E+03  0.60101217787E+03  0.25500000920E-02 0. -1.
</event>
<event>
 5   0  0.1092868E-02  0.7918564E+03  0.7818609E-02  0.9571880E-01
        2   -1    0    0  501    0  0.00000000000E+00  0.00000000000E+00  0.24278863474E+03  0.24278863476E+03  0.25500000920E-02 0.  1.
       -2   -1    0    0    0  501  0.00000000000E+00  0.00000000000E+00 -0.64566089280E+03  0.64566089280E+03  0.25500000920E-02 0. -1.
    10030    2    1    2    0    0  0.00000000000E+00  0.00000000000E+00 -0.40287225805E+03  0.88844952756E+03  0.79185636747E+03 0.  0.
        3    1    3    3  502    0  0.32080355105E+03  0.21381398735E+03 -0.10028465052E+03  0.39835707711E+03  0.10100000352E+00 0.  1.
       -3    1    3    3    0  502 -0.32080355105E+03 -0.21381398735E+03 -0.30258760754E+03  0.49009245045E+03  0.10100000352E+00 0. -1.
</event>
<event>
 5   0  0.6596225E-03  0.8024100E+03  0.7818609E-02  0.9556535E-01
       -1   -1    0    0    0  501  0.00000000000E+00  0.00000000000E+00  0.83085884446E+02  0.83085884598E+02  0.50400001928E-02 0. -1.
        1   -1    0    0  501    0  0.00000000000E+00  0.00000000000E+00 -0.19373379551E+04  0.19373379551E+04  0.50400001928E-02 0.  1.
    10030    2    1    2    0    0  0.00000000000E+00  0.00000000000E+00 -0.18542520707E+04  0.20204238397E+04  0.80240996412E+03 0.  0.
        5    1    3    3  502    0 -0.10588879912E+03  0.53914785776E+02 -0.18919428272E+04  0.18956763947E+04  0.46999998093E+01 0.  1.
       -5    1    3    3    0  502  0.10588879912E+03 -0.53914785776E+02  0.37690756579E+02  0.12474744500E+03  0.46999998093E+01 0. -1.
</event>
<event>
 5   0  0.6517392E-03  0.7973916E+03  0.7818609E-02  0.9563800E-01
        1   -1    0    0  501    0  0.00000000000E+00  0.00000000000E+00  0.25320608841E+03  0.25320608846E+03  0.50400001928E-02 0. -1.
       -1   -1    0    0    0  501  0.00000000000E+00  0.00000000000E+00 -0.62778241140E+03  0.62778241142E+03  0.50400001928E-02 0.  1.
    10030    2    1    2    0    0  0.00000000000E+00  0.00000000000E+00 -0.37457632300E+03  0.88098849988E+03  0.79739156954E+03 0.  0.
        3    1    3    3  502    0  0.13320470472E+03 -0.19746735294E+03 -0.54052798580E+03  0.59068380921E+03  0.10100000352E+00 0.  1.
       -3    1    3    3    0  502 -0.13320470472E+03  0.19746735294E+03  0.16595166280E+03  0.29030469067E+03  0.10100000352E+00 0. -1.
</event>
<event>
 5   0  0.4385875E-03  0.7843727E+03  0.7818609E-02  0.9582917E-01
        3   -1    0    0  501    0  0.00000000000E+00  0.00000000000E+00  0.29672270874E+03  0.29672272593E+03  0.10100000352E+00 0. -1.
       -3   -1    0    0    0  501  0.00000000000E+00  0.00000000000E+00 -0.51836317438E+03  0.51836318422E+03  0.10100000352E+00 0.  1.
    10030    2    1    2    0    0  0.00000000000E+00  0.00000000000E+00 -0.22164046565E+03  0.81508591015E+03  0.78437270791E+03 0.  0.
        1    1    3    3  502    0 -0.38049937615E+03  0.53514657554E+02 -0.29218050763E+02  0.38535345897E+03  0.50400001928E-02 0. -1.
       -1    1    3    3    0  502  0.38049937615E+03 -0.53514657554E+02 -0.19242241489E+03  0.42973245118E+03  0.50400001928E-02 0.  1.
</event>
<event>
 5   0  0.6551489E-03  0.8089164E+03  0.7818609E-02  0.9547200E-01
       -1   -1    0    0    0  501  0.00000000000E+00  0.00000000000E+00  0.24123583675E+03  0.24123583680E+03  0.50400001928E-02 0.  1.
        1   -1    0    0  501    0  0.00000000000E+00  0.00000000000E+00 -0.67811825409E+03  0.67811825411E+03  0.50400001928E-02 0. -1.
    10030    2    1    2    0    0  0.00000000000E+00  0.00000000000E+00 -0.43688241735E+03  0.91935409091E+03  0.80891637261E+03 0.  0.
        4    1    3    3  502    0 -0.11084472012E+03  0.13676430509E+02  0.22336064706E+03  0.24973023102E+03  0.12699999809E+01 0.  1.
       -4    1    3    3    0  502  0.11084472012E+03 -0.13676430509E+02 -0.66024306441E+03  0.66962385989E+03  0.12699999809E+01 0. -1.
</event>
<event>
 5   0  0.1119792E-02  0.8018819E+03  0.7818609E-02  0.9557297E-01
        2   -1    0    0  501    0  0.00000000000E+00  0.00000000000E+00  0.16139256503E+04  0.16139256503E+04  0.25500000920E-02 0.  1.
       -2   -1    0    0    0  501  0.00000000000E+00  0.00000000000E+00 -0.99604118523E+02  0.99604118555E+02  0.25500000920E-02 0. -1.
    10030    2    1    2    0    0  0.00000000000E+00  0.00000000000E+00  0.15143215318E+04  0.17135297689E+04  0.80188189103E+03 0.  0.
        4    1    3    3  502    0  0.32974813230E+02 -0.69543551210E+01  0.16108895122E+04  0.16112424817E+04  0.12699999809E+01 0.  1.
       -4    1    3    3    0  502 -0.32974813230E+02  0.69543551210E+01 -0.96567980453E+02  0.10228728714E+03  0.12699999809E+01 0. -1.
</event>
<event>
 5   0  0.6551489E-03  0.8019919E+03  0.7818609E-02  0.9557138E-01
        1   -1    0    0  501    0  0.00000000000E+00  0.00000000000E+00  0.85333722376E+03  0.85333722377E+03  0.50400001928E-02 0.  1.
       -1   -1    0    0    0  501  0.00000000000E+00  0.00000000000E+00 -0.18843399466E+03  0.18843399472E+03  0.50400001928E-02 0. -1.
    10030    2    1    2    0    0  0.00000000000E+00  0.00000000000E+00  0.66490322910E+03  0.10417712185E+04  0.80199187503E+03 0.  0.
        4    1    3    3  502    0 -0.12809196637E+03  0.25982680661E+03 -0.27716399460E+02  0.29101088120E+03  0.12699999809E+01 0. -1.
       -4    1    3    3    0  502  0.12809196637E+03 -0.25982680661E+03  0.69261962856E+03  0.75076033729E+03  0.12699999809E+01 0.  1.
</event>
<event>
 5   0  0.4385875E-03  0.7978062E+03  0.7818609E-02  0.9563198E-01
        4   -1    0    0  501    0  0.00000000000E+00  0.00000000000E+00  0.19316055941E+03  0.19316473439E+03  0.12699999809E+01 0. -1.
       -4   -1    0    0    0  501  0.00000000000E+00  0.00000000000E+00 -0.82377623891E+03  0.82377721787E+03  0.12699999809E+01 0.  1.
    10030    2    1    2    0    0  0.00000000000E+00  0.00000000000E+00 -0.63061567949E+03  0.10169419523E+04  0.79780624155E+03 0.  0.
        2    1    3    3  502    0 -0.36825885379E+03  0.11137001043E+03 -0.44963826337E+03  0.59177058943E+03  0.25500000920E-02 0.  1.
       -2    1    3    3    0  502  0.36825885379E+03 -0.11137001043E+03 -0.18097741613E+03  0.42517136284E+03  0.25500000920E-02 0. -1.
</event>
<event>
 5   0  0.6517392E-03  0.8011654E+03  0.7818609E-02  0.9558332E-01
       -1   -1    0    0    0  501  0.00000000000E+00  0.00000000000E+00  0.10275089187E+04  0.10275089187E+04  0.50400001928E-02 0. -1.
        1   -1    0    0  501    0  0.00000000000E+00  0.00000000000E+00 -0.15617043085E+03  0.15617043094E+03  0.50400001928E-02 0.  1.
    10030    2    1    2    0    0  0.00000000000E+00  0.00000000000E+00  0.87133848783E+03  0.11836793496E+04  0.80116542759E+03 0.  0.
        3    1    3    3  502    0 -0.11804905382E+03  0.33835485117E+03  0.17118184123E+03  0.39714332096E+03  0.10100000352E+00 0. -1.
       -3    1    3    3    0  502  0.11804905382E+03 -0.33835485117E+03  0.70015664660E+03  0.78653602867E+03  0.10100000352E+00 0.  1.
</event>
<event>
 5   0  0.1121480E-02  0.8030642E+03  0.7818609E-02  0.9555592E-01
        2   -1    0    0  501    0  0.00000000000E+00  0.00000000000E+00  0.18879947596E+04  0.18879947596E+04  0.25500000920E-02 0.  1.
       -2   -1    0    0    0  501  0.00000000000E+00  0.00000000000E+00 -0.85396434218E+02  0.85396434256E+02  0.25500000920E-02 0. -1.
    10030    2    1    2    0    0  0.00000000000E+00  0.00000000000E+00  0.18025983253E+04  0.19733911938E+04  0.80306418256E+03 0.  0.
        2    1    3    3  502    0 -0.15131546800E+03  0.12796312913E+03  0.17594555727E+04  0.17705803697E+04  0.25500000920E-02 0.  1.
       -2    1    3    3    0  502  0.15131546800E+03 -0.12796312913E+03  0.43142752669E+02  0.20281082414E+03  0.25500000920E-02 0. -1.
</event>
<event>
 5   0  0.1119792E-02  0.8043368E+03  0.7818609E-02  0.9553761E-01
       -2   -1    0    0    0  501  0.00000000000E+00  0.00000000000E+00  0.33129832902E+03  0.33129832903E+03  0.25500000920E-02 0.  1.
        2   -1    0    0  501    0  0.00000000000E+00  0.00000000000E+00 -0.48819870942E+03  0.48819870943E+03  0.25500000920E-02 0. -1.
    10030    2    1    2    0    0  0.00000000000E+00  0.00000000000E+00 -0.15690038040E+03  0.81949703845E+03  0.80433678684E+03 0.  0.
        4    1    3    3  502    0 -0.15891270460E+03 -0.87847302738E+02  0.28715506744E+03  0.33974996974E+03  0.12699999809E+01 0.  1.
       -4    1    3    3    0  502  0.15891270460E+03  0.87847302738E+02 -0.44405544784E+03  0.47974706871E+03  0.12699999809E+01 0. -1.
</event>
<event>
 5   0  0.1121480E-02  0.8010633E+03  0.7818609E-02  0.9558479E-01
       -2   -1    0    0    0  501  0.00000000000E+00  0.00000000000E+00  0.57345368096E+03  0.57345368097E+03  0.25500000920E-02 0. -1.
        2   -1    0    0  501    0  0.00000000000E+00  0.00000000000E+00 -0.27975336435E+03  0.27975336436E+03  0.25500000920E-02 0.  1.
    10030    2    1    2    0    0  0.00000000000E+00  0.00000000000E+00  0.29370031661E+03  0.85320704533E+03  0.80106328479E+03 0.  0.
        2    1    3    3  502    0  0.30722366886E+02  0.18639343591E+02 -0.27803299859E+03  0.28034556760E+03  0.25500000920E-02 0.  1.
       -2    1    3    3    0  502 -0.30722366886E+02 -0.18639343591E+02  0.57173331520E+03  0.57286147774E+03  0.25500000920E-02 0. -1.
</event>
<event>
 5   0  0.6551489E-03  0.8018430E+03  0.7818609E-02  0.9557353E-01
       -1   -1    0    0    0  501  0.00000000000E+00  0.00000000000E+00  0.18960530853E+03  0.18960530859E+03  0.50400001928E-02 0.  1.
        1   -1    0    0  501    0  0.00000000000E+00  0.00000000000E+00 -0.84775071004E+03  0.84775071005E+03  0.50400001928E-02 0. -1.
    10030    2    1    2    0    0  0.00000000000E+00  0.00000000000E+00 -0.65814540151E+03  0.10373560186E+04  0.80184296461E+03 0.  0.
        4    1    3    3  502    0 -0.34576718752E+03 -0.16308334701E+03 -0.48531410446E+03  0.61780459607E+03  0.12699999809E+01 0. -1.
       -4    1    3    3    0  502  0.34576718752E+03  0.16308334701E+03 -0.17283129705E+03  0.41955142257E+03  0.12699999809E+01 0.  1.
</event>
<event>
 5   0  0.1154714E-02  0.8160919E+03  0.7818609E-02  0.9537012E-01
       -2   -1    0    0    0  501  0.00000000000E+00  0.00000000000E+00  0.80351282805E+03  0.80351282806E+03  0.25500000920E-02 0. -1.
        2   -1    0    0  501    0  0.00000000000E+00  0.00000000000E+00 -0.20721696488E+03  0.20721696490E+03  0.25500000920E-02 0.  1.
    10030    2    1    2    0    0  0.00000000000E+00  0.00000000000E+00  0.59629586317E+03  0.10107297930E+04  0.81609188082E+03 0.  0.
        5    1    3    3  502    0  0.12321171042E+03 -0.87945499964E+02 -0.17111751619E+03  0.22851439975E+03  0.46999998093E+01 0.  1.
       -5    1    3    3    0  502 -0.12321171042E+03  0.87945499964E+02  0.76741337936E+03  0.78221539320E+03  0.46999998093E+01 0. -1.
</event>
<event>
 5   0  0.6600401E-03  0.7894018E+03  0.7818609E-02  0.9575485E-01
        1   -1    0    0  501    0  0.00000000000E+00  0.00000000000E+00  0.26495722140E+03  0.26495722145E+03  0.50400001928E-02 0. -1.
       -1   -1    0    0    0  501  0.00000000000E+00  0.00000000000E+00 -0.58797721449E+03  0.58797721451E+03  0.50400001928E-02 0.  1.
    10030    2    1    2    0    0  0.00000000000E+00  0.00000000000E+00 -0.32301999309E+03  0.85293443596E+03  0.78940182170E+03 0.  0.
        2    1    3    3  502    0  0.36771216910E+03  0.12768533114E+03 -0.90880633707E+02  0.39971874197E+03  0.25500000920E-02 0. -1.
       -2    1    3    3    0  502 -0.36771216910E+03 -0.12768533114E+03 -0.23213935938E+03  0.45321569399E+03  0.25500000920E-02 0.  1.
</event>
<event>
 5   0  0.6557679E-03  0.7987394E+03  0.7818609E-02  0.9561844E-01
       -1   -1    0    0    0  501  0.00000000000E+00  0.00000000000E+00  0.41644025748E+03  0.41644025751E+03  0.50400001928E-02 0.  1.
        1   -1    0    0  501    0  0.00000000000E+00  0.00000000000E+00 -0.38299886039E+03  0.38299886043E+03  0.50400001928E-02 0. -1.
    10030    2    1    2    0    0  0.00000000000E+00  0.00000000000E+00  0.33441397082E+02  0.79943911793E+03  0.79873936691E+03 0.  0.
        1    1    3    3  502    0  0.24092867983E+03 -0.15765470730E+03  0.29372028611E+03  0.41130674928E+03  0.50400001928E-02 0.  1.
       -1    1    3    3    0  502 -0.24092867983E+03  0.15765470730E+03 -0.26027888903E+03  0.38813236866E+03  0.50400001928E-02 0. -1.
</event>
<event>
 5   0  0.6596225E-03  0.8034879E+03  0.7818609E-02  0.9554982E-01
       -1   -1    0    0    0  501  0.00000000000E+00  0.00000000000E+00  0.40205891571E+03  0.40205891574E+03  0.50400001928E-02 0.  1.
        1   -1    0    0  501    0  0.00000000000E+00  0.00000000000E+00 -0.40142925889E+03  0.40142925892E+03  0.50400001928E-02 0. -1.
    10030    2    1    2    0    0  0.00000000000E+00  0.00000000000E+00  0.62965681805E+00  0.80348817466E+03  0.80348792794E+03 0.  0.
        5    1    3    3  502    0  0.30683876670E+03 -0.22653378089E+03  0.12644392784E+03  0.40184292892E+03  0.46999998093E+01 0.  1.
       -5    1    3    3    0  502 -0.30683876670E+03  0.22653378089E+03 -0.12581427102E+03  0.40164524574E+03  0.46999998093E+01 0. -1.
</event>
<event>
 5   0  0.6551489E-03  0.8031287E+03  0.7818609E-02  0.9555500E-01
        1   -1    0    0  501    0  0.00000000000E+00  0.00000000000E+00  0.17735878436E+03  0.17735878444E+03  0.50400001928E-02 0.  1.
       -1   -1    0    0    0  501  0.00000000000E+00  0.00000000000E+00 -0.90919608117E+03  0.90919608118E+03  0.50400001928E-02 0. -1.
    10030    2    1    2    0    0  0.00000000000E+00  0.00000000000E+00 -0.73183729680E+03  0.10865548656E+04  0.80312866155E+03 0.  0.
        4    1    3    3  502    0  0.37611081242E+03 -0.50560165959E+02 -0.18829832534E+03  0.42364318220E+03  0.12699999809E+01 0.  1.
       -4    1    3    3    0  502 -0.37611081242E+03  0.50560165959E+02 -0.54353897146E+03  0.66291168341E+03  0.12699999809E+01 0. -1.
</event>
<event>
 5   0  0.1106332E-02  0.7999304E+03  0.7818609E-02  0.9560118E-01
       -2   -1    0    0    0  501  0.00000000000E+00  0.00000000000E+00  0.13234420444E+03  0.13234420447E+03  0.25500000920E-02 0. -1.
        2   -1    0    0  501    0  0.00000000000E+00  0.00000000000E+00 -0.12087582601E+04  0.12087582601E+04  0.25500000920E-02 0.  1.
    10030    2    1    2    0    0  0.00000000000E+00  0.00000000000E+00 -0.10764140557E+04  0.13411024646E+04  0.79993037277E+03 0.  0.
        1    1    3    3  502    0  0.30721977995E+03  0.15240734393E+03 -0.88326221666E+03  0.94750416098E+03  0.50400001928E-02 0.  1.
       -1    1    3    3    0  502 -0.30721977995E+03 -0.15240734393E+03 -0.19315183905E+03  0.39359830364E+03  0.50400001928E-02 0. -1.
</event>
<event>
 5   0  0.6557679E-03  0.7971810E+03  0.7818609E-02  0.9564107E-01
       -1   -1    0    0    0  501  0.00000000000E+00  0.00000000000E+00  0.72131195276E+03  0.72131195277E+03  0.50400001928E-02 0. -1.
        1   -1    0    0  501    0  0.00000000000E+00  0.00000000000E+00 -0.22025751721E+03  0.22025751727E+03  0.50400001928E-02 0.  1.
    10030    2    1    2    0    0  0.00000000000E+00  0.00000000000E+00  0.50105443554E+03  0.94156947005E+03  0.79718098293E+03 0.  0.
        1    1    3    3  502    0 -0.22775967882E+03  0.26900593244E+03  0.47034232094E+03  0.58775893177E+03  0.50400001928E-02 0. -1.
       -1    1    3    3    0  502  0.22775967882E+03 -0.26900593244E+03  0.30712114605E+02  0.35381053827E+03  0.50400001928E-02 0.  1.
</event>
<event>
 5   0  0.1092868E-02  0.7872789E+03  0.7818609E-02  0.9578615E-01
       -2   -1    0    0    0  501  0.00000000000E+00  0.00000000000E+00  0.24776180181E+03  0.24776180183E+03  0.25500000920E-02 0. -1.
        2   -1    0    0  501    0  0.00000000000E+00  0.00000000000E+00 -0.62540725112E+03  0.62540725112E+03  0.25500000920E-02 0.  1.
    10030    2    1    2    0    0  0.00000000000E+00  0.00000000000E+00 -0.37764544930E+03  0.87316905295E+03  0.78727892748E+03 0.  0.
        3    1    3    3  502    0  0.52476034196E+02  0.16406694874E+03 -0.58138732442E+03  0.60636864120E+03  0.10100000352E+00 0.  1.
       -3    1    3    3    0  502 -0.52476034196E+02 -0.16406694874E+03  0.20374187512E+03  0.26680041175E+03  0.10100000352E+00 0. -1.
</event>
<event>
 5   0  0.1106332E-02  0.7986870E+03  0.7818609E-02  0.9561920E-01
       -2   -1    0    0    0  501  0.00000000000E+00  0.00000000000E+00  0.79720116228E+02  0.79720116269E+02  0.25500000920E-02 0.  1.
        2   -1    0    0  501    0  0.00000000000E+00  0.00000000000E+00 -0.20004391023E+04  0.20004391023E+04  0.25500000920E-02 0. -1.
    10030    2    1    2    0    0  0.00000000000E+00  0.00000000000E+00 -0.19207189861E+04  0.20801592186E+04  0.79868701702E+03 0.  0.
        1    1    3    3  502    0  0.14825418727E+03  0.13013359893E+03 -0.18646827464E+04  0.18750882119E+04  0.50400001928E-02 0. -1.
       -1    1    3    3    0  502 -0.14825418727E+03 -0.13013359893E+03 -0.56036239717E+02  0.20507100673E+03  0.50400001928E-02 0.  1.
</event>
<event>
 5   0  0.1106332E-02  0.7803788E+03  0.7818609E-02  0.9588860E-01
        2   -1    0    0  501    0  0.00000000000E+00  0.00000000000E+00  0.14128431782E+04  0.14128431782E+04  0.25500000920E-02 0.  1.
       -2   -1    0    0    0  501  0.00000000000E+00  0.00000000000E+00 -0.10775985528E+03  0.10775985531E+03  0.25500000920E-02 0. -1.
    10030    2    1    2    0    0  0.00000000000E+00  0.00000000000E+00  0.13050833230E+04  0.15206030336E+04  0.78037882197E+03 0.  0.
        1    1    3    3  502    0 -0.13021473907E+03 -0.35610111841E+03  0.83201830275E+03  0.91434038571E+03  0.50400001928E-02 0. -1.
       -1    1    3    3    0  502  0.13021473907E+03  0.35610111841E+03  0.47306502021E+03  0.60626264785E+03  0.50400001928E-02 0.  1.
</event>
<event>
 5   0  0.1154714E-02  0.7987782E+03  0.7818609E-02  0.9561787E-01
        2   -1    0    0  501    0  0.00000000000E+00  0.00000000000E+00  0.62777248844E+03  0.62777248845E+03  0.25500000920E-02 0.  1.
       -2   -1    0    0    0  501  0.00000000000E+00  0.00000000000E+00 -0.25409149382E+03  0.25409149384E+03  0.25500000920E-02 0. -1.
    10030    2    1    2    0    0  0.00000000000E+00  0.00000000000E+00  0.37368099462E+03  0.88186398229E+03  0.79877819044E+03 0.  0.
        5    1    3    3  502    0  0.25787820492E+03 -0.30348636331E+03  0.15400797739E+03  0.42701954098E+03  0.46999998093E+01 0.  1.
       -5    1    3    3    0  502 -0.25787820492E+03  0.30348636331E+03  0.21967301723E+03  0.45484444130E+03  0.46999998093E+01 0. -1.
</event>
<event>
 5   0  0.6596225E-03  0.8001945E+03  0.7818609E-02  0.9559736E-01
        1   -1    0    0  501    0  0.00000000000E+00  0.00000000000E+00  0.56324199000E+03  0.56324199002E+03  0.50400001928E-02 0. -1.
       -1   -1    0    0    0  501  0.00000000000E+00  0.00000000000E+00 -0.28420789673E+03  0.28420789678E+03  0.50400001928E-02 0.  1.
    10030    2    1    2    0    0  0.00000000000E+00  0.00000000000E+00  0.27903409327E+03  0.84744988680E+03  0.80019452974E+03 0.  0.
        5    1    3    3  502    0  0.41412467946E+02  0.94942825386E+02  0.54876548839E+03  0.55847541024E+03  0.46999998093E+01 0. -1.
       -5    1    3    3    0  502 -0.41412467946E+02 -0.94942825386E+02 -0.26973139512E+03  0.28897447657E+03  0.46999998093E+01 0.  1.
</event>
<event>
 5   0  0.1092868E-02  0.7973332E+03  0.7818609E-02  0.9563885E-01
        2   -1    0    0  501    0  0.00000000000E+00  0.00000000000E+00  0.27710794821E+04  0.27710794821E+04  0.25500000920E-02 0.  1.
       -2   -1    0    0    0  501  0.00000000000E+00  0.00000000000E+00 -0.57354920818E+02  0.57354920874E+02  0.25500000920E-02 0. -1.
    10030    2    1    2    0    0  0.00000000000E+00  0.00000000000E+00  0.27137245613E+04  0.28284344030E+04  0.79733316589E+03 0.  0.
        3    1    3    3  502    0  0.36586875422E+03 -0.10437442926E+03  0.93442645586E+03  0.10089136625E+04  0.10100000352E+00 0. -1.
       -3    1    3    3    0  502 -0.36586875422E+03  0.10437442926E+03  0.17792981054E+04  0.18195207404E+04  0.10100000352E+00 0.  1.
</event>
<event>
 5   0  0.6600401E-03  0.7918468E+03  0.7818609E-02  0.9571894E-01
        1   -1    0    0  501    0  0.00000000000E+00  0.00000000000E+00  0.25266250832E+03  0.25266250837E+03  0.50400001928E-02 0. -1.
       -1   -1    0    0    0  501  0.00000000000E+00  0.00000000000E+00 -0.62041385795E+03  0.62041385797E+03  0.50400001928E-02 0.  1.
    10030    2    1    2    0    0  0.00000000000E+00  0.00000000000E+00 -0.36775134963E+03  0.87307636634E+03  0.79184675683E+03 0.  0.
        2    1    3    3  502    0  0.98798868840E+02 -0.25431920852E+03  0.13246337880E+03  0.30329197654E+03  0.25500000920E-02 0. -1.
       -2    1    3    3    0  502 -0.98798868840E+02  0.25431920852E+03 -0.50021472843E+03  0.56978438979E+03  0.25500000920E-02 0.  1.
</event>
<event>
 5   0  0.6557679E-03  0.8057019E+03  0.7818609E-02  0.9551800E-01
        1   -1    0    0  501    0  0.00000000000E+00  0.00000000000E+00  0.13473730457E+04  0.13473730457E+04  0.50400001928E-02 0.  1.
       -1   -1    0    0    0  501  0.00000000000E+00  0.00000000000E+00 -0.12044835979E+03  0.12044835989E+03  0.50400001928E-02 0. -1.
    10030    2    1    2    0    0  0.00000000000E+00  0.00000000000E+00  0.12269246859E+04  0.14678214056E+04  0.80570186411E+03 0.  0.
        1    1    3    3  502    0 -0.37206252177E+02  0.37281120015E+03  0.88316376248E+03  0.95934911661E+03  0.50400001928E-02 0.  1.
       -1    1    3    3    0  502  0.37206252177E+02 -0.37281120015E+03  0.34376092341E+03  0.50847228897E+03  0.50400001928E-02 0. -1.
</event>
<event>
 5   0  0.6517392E-03  0.8341393E+03  0.7818609E-02  0.9511875E-01
       -1   -1    0    0    0  501  0.00000000000E+00  0.00000000000E+00  0.88446488002E+02  0.88446488145E+02  0.50400001928E-02 0. -1.
        1   -1    0    0  501    0  0.00000000000E+00  0.00000000000E+00 -0.19666930085E+04  0.19666930085E+04  0.50400001928E-02 0.  1.
    10030    2    1    2    0    0  0.00000000000E+00  0.00000000000E+00 -0.18782465205E+04  0.20551394967E+04  0.83413929229E+03 0.  0.
        3    1    3    3  502    0 -0.21626981391E+03 -0.18710045472E+03 -0.16871075823E+04  0.17111724685E+04  0.10100000352E+00 0.  1.
       -3    1    3    3    0  502  0.21626981391E+03  0.18710045472E+03 -0.19113893826E+03  0.34396702819E+03  0.10100000352E+00 0. -1.
</event>
<event>
 5   0  0.6517392E-03  0.7881841E+03  0.7818609E-02  0.9577279E-01
       -1   -1    0    0    0  501  0.00000000000E+00  0.00000000000E+00  0.14775931189E+03  0.14775931198E+03  0.50400001928E-02 0.  1.
        1   -1    0    0  501    0  0.00000000000E+00  0.00000000000E+00 -0.10510914190E+04  0.10510914190E+04  0.50400001928E-02 0. -1.
    10030    2    1    2    0    0  0.00000000000E+00  0.00000000000E+00 -0.90333210710E+03  0.11988507310E+04  0.78818410251E+03 0.  0.
        3    1    3    3  502    0 -0.31114229203E+03 -0.47839227080E+02 -0.91049344720E+02  0.32770125253E+03  0.10100000352E+00 0.  1.
       -3    1    3    3    0  502  0.31114229203E+03  0.47839227080E+02 -0.81228276238E+03  0.87114947845E+03  0.10100000352E+00 0. -1.
</event>
<event>
 5   0  0.1121480E-02  0.7993762E+03  0.7818609E-02  0.9560921E-01
       -2   -1    0    0    0  501  0.00000000000E+00  0.00000000000E+00  0.19903732278E+03  0.19903732280E+03  0.25500000920E-02 0.  1.
        2   -1    0    0  501    0  0.00000000000E+00  0.00000000000E+00 -0.80261610506E+03  0.80261610506E+03  0.25500000920E-02 0. -1.
    10030    2    1    2    0    0  0.00000000000E+00  0.00000000000E+00 -0.60357878228E+03  0.10016534279E+04  0.79937615872E+03 0.  0.
        2    1    3    3  502    0  0.19338096908E+03  0.22045934166E+03  0.38503839394E+02  0.29577198343E+03  0.25500000920E-02 0.  1.
       -2    1    3    3    0  502 -0.19338096908E+03 -0.22045934166E+03 -0.64208262168E+03  0.70588144443E+03  0.25500000920E-02 0. -1.
</event>
<event>
 5   0  0.6596225E-03  0.8043076E+03  0.7818609E-02  0.9553803E-01
        1   -1    0    0  501    0  0.00000000000E+00  0.00000000000E+00  0.28567145139E+03  0.28567145143E+03  0.50400001928E-02 0.  1.
       -1   -1    0    0    0  501  0.00000000000E+00  0.00000000000E+00 -0.56613181859E+03  0.56613181861E+03  0.50400001928E-02 0. -1.
    10030    2    1    2    0    0  0.00000000000E+00  0.00000000000E+00 -0.28046036720E+03  0.85180327005E+03  0.80430764841E+03 0.  0.
        5    1    3    3  502    0 -0.17786038603E+02 -0.15874402866E+03  0.25060087972E+03  0.29721860763E+03  0.46999998093E+01 0.  1.
       -5    1    3    3    0  502  0.17786038603E+02  0.15874402866E+03 -0.53106124693E+03  0.55458466242E+03  0.46999998093E+01 0. -1.
</event>
<event>
 5   0  0.1154714E-02  0.8023013E+03  0.7818609E-02  0.9556692E-01
        2   -1    0    0  501    0  0.00000000000E+00  0.00000000000E+00  0.11813014051E+04  0.11813014051E+04  0.25500000920E-02 0.  1.
       -2   -1    0    0    0  501  0.00000000000E+00  0.00000000000E+00 -0.13622418943E+03  0.13622418946E+03  0.25500000920E-02 0. -1.
    10030    2    1    2    0    0  0.00000000000E+00  0.00000000000E+00  0.10450772156E+04  0.13175255945E+04  0.80230125613E+03 0.  0.
        5    1    3    3  502    0  0.12024059925E+03 -0.44180270041E+02  0.11467627221E+04  0.11539049045E+04  0.46999998093E+01 0.  1.
       -5    1    3    3    0  502 -0.12024059925E+03  0.44180270041E+02 -0.10168550645E+03  0.16362068998E+03  0.46999998093E+01 0. -1.
</event>
<event>
 5   0  0.4385875E-03  0.8037266E+03  0.7818609E-02  0.9554639E-01
        4   -1    0    0  501    0  0.00000000000E+00  0.00000000000E+00  0.10343418466E+03  0.10344198111E+03  0.12699999809E+01 0. -1.
       -4   -1    0    0    0  501  0.00000000000E+00  0.00000000000E+00 -0.15612557161E+04  0.15612562327E+04  0.12699999809E+01 0.  1.
    10030    2    1    2    0    0  0.00000000000E+00  0.00000000000E+00 -0.14578215315E+04  0.16646982138E+04  0.80372664839E+03 0.  0.
        5    1    3    3  502    0  0.29905099356E+03  0.72292928283E+02 -0.12642903208E+04  0.13011955539E+04  0.46999998093E+01 0.  1.
       -5    1    3    3    0  502 -0.29905099356E+03 -0.72292928283E+02 -0.19353121065E+03  0.36350265986E+03  0.46999998093E+01 0. -1.
</event>
<event>
 5   0  0.4385875E-03  0.8008908E+03  0.7818609E-02  0.9558729E-01
        4   -1    0    0  501    0  0.00000000000E+00  0.00000000000E+00  0.20294140945E+03  0.20294538322E+03  0.12699999809E+01 0.  1.
       -4   -1    0    0    0  501  0.00000000000E+00  0.00000000000E+00 -0.79014948621E+03  0.79015050684E+03  0.12699999809E+01 0. -1.
    10030    2    1    2    0    0  0.00000000000E+00  0.00000000000E+00 -0.58720807676E+03  0.99309589006E+03  0.80089082991E+03 0.  0.
        4    1    3    3  502    0  0.90764090573E+02 -0.22905336359E+03  0.97830790413E+02  0.26509628432E+03  0.12699999809E+01 0.  1.
       -4    1    3    3    0  502 -0.90764090573E+02  0.22905336359E+03 -0.68503886718E+03  0.72799960574E+03  0.12699999809E+01 0. -1.
</event>
<event>
 5   0  0.6557679E-03  0.7969610E+03  0.7818609E-02  0.9564426E-01
        1   -1    0    0  501    0  0.00000000000E+00  0.00000000000E+00  0.88567724779E+03  0.88567724781E+03  0.50400001928E-02 0. -1.
       -1   -1    0    0    0  501  0.00000000000E+00  0.00000000000E+00 -0.17928279404E+03  0.17928279411E+03  0.50400001928E-02 0.  1.
    10030    2    1    2    0    0  0.00000000000E+00  0.00000000000E+00  0.70639445375E+03  0.10649600419E+04  0.79696095675E+03 0.  0.
        1    1    3    3  502    0  0.38549523240E+03  0.93573114610E+02  0.30276824761E+03  0.49903017321E+03  0.50400001928E-02 0.  1.
       -1    1    3    3    0  502 -0.38549523240E+03 -0.93573114610E+02  0.40362620614E+03  0.56592986871E+03  0.50400001928E-02 0. -1.
</event>
<event>
 5   0  0.6600401E-03  0.7974466E+03  0.7818609E-02  0.9563720E-01
        1   -1    0    0  501    0  0.00000000000E+00  0.00000000000E+00  0.25422328778E+03  0.25422328783E+03  0.50400001928E-02 0.  1.
       -1   -1    0    0    0  501  0.00000000000E+00  0.00000000000E+00 -0.62535683627E+03  0.62535683629E+03  0.50400001928E-02 0. -1.
    10030    2    1    2    0    0  0.00000000000E+00  0.00000000000E+00 -0.37113354848E+03  0.87958012412E+03  0.79744660256E+03 0.  0.
        2    1    3    3  502    0 -0.12283770595E+02  0.34919534903E+03  0.26288765790E+02  0.35039888986E+03  0.25500000920E-02 0.  1.
       -2    1    3    3    0  502  0.12283770595E+02 -0.34919534903E+03 -0.39742231427E+03  0.52918123426E+03  0.25500000920E-02 0. -1.
</event>
<event>
 5   0  0.1106332E-02  0.8753164E+03  0.7818609E-02  0.9456974E-01
        2   -1    0    0  501    0  0.00000000000E+00  0.00000000000E+00  0.10423347862E+04  0.10423347862E+04  0.25500000920E-02 0. -1.
       -2   -1    0    0    0  501  0.00000000000E+00  0.00000000000E+00 -0.18376506405E+03  0.18376506407E+03  0.25500000920E-02 0.  1.
    10030    2    1    2    0    0  0.00000000000E+00  0.00000000000E+00  0.85856972219E+03  0.12260998503E+04  0.87531644281E+03 0.  0.
        1    1    3    3  502    0  0.38802824759E+03  0.20226363338E+03  0.44085445089E+03  0.62115146720E+03  0.50400001928E-02 0. -1.
       -1    1    3    3    0  502 -0.38802824759E+03 -0.20226363338E+03  0.41771527130E+03  0.60494838310E+03  0.50400001928E-02 0.  1.
</event>
<event>
 5   0  0.1106332E-02  0.7976768E+03  0.7818609E-02  0.9563386E-01
        2   -1    0    0  501    0  0.00000000000E+00  0.00000000000E+00  0.65618702747E+03  0.65618702747E+03  0.25500000920E-02 0. -1.
       -2   -1    0    0    0  501  0.00000000000E+00  0.00000000000E+00 -0.24241877634E+03  0.24241877636E+03  0.25500000920E-02 0.  1.
    10030    2    1    2    0    0  0.00000000000E+00  0.00000000000E+00  0.41376825112E+03  0.89860580383E+03  0.79767676727E+03 0.  0.
        1    1    3    3  502    0 -0.39650285365E+03  0.20058415032E+02  0.24985796004E+03  0.46909045310E+03  0.50400001928E-02 0. -1.
       -1    1    3    3    0  502  0.39650285365E+03 -0.20058415032E+02  0.16391029108E+03  0.42951535073E+03  0.50400001928E-02 0.  1.
</event>
<event>
 5   0  0.6596225E-03  0.7927197E+03  0.7818609E-02  0.9570615E-01
       -1   -1    0    0    0  501  0.00000000000E+00  0.00000000000E+00  0.83347316479E+03  0.83347316481E+03  0.50400001928E-02 0. -1.
        1   -1    0    0  501    0  0.00000000000E+00  0.00000000000E+00 -0.18848974676E+03  0.18848974683E+03  0.50400001928E-02 0.  1.
    10030    2    1    2    0    0  0.00000000000E+00  0.00000000000E+00  0.64498341803E+03  0.10219629116E+04  0.79271973814E+03 0.  0.
        5    1    3    3  502    0 -0.27035749653E+03  0.22763078980E+03  0.55372038454E+03  0.65691499194E+03  0.46999998093E+01 0. -1.
       -5    1    3    3    0  502  0.27035749653E+03 -0.22763078980E+03  0.91263033495E+02  0.36504791970E+03  0.46999998093E+01 0.  1.
</event>
<event>
 5   0  0.6551489E-03  0.7909317E+03  0.7818609E-02  0.9573237E-01
       -1   -1    0    0    0  501  0.00000000000E+00  0.00000000000E+00  0.21574405745E+03  0.21574405751E+03  0.50400001928E-02 0. -1.
        1   -1    0    0  501    0  0.00000000000E+00  0.00000000000E+00 -0.72490164615E+03  0.72490164617E+03  0.50400001928E-02 0.  1.
    10030    2    1    2    0    0  0.00000000000E+00  0.00000000000E+00 -0.50915758870E+03  0.94064570368E+03  0.79093165932E+03 0.  0.
        4    1    3    3  502    0 -0.80189875531E+02  0.10737042046E+03 -0.69707198960E+03  0.70983786523E+03  0.12699999809E+01 0.  1.
       -4    1    3    3    0  502  0.80189875531E+02 -0.10737042046E+03  0.18791440090E+03  0.23080783845E+03  0.12699999809E+01 0. -1.
</event>
<event>
 5   0  0.1154714E-02  0.8026168E+03  0.7818609E-02  0.9556237E-01
        2   -1    0    0  501    0  0.00000000000E+00  0.00000000000E+00  0.11982114170E+04  0.11982114170E+04  0.25500000920E-02 0. -1.
       -2   -1    0    0    0  501  0.00000000000E+00  0.00000000000E+00 -0.13440735427E+03  0.13440735429E+03  0.25500000920E-02 0.  1.
    10030    2    1    2    0    0  0.00000000000E+00  0.00000000000E+00  0.10638040627E+04  0.13326187713E+04  0.80261678635E+03 0.  0.
        5    1    3    3  502    0  0.19179450622E+03 -0.12200720300E+03  0.10809596176E+04  0.11046115494E+04  0.46999998093E+01 0. -1.
       -5    1    3    3    0  502 -0.19179450622E+03  0.12200720300E+03 -0.17155554809E+02  0.22800722195E+03  0.46999998093E+01 0.  1.
</event>
<event>
 5   0  0.6596225E-03  0.8138886E+03  0.7818609E-02  0.9540129E-01
       -1   -1    0    0    0  501  0.00000000000E+00  0.00000000000E+00  0.49549018082E+03  0.49549018085E+03  0.50400001928E-02 0.  1.
        1   -1    0    0  501    0  0.00000000000E+00  0.00000000000E+00 -0.33422185464E+03  0.33422185468E+03  0.50400001928E-02 0. -1.
    10030    2    1    2    0    0  0.00000000000E+00  0.00000000000E+00  0.16126832618E+03  0.82971203552E+03  0.81388856047E+03 0.  0.
        5    1    3    3  502    0 -0.16655535403E+03  0.32728294038E+03  0.25933259692E+03  0.44958902883E+03  0.46999998093E+01 0.  1.
       -5    1    3    3    0  502  0.16655535403E+03 -0.32728294038E+03 -0.98064270742E+02  0.38012300669E+03  0.46999998093E+01 0. -1.
</event>
<event>
 5   0  0.6600401E-03  0.8008142E+03  0.7818609E-02  0.9558839E-01
       -1   -1    0    0    0  501  0.00000000000E+00  0.00000000000E+00  0.18851210892E+03  0.18851210899E+03  0.50400001928E-02 0. -1.
        1   -1    0    0  501    0  0.00000000000E+00  0.00000000000E+00 -0.85048037762E+03  0.85048037763E+03  0.50400001928E-02 0.  1.
    10030    2    1    2    0    0  0.00000000000E+00  0.00000000000E+00 -0.66196826870E+03  0.10389924866E+04  0.80081420973E+03 0.  0.
        2    1    3    3  502    0  0.13292820754E+03  0.27082348327E+03 -0.67255467697E+03  0.73711943467E+03  0.25500000920E-02 0.  1.
       -2    1    3    3    0  502 -0.13292820754E+03 -0.27082348327E+03  0.10586408272E+02  0.30187305195E+03  0.25500000920E-02 0. -1.
</event>
<event>
 5   0  0.1154714E-02  0.8998953E+03  0.7818609E-02  0.9425712E-01
       -2   -1    0    0    0  501  0.00000000000E+00  0.00000000000E+00  0.46398426611E+03  0.46398426611E+03  0.25500000920E-02 0. -1.
        2   -1    0    0  501    0  0.00000000000E+00  0.00000000000E+00 -0.43633572179E+03  0.43633572180E+03  0.25500000920E-02 0.  1.
    10030    2    1    2    0    0  0.00000000000E+00  0.00000000000E+00  0.27648544312E+02  0.90031998791E+03  0.89989534871E+03 0.  0.
        5    1    3    3  502    0  0.13563681057E+03 -0.20065079518E+03  0.39317694652E+03  0.46180979555E+03  0.46999998093E+01 0. -1.
       -5    1    3    3    0  502 -0.13563681057E+03  0.20065079518E+03 -0.36552840221E+03  0.43851019237E+03  0.46999998093E+01 0.  1.
</event>
<event>
 5   0  0.1106332E-02  0.7979285E+03  0.7818609E-02  0.9563020E-01
       -2   -1    0    0    0  501  0.00000000000E+00  0.00000000000E+00  0.19388691009E+03  0.19388691011E+03  0.25500000920E-02 0. -1.
        2   -1    0    0  501    0  0.00000000000E+00  0.00000000000E+00 -0.82095531444E+03  0.82095531444E+03  0.25500000920E-02 0.  1.
    10030    2    1    2    0    0  0.00000000000E+00  0.00000000000E+00 -0.62706840435E+03  0.10148422246E+04  0.79792854128E+03 0.  0.
        1    1    3    3  502    0 -0.58969356637E+02  0.34322448858E+03 -0.65958165442E+02  0.35444451497E+03  0.50400001928E-02 0. -1.
       -1    1    3    3    0  502  0.58969356637E+02 -0.34322448858E+03 -0.56111023891E+03  0.66039770958E+03  0.50400001928E-02 0.  1.
</event>
<event>
 5   0  0.6600401E-03  0.7891761E+03  0.7818609E-02  0.9575818E-01
        1   -1    0    0  501    0  0.00000000000E+00  0.00000000000E+00  0.43059243044E+03  0.43059243046E+03  0.50400001928E-02 0.  1.
       -1   -1    0    0    0  501  0.00000000000E+00  0.00000000000E+00 -0.36159421665E+03  0.36159421669E+03  0.50400001928E-02 0. -1.
    10030    2    1    2    0    0  0.00000000000E+00  0.00000000000E+00  0.68998213782E+02  0.79218664715E+03  0.78917610862E+03 0.  0.
        2    1    3    3  502    0  0.13546574018E+03  0.32919952636E+03 -0.13637493217E+03  0.38121046293E+03  0.25500000920E-02 0. -1.
       -2    1    3    3    0  502 -0.13546574018E+03 -0.32919952636E+03  0.20537314595E+03  0.41097618422E+03  0.25500000920E-02 0.  1.
</event>
<event>
 5   0  0.6596225E-03  0.8083603E+03  0.7818609E-02  0.9547994E-01
       -1   -1    0    0    0  501  0.00000000000E+00  0.00000000000E+00  0.29371559725E+03  0.29371559729E+03  0.50400001928E-02 0.  1.
        1   -1    0    0  501    0  0.00000000000E+00  0.00000000000E+00 -0.55618966188E+03  0.55618966191E+03  0.50400001928E-02 0. -1.
    10030    2    1    2    0    0  0.00000000000E+00  0.00000000000E+00 -0.26247406464E+03  0.84990525920E+03  0.80836026313E+03 0.  0.
        5    1    3    3  502    0 -0.12466205693E+03 -0.18647736710E+03 -0.48470732343E+03  0.53411395439E+03  0.46999998093E+01 0. -1.
       -5    1    3    3    0  502  0.12466205693E+03  0.18647736710E+03  0.22223325880E+03  0.31579130481E+03  0.46999998093E+01 0.  1.
</event>
<event>
 5   0  0.6517392E-03  0.7923512E+03  0.7818609E-02  0.9571155E-01
       -1   -1    0    0    0  501  0.00000000000E+00  0.00000000000E+00  0.34872140435E+03  0.34872140439E+03  0.50400001928E-02 0.  1.
        1   -1    0    0  501    0  0.00000000000E+00  0.00000000000E+00 -0.45008743029E+03  0.45008743032E+03  0.50400001928E-02 0. -1.
    10030    2    1    2    0    0  0.00000000000E+00  0.00000000000E+00 -0.10136602594E+03  0.79880883470E+03  0.79235123726E+03 0.  0.
        3    1    3    3  502    0 -0.23111495180E+03  0.12900455619E+03  0.24650551715E+03  0.36169224024E+03  0.10100000352E+00 0.  1.
       -3    1    3    3    0  502  0.23111495180E+03 -0.12900455619E+03 -0.34787154309E+03  0.43711659446E+03  0.10100000352E+00 0. -1.
</event>
<event>
 5   0  0.6517392E-03  0.8011984E+03  0.7818609E-02  0.9558284E-01
       -1   -1    0    0    0  501  0.00000000000E+00  0.00000000000E+00  0.11458774189E+03  0.11458774200E+03  0.50400001928E-02 0. -1.
        1   -1    0    0  501    0  0.00000000000E+00  0.00000000000E+00 -0.14004964915E+04  0.14004964915E+04  0.50400001928E-02 0.  1.
    10030    2    1    2    0    0  0.00000000000E+00  0.00000000000E+00 -0.12859087496E+04  0.15150842335E+04  0.80119842882E+03 0.  0.
        3    1    3    3  502    0  0.64893068659E+02  0.26391007692E+02  0.10291466669E+03  0.12449511825E+03  0.10100000352E+00 0. -1.
       -3    1    3    3    0  502 -0.64893068659E+02 -0.26391007692E+02 -0.13888234163E+04  0.13905891153E+04  0.10100000352E+00 0.  1.
</event>
<event>
 5   0  0.6596225E-03  0.8012324E+03  0.7818609E-02  0.9558235E-01
        1   -1    0    0  501    0  0.00000000000E+00  0.00000000000E+00  0.18964745024E+03  0.18964745030E+03  0.50400001928E-02 0. -1.
       -1   -1    0    0    0  501  0.00000000000E+00  0.00000000000E+00 -0.84627196241E+03  0.84627196243E+03  0.50400001928E-02 0.  1.
    10030    2    1    2    0    0  0.00000000000E+00  0.00000000000E+00 -0.65662451218E+03  0.10359194127E+04  0.80123235062E+03 0.  0.
        5    1    3    3  502    0  0.28274040845E+03 -0.12443568637E+03  0.14295088709E+01  0.30895066290E+03  0.46999998093E+01 0. -1.
       -5    1    3    3    0  502 -0.28274040845E+03  0.12443568637E+03 -0.65805402105E+03  0.72696874983E+03  0.46999998093E+01 0.  1.
</event>
<event>
 5   0  0.6551489E-03  0.7981490E+03  0.7818609E-02  0.9562700E-01
        1   -1    0    0  501    0  0.00000000000E+00  0.00000000000E+00  0.22735704800E+03  0.22735704806E+03  0.50400001928E-02 0. -1.
       -1   -1    0    0    0  501  0.00000000000E+00  0.00000000000E+00 -0.70048618790E+03  0.70048618792E+03  0.50400001928E-02 0.  1.
    10030    2    1    2    0    0  0.00000000000E+00  0.00000000000E+00 -0.47312913990E+03  0.92784323597E+03  0.79814903841E+03 0.  0.
        4    1    3    3  502    0 -0.88465685971E+01  0.89544843136E+02  0.21540831716E+03  0.23344998760E+03  0.12699999809E+01 0. -1.
       -4    1    3    3    0  502  0.88465685971E+01 -0.89544843136E+02 -0.68853745706E+03  0.69439324837E+03  0.12699999809E+01 0.  1.
</event>
<event>
 5   0  0.6517392E-03  0.8016994E+03  0.7818609E-02  0.9557561E-01
        1   -1    0    0  501    0  0.00000000000E+00  0.00000000000E+00  0.26939248440E+03  0.26939248444E+03  0.50400001928E-02 0. -1.
       -1   -1    0    0    0  501  0.00000000000E+00  0.00000000000E+00 -0.59645498685E+03  0.59645498687E+03  0.50400001928E-02 0.  1.
    10030    2    1    2    0    0  0.00000000000E+00  0.00000000000E+00 -0.32706250245E+03  0.86584747131E+03  0.80169942190E+03 0.  0.
        3    1    3    3  502    0  0.78088247963E+02 -0.36308025809E+03 -0.32645048826E+03  0.49446433620E+03  0.10100000352E+00 0.  1.
       -3    1    3    3    0  502 -0.78088247963E+02  0.36308025809E+03 -0.61201419153E+00  0.37138313512E+03  0.10100000352E+00 0. -1.
</event>
<event>
 5   0  0.1119792E-02  0.8011847E+03  0.7818609E-02  0.9558304E-01
        2   -1    0    0  501    0  0.00000000000E+00  0.00000000000E+00  0.16128663183E+04  0.16128663183E+04  0.25500000920E-02 0. -1.
       -2   -1    0    0    0  501  0.00000000000E+00  0.00000000000E+00 -0.99496293855E+02  0.99496293888E+02  0.25500000920E-02 0.  1.
    10030    2    1    2    0    0  0.00000000000E+00  0.00000000000E+00  0.15133700245E+04  0.17123626122E+04  0.80118467581E+03 0.  0.
        4    1    3    3  502    0  0.16063847945E+03  0.30065385093E+03  0.30696406245E+03  0.45872214651E+03  0.12699999809E+01 0.  1.
       -4    1    3    3    0  502 -0.16063847945E+03 -0.30065385093E+03  0.12064059620E+04  0.12536404657E+04  0.12699999809E+01 0. -1.
</event>
<event>
 5   0  0.6517392E-03  0.7740341E+03  0.7818609E-02  0.9598381E-01
        1   -1    0    0  501    0  0.00000000000E+00  0.00000000000E+00  0.11168704619E+04  0.11168704620E+04  0.50400001928E-02 0. -1.
       -1   -1    0    0    0  501  0.00000000000E+00  0.00000000000E+00 -0.13410883422E+03  0.13410883432E+03  0.50400001928E-02 0.  1.
    10030    2    1    2    0    0  0.00000000000E+00  0.00000000000E+00  0.98276162771E+03  0.12509792963E+04  0.77403409665E+03 0.  0.
        3    1    3    3  502    0 -0.21967783874E+03  0.20265682021E+03  0.94003823874E+02  0.31331273309E+03  0.10100000352E+00 0.  1.
       -3    1    3    3    0  502  0.21967783874E+03 -0.20265682021E+03  0.88875780384E+03  0.93766656318E+03  0.10100000352E+00 0. -1.
</event>
<event>
 5   0  0.1092868E-02  0.7910228E+03  0.7818609E-02  0.9573103E-01
        2   -1    0    0  501    0  0.00000000000E+00  0.00000000000E+00  0.17869814546E+04  0.17869814546E+04  0.25500000920E-02 0. -1.
       -2   -1    0    0    0  501  0.00000000000E+00  0.00000000000E+00 -0.87538279317E+02  0.87538279354E+02  0.25500000920E-02 0.  1.
    10030    2    1    2    0    0  0.00000000000E+00  0.00000000000E+00  0.16994431753E+04  0.18745197340E+04  0.79102283594E+03 0.  0.
        3    1    3    3  502    0  0.11708959597E+03  0.35269329416E+03  0.11705284021E+04  0.12281039384E+04  0.10100000352E+00 0. -1.
       -3    1    3    3    0  502 -0.11708959597E+03 -0.35269329416E+03  0.52891477319E+03  0.64641579555E+03  0.10100000352E+00 0.  1.
</event>
<event>
 5   0  0.1092868E-02  0.8001953E+03  0.7818609E-02  0.9559734E-01
        2   -1    0    0  501    0  0.00000000000E+00  0.00000000000E+00  0.13360943382E+04  0.13360943382E+04  0.25500000920E-02 0.  1.
       -2   -1    0    0    0  501  0.00000000000E+00  0.00000000000E+00 -0.11981049331E+03  0.11981049333E+03  0.25500000920E-02 0. -1.
    10030    2    1    2    0    0  0.00000000000E+00  0.00000000000E+00  0.12162838449E+04  0.14559048316E+04  0.80019528064E+03 0.  0.
        3    1    3    3  502    0 -0.24839969145E+03  0.14401572025E+03  0.11150932631E+04  0.11514668602E+04  0.10100000352E+00 0.  1.
       -3    1    3    3    0  502  0.24839969145E+03 -0.14401572025E+03  0.10119058181E+03  0.30443797142E+03  0.10100000352E+00 0. -1.
</event>
<event>
 5   0  0.4385875E-03  0.7981265E+03  0.7818609E-02  0.9562733E-01
       -4   -1    0    0    0  501  0.00000000000E+00  0.00000000000E+00  0.63744595454E+03  0.63744721966E+03  0.12699999809E+01 0. -1.
        4   -1    0    0  501    0  0.00000000000E+00  0.00000000000E+00 -0.24982426271E+03  0.24982749076E+03  0.12699999809E+01 0.  1.
    10030    2    1    2    0    0  0.00000000000E+00  0.00000000000E+00  0.38762169183E+03  0.88727471042E+03  0.79812645350E+03 0.  0.
        4    1    3    3  502    0 -0.27282515517E+03 -0.26701149068E+03  0.32307946999E+03  0.50011064604E+03  0.12699999809E+01 0. -1.
       -4    1    3    3    0  502  0.27282515517E+03  0.26701149068E+03  0.64542221841E+02  0.38716406438E+03  0.12699999809E+01 0.  1.
</event>
<event>
 5   0  0.1154714E-02  0.7847944E+03  0.7818609E-02  0.9582291E-01
       -2   -1    0    0    0  501  0.00000000000E+00  0.00000000000E+00  0.24018613771E+03  0.24018613772E+03  0.25500000920E-02 0.  1.
        2   -1    0    0  501    0  0.00000000000E+00  0.00000000000E+00 -0.64106771078E+03  0.64106771078E+03  0.25500000920E-02 0. -1.
    10030    2    1    2    0    0  0.00000000000E+00  0.00000000000E+00 -0.40088157307E+03  0.88125384851E+03  0.78479443798E+03 0.  0.
        5    1    3    3  502    0 -0.37484881892E+02  0.33221970023E+03 -0.43105728636E+03  0.54553415999E+03  0.46999998093E+01 0.  1.
       -5    1    3    3    0  502  0.37484881892E+02 -0.33221970023E+03  0.30175713289E+02  0.33571968852E+03  0.46999998093E+01 0. -1.
</event>
<event>
 5   0  0.6596225E-03  0.8015731E+03  0.7818609E-02  0.9557743E-01
       -1   -1    0    0    0  501  0.00000000000E+00  0.00000000000E+00  0.17186343068E+03  0.17186343075E+03  0.50400001928E-02 0.  1.
        1   -1    0    0  501    0  0.00000000000E+00  0.00000000000E+00 -0.93463672967E+03  0.93463672968E+03  0.50400001928E-02 0. -1.
    10030    2    1    2    0    0  0.00000000000E+00  0.00000000000E+00 -0.76277329900E+03  0.11065001604E+04  0.80157314038E+03 0.  0.
        5    1    3    3  502    0  0.19130033878E+03  0.61524184742E+02  0.97253207993E+02  0.22329648763E+03  0.46999998093E+01 0.  1.
       -5    1    3    3    0  502 -0.19130033878E+03 -0.61524184742E+02 -0.86002650699E+03  0.88320367280E+03  0.46999998093E+01 0. -1.
</event>
<event>
 5   0  0.6600401E-03  0.7978873E+03  0.7818609E-02  0.9563080E-01
       -1   -1    0    0    0  501  0.00000000000E+00  0.00000000000E+00  0.39993137474E+03  0.39993137477E+03  0.50400001928E-02 0. -1.
        1   -1    0    0  501    0  0.00000000000E+00  0.00000000000E+00 -0.39795841344E+03  0.39795841347E+03  0.50400001928E-02 0.  1.
    10030    2    1    2    0    0  0.00000000000E+00  0.00000000000E+00  0.19729612992E+01  0.79788978825E+03  0.79788734895E+03 0.  0.
        2    1    3    3  502    0  0.79119624175E+02  0.38207189717E+03  0.84156476156E+02  0.39915055057E+03  0.25500000920E-02 0. -1.
       -2    1    3    3    0  502 -0.79119624175E+02 -0.38207189717E+03 -0.82183514857E+02  0.39873923767E+03  0.25500000920E-02 0.  1.
</event>
<event>
 5   0  0.1154714E-02  0.7951983E+03  0.7818609E-02  0.9566993E-01
        2   -1    0    0  501    0  0.00000000000E+00  0.00000000000E+00  0.48502321249E+03  0.48502321249E+03  0.25500000920E-02 0. -1.
       -2   -1    0    0    0  501  0.00000000000E+00  0.00000000000E+00 -0.32593302767E+03  0.32593302768E+03  0.25500000920E-02 0.  1.
    10030    2    1    2    0    0  0.00000000000E+00  0.00000000000E+00  0.15909018482E+03  0.81095624017E+03  0.79519830015E+03 0.  0.
        5    1    3    3  502    0  0.32052037412E+03 -0.12066965876E+03  0.28545840999E+03  0.44587337957E+03  0.46999998093E+01 0. -1.
       -5    1    3    3    0  502 -0.32052037412E+03  0.12066965876E+03 -0.12636822517E+03  0.36508286060E+03  0.46999998093E+01 0.  1.
</event>
<event>
 5   0  0.1106332E-02  0.7398026E+03  0.7818609E-02  0.9651486E-01
        2   -1    0    0  501    0  0.00000000000E+00  0.00000000000E+00  0.12799234496E+04  0.12799234496E+04  0.25500000920E-02 0.  1.
       -2   -1    0    0    0  501  0.00000000000E+00  0.00000000000E+00 -0.10690246374E+03  0.10690246377E+03  0.25500000920E-02 0. -1.
    10030    2    1    2    0    0  0.00000000000E+00  0.00000000000E+00  0.11730209858E+04  0.13868259133E+04  0.73980259578E+03 0.  0.
        1    1    3    3  502    0  0.78646090734E+02  0.31890351851E+03  0.26759715651E+03  0.42366602401E+03  0.50400001928E-02 0. -1.
       -1    1    3    3    0  502 -0.78646090734E+02 -0.31890351851E+03  0.90542382931E+03  0.96315988933E+03  0.50400001928E-02 0.  1.
</event>
<event>
 5   0  0.6600401E-03  0.7966380E+03  0.7818609E-02  0.9564896E-01
        1   -1    0    0  501    0  0.00000000000E+00  0.00000000000E+00  0.15577895939E+03  0.15577895948E+03  0.50400001928E-02 0. -1.
       -1   -1    0    0    0  501  0.00000000000E+00  0.00000000000E+00 -0.10184818389E+04  0.10184818389E+04  0.50400001928E-02 0.  1.
    10030    2    1    2    0    0  0.00000000000E+00  0.00000000000E+00 -0.86270287949E+03  0.11742607984E+04  0.79663803846E+03 0.  0.
        2    1    3    3  502    0 -0.24943417399E+03 -0.28577453218E+03 -0.61051346625E+03  0.71875669241E+03  0.25500000920E-02 0.  1.
       -2    1    3    3    0  502  0.24943417399E+03  0.28577453218E+03 -0.25218941324E+03  0.45550410597E+03  0.25500000920E-02 0. -1.
</event>
<event>
 5   0  0.1106332E-02  0.8070231E+03  0.7818609E-02  0.9549907E-01
        2   -1    0    0  501    0  0.00000000000E+00  0.00000000000E+00  0.10285479157E+04  0.10285479157E+04  0.25500000920E-02 0. -1.
       -2   -1    0    0    0  501  0.00000000000E+00  0.00000000000E+00 -0.15830238460E+03  0.15830238462E+03  0.25500000920E-02 0.  1.
    10030    2    1    2    0    0  0.00000000000E+00  0.00000000000E+00  0.87024553113E+03  0.11868503004E+04  0.80702314155E+03 0.  0.
        1    1    3    3  502    0 -0.85296775628E+02  0.39415396539E+03  0.45532480303E+03  0.60823808220E+03  0.50400001928E-02 0.  1.
       -1    1    3    3    0  502  0.85296775628E+02 -0.39415396539E+03  0.41492072810E+03  0.57861221815E+03  0.50400001928E-02 0. -1.
</event>
<event>
 5   0  0.6551489E-03  0.7847999E+03  0.7818609E-02  0.9582283E-01
        1   -1    0    0  501    0  0.00000000000E+00  0.00000000000E+00  0.65836534246E+03  0.65836534248E+03  0.50400001928E-02 0. -1.
       -1   -1    0    0    0  501  0.00000000000E+00  0.00000000000E+00 -0.23387886562E+03  0.23387886568E+03  0.50400001928E-02 0.  1.
    10030    2    1    2    0    0  0.00000000000E+00  0.00000000000E+00  0.42448647684E+03  0.89224420816E+03  0.78479994774E+03 0.  0.
        4    1    3    3  502    0 -0.17722239410E+03  0.21546905441E+02 -0.18503050330E+03  0.25711854494E+03  0.12699999809E+01 0.  1.
       -4    1    3    3    0  502  0.17722239410E+03 -0.21546905441E+02  0.60951698013E+03  0.63512566322E+03  0.12699999809E+01 0. -1.
</event>
<event>
 5   0  0.4385875E-03  0.7873556E+03  0.7818609E-02  0.9578502E-01
       -3   -1    0    0    0  501  0.00000000000E+00  0.00000000000E+00  0.24168964994E+03  0.24168967104E+03  0.10100000352E+00 0.  1.
        3   -1    0    0  501    0  0.00000000000E+00  0.00000000000E+00 -0.64124470267E+03  0.64124471062E+03  0.10100000352E+00 0. -1.
    10030    2    1    2    0    0  0.00000000000E+00  0.00000000000E+00 -0.39955505273E+03  0.88293438166E+03  0.78735562623E+03 0.  0.
        1    1    3    3  502    0 -0.35381838044E+03 -0.17155920826E+03 -0.17843533289E+03  0.43180918972E+03  0.50400001928E-02 0.  1.
       -1    1    3    3    0  502  0.35381838044E+03  0.17155920826E+03 -0.22111971984E+03  0.45112519194E+03  0.50400001928E-02 0. -1.
</event>
<event>
 5   0  0.1092868E-02  0.7991159E+03  0.7818609E-02  0.9561298E-01
        2   -1    0    0  501    0  0.00000000000E+00  0.00000000000E+00  0.14681981128E+04  0.14681981128E+04  0.25500000920E-02 0.  1.
       -2   -1    0    0    0  501  0.00000000000E+00  0.00000000000E+00 -0.10873639561E+03  0.10873639564E+03  0.25500000920E-02 0. -1.
    10030    2    1    2    0    0  0.00000000000E+00  0.00000000000E+00  0.13594617172E+04  0.15769345084E+04  0.79911593865E+03 0.  0.
        3    1    3    3  502    0 -0.70438104494E+02 -0.33254113235E+02 -0.93608407399E+02  0.12177810455E+03  0.10100000352E+00 0. -1.
       -3    1    3    3    0  502  0.70438104494E+02  0.33254113235E+02  0.14530701246E+04  0.14551564039E+04  0.10100000352E+00 0.  1.
</event>
<event>
 5   0  0.6551489E-03  0.8029165E+03  0.7818609E-02  0.9555805E-01
       -1   -1    0    0    0  501  0.00000000000E+00  0.00000000000E+00  0.34803772234E+03  0.34803772237E+03  0.50400001928E-02 0. -1.
        1   -1    0    0  501    0  0.00000000000E+00  0.00000000000E+00 -0.46307830389E+03  0.46307830391E+03  0.50400001928E-02 0.  1.
    10030    2    1    2    0    0  0.00000000000E+00  0.00000000000E+00 -0.11504058155E+03  0.81111602629E+03  0.80291647928E+03 0.  0.
        4    1    3    3  502    0 -0.31296639463E+03  0.13159270153E+03 -0.27395693414E+03  0.43625522108E+03  0.12699999809E+01 0.  1.
       -4    1    3    3    0  502  0.31296639463E+03 -0.13159270153E+03  0.15891635259E+03  0.37486080521E+03  0.12699999809E+01 0. -1.
</event>
<event>
 5   0  0.1092868E-02  0.7847855E+03  0.7818609E-02  0.9582304E-01
        2   -1    0    0  501    0  0.00000000000E+00  0.00000000000E+00  0.99490970394E+03  0.99490970394E+03  0.25500000920E-02 0.  1.
       -2   -1    0    0    0  501  0.00000000000E+00  0.00000000000E+00 -0.15475983962E+03  0.15475983964E+03  0.25500000920E-02 0. -1.
    10030    2    1    2    0    0  0.00000000000E+00  0.00000000000E+00  0.84014986432E+03  0.11496695436E+04  0.78478548974E+03 0.  0.
        3    1    3    3  502    0  0.11848728534E+03  0.68352466198E+02  0.95885059870E+03  0.96855860806E+03  0.10100000352E+00 0.  1.
       -3    1    3    3    0  502 -0.11848728534E+03 -0.68352466198E+02 -0.11870073438E+03  0.18111093552E+03  0.10100000352E+00 0. -1.
</event>
<event>
 5   0  0.1119792E-02  0.8111994E+03  0.7818609E-02  0.9543946E-01
        2   -1    0    0  501    0  0.00000000000E+00  0.00000000000E+00  0.89273723016E+03  0.89273723016E+03  0.25500000920E-02 0. -1.
       -2   -1    0    0    0  501  0.00000000000E+00  0.00000000000E+00 -0.18427720585E+03  0.18427720587E+03  0.25500000920E-02 0.  1.
    10030    2    1    2    0    0  0.00000000000E+00  0.00000000000E+00  0.70846002431E+03  0.10770144360E+04  0.81119941406E+03 0.  0.
        4    1    3    3  502    0 -0.14584788156E+02  0.35165217916E+03  0.62187406156E+03  0.71456345589E+03  0.12699999809E+01 0.  1.
       -4    1    3    3    0  502  0.14584788156E+02 -0.35165217916E+03  0.86585962750E+02  0.36245098013E+03  0.12699999809E+01 0. -1.
</event>
<event>
 5   0  0.1121480E-02  0.8007721E+03  0.7818609E-02  0.9558900E-01
        2   -1    0    0  501    0  0.00000000000E+00  0.00000000000E+00  0.18141732377E+04  0.18141732377E+04  0.25500000920E-02 0. -1.
       -2   -1    0    0    0  501  0.00000000000E+00  0.00000000000E+00 -0.88364770476E+02  0.88364770513E+02  0.25500000920E-02 0.  1.
    10030    2    1    2    0    0  0.00000000000E+00  0.00000000000E+00  0.17258084672E+04  0.19025380082E+04  0.80077213185E+03 0.  0.
        2    1    3    3  502    0  0.34583897579E+03  0.12416232821E+03  0.48508621130E+03  0.60854705103E+03  0.25500000920E-02 0.  1.
       -2    1    3    3    0  502 -0.34583897579E+03 -0.12416232821E+03  0.12407222559E+04  0.12939909572E+04  0.25500000920E-02 0. -1.
</event>
<event>
 5   0  0.1121480E-02  0.7890512E+03  0.7818609E-02  0.9576002E-01
       -2   -1    0    0    0  501  0.00000000000E+00  0.00000000000E+00  0.10140089803E+03  0.10140089806E+03  0.25500000920E-02 0. -1.
        2   -1    0    0  501    0  0.00000000000E+00  0.00000000000E+00 -0.15350006162E+04  0.15350006162E+04  0.25500000920E-02 0.  1.
    10030    2    1    2    0    0  0.00000000000E+00  0.00000000000E+00 -0.14335997182E+04  0.16364015142E+04  0.78905117954E+03 0.  0.
        2    1    3    3  502    0  0.16132598659E+03 -0.17931144932E+03 -0.13642765346E+04  0.13854346368E+04  0.25500000920E-02 0.  1.
       -2    1    3    3    0  502 -0.16132598659E+03  0.17931144932E+03 -0.69323183511E+02  0.25096687747E+03  0.25500000920E-02 0. -1.
</event>
<event>
 5   0  0.6600401E-03  0.7958491E+03  0.7818609E-02  0.9566045E-01
        1   -1    0    0  501    0  0.00000000000E+00  0.00000000000E+00  0.82057956673E+03  0.82057956675E+03  0.50400001928E-02 0. -1.
       -1   -1    0    0    0  501  0.00000000000E+00  0.00000000000E+00 -0.19296598298E+03  0.19296598305E+03  0.50400001928E-02 0.  1.
    10030    2    1    2    0    0  0.00000000000E+00  0.00000000000E+00  0.62761358375E+03  0.10135455498E+04  0.79584908808E+03 0.  0.
        2    1    3    3  502    0  0.14498247238E+03  0.29805019483E+03  0.59424624950E+03  0.68042813066E+03  0.25500000920E-02 0. -1.
       -2    1    3    3    0  502 -0.14498247238E+03 -0.29805019483E+03  0.33367334244E+02  0.33311741914E+03  0.25500000920E-02 0.  1.
</event>
<event>
 5   0  0.1121480E-02  0.7982668E+03  0.7818609E-02  0.9562529E-01
        2   -1    0    0  501    0  0.00000000000E+00  0.00000000000E+00  0.14558053741E+04  0.14558053741E+04  0.25500000920E-02 0. -1.
       -2   -1    0    0    0  501  0.00000000000E+00  0.00000000000E+00 -0.10942908845E+03  0.10942908848E+03  0.25500000920E-02 0.  1.
    10030    2    1    2    0    0  0.00000000000E+00  0.00000000000E+00  0.13463762856E+04  0.15652344625E+04  0.79826676010E+03 0.  0.
        2    1    3    3  502    0 -0.66211053782E+01 -0.70670493213E+02 -0.96954385967E+02  0.12015952152E+03  0.25500000920E-02 0.  1.
       -2    1    3    3    0  502  0.66211053782E+01  0.70670493213E+02  0.14433306716E+04  0.14450749410E+04  0.25500000920E-02 0. -1.
</event>
<event>
 5   0  0.1154714E-02  0.8035825E+03  0.7818609E-02  0.9554846E-01
       -2   -1    0    0    0  501  0.00000000000E+00  0.00000000000E+00  0.37757932544E+03  0.37757932545E+03  0.25500000920E-02 0. -1.
        2   -1    0    0  501    0  0.00000000000E+00  0.00000000000E+00 -0.42755576156E+03  0.42755576156E+03  0.25500000920E-02 0.  1.
    10030    2    1    2    0    0  0.00000000000E+00  0.00000000000E+00 -0.49976436119E+02  0.80513508701E+03  0.80358251858E+03 0.  0.
        5    1    3    3  502    0 -0.18529187693E+03 -0.24193563370E+03  0.23733473111E+03  0.38628460376E+03  0.46999998093E+01 0. -1.
       -5    1    3    3    0  502  0.18529187693E+03  0.24193563370E+03 -0.28731116723E+03  0.41885048325E+03  0.46999998093E+01 0.  1.
</event>
<event>
 5   0  0.1154714E-02  0.8006073E+03  0.7818609E-02  0.9559139E-01
       -2   -1    0    0    0  501  0.00000000000E+00  0.00000000000E+00  0.20018367694E+03  0.20018367695E+03  0.25500000920E-02 0. -1.
        2   -1    0    0  501    0  0.00000000000E+00  0.00000000000E+00 -0.80047984359E+03  0.80047984359E+03  0.25500000920E-02 0.  1.
    10030    2    1    2    0    0  0.00000000000E+00  0.00000000000E+00 -0.60029616665E+03  0.10006635205E+04  0.80060726555E+03 0.  0.
        5    1    3    3  502    0  0.33301692347E+03  0.12161074716E+03 -0.67887222301E+02  0.36099890595E+03  0.46999998093E+01 0. -1.
       -5    1    3    3    0  502 -0.33301692347E+03 -0.12161074716E+03 -0.53240894435E+03  0.63966461460E+03  0.46999998093E+01 0.  1.
</event>
<event>
 5   0  0.1092868E-02  0.8230464E+03  0.7818609E-02  0.9527245E-01
       -2   -1    0    0    0  501  0.00000000000E+00  0.00000000000E+00  0.17352012901E+03  0.17352012903E+03  0.25500000920E-02 0.  1.
        2   -1    0    0  501    0  0.00000000000E+00  0.00000000000E+00 -0.97597510420E+03  0.97597510420E+03  0.25500000920E-02 0. -1.
    10030    2    1    2    0    0  0.00000000000E+00  0.00000000000E+00 -0.80245497519E+03  0.11494952332E+04  0.82304635594E+03 0.  0.
        3    1    3    3  502    0  0.21464311467E+03 -0.10069893789E+03  0.68547361964E+02  0.24680091937E+03  0.10100000352E+00 0.  1.
       -3    1    3    3    0  502 -0.21464311467E+03  0.10069893789E+03 -0.87100233715E+03  0.90269431387E+03  0.10100000352E+00 0. -1.
</event>
<event>
 5   0  0.6596225E-03  0.8014060E+03  0.7818609E-02  0.9557984E-01
        1   -1    0    0  501    0  0.00000000000E+00  0.00000000000E+00  0.11771527781E+04  0.11771527781E+04  0.50400001928E-02 0.  1.
       -1   -1    0    0    0  501  0.00000000000E+00  0.00000000000E+00 -0.13639936080E+03  0.13639936090E+03  0.50400001928E-02 0. -1.
    10030    2    1    2    0    0  0.00000000000E+00  0.00000000000E+00  0.10407534173E+04  0.13135521390E+04  0.80140598094E+03 0.  0.
        5    1    3    3  502    0  0.20332544639E+03  0.18511154352E+03  0.99805298674E+03  0.10352484605E+04  0.46999998093E+01 0.  1.
       -5    1    3    3    0  502 -0.20332544639E+03 -0.18511154352E+03  0.42700430585E+02  0.27830367850E+03  0.46999998093E+01 0. -1.
</event>
<event>
 5   0  0.6557679E-03  0.8010187E+03  0.7818609E-02  0.9558544E-01
        1   -1    0    0  501    0  0.00000000000E+00  0.00000000000E+00  0.14439430942E+04  0.14439430942E+04  0.50400001928E-02 0.  1.
       -1   -1    0    0    0  501  0.00000000000E+00  0.00000000000E+00 -0.11109005787E+03  0.11109005799E+03  0.50400001928E-02 0. -1.
    10030    2    1    2    0    0  0.00000000000E+00  0.00000000000E+00  0.13328530363E+04  0.15550331522E+04  0.80101865644E+03 0.  0.
        1    1    3    3  502    0  0.83766927250E+02 -0.59279244983E+02 -0.85134454318E+02  0.13333717533E+03  0.50400001928E-02 0. -1.
       -1    1    3    3    0  502 -0.83766927250E+02  0.59279244983E+02  0.14179874906E+04  0.14216959768E+04  0.50400001928E-02 0.  1.
</event>
<event>
 5   0  0.1092868E-02  0.7968728E+03  0.7818609E-02  0.9564555E-01
        2   -1    0    0  501    0  0.00000000000E+00  0.00000000000E+00  0.15151276701E+04  0.15151276701E+04  0.25500000920E-02 0.  1.
       -2   -1    0    0    0  501  0.00000000000E+00  0.00000000000E+00 -0.10477768240E+03  0.10477768243E+03  0.25500000920E-02 0. -1.
    10030    2    1    2    0    0  0.00000000000E+00  0.00000000000E+00  0.14103499877E+04  0.16199053525E+04  0.79687280249E+03 0.  0.
        3    1    3    3  502    0  0.21107773183E+03  0.19018128954E+02  0.19306964799E+02  0.21281040198E+03  0.10100000352E+00 0. -1.
       -3    1    3    3    0  502 -0.21107773183E+03 -0.19018128954E+02  0.13910430229E+04  0.14070949505E+04  0.10100000352E+00 0.  1.
</event>
<event>
 5   0  0.4385875E-03  0.7963215E+03  0.7818609E-02  0.9565357E-01
       -4   -1    0    0    0  501  0.00000000000E+00  0.00000000000E+00  0.15057131113E+03  0.15057666697E+03  0.12699999809E+01 0. -1.
        4   -1    0    0  501    0  0.00000000000E+00  0.00000000000E+00 -0.10528451977E+04  0.10528459636E+04  0.12699999809E+01 0.  1.
    10030    2    1    2    0    0  0.00000000000E+00  0.00000000000E+00 -0.90227388655E+03  0.12034226306E+04  0.79632145615E+03 0.  0.
        3    1    3    3  502    0 -0.67456293554E+02  0.39175813550E+03 -0.41710355319E+03  0.57619456138E+03  0.10100000352E+00 0.  1.
       -3    1    3    3    0  502  0.67456293554E+02 -0.39175813550E+03 -0.48517033335E+03  0.62722806924E+03  0.10100000352E+00 0. -1.
</event>
<event>
 5   0  0.1119792E-02  0.8027856E+03  0.7818609E-02  0.9555994E-01
        2   -1    0    0  501    0  0.00000000000E+00  0.00000000000E+00  0.21615374131E+03  0.21615374133E+03  0.25500000920E-02 0.  1.
       -2   -1    0    0    0  501  0.00000000000E+00  0.00000000000E+00 -0.74537773890E+03  0.74537773890E+03  0.25500000920E-02 0. -1.
    10030    2    1    2    0    0  0.00000000000E+00  0.00000000000E+00 -0.52922399759E+03  0.96153148023E+03  0.80278561761E+03 0.  0.
        4    1    3    3  502    0  0.12011344299E+03 -0.27533857268E+03 -0.58348190947E+03  0.65627076757E+03  0.12699999809E+01 0. -1.
       -4    1    3    3    0  502 -0.12011344299E+03  0.27533857268E+03  0.54257911878E+02  0.30526071266E+03  0.12699999809E+01 0.  1.
</event>
<event>
 5   0  0.4385875E-03  0.8024549E+03  0.7818609E-02  0.9556471E-01
        3   -1    0    0  501    0  0.00000000000E+00  0.00000000000E+00  0.28027959175E+03  0.28027960994E+03  0.10100000352E+00 0. -1.
       -3   -1    0    0    0  501  0.00000000000E+00  0.00000000000E+00 -0.57436739567E+03  0.57436740455E+03  0.10100000352E+00 0.  1.
    10030    2    1    2    0    0  0.00000000000E+00  0.00000000000E+00 -0.29408780393E+03  0.85464701449E+03  0.80245491024E+03 0.  0.
        4    1    3    3  502    0 -0.62857071202E+00  0.23378017121E+03 -0.49433253155E+03  0.54682705511E+03  0.12699999809E+01 0.  1.
       -4    1    3    3    0  502  0.62857071202E+00 -0.23378017121E+03  0.20024472763E+03  0.30781995938E+03  0.12699999809E+01 0. -1.
</event>
<event>
 5   0  0.6551489E-03  0.7945083E+03  0.7818609E-02  0.9568000E-01
       -1   -1    0    0    0  501  0.00000000000E+00  0.00000000000E+00  0.68691926947E+02  0.68691927132E+02  0.50400001928E-02 0.  1.
        1   -1    0    0  501    0  0.00000000000E+00  0.00000000000E+00 -0.22973714621E+04  0.22973714621E+04  0.50400001928E-02 0. -1.
    10030    2    1    2    0    0  0.00000000000E+00  0.00000000000E+00 -0.22286795352E+04  0.23660633893E+04  0.79450833318E+03 0.  0.
        4    1    3    3  502    0 -0.15526717911E+03 -0.91414935319E+02 -0.59999340378E+02  0.18991082395E+03  0.12699999809E+01 0.  1.
       -4    1    3    3    0  502  0.15526717911E+03  0.91414935319E+02 -0.21686801948E+04  0.21761525653E+04  0.12699999809E+01 0. -1.
</event>
<event>
 5   0  0.1119792E-02  0.8031693E+03  0.7818609E-02  0.9555441E-01
       -2   -1    0    0    0  501  0.00000000000E+00  0.00000000000E+00  0.10626236353E+03  0.10626236356E+03  0.25500000920E-02 0. -1.
        2   -1    0    0  501    0  0.00000000000E+00  0.00000000000E+00 -0.15176610012E+04  0.15176610013E+04  0.25500000920E-02 0.  1.
    10030    2    1    2    0    0  0.00000000000E+00  0.00000000000E+00 -0.14113986377E+04  0.16239233648E+04  0.80316933473E+03 0.  0.
        4    1    3    3  502    0  0.18094910698E+03 -0.23415202396E+03 -0.12545937988E+04  0.12890217075E+04  0.12699999809E+01 0.  1.
       -4    1    3    3    0  502 -0.18094910698E+03  0.23415202396E+03 -0.15680483895E+03  0.33490165730E+03  0.12699999809E+01 0. -1.
</event>
<event>
 5   0  0.1106332E-02  0.8011487E+03  0.7818609E-02  0.9558356E-01
        2   -1    0    0  501    0  0.00000000000E+00  0.00000000000E+00  0.22054885111E+04  0.22054885111E+04  0.25500000920E-02 0.  1.
       -2   -1    0    0    0  501  0.00000000000E+00  0.00000000000E+00 -0.72754779050E+02  0.72754779095E+02  0.25500000920E-02 0. -1.
    10030    2    1    2    0    0  0.00000000000E+00  0.00000000000E+00  0.21327337321E+04  0.22782432902E+04  0.80114874868E+03 0.  0.
        1    1    3    3  502    0 -0.28351925391E+03 -0.26681211763E+03  0.13344613551E+04  0.13900931558E+04  0.50400001928E-02 0.  1.
       -1    1    3    3    0  502  0.28351925391E+03  0.26681211763E+03  0.79827237695E+03  0.88815013442E+03  0.50400001928E-02 0. -1.
</event>
<event>
 5   0  0.1121480E-02  0.8038674E+03  0.7818609E-02  0.9554436E-01
       -2   -1    0    0    0  501  0.00000000000E+00  0.00000000000E+00  0.39716033540E+03  0.39716033541E+03  0.25500000920E-02 0.  1.
        2   -1    0    0  501    0  0.00000000000E+00  0.00000000000E+00 -0.40676443152E+03  0.40676443153E+03  0.25500000920E-02 0. -1.
    10030    2    1    2    0    0  0.00000000000E+00  0.00000000000E+00 -0.96040961155E+01  0.80392476694E+03  0.80386739717E+03 0.  0.
        2    1    3    3  502    0  0.16134305315E+03 -0.31280346744E+03 -0.19891151576E+03  0.40428131437E+03  0.25500000920E-02 0.  1.
       -2    1    3    3    0  502 -0.16134305315E+03  0.31280346744E+03  0.18930741964E+03  0.39964345257E+03  0.25500000920E-02 0. -1.
</event>
<event>
 5   0  0.6517392E-03  0.7969797E+03  0.7818609E-02  0.9564399E-01
       -1   -1    0    0    0  501  0.00000000000E+00  0.00000000000E+00  0.22085309100E+03  0.22085309105E+03  0.50400001928E-02 0.  1.
        1   -1    0    0  501    0  0.00000000000E+00  0.00000000000E+00 -0.71900363626E+03  0.71900363628E+03  0.50400001928E-02 0. -1.
    10030    2    1    2    0    0  0.00000000000E+00  0.00000000000E+00 -0.49815054526E+03  0.93985672733E+03  0.79697973761E+03 0.  0.
        3    1    3    3  502    0 -0.13888445324E+03 -0.37286362502E+03 -0.27485772900E+03  0.48359379194E+03  0.10100000352E+00 0.  1.
       -3    1    3    3    0  502  0.13888445324E+03  0.37286362502E+03 -0.22329281626E+03  0.45626293539E+03  0.10100000352E+00 0. -1.
</event>
<event>
 5   0  0.4385875E-03  0.8003465E+03  0.7818609E-02  0.9559516E-01
        3   -1    0    0  501    0  0.00000000000E+00  0.00000000000E+00  0.27272372979E+03  0.27272374850E+03  0.10100000352E+00 0. -1.
       -3   -1    0    0    0  501  0.00000000000E+00  0.00000000000E+00 -0.58718252503E+03  0.58718253372E+03  0.10100000352E+00 0.  1.
    10030    2    1    2    0    0  0.00000000000E+00  0.00000000000E+00 -0.31445879524E+03  0.85990628222E+03  0.80034647515E+03 0.  0.
        4    1    3    3  502    0 -0.20491414336E+03 -0.91215113277E+02  0.19883426407E+03  0.29974435859E+03  0.12699999809E+01 0. -1.
       -4    1    3    3    0  502  0.20491414336E+03  0.91215113277E+02 -0.51329305931E+03  0.56016192362E+03  0.12699999809E+01 0.  1.
</event>
<event>
 5   0  0.6557679E-03  0.8016811E+03  0.7818609E-02  0.9557587E-01
        1   -1    0    0  501    0  0.00000000000E+00  0.00000000000E+00  0.10381031835E+04  0.10381031835E+04  0.50400001928E-02 0. -1.
       -1   -1    0    0    0  501  0.00000000000E+00  0.00000000000E+00 -0.15477571602E+03  0.15477571610E+03  0.50400001928E-02 0.  1.
    10030    2    1    2    0    0  0.00000000000E+00  0.00000000000E+00  0.88332746746E+03  0.11928788996E+04  0.80168114255E+03 0.  0.
        1    1    3    3  502    0 -0.58306243420E+01 -0.40058941948E+03  0.42241853626E+03  0.58218837071E+03  0.50400001928E-02 0.  1.
       -1    1    3    3    0  502  0.58306243420E+01  0.40058941948E+03  0.46090893120E+03  0.61069052888E+03  0.50400001928E-02 0. -1.
</event>
<event>
 5   0  0.6600401E-03  0.8115006E+03  0.7818609E-02  0.9543518E-01
       -1   -1    0    0    0  501  0.00000000000E+00  0.00000000000E+00  0.25401598029E+03  0.25401598034E+03  0.50400001928E-02 0. -1.
        1   -1    0    0  501    0  0.00000000000E+00  0.00000000000E+00 -0.64812186727E+03  0.64812186729E+03  0.50400001928E-02 0.  1.
    10030    2    1    2    0    0  0.00000000000E+00  0.00000000000E+00 -0.39410588698E+03  0.90213784764E+03  0.81150061367E+03 0.  0.
        2    1    3    3  502    0 -0.19282682887E+03 -0.32417018437E+03 -0.36330488523E+03  0.52369736872E+03  0.25500000920E-02 0.  1.
       -2    1    3    3    0  502  0.19282682887E+03  0.32417018437E+03 -0.30801001750E+02  0.37844047892E+03  0.25500000920E-02 0. -1.
</event>
<event>
 5   0  0.1121480E-02  0.7979566E+03  0.7818609E-02  0.9562980E-01
       -2   -1    0    0    0  501  0.00000000000E+00  0.00000000000E+00  0.29647259566E+03  0.29647259567E+03  0.25500000920E-02 0. -1.
        2   -1    0    0  501    0  0.00000000000E+00  0.00000000000E+00 -0.53692549977E+03  0.53692549978E+03  0.25500000920E-02 0.  1.
    10030    2    1    2    0    0  0.00000000000E+00  0.00000000000E+00 -0.24045290411E+03  0.83339809545E+03  0.79795663191E+03 0.  0.
        2    1    3    3  502    0 -0.45319042605E+02  0.35292537335E+03 -0.30872405857E+03  0.47108457746E+03  0.25500000920E-02 0. -1.
       -2    1    3    3    0  502  0.45319042605E+02 -0.35292537335E+03  0.68271154461E+02  0.36231351799E+03  0.25500000920E-02 0.  1.
</event>
<event>
 5   0  0.1154714E-02  0.8024869E+03  0.7818609E-02  0.9556424E-01
       -2   -1    0    0    0  501  0.00000000000E+00  0.00000000000E+00  0.36882106102E+03  0.36882106103E+03  0.25500000920E-02 0. -1.
        2   -1    0    0  501    0  0.00000000000E+00  0.00000000000E+00 -0.43651607782E+03  0.43651607782E+03  0.25500000920E-02 0.  1.
    10030    2    1    2    0    0  0.00000000000E+00  0.00000000000E+00 -0.67695016794E+02  0.80533713885E+03  0.80248694190E+03 0.  0.
        5    1    3    3  502    0  0.36693921403E+03 -0.11640788800E+03  0.79598451583E+02  0.39313253067E+03  0.46999998093E+01 0. -1.
       -5    1    3    3    0  502 -0.36693921403E+03  0.11640788800E+03 -0.14729346838E+03  0.41220460818E+03  0.46999998093E+01 0.  1.
</event>
<event>
 5   0  0.6557679E-03  0.7998241E+03  0.7818609E-02  0.9560272E-01
       -1   -1    0    0    0  501  0.00000000000E+00  0.00000000000E+00  0.24680549206E+03  0.24680549211E+03  0.50400001928E-02 0.  1.
        1   -1    0    0  501    0  0.00000000000E+00  0.00000000000E+00 -0.64799866115E+03  0.64799866117E+03  0.50400001928E-02 0. -1.
    10030    2    1    2    0    0  0.00000000000E+00  0.00000000000E+00 -0.40119316909E+03  0.89480415328E+03  0.79982405177E+03 0.  0.
        1    1    3    3  502    0 -0.33401627760E+03 -0.19702300480E+03 -0.30989514754E+03  0.49640703119E+03  0.50400001928E-02 0. -1.
       -1    1    3    3    0  502  0.33401627760E+03  0.19702300480E+03 -0.91298021548E+02  0.39839712209E+03  0.50400001928E-02 0.  1.
</event>
<event>
 5   0  0.1106332E-02  0.8025038E+03  0.7818609E-02  0.9556400E-01
        2   -1    0    0  501    0  0.00000000000E+00  0.00000000000E+00  0.11039192985E+04  0.11039192985E+04  0.25500000920E-02 0.  1.
       -2   -1    0    0    0  501  0.00000000000E+00  0.00000000000E+00 -0.14584680771E+03  0.14584680773E+03  0.25500000920E-02 0. -1.
    10030    2    1    2    0    0  0.00000000000E+00  0.00000000000E+00  0.95807249075E+03  0.12497661062E+04  0.80250384587E+03 0.  0.
        1    1    3    3  502    0  0.22719818825E+03 -0.25928993909E+03  0.79877473444E+03  0.86999503772E+03  0.50400001928E-02 0.  1.
       -1    1    3    3    0  502 -0.22719818825E+03  0.25928993909E+03  0.15929775631E+03  0.37977106847E+03  0.50400001928E-02 0. -1.
</event>
<event>
 5   0  0.6551489E-03  0.8022123E+03  0.7818609E-02  0.9556820E-01
        1   -1    0    0  501    0  0.00000000000E+00  0.00000000000E+00  0.87997328291E+03  0.87997328293E+03  0.50400001928E-02 0.  1.
       -1   -1    0    0    0  501  0.00000000000E+00  0.00000000000E+00 -0.18283072529E+03  0.18283072536E+03  0.50400001928E-02 0. -1.
    10030    2    1    2    0    0  0.00000000000E+00  0.00000000000E+00  0.69714255762E+03  0.10628040083E+04  0.80221232500E+03 0.  0.
        4    1    3    3  502    0  0.57649886670E+02  0.38830455044E+03  0.23947796041E+03  0.45984262498E+03  0.12699999809E+01 0. -1.
       -4    1    3    3    0  502 -0.57649886670E+02 -0.38830455044E+03  0.45766459720E+03  0.60296138331E+03  0.12699999809E+01 0.  1.
</event>
<event>
 5   0  0.1154714E-02  0.7985279E+03  0.7818609E-02  0.9562150E-01
        2   -1    0    0  501    0  0.00000000000E+00  0.00000000000E+00  0.70574857559E+03  0.70574857559E+03  0.25500000920E-02 0. -1.
       -2   -1    0    0    0  501  0.00000000000E+00  0.00000000000E+00 -0.22587605197E+03  0.22587605198E+03  0.25500000920E-02 0.  1.
    10030    2    1    2    0    0  0.00000000000E+00  0.00000000000E+00  0.47987252362E+03  0.93162462758E+03  0.79852790044E+03 0.  0.
        5    1    3    3  502    0 -0.38098395483E+03  0.83246889233E+02  0.14018161726E+03  0.41442948039E+03  0.46999998093E+01 0.  1.
       -5    1    3    3    0  502  0.38098395483E+03 -0.83246889233E+02  0.33969090636E+03  0.51719514718E+03  0.46999998093E+01 0. -1.
</event>
<event>
 5   0  0.1106332E-02  0.7911839E+03  0.7818609E-02  0.9572866E-01
       -2   -1    0    0    0  501  0.00000000000E+00  0.00000000000E+00  0.10517748756E+03  0.10517748759E+03  0.25500000920E-02 0. -1.
        2   -1    0    0  501    0  0.00000000000E+00  0.00000000000E+00 -0.14878943727E+04  0.14878943727E+04  0.25500000920E-02 0.  1.
    10030    2    1    2    0    0  0.00000000000E+00  0.00000000000E+00 -0.13827168851E+04  0.15930718603E+04  0.79118390250E+03 0.  0.
        1    1    3    3  502    0  0.57042436370E+01 -0.39533461937E+03 -0.71768815270E+03  0.81938897004E+03  0.50400001928E-02 0.  1.
       -1    1    3    3    0  502 -0.57042436370E+01  0.39533461937E+03 -0.66502873243E+03  0.77368289024E+03  0.50400001928E-02 0. -1.
</event>
<event>
 5   0  0.1154714E-02  0.7919771E+03  0.7818609E-02  0.9571703E-01
       -2   -1    0    0    0  501  0.00000000000E+00  0.00000000000E+00  0.26068904071E+03  0.26068904072E+03  0.25500000920E-02 0. -1.
        2   -1    0    0  501    0  0.00000000000E+00  0.00000000000E+00 -0.60150950021E+03  0.60150950021E+03  0.25500000920E-02 0.  1.
    10030    2    1    2    0    0  0.00000000000E+00  0.00000000000E+00 -0.34082045950E+03  0.86219854093E+03  0.79197710723E+03 0.  0.
        5    1    3    3  502    0 -0.36670620699E+03 -0.10454058005E+03 -0.54260897335E+02  0.38518633166E+03  0.46999998093E+01 0. -1.
       -5    1    3    3    0  502  0.36670620699E+03  0.10454058005E+03 -0.28655956217E+03  0.47701220927E+03  0.46999998093E+01 0.  1.
</event>
<event>
 5   0  0.1154714E-02  0.7997834E+03  0.7818609E-02  0.9560331E-01
        2   -1    0    0  501    0  0.00000000000E+00  0.00000000000E+00  0.70356587806E+03  0.70356587807E+03  0.25500000920E-02 0.  1.
       -2   -1    0    0    0  501  0.00000000000E+00  0.00000000000E+00 -0.22728982449E+03  0.22728982450E+03  0.25500000920E-02 0. -1.
    10030    2    1    2    0    0  0.00000000000E+00  0.00000000000E+00  0.47627605357E+03  0.93085570257E+03  0.79978338304E+03 0.  0.
        5    1    3    3  502    0 -0.32875469577E+02  0.31388775848E+03  0.52390659064E+03  0.61164248310E+03  0.46999998093E+01 0.  1.
       -5    1    3    3    0  502  0.32875469577E+02 -0.31388775848E+03 -0.47630537064E+02  0.31921321946E+03  0.46999998093E+01 0. -1.
</event>
<event>
 5   0  0.4385875E-03  0.7986430E+03  0.7818609E-02  0.9561983E-01
       -4   -1    0    0    0  501  0.00000000000E+00  0.00000000000E+00  0.16661371535E+03  0.16661855552E+03  0.12699999809E+01 0. -1.
        4   -1    0    0  501    0  0.00000000000E+00  0.00000000000E+00 -0.95703090431E+03  0.95703174697E+03  0.12699999809E+01 0.  1.
    10030    2    1    2    0    0  0.00000000000E+00  0.00000000000E+00 -0.79041718896E+03  0.11236503025E+04  0.79864301767E+03 0.  0.
        4    1    3    3  502    0 -0.19698629830E+03  0.18969368427E+03 -0.80460127244E+03  0.84980710522E+03  0.12699999809E+01 0.  1.
       -4    1    3    3    0  502  0.19698629830E+03 -0.18969368427E+03  0.14184083477E+02  0.27384319727E+03  0.12699999809E+01 0. -1.
</event>
<event>
 5   0  0.1106332E-02  0.8183095E+03  0.7818609E-02  0.9533887E-01
       -2   -1    0    0    0  501  0.00000000000E+00  0.00000000000E+00  0.14267397941E+03  0.14267397944E+03  0.25500000920E-02 0. -1.
        2   -1    0    0  501    0  0.00000000000E+00  0.00000000000E+00 -0.11733577392E+04  0.11733577392E+04  0.25500000920E-02 0.  1.
    10030    2    1    2    0    0  0.00000000000E+00  0.00000000000E+00 -0.10306837598E+04  0.13160317187E+04  0.81830952077E+03 0.  0.
        1    1    3    3  502    0 -0.34148393033E+03  0.12610792663E+02 -0.15344563997E+03  0.37458760152E+03  0.50400001928E-02 0. -1.
       -1    1    3    3    0  502  0.34148393033E+03 -0.12610792663E+02 -0.87723811983E+03  0.94144411713E+03  0.50400001928E-02 0.  1.
</event>
<event>
 5   0  0.6600401E-03  0.8004492E+03  0.7818609E-02  0.9559367E-01
        1   -1    0    0  501    0  0.00000000000E+00  0.00000000000E+00  0.28842285803E+03  0.28842285808E+03  0.50400001928E-02 0. -1.
       -1   -1    0    0    0  501  0.00000000000E+00  0.00000000000E+00 -0.55536414025E+03  0.55536414027E+03  0.50400001928E-02 0.  1.
    10030    2    1    2    0    0  0.00000000000E+00  0.00000000000E+00 -0.26694128221E+03  0.84378699835E+03  0.80044915543E+03 0.  0.
        2    1    3    3  502    0  0.30790736007E+02  0.22718977691E+03 -0.47928132451E+03  0.53129450608E+03  0.25500000920E-02 0.  1.
       -2    1    3    3    0  502 -0.30790736007E+02 -0.22718977691E+03  0.21234004230E+03  0.31249249227E+03  0.25500000920E-02 0. -1.
</event>
<event>
 5   0  0.1119792E-02  0.7920815E+03  0.7818609E-02  0.9571550E-01
       -2   -1    0    0    0  501  0.00000000000E+00  0.00000000000E+00  0.19383209077E+03  0.19383209079E+03  0.25500000920E-02 0. -1.
        2   -1    0    0  501    0  0.00000000000E+00  0.00000000000E+00 -0.80919654868E+03  0.80919654868E+03  0.25500000920E-02 0.  1.
    10030    2    1    2    0    0  0.00000000000E+00  0.00000000000E+00 -0.61536445790E+03  0.10030286395E+04  0.79208145765E+03 0.  0.
        4    1    3    3  502    0  0.38365644556E+03 -0.89700526584E+02 -0.25689990037E+03  0.47035903775E+03  0.12699999809E+01 0.  1.
       -4    1    3    3    0  502 -0.38365644556E+03  0.89700526584E+02 -0.35846455754E+03  0.53266960172E+03  0.12699999809E+01 0. -1.
</event>
<event>
 5   0  0.6517392E-03  0.7985665E+03  0.7818609E-02  0.9562094E-01
        1   -1    0    0  501    0  0.00000000000E+00  0.00000000000E+00  0.15078552249E+04  0.15078552249E+04  0.50400001928E-02 0. -1.
       -1   -1    0    0    0  501  0.00000000000E+00  0.00000000000E+00 -0.10573105698E+03  0.10573105710E+03  0.50400001928E-02 0.  1.
    10030    2    1    2    0    0  0.00000000000E+00  0.00000000000E+00  0.14021241679E+04  0.16135862820E+04  0.79856653276E+03 0.  0.
        3    1    3    3  502    0 -0.12002369596E+03 -0.70265532387E+02  0.14573299369E+04  0.14639513270E+04  0.10100000352E+00 0. -1.
       -3    1    3    3    0  502  0.12002369596E+03  0.70265532387E+02 -0.55205768974E+02  0.14963495502E+03  0.10100000352E+00 0.  1.
</event>
<event>
 5   0  0.1092868E-02  0.7938481E+03  0.7818609E-02  0.9568965E-01
        2   -1    0    0  501    0  0.00000000000E+00  0.00000000000E+00  0.21784881503E+03  0.21784881504E+03  0.25500000920E-02 0. -1.
       -2   -1    0    0    0  501  0.00000000000E+00  0.00000000000E+00 -0.72320194300E+03  0.72320194301E+03  0.25500000920E-02 0.  1.
    10030    2    1    2    0    0  0.00000000000E+00  0.00000000000E+00 -0.50535312797E+03  0.94105075805E+03  0.79384806183E+03 0.  0.
        3    1    3    3  502    0 -0.30503514070E+03 -0.24416728513E+03 -0.33552591151E+03  0.51501625963E+03  0.10100000352E+00 0. -1.
       -3    1    3    3    0  502  0.30503514070E+03  0.24416728513E+03 -0.16982721646E+03  0.42603449842E+03  0.10100000352E+00 0.  1.
</event>
<event>
 5   0  0.6551489E-03  0.7670044E+03  0.7818609E-02  0.9609044E-01
       -1   -1    0    0    0  501  0.00000000000E+00  0.00000000000E+00  0.94920551990E+02  0.94920552124E+02  0.50400001928E-02 0. -1.
        1   -1    0    0  501    0  0.00000000000E+00  0.00000000000E+00 -0.15494425212E+04  0.15494425212E+04  0.50400001928E-02 0.  1.
    10030    2    1    2    0    0  0.00000000000E+00  0.00000000000E+00 -0.14545219692E+04  0.16443630733E+04  0.76700440547E+03 0.  0.
        4    1    3    3  502    0 -0.22574096685E+03  0.14765428194E+03 -0.14283699705E+03  0.30522908072E+03  0.12699999809E+01 0. -1.
       -4    1    3    3    0  502  0.22574096685E+03 -0.14765428194E+03 -0.13116849721E+04  0.13391339926E+04  0.12699999809E+01 0.  1.
</event>
<event>
 5   0  0.1106332E-02  0.8019679E+03  0.7818609E-02  0.9557173E-01
        2   -1    0    0  501    0  0.00000000000E+00  0.00000000000E+00  0.72294252060E+03  0.72294252060E+03  0.25500000920E-02 0.  1.
       -2   -1    0    0    0  501  0.00000000000E+00  0.00000000000E+00 -0.22240789360E+03  0.22240789361E+03  0.25500000920E-02 0. -1.
    10030    2    1    2    0    0  0.00000000000E+00  0.00000000000E+00  0.50053462700E+03  0.94535041421E+03  0.80196788765E+03 0.  0.
        1    1    3    3  502    0 -0.58997593433E+02  0.23337377743E+03  0.62829665002E+03  0.67283037720E+03  0.50400001928E-02 0.  1.
       -1    1    3    3    0  502  0.58997593433E+02 -0.23337377743E+03 -0.12776202302E+03  0.27252003702E+03  0.50400001928E-02 0. -1.
</event>
<event>
 5   0  0.6596225E-03  0.8015439E+03  0.7818609E-02  0.9557785E-01
       -1   -1    0    0    0  501  0.00000000000E+00  0.00000000000E+00  0.19148682967E+03  0.19148682974E+03  0.50400001928E-02 0.  1.
        1   -1    0    0  501    0  0.00000000000E+00  0.00000000000E+00 -0.83879477042E+03  0.83879477044E+03  0.50400001928E-02 0. -1.
    10030    2    1    2    0    0  0.00000000000E+00  0.00000000000E+00 -0.64730794075E+03  0.10302816002E+04  0.80154388869E+03 0.  0.
        5    1    3    3  502    0  0.40583504707E+02  0.37933337922E+03 -0.48136871756E+03  0.61423022206E+03  0.46999998093E+01 0. -1.
       -5    1    3    3    0  502 -0.40583504707E+02 -0.37933337922E+03 -0.16593922319E+03  0.41605137812E+03  0.46999998093E+01 0.  1.
</event>
<event>
 5   0  0.6551489E-03  0.7960126E+03  0.7818609E-02  0.9565807E-01
       -1   -1    0    0    0  501  0.00000000000E+00  0.00000000000E+00  0.17734430075E+03  0.17734430083E+03  0.50400001928E-02 0.  1.
        1   -1    0    0  501    0  0.00000000000E+00  0.00000000000E+00 -0.89322873255E+03  0.89322873257E+03  0.50400001928E-02 0. -1.
    10030    2    1    2    0    0  0.00000000000E+00  0.00000000000E+00 -0.71588443180E+03  0.10705730334E+04  0.79601262561E+03 0.  0.
        4    1    3    3  502    0 -0.87686809158E+02  0.30775050958E+03 -0.67623119890E+03  0.74812405382E+03  0.12699999809E+01 0. -1.
       -4    1    3    3    0  502  0.87686809158E+02 -0.30775050958E+03 -0.39653232897E+02  0.32244897957E+03  0.12699999809E+01 0.  1.
</event>
<event>
 5   0  0.1092868E-02  0.7784172E+03  0.7818609E-02  0.9591794E-01
        2   -1    0    0  501    0  0.00000000000E+00  0.00000000000E+00  0.93383061203E+03  0.93383061204E+03  0.25500000920E-02 0.  1.
       -2   -1    0    0    0  501  0.00000000000E+00  0.00000000000E+00 -0.16221712872E+03  0.16221712874E+03  0.25500000920E-02 0. -1.
    10030    2    1    2    0    0  0.00000000000E+00  0.00000000000E+00  0.77161348331E+03  0.10960477408E+04  0.77841716479E+03 0.  0.
        3    1    3    3  502    0 -0.26254209860E+03  0.25323881747E+03  0.19467997999E+03  0.41347134969E+03  0.10100000352E+00 0. -1.
       -3    1    3    3    0  502  0.26254209860E+03 -0.25323881747E+03  0.57693350332E+03  0.68257639108E+03  0.10100000352E+00 0.  1.
</event>
<event>
 5   0  0.6596225E-03  0.8005302E+03  0.7818609E-02  0.9559250E-01
        1   -1    0    0  501    0  0.00000000000E+00  0.00000000000E+00  0.87094324562E+03  0.87094324563E+03  0.50400001928E-02 0. -1.
       -1   -1    0    0    0  501  0.00000000000E+00  0.00000000000E+00 -0.18395246700E+03  0.18395246707E+03  0.50400001928E-02 0.  1.
    10030    2    1    2    0    0  0.00000000000E+00  0.00000000000E+00  0.68699077862E+03  0.10548957127E+04  0.80053022101E+03 0.  0.
        5    1    3    3  502    0  0.36249429455E+03 -0.12685422948E+03  0.19501655102E+03  0.43075242807E+03  0.46999998093E+01 0.  1.
       -5    1    3    3    0  502 -0.36249429455E+03  0.12685422948E+03  0.49197422760E+03  0.62414328462E+03  0.46999998093E+01 0. -1.
</event>
<event>
 5   0  0.6517392E-03  0.8108694E+03  0.7818609E-02  0.9544416E-01
        1   -1    0    0  501    0  0.00000000000E+00  0.00000000000E+00  0.12094033523E+04  0.12094033523E+04  0.50400001928E-02 0.  1.
       -1   -1    0    0    0  501  0.00000000000E+00  0.00000000000E+00 -0.13591600865E+03  0.13591600875E+03  0.50400001928E-02 0. -1.
    10030    2    1    2    0    0  0.00000000000E+00  0.00000000000E+00  0.10734873437E+04  0.13453193611E+04  0.81086935217E+03 0.  0.
        3    1    3    3  502    0 -0.35673177540E+03 -0.15109853509E+03  0.33842002271E+03  0.51440883435E+03  0.10100000352E+00 0. -1.
       -3    1    3    3    0  502  0.35673177540E+03  0.15109853509E+03  0.73506732097E+03  0.83091052674E+03  0.10100000352E+00 0.  1.
</event>
<event>
 5   0  0.6600401E-03  0.7999008E+03  0.7818609E-02  0.9560161E-01
        1   -1    0    0  501    0  0.00000000000E+00  0.00000000000E+00  0.11117151168E+04  0.11117151168E+04  0.50400001928E-02 0. -1.
       -1   -1    0    0    0  501  0.00000000000E+00  0.00000000000E+00 -0.14388608993E+03  0.14388609001E+03  0.50400001928E-02 0.  1.
    10030    2    1    2    0    0  0.00000000000E+00  0.00000000000E+00  0.96782902689E+03  0.12556012068E+04  0.79990084719E+03 0.  0.
        2    1    3    3  502    0  0.38049617036E+03 -0.77518559717E+02  0.33356845000E+03  0.51191246673E+03  0.25500000920E-02 0.  1.
       -2    1    3    3    0  502 -0.38049617036E+03  0.77518559717E+02  0.63426057689E+03  0.74368874011E+03  0.25500000920E-02 0. -1.
</event>
<event>
 5   0  0.1121480E-02  0.7959026E+03  0.7818609E-02  0.9565967E-01
       -2   -1    0    0    0  501  0.00000000000E+00  0.00000000000E+00  0.15910102679E+03  0.15910102681E+03  0.25500000920E-02 0.  1.
        2   -1    0    0  501    0  0.00000000000E+00  0.00000000000E+00 -0.99537531271E+03  0.99537531271E+03  0.25500000920E-02 0. -1.
    10030    2    1    2    0    0  0.00000000000E+00  0.00000000000E+00 -0.83627428592E+03  0.11544763395E+04  0.79590259280E+03 0.  0.
        2    1    3    3  502    0  0.86501336323E+02 -0.59271392504E+02 -0.97497550947E+03  0.98059819663E+03  0.25500000920E-02 0. -1.
       -2    1    3    3    0  502 -0.86501336323E+02  0.59271392504E+02  0.13870122355E+03  0.17387814290E+03  0.25500000920E-02 0.  1.
</event>
<event>
 5   0  0.6600401E-03  0.8000503E+03  0.7818609E-02  0.9559944E-01
       -1   -1    0    0    0  501  0.00000000000E+00  0.00000000000E+00  0.12446116840E+03  0.12446116850E+03  0.50400001928E-02 0. -1.
        1   -1    0    0  501    0  0.00000000000E+00  0.00000000000E+00 -0.12857031512E+04  0.12857031513E+04  0.50400001928E-02 0.  1.
    10030    2    1    2    0    0  0.00000000000E+00  0.00000000000E+00 -0.11612419828E+04  0.14101643197E+04  0.80005028965E+03 0.  0.
        2    1    3    3  502    0 -0.21203135851E+03  0.21136932939E+01  0.17255544180E+02  0.21274284595E+03  0.25500000920E-02 0. -1.
       -2    1    3    3    0  502  0.21203135851E+03 -0.21136932939E+01 -0.11784975270E+04  0.11974214738E+04  0.25500000920E-02 0.  1.
</event>
<event>
 5   0  0.6600401E-03  0.7785836E+03  0.7818609E-02  0.9591544E-01
        1   -1    0    0  501    0  0.00000000000E+00  0.00000000000E+00  0.59413412434E+03  0.59413412436E+03  0.50400001928E-02 0. -1.
       -1   -1    0    0    0  501  0.00000000000E+00  0.00000000000E+00 -0.25507389112E+03  0.25507389117E+03  0.50400001928E-02 0.  1.
    10030    2    1    2    0    0  0.00000000000E+00  0.00000000000E+00  0.33906023322E+03  0.84920801552E+03  0.77858359338E+03 0.  0.
        2    1    3    3  502    0 -0.26516257471E+03 -0.25588452602E+03  0.30645653131E+03  0.47927412540E+03  0.25500000920E-02 0. -1.
       -2    1    3    3    0  502  0.26516257471E+03  0.25588452602E+03  0.32603701907E+02  0.36993389013E+03  0.25500000920E-02 0.  1.
</event>
<event>
 5   0  0.6517392E-03  0.7660082E+03  0.7818609E-02  0.9610565E-01
        1   -1    0    0  501    0  0.00000000000E+00  0.00000000000E+00  0.27369605350E+03  0.27369605354E+03  0.50400001928E-02 0.  1.
       -1   -1    0    0    0  501  0.00000000000E+00  0.00000000000E+00 -0.53596729658E+03  0.53596729660E+03  0.50400001928E-02 0. -1.
    10030    2    1    2    0    0  0.00000000000E+00  0.00000000000E+00 -0.26227124308E+03  0.80966335015E+03  0.76600818248E+03 0.  0.
        3    1    3    3  502    0  0.35604674338E+03 -0.14090810503E+03 -0.13983550524E+03  0.40764979610E+03  0.10100000352E+00 0. -1.
       -3    1    3    3    0  502 -0.35604674338E+03  0.14090810503E+03 -0.12243573784E+03  0.40201355404E+03  0.10100000352E+00 0.  1.
</event>
<event>
 5   0  0.1106332E-02  0.7430355E+03  0.7818609E-02  0.9646340E-01
       -2   -1    0    0    0  501  0.00000000000E+00  0.00000000000E+00  0.18005342815E+03  0.18005342816E+03  0.25500000920E-02 0.  1.
        2   -1    0    0  501    0  0.00000000000E+00  0.00000000000E+00 -0.76658049711E+03  0.76658049711E+03  0.25500000920E-02 0. -1.
    10030    2    1    2    0    0  0.00000000000E+00  0.00000000000E+00 -0.58652706896E+03  0.94663392527E+03  0.74303552126E+03 0.  0.
        1    1    3    3  502    0 -0.30836563480E+03 -0.16420170075E+03 -0.13224430626E+03  0.37355069243E+03  0.50400001928E-02 0. -1.
       -1    1    3    3    0  502  0.30836563480E+03  0.16420170075E+03 -0.45428276270E+03  0.57308323284E+03  0.50400001928E-02 0.  1.
</event>
<event>
 5   0  0.4385875E-03  0.7907510E+03  0.7818609E-02  0.9573502E-01
       -3   -1    0    0    0  501  0.00000000000E+00  0.00000000000E+00  0.18507855472E+03  0.18507858228E+03  0.10100000352E+00 0. -1.
        3   -1    0    0  501    0  0.00000000000E+00  0.00000000000E+00 -0.84462394249E+03  0.84462394853E+03  0.10100000352E+00 0.  1.
    10030    2    1    2    0    0  0.00000000000E+00  0.00000000000E+00 -0.65954538777E+03  0.10297025308E+04  0.79075102494E+03 0.  0.
        3    1    3    3  502    0  0.46938188432E+01 -0.37918685316E+03 -0.18408475407E+03  0.42153518053E+03  0.10100000352E+00 0.  1.
       -3    1    3    3    0  502 -0.46938188432E+01  0.37918685316E+03 -0.47546063370E+03  0.60816735028E+03  0.10100000352E+00 0. -1.
</event>
<event>
 5   0  0.1119792E-02  0.7884693E+03  0.7818609E-02  0.9576859E-01
        2   -1    0    0  501    0  0.00000000000E+00  0.00000000000E+00  0.20345030523E+03  0.20345030525E+03  0.25500000920E-02 0. -1.
       -2   -1    0    0    0  501  0.00000000000E+00  0.00000000000E+00 -0.76392593199E+03  0.76392593199E+03  0.25500000920E-02 0.  1.
    10030    2    1    2    0    0  0.00000000000E+00  0.00000000000E+00 -0.56047562676E+03  0.96737623724E+03  0.78846931214E+03 0.  0.
        4    1    3    3  502    0  0.28816746873E+03 -0.18691103792E+03 -0.42829094650E+02  0.34613894664E+03  0.12699999809E+01 0. -1.
       -4    1    3    3    0  502 -0.28816746873E+03  0.18691103792E+03 -0.51764653211E+03  0.62123729060E+03  0.12699999809E+01 0.  1.
</event>
<event>
 5   0  0.6557679E-03  0.8029175E+03  0.7818609E-02  0.9555804E-01
       -1   -1    0    0    0  501  0.00000000000E+00  0.00000000000E+00  0.31257901018E+03  0.31257901022E+03  0.50400001928E-02 0. -1.
        1   -1    0    0  501    0  0.00000000000E+00  0.00000000000E+00 -0.51561083696E+03  0.51561083698E+03  0.50400001928E-02 0.  1.
    10030    2    1    2    0    0  0.00000000000E+00  0.00000000000E+00 -0.20303182678E+03  0.82818984720E+03  0.80291749285E+03 0.  0.
        1    1    3    3  502    0 -0.21805815987E+03  0.26443050712E+03  0.11410017840E+03  0.36123635603E+03  0.50400001928E-02 0. -1.
       -1    1    3    3    0  502  0.21805815987E+03 -0.26443050712E+03 -0.31713200518E+03  0.46695349117E+03  0.50400001928E-02 0.  1.
</event>
<event>
 5   0  0.1106332E-02  0.8037132E+03  0.7818609E-02  0.9554658E-01
        2   -1    0    0  501    0  0.00000000000E+00  0.00000000000E+00  0.16142249754E+04  0.16142249754E+04  0.25500000920E-02 0. -1.
       -2   -1    0    0    0  501  0.00000000000E+00  0.00000000000E+00 -0.10004103630E+03  0.10004103634E+03  0.25500000920E-02 0.  1.
    10030    2    1    2    0    0  0.00000000000E+00  0.00000000000E+00  0.15141839391E+04  0.17142660117E+04  0.80371323094E+03 0.  0.
        1    1    3    3  502    0 -0.37737556256E+03 -0.13645101169E+03  0.80271606533E+03  0.89743204499E+03  0.50400001928E-02 0. -1.
       -1    1    3    3    0  502  0.37737556256E+03  0.13645101169E+03  0.71146787377E+03  0.81683396675E+03  0.50400001928E-02 0.  1.
</event>
<event>
 5   0  0.1119792E-02  0.8013531E+03  0.7818609E-02  0.9558061E-01
        2   -1    0    0  501    0  0.00000000000E+00  0.00000000000E+00  0.10513089512E+04  0.10513089512E+04  0.25500000920E-02 0.  1.
       -2   -1    0    0    0  501  0.00000000000E+00  0.00000000000E+00 -0.15270649934E+03  0.15270649936E+03  0.25500000920E-02 0. -1.
    10030    2    1    2    0    0  0.00000000000E+00  0.00000000000E+00  0.89860245190E+03  0.12040154506E+04  0.80135312986E+03 0.  0.
        4    1    3    3  502    0  0.18641253914E+03 -0.35182321505E+03  0.51667672536E+03  0.65229261902E+03  0.12699999809E+01 0.  1.
       -4    1    3    3    0  502 -0.18641253914E+03  0.35182321505E+03  0.38192572653E+03  0.55172283158E+03  0.12699999809E+01 0. -1.
</event>
<event>
 5   0  0.1154714E-02  0.8039267E+03  0.7818609E-02  0.9554351E-01
       -2   -1    0    0    0  501  0.00000000000E+00  0.00000000000E+00  0.11471479732E+03  0.11471479735E+03  0.25500000920E-02 0.  1.
        2   -1    0    0  501    0  0.00000000000E+00  0.00000000000E+00 -0.14084890215E+04  0.14084890215E+04  0.25500000920E-02 0. -1.
    10030    2    1    2    0    0  0.00000000000E+00  0.00000000000E+00 -0.12937742242E+04  0.15232038189E+04  0.80392669480E+03 0.  0.
        5    1    3    3  502    0  0.15940130812E+03 -0.72201235433E+02  0.38699340740E+02  0.17928057452E+03  0.46999998093E+01 0.  1.
       -5    1    3    3    0  502 -0.15940130812E+03  0.72201235433E+02 -0.13324735650E+04  0.13439232444E+04  0.46999998093E+01 0. -1.
</event>
<event>
 5   0  0.1106332E-02  0.7837945E+03  0.7818609E-02  0.9583775E-01
       -2   -1    0    0    0  501  0.00000000000E+00  0.00000000000E+00  0.12593409889E+03  0.12593409891E+03  0.25500000920E-02 0. -1.
        2   -1    0    0  501    0  0.00000000000E+00  0.00000000000E+00 -0.12195541153E+04  0.12195541153E+04  0.25500000920E-02 0.  1.
    10030    2    1    2    0    0  0.00000000000E+00  0.00000000000E+00 -0.10936200165E+04  0.13454882143E+04  0.78379448475E+03 0.  0.
        1    1    3    3  502    0 -0.12457207409E+02  0.22219897171E+03  0.69365185733E+01  0.22265596861E+03  0.50400001928E-02 0. -1.
       -1    1    3    3    0  502  0.12457207409E+02 -0.22219897171E+03 -0.11005565350E+04  0.11228322456E+04  0.50400001928E-02 0.  1.
</event>
<event>
 5   0  0.1154714E-02  0.7933173E+03  0.7818609E-02  0.9569741E-01
        2   -1    0    0  501    0  0.00000000000E+00  0.00000000000E+00  0.16654266724E+04  0.16654266724E+04  0.25500000920E-02 0. -1.
       -2   -1    0    0    0  501  0.00000000000E+00  0.00000000000E+00 -0.94473148283E+02  0.94473148317E+02  0.25500000920E-02 0.  1.
    10030    2    1    2    0    0  0.00000000000E+00  0.00000000000E+00  0.15709535241E+04  0.17598998207E+04  0.79331734132E+03 0.  0.
        5    1    3    3  502    0 -0.19423356551E+02 -0.10001002904E+03  0.16358433678E+04  0.16390194894E+04  0.46999998093E+01 0. -1.
       -5    1    3    3    0  502  0.19423356551E+02  0.10001002904E+03 -0.64889843675E+02  0.12088033132E+03  0.46999998093E+01 0.  1.
</event>
<event>
 5   0  0.1106332E-02  0.8316526E+03  0.7818609E-02  0.9515299E-01
        2   -1    0    0  501    0  0.00000000000E+00  0.00000000000E+00  0.68383176639E+03  0.68383176640E+03  0.25500000920E-02 0. -1.
       -2   -1    0    0    0  501  0.00000000000E+00  0.00000000000E+00 -0.25285677341E+03  0.25285677342E+03  0.25500000920E-02 0.  1.
    10030    2    1    2    0    0  0.00000000000E+00  0.00000000000E+00  0.43097499298E+03  0.93668853982E+03  0.83165255730E+03 0.  0.
        1    1    3    3  502    0  0.28481866100E+03  0.19484654243E+03  0.47679018830E+03  0.58857092048E+03  0.50400001928E-02 0. -1.
       -1    1    3    3    0  502 -0.28481866100E+03 -0.19484654243E+03 -0.45815195312E+02  0.34811761934E+03  0.50400001928E-02 0.  1.
</event>
<event>
 5   0  0.6551489E-03  0.8024744E+03  0.7818609E-02  0.9556442E-01
        1   -1    0    0  501    0  0.00000000000E+00  0.00000000000E+00  0.44923998519E+03  0.44923998522E+03  0.50400001928E-02 0. -1.
       -1   -1    0    0    0  501  0.00000000000E+00  0.00000000000E+00 -0.35836370217E+03  0.35836370221E+03  0.50400001928E-02 0.  1.
    10030    2    1    2    0    0  0.00000000000E+00  0.00000000000E+00  0.90876283014E+02  0.80760368743E+03  0.80247443394E+03 0.  0.
        4    1    3    3  502    0 -0.96056893851E+02 -0.19618071472E+02 -0.34612185880E+03  0.35974122591E+03  0.12699999809E+01 0.  1.
       -4    1    3    3    0  502  0.96056893851E+02  0.19618071472E+02  0.43699814181E+03  0.44786246151E+03  0.12699999809E+01 0. -1.
</event>
<event>
 5   0  0.6517392E-03  0.7984450E+03  0.7818609E-02  0.9562271E-01
       -1   -1    0    0    0  501  0.00000000000E+00  0.00000000000E+00  0.66542302970E+03  0.66542302972E+03  0.50400001928E-02 0.  1.
        1   -1    0    0  501    0  0.00000000000E+00  0.00000000000E+00 -0.23951472864E+03  0.23951472870E+03  0.50400001928E-02 0. -1.
    10030    2    1    2    0    0  0.00000000000E+00  0.00000000000E+00  0.42590830106E+03  0.90493775841E+03  0.79844502985E+03 0.  0.
        3    1    3    3  502    0 -0.38323993600E+03  0.11159817698E+03  0.22109590058E+03  0.45630078798E+03  0.10100000352E+00 0.  1.
       -3    1    3    3    0  502  0.38323993600E+03 -0.11159817698E+03  0.20481240047E+03  0.44863697044E+03  0.10100000352E+00 0. -1.
</event>
<event>
 5   0  0.1106332E-02  0.7693530E+03  0.7818609E-02  0.9605468E-01
       -2   -1    0    0    0  501  0.00000000000E+00  0.00000000000E+00  0.10011016167E+03  0.10011016170E+03  0.25500000920E-02 0. -1.
        2   -1    0    0  501    0  0.00000000000E+00  0.00000000000E+00 -0.14781315871E+04  0.14781315871E+04  0.25500000920E-02 0.  1.
    10030    2    1    2    0    0  0.00000000000E+00  0.00000000000E+00 -0.13780214254E+04  0.15782417488E+04  0.76935295456E+03 0.  0.
        1    1    3    3  502    0 -0.68643701263E+02  0.32662447366E+03 -0.10813598001E+04  0.11316954192E+04  0.50400001928E-02 0.  1.
       -1    1    3    3    0  502  0.68643701263E+02 -0.32662447366E+03 -0.29666162533E+03  0.44654632961E+03  0.50400001928E-02 0. -1.
</event>
<event>
 5   0  0.6600401E-03  0.7935430E+03  0.7818609E-02  0.9569411E-01
        1   -1    0    0  501    0  0.00000000000E+00  0.00000000000E+00  0.52597528951E+03  0.52597528954E+03  0.50400001928E-02 0.  1.
       -1   -1    0    0    0  501  0.00000000000E+00  0.00000000000E+00 -0.29930611043E+03  0.29930611048E+03  0.50400001928E-02 0. -1.
    10030    2    1    2    0    0  0.00000000000E+00  0.00000000000E+00  0.22666917908E+03  0.82528140001E+03  0.79354298716E+03 0.  0.
        2    1    3    3  502    0  0.39237417675E+03 -0.58736839173E+02  0.10867113273E+03  0.41135984971E+03  0.25500000920E-02 0.  1.
       -2    1    3    3    0  502 -0.39237417675E+03  0.58736839173E+02  0.11799804634E+03  0.41392155030E+03  0.25500000920E-02 0. -1.
</event>
<event>
 5   0  0.1121480E-02  0.8143097E+03  0.7818609E-02  0.9539532E-01
       -2   -1    0    0    0  501  0.00000000000E+00  0.00000000000E+00  0.93523547114E+02  0.93523547149E+02  0.25500000920E-02 0.  1.
        2   -1    0    0  501    0  0.00000000000E+00  0.00000000000E+00 -0.17725488716E+04  0.17725488716E+04  0.25500000920E-02 0. -1.
    10030    2    1    2    0    0  0.00000000000E+00  0.00000000000E+00 -0.16790253245E+04  0.18660724188E+04  0.81430966577E+03 0.  0.
        2    1    3    3  502    0  0.26669542460E+03  0.20738210041E+03 -0.31875295619E+03  0.46447522233E+03  0.25500000920E-02 0.  1.
       -2    1    3    3    0  502 -0.26669542460E+03 -0.20738210041E+03 -0.13602723683E+04  0.14015971965E+04  0.25500000920E-02 0. -1.
</event>
<event>
 5   0  0.6551489E-03  0.7972504E+03  0.7818609E-02  0.9564006E-01
       -1   -1    0    0    0  501  0.00000000000E+00  0.00000000000E+00  0.56831756361E+03  0.56831756364E+03  0.50400001928E-02 0.  1.
        1   -1    0    0  501    0  0.00000000000E+00  0.00000000000E+00 -0.27960082953E+03  0.27960082957E+03  0.50400001928E-02 0. -1.
    10030    2    1    2    0    0  0.00000000000E+00  0.00000000000E+00  0.28871673408E+03  0.84791839321E+03  0.79725043054E+03 0.  0.
        4    1    3    3  502    0  0.24272386513E+03  0.15772173640E+03 -0.14712013067E+03  0.32471058897E+03  0.12699999809E+01 0. -1.
       -4    1    3    3    0  502 -0.24272386513E+03 -0.15772173640E+03  0.43583686476E+03  0.52320780424E+03  0.12699999809E+01 0.  1.
</event>
<event>
 5   0  0.1154714E-02  0.8039611E+03  0.7818609E-02  0.9554301E-01
       -2   -1    0    0    0  501  0.00000000000E+00  0.00000000000E+00  0.27085146570E+03  0.27085146572E+03  0.25500000920E-02 0.  1.
        2   -1    0    0  501    0  0.00000000000E+00  0.00000000000E+00 -0.59659405956E+03  0.59659405956E+03  0.25500000920E-02 0. -1.
    10030    2    1    2    0    0  0.00000000000E+00  0.00000000000E+00 -0.32574259385E+03  0.86744552528E+03  0.80396113207E+03 0.  0.
        5    1    3    3  502    0 -0.17696605488E+03 -0.36007724115E+03 -0.18916088871E+03  0.44359501348E+03  0.46999998093E+01 0.  1.
       -5    1    3    3    0  502  0.17696605488E+03  0.36007724115E+03 -0.13658170515E+03  0.42385051180E+03  0.46999998093E+01 0. -1.
</event>
<event>
 5   0  0.6551489E-03  0.8025630E+03  0.7818609E-02  0.9556315E-01
        1   -1    0    0  501    0  0.00000000000E+00  0.00000000000E+00  0.29877886121E+03  0.29877886126E+03  0.50400001928E-02 0. -1.
       -1   -1    0    0    0  501  0.00000000000E+00  0.00000000000E+00 -0.53894988979E+03  0.53894988981E+03  0.50400001928E-02 0.  1.
    10030    2    1    2    0    0  0.00000000000E+00  0.00000000000E+00 -0.24017102857E+03  0.83772875107E+03  0.80256298033E+03 0.  0.
        4    1    3    3  502    0  0.91820543558E+02 -0.37092154545E+03 -0.24797508596E+03  0.45552942963E+03  0.12699999809E+01 0.  1.
       -4    1    3    3    0  502 -0.91820543558E+02  0.37092154545E+03  0.78040573878E+01  0.38219932144E+03  0.12699999809E+01 0. -1.
</event>
<event>
 5   0  0.1106332E-02  0.7939694E+03  0.7818609E-02  0.9568787E-01
        2   -1    0    0  501    0  0.00000000000E+00  0.00000000000E+00  0.12823929520E+03  0.12823929523E+03  0.25500000920E-02 0.  1.
       -2   -1    0    0    0  501  0.00000000000E+00  0.00000000000E+00 -0.12289280286E+04  0.12289280286E+04  0.25500000920E-02 0. -1.
    10030    2    1    2    0    0  0.00000000000E+00  0.00000000000E+00 -0.11006887334E+04  0.13571673238E+04  0.79396943081E+03 0.  0.
        1    1    3    3  502    0  0.14766258241E+03 -0.26783345627E+03 -0.11771514992E+03  0.32771306823E+03  0.50400001928E-02 0.  1.
       -1    1    3    3    0  502 -0.14766258241E+03  0.26783345627E+03 -0.98297358348E+03  0.10294542556E+04  0.50400001928E-02 0. -1.
</event>
<event>
 5   0  0.6600401E-03  0.7984662E+03  0.7818609E-02  0.9562240E-01
       -1   -1    0    0    0  501  0.00000000000E+00  0.00000000000E+00  0.15352661574E+03  0.15352661582E+03  0.50400001928E-02 0.  1.
        1   -1    0    0  501    0  0.00000000000E+00  0.00000000000E+00 -0.10381722085E+04  0.10381722085E+04  0.50400001928E-02 0. -1.
    10030    2    1    2    0    0  0.00000000000E+00  0.00000000000E+00 -0.88464559277E+03  0.11916988243E+04  0.79846619410E+03 0.  0.
        2    1    3    3  502    0 -0.21823223992E+03 -0.27168220494E+03 -0.73307226345E+03  0.81168434410E+03  0.25500000920E-02 0.  1.
       -2    1    3    3    0  502  0.21823223992E+03  0.27168220494E+03 -0.15157332932E+03  0.38001448024E+03  0.25500000920E-02 0. -1.
</event>
<event>
 5   0  0.6600401E-03  0.7974739E+03  0.7818609E-02  0.9563681E-01
       -1   -1    0    0    0  501  0.00000000000E+00  0.00000000000E+00  0.12247024146E+03  0.12247024157E+03  0.50400001928E-02 0.  1.
        1   -1    0    0  501    0  0.00000000000E+00  0.00000000000E+00 -0.12982023088E+04  0.12982023088E+04  0.50400001928E-02 0. -1.
    10030    2    1    2    0    0  0.00000000000E+00  0.00000000000E+00 -0.11757320674E+04  0.14206725504E+04  0.79747388750E+03 0.  0.
        2    1    3    3  502    0 -0.32690009679E+03 -0.16222968252E+03 -0.30167029255E+03  0.47348401091E+03  0.25500000920E-02 0.  1.
       -2    1    3    3    0  502  0.32690009679E+03  0.16222968252E+03 -0.87406177480E+03  0.94718853949E+03  0.25500000920E-02 0. -1.
</event>
<event>
 5   0  0.6517392E-03  0.8038069E+03  0.7818609E-02  0.9554523E-01
        1   -1    0    0  501    0  0.00000000000E+00  0.00000000000E+00  0.14657846198E+04  0.14657846198E+04  0.50400001928E-02 0. -1.
       -1   -1    0    0    0  501  0.00000000000E+00  0.00000000000E+00 -0.11019789926E+03  0.11019789938E+03  0.50400001928E-02 0.  1.
    10030    2    1    2    0    0  0.00000000000E+00  0.00000000000E+00  0.13555867206E+04  0.15759825192E+04  0.80380690709E+03 0.  0.
        3    1    3    3  502    0 -0.41326116801E+02  0.26260391444E+03  0.86802778072E+02  0.27964870158E+03  0.10100000352E+00 0.  1.
       -3    1    3    3    0  502  0.41326116801E+02 -0.26260391444E+03  0.12687839425E+04  0.12963338176E+04  0.10100000352E+00 0. -1.
</event>
<event>
 5   0  0.6596225E-03  0.8000415E+03  0.7818609E-02  0.9559957E-01
        1   -1    0    0  501    0  0.00000000000E+00  0.00000000000E+00  0.10799572711E+04  0.10799572711E+04  0.50400001928E-02 0.  1.
       -1   -1    0    0    0  501  0.00000000000E+00  0.00000000000E+00 -0.14816939490E+03  0.14816939499E+03  0.50400001928E-02 0. -1.
    10030    2    1    2    0    0  0.00000000000E+00  0.00000000000E+00  0.93178787623E+03  0.12281266661E+04  0.80004153752E+03 0.  0.
        5    1    3    3  502    0  0.30807340769E+03  0.25260963904E+03  0.41110923826E+03  0.57249781663E+03  0.46999998093E+01 0. -1.
       -5    1    3    3    0  502 -0.30807340769E+03 -0.25260963904E+03  0.52067863797E+03  0.65562884950E+03  0.46999998093E+01 0.  1.
</event>
<event>
 5   0  0.6551489E-03  0.8018367E+03  0.7818609E-02  0.9557362E-01
        1   -1    0    0  501    0  0.00000000000E+00  0.00000000000E+00  0.52207040069E+03  0.52207040072E+03  0.50400001928E-02 0. -1.
       -1   -1    0    0    0  501  0.00000000000E+00  0.00000000000E+00 -0.30788095822E+03  0.30788095826E+03  0.50400001928E-02 0.  1.
    10030    2    1    2    0    0  0.00000000000E+00  0.00000000000E+00  0.21418944247E+03  0.82995135898E+03  0.80183672964E+03 0.  0.
        4    1    3    3  502    0 -0.58165370139E+02  0.10481346877E+03 -0.28889607190E+03  0.31278047698E+03  0.12699999809E+01 0.  1.
       -4    1    3    3    0  502  0.58165370139E+02 -0.10481346877E+03  0.50308551437E+03  0.51717088200E+03  0.12699999809E+01 0. -1.
</event>
<event>
 5   0  0.1119792E-02  0.8079238E+03  0.7818609E-02  0.9548618E-01
       -2   -1    0    0    0  501  0.00000000000E+00  0.00000000000E+00  0.26896288230E+03  0.26896288231E+03  0.25500000920E-02 0. -1.
        2   -1    0    0  501    0  0.00000000000E+00  0.00000000000E+00 -0.60672019960E+03  0.60672019960E+03  0.25500000920E-02 0.  1.
    10030    2    1    2    0    0  0.00000000000E+00  0.00000000000E+00 -0.33775731730E+03  0.87568308191E+03  0.80792379254E+03 0.  0.
        4    1    3    3  502    0  0.36629431163E+03 -0.27127322784E+02 -0.35113681764E+03  0.50813983506E+03  0.12699999809E+01 0.  1.
       -4    1    3    3    0  502 -0.36629431163E+03  0.27127322784E+02  0.13379500337E+02  0.36754324685E+03  0.12699999809E+01 0. -1.
</event>
<event>
 5   0  0.1106332E-02  0.8480310E+03  0.7818609E-02  0.9492984E-01
       -2   -1    0    0    0  501  0.00000000000E+00  0.00000000000E+00  0.11559857711E+03  0.11559857713E+03  0.25500000920E-02 0.  1.
        2   -1    0    0  501    0  0.00000000000E+00  0.00000000000E+00 -0.15552884494E+04  0.15552884494E+04  0.25500000920E-02 0. -1.
    10030    2    1    2    0    0  0.00000000000E+00  0.00000000000E+00 -0.14396898723E+04  0.16708870266E+04  0.84803097059E+03 0.  0.
        1    1    3    3  502    0 -0.18258911344E+03 -0.18915896630E+03 -0.64380967006E+02  0.27067472697E+03  0.50400001928E-02 0.  1.
       -1    1    3    3    0  502  0.18258911344E+03  0.18915896630E+03 -0.13753089053E+04  0.14002122996E+04  0.50400001928E-02 0. -1.
</event>
<event>
 5   0  0.1154714E-02  0.7967514E+03  0.7818609E-02  0.9564731E-01
       -2   -1    0    0    0  501  0.00000000000E+00  0.00000000000E+00  0.74602952251E+02  0.74602952294E+02  0.25500000920E-02 0.  1.
        2   -1    0    0  501    0  0.00000000000E+00  0.00000000000E+00 -0.21273042982E+04  0.21273042982E+04  0.25500000920E-02 0. -1.
    10030    2    1    2    0    0  0.00000000000E+00  0.00000000000E+00 -0.20527013460E+04  0.22019072505E+04  0.79675135653E+03 0.  0.
        5    1    3    3  502    0 -0.29530965927E+03 -0.26687100493E+03 -0.98237867037E+03  0.10599612588E+04  0.46999998093E+01 0. -1.
       -5    1    3    3    0  502  0.29530965927E+03  0.26687100493E+03 -0.10703226756E+04  0.11419459917E+04  0.46999998093E+01 0.  1.
</event>
<event>
 5   0  0.1121480E-02  0.8004050E+03  0.7818609E-02  0.9559431E-01
       -2   -1    0    0    0  501  0.00000000000E+00  0.00000000000E+00  0.12975638541E+03  0.12975638544E+03  0.25500000920E-02 0. -1.
        2   -1    0    0  501    0  0.00000000000E+00  0.00000000000E+00 -0.12343287378E+04  0.12343287378E+04  0.25500000920E-02 0.  1.
    10030    2    1    2    0    0  0.00000000000E+00  0.00000000000E+00 -0.11045723523E+04  0.13640851232E+04  0.80040498610E+03 0.  0.
        2    1    3    3  502    0 -0.17621597091E+02 -0.12936888299E+03  0.92438924184E+02  0.15997432070E+03  0.25500000920E-02 0. -1.
       -2    1    3    3    0  502  0.17621597091E+02  0.12936888299E+03 -0.11970112765E+04  0.12041108025E+04  0.25500000920E-02 0.  1.
</event>
<event>
 5   0  0.6600401E-03  0.7989994E+03  0.7818609E-02  0.9561467E-01
        1   -1    0    0  501    0  0.00000000000E+00  0.00000000000E+00  0.47435607834E+03  0.47435607837E+03  0.50400001928E-02 0.  1.
       -1   -1    0    0    0  501  0.00000000000E+00  0.00000000000E+00 -0.33645614753E+03  0.33645614757E+03  0.50400001928E-02 0. -1.
    10030    2    1    2    0    0  0.00000000000E+00  0.00000000000E+00  0.13789993081E+03  0.81081222593E+03  0.79899942103E+03 0.  0.
        2    1    3    3  502    0 -0.17067239656E+02 -0.19475588982E+03 -0.28459558159E+03  0.34527639993E+03  0.25500000920E-02 0. -1.
       -2    1    3    3    0  502  0.17067239656E+02  0.19475588982E+03  0.42249551239E+03  0.46553582600E+03  0.25500000920E-02 0.  1.
</event>
<event>
 5   0  0.6557679E-03  0.8375100E+03  0.7818609E-02  0.9507256E-01
        1   -1    0    0  501    0  0.00000000000E+00  0.00000000000E+00  0.12005974374E+04  0.12005974374E+04  0.50400001928E-02 0.  1.
       -1   -1    0    0    0  501  0.00000000000E+00  0.00000000000E+00 -0.14605707695E+03  0.14605707703E+03  0.50400001928E-02 0. -1.
    10030    2    1    2    0    0  0.00000000000E+00  0.00000000000E+00  0.10545403605E+04  0.13466545144E+04  0.83751000558E+03 0.  0.
        1    1    3    3  502    0 -0.78846354123E+02 -0.12433690223E+03 -0.10306845901E+03  0.17972067238E+03  0.50400001928E-02 0. -1.
       -1    1    3    3    0  502  0.78846354123E+02  0.12433690223E+03  0.11576088195E+04  0.11669338421E+04  0.50400001928E-02 0.  1.
</event>
<event>
 5   0  0.1154714E-02  0.7875417E+03  0.7818609E-02  0.9578227E-01
       -2   -1    0    0    0  501  0.00000000000E+00  0.00000000000E+00  0.25942940073E+03  0.25942940074E+03  0.25500000920E-02 0. -1.
        2   -1    0    0  501    0  0.00000000000E+00  0.00000000000E+00 -0.59767885035E+03  0.59767885036E+03  0.25500000920E-02 0.  1.
    10030    2    1    2    0    0  0.00000000000E+00  0.00000000000E+00 -0.33824944962E+03  0.85710825110E+03  0.78754165854E+03 0.  0.
        5    1    3    3  502    0  0.33926288057E+03 -0.16567476408E+03 -0.47513721027E+02  0.38056152363E+03  0.46999998093E+01 0.  1.
       -5    1    3    3    0  502 -0.33926288057E+03  0.16567476408E+03 -0.29073572859E+03  0.47654672747E+03  0.46999998093E+01 0. -1.
</event>
<event>
 5   0  0.1106332E-02  0.7987207E+03  0.7818609E-02  0.9561871E-01
        2   -1    0    0  501    0  0.00000000000E+00  0.00000000000E+00  0.58321277421E+03  0.58321277421E+03  0.25500000920E-02 0. -1.
       -2   -1    0    0    0  501  0.00000000000E+00  0.00000000000E+00 -0.27346568122E+03  0.27346568124E+03  0.25500000920E-02 0.  1.
    10030    2    1    2    0    0  0.00000000000E+00  0.00000000000E+00  0.30974709298E+03  0.85667845545E+03  0.79872067359E+03 0.  0.
        1    1    3    3  502    0  0.11349903101E+03  0.21939587863E+03 -0.18169963859E+03  0.30664530045E+03  0.50400001928E-02 0.  1.
       -1    1    3    3    0  502 -0.11349903101E+03 -0.21939587863E+03  0.49144673157E+03  0.55003315500E+03  0.50400001928E-02 0. -1.
</event>
<event>
 5   0  0.6596225E-03  0.7974258E+03  0.7818609E-02  0.9563751E-01
       -1   -1    0    0    0  501  0.00000000000E+00  0.00000000000E+00  0.19014626895E+03  0.19014626901E+03  0.50400001928E-02 0.  1.
        1   -1    0    0  501    0  0.00000000000E+00  0.00000000000E+00 -0.83605108721E+03  0.83605108723E+03  0.50400001928E-02 0. -1.
    10030    2    1    2    0    0  0.00000000000E+00  0.00000000000E+00 -0.64590481827E+03  0.10261973562E+04  0.79742584590E+03 0.  0.
        5    1    3    3  502    0 -0.19684510664E+03 -0.10954272355E+03  0.10035788631E+03  0.24666049468E+03  0.46999998093E+01 0.  1.
       -5    1    3    3    0  502  0.19684510664E+03  0.10954272355E+03 -0.74626270458E+03  0.77953686156E+03  0.46999998093E+01 0. -1.
</event>
<event>
 5   0  0.6517392E-03  0.7976812E+03  0.7818609E-02  0.9563380E-01
        1   -1    0    0  501    0  0.00000000000E+00  0.00000000000E+00  0.21686807720E+04  0.21686807720E+04  0.50400001928E-02 0.  1.
       -1   -1    0    0    0  501  0.00000000000E+00  0.00000000000E+00 -0.73350494212E+02  0.73350494386E+02  0.50400001928E-02 0. -1.
    10030    2    1    2    0    0  0.00000000000E+00  0.00000000000E+00  0.20953302778E+04  0.22420312664E+04  0.79768115590E+03 0.  0.
        3    1    3    3  502    0  0.27807256866E+03  0.23581835734E+03  0.59324452530E+03  0.69632875001E+03  0.10100000352E+00 0. -1.
       -3    1    3    3    0  502 -0.27807256866E+03 -0.23581835734E+03  0.15020857525E+04  0.15457025164E+04  0.10100000352E+00 0.  1.
</event>
<event>
 5   0  0.1154714E-02  0.8024168E+03  0.7818609E-02  0.9556525E-01
        2   -1    0    0  501    0  0.00000000000E+00  0.00000000000E+00  0.50099191874E+03  0.50099191875E+03  0.25500000920E-02 0. -1.
       -2   -1    0    0    0  501  0.00000000000E+00  0.00000000000E+00 -0.32129898941E+03  0.32129898942E+03  0.25500000920E-02 0.  1.
    10030    2    1    2    0    0  0.00000000000E+00  0.00000000000E+00  0.17969292934E+03  0.82229090817E+03  0.80241684230E+03 0.  0.
        5    1    3    3  502    0 -0.10125416223E+03 -0.37581935773E+03 -0.97908574871E+01  0.38937198911E+03  0.46999998093E+01 0. -1.
       -5    1    3    3    0  502  0.10125416223E+03  0.37581935773E+03  0.18948378682E+03  0.43291891906E+03  0.46999998093E+01 0.  1.
</event>
<event>
 5   0  0.6517392E-03  0.8037258E+03  0.7818609E-02  0.9554640E-01
       -1   -1    0    0    0  501  0.00000000000E+00  0.00000000000E+00  0.27582094384E+03  0.27582094389E+03  0.50400001928E-02 0.  1.
        1   -1    0    0  501    0  0.00000000000E+00  0.00000000000E+00 -0.58550221086E+03  0.58550221088E+03  0.50400001928E-02 0. -1.
    10030    2    1    2    0    0  0.00000000000E+00  0.00000000000E+00 -0.30968126701E+03  0.86132315477E+03  0.80372575535E+03 0.  0.
        3    1    3    3  502    0  0.10061581975E+03 -0.16533841222E+03 -0.53226298072E+03  0.56636050762E+03  0.10100000352E+00 0. -1.
       -3    1    3    3    0  502 -0.10061581975E+03  0.16533841222E+03  0.22258171371E+03  0.29496264716E+03  0.10100000352E+00 0.  1.
</event>
<event>
 5   0  0.1154714E-02  0.7999668E+03  0.7818609E-02  0.9560065E-01
       -2   -1    0    0    0  501  0.00000000000E+00  0.00000000000E+00  0.25799574631E+03  0.25799574632E+03  0.25500000920E-02 0.  1.
        2   -1    0    0  501    0  0.00000000000E+00  0.00000000000E+00 -0.62011379448E+03  0.62011379449E+03  0.25500000920E-02 0. -1.
    10030    2    1    2    0    0  0.00000000000E+00  0.00000000000E+00 -0.36211804817E+03  0.87810954081E+03  0.79996680234E+03 0.  0.
        5    1    3    3  502    0  0.74614729745E+02  0.51124945046E+02 -0.60870957100E+03  0.61541087879E+03  0.46999998093E+01 0. -1.
       -5    1    3    3    0  502 -0.74614729745E+02 -0.51124945046E+02  0.24659152283E+03  0.26269866203E+03  0.46999998093E+01 0.  1.
</event>
<event>
 5   0  0.6600401E-03  0.7988642E+03  0.7818609E-02  0.9561663E-01
       -1   -1    0    0    0  501  0.00000000000E+00  0.00000000000E+00  0.17518491608E+03  0.17518491615E+03  0.50400001928E-02 0. -1.
        1   -1    0    0  501    0  0.00000000000E+00  0.00000000000E+00 -0.91072916071E+03  0.91072916072E+03  0.50400001928E-02 0.  1.
    10030    2    1    2    0    0  0.00000000000E+00  0.00000000000E+00 -0.73554424463E+03  0.10859140769E+04  0.79886422285E+03 0.  0.
        2    1    3    3  502    0  0.33460906309E+03  0.15514267546E+03 -0.15933192748E+03  0.40177000631E+03  0.25500000920E-02 0. -1.
       -2    1    3    3    0  502 -0.33460906309E+03 -0.15514267546E+03 -0.57621231715E+03  0.68414407056E+03  0.25500000920E-02 0.  1.
</event>
<event>
 5   0  0.1106332E-02  0.8027090E+03  0.7818609E-02  0.9556104E-01
        2   -1    0    0  501    0  0.00000000000E+00  0.00000000000E+00  0.51154348501E+03  0.51154348502E+03  0.25500000920E-02 0.  1.
       -2   -1    0    0    0  501  0.00000000000E+00  0.00000000000E+00 -0.31490072766E+03  0.31490072767E+03  0.25500000920E-02 0. -1.
    10030    2    1    2    0    0  0.00000000000E+00  0.00000000000E+00  0.19664275735E+03  0.82644421269E+03  0.80270895266E+03 0.  0.
        1    1    3    3  502    0 -0.15531501893E+03  0.29680801977E+01 -0.28269404852E+03  0.32256393118E+03  0.50400001928E-02 0. -1.
       -1    1    3    3    0  502  0.15531501893E+03 -0.29680801977E+01  0.47933680587E+03  0.50388028151E+03  0.50400001928E-02 0.  1.
</event>
<event>
 5   0  0.6600401E-03  0.7980650E+03  0.7818609E-02  0.9562822E-01
        1   -1    0    0  501    0  0.00000000000E+00  0.00000000000E+00  0.36964217781E+03  0.36964217785E+03  0.50400001928E-02 0.  1.
       -1   -1    0    0    0  501  0.00000000000E+00  0.00000000000E+00 -0.43075968547E+03  0.43075968550E+03  0.50400001928E-02 0. -1.
    10030    2    1    2    0    0  0.00000000000E+00  0.00000000000E+00 -0.61117507655E+02  0.80040186335E+03  0.79806503063E+03 0.  0.
        2    1    3    3  502    0 -0.14325964256E+03 -0.11144329612E+03  0.32584641993E+03  0.37298635743E+03  0.25500000920E-02 0.  1.
       -2    1    3    3    0  502  0.14325964256E+03  0.11144329612E+03 -0.38696392759E+03  0.42741550592E+03  0.25500000920E-02 0. -1.
</event>
<event>
 5   0  0.1119792E-02  0.7947267E+03  0.7818609E-02  0.9567682E-01
        2   -1    0    0  501    0  0.00000000000E+00  0.00000000000E+00  0.12861025662E+03  0.12861025665E+03  0.25500000920E-02 0. -1.
       -2   -1    0    0    0  501  0.00000000000E+00  0.00000000000E+00 -0.12277217848E+04  0.12277217848E+04  0.25500000920E-02 0.  1.
    10030    2    1    2    0    0  0.00000000000E+00  0.00000000000E+00 -0.10991115282E+04  0.13563320415E+04  0.79472665447E+03 0.  0.
        4    1    3    3  502    0  0.30961338743E+03  0.32103461240E+02 -0.97108788137E+03  0.10197570143E+04  0.12699999809E+01 0.  1.
       -4    1    3    3    0  502 -0.30961338743E+03 -0.32103461240E+02 -0.12802364684E+03  0.33657502722E+03  0.12699999809E+01 0. -1.
</event>
<event>
 5   0  0.6551489E-03  0.7988607E+03  0.7818609E-02  0.9561668E-01
       -1   -1    0    0    0  501  0.00000000000E+00  0.00000000000E+00  0.82490470948E+03  0.82490470949E+03  0.50400001928E-02 0.  1.
        1   -1    0    0  501    0  0.00000000000E+00  0.00000000000E+00 -0.19340972098E+03  0.19340972104E+03  0.50400001928E-02 0. -1.
    10030    2    1    2    0    0  0.00000000000E+00  0.00000000000E+00  0.63149498850E+03  0.10183144305E+04  0.79886066303E+03 0.  0.
        4    1    3    3  502    0 -0.19550473585E+03 -0.21439248483E+02  0.75890118774E+03  0.78397344902E+03  0.12699999809E+01 0.  1.
       -4    1    3    3    0  502  0.19550473585E+03  0.21439248483E+02 -0.12740619924E+03  0.23434098152E+03  0.12699999809E+01 0. -1.
</event>
<event>
 5   0  0.4385875E-03  0.7986932E+03  0.7818609E-02  0.9561911E-01
       -4   -1    0    0    0  501  0.00000000000E+00  0.00000000000E+00  0.10457669637E+04  0.10457677348E+04  0.12699999809E+01 0.  1.
        4   -1    0    0  501    0  0.00000000000E+00  0.00000000000E+00 -0.15249484531E+03  0.15250013360E+03  0.12699999809E+01 0. -1.
    10030    2    1    2    0    0  0.00000000000E+00  0.00000000000E+00  0.89327211834E+03  0.11982678684E+04  0.79869318705E+03 0.  0.
        1    1    3    3  502    0 -0.33436385540E+03 -0.19451379050E+03  0.29779064677E+03  0.48817422282E+03  0.50400001928E-02 0.  1.
       -1    1    3    3    0  502  0.33436385540E+03  0.19451379050E+03  0.59548147157E+03  0.71009364559E+03  0.50400001928E-02 0. -1.
</event>
<event>
 5   0  0.6517392E-03  0.8001431E+03  0.7818609E-02  0.9559810E-01
        1   -1    0    0  501    0  0.00000000000E+00  0.00000000000E+00  0.36540638617E+03  0.36540638621E+03  0.50400001928E-02 0. -1.
       -1   -1    0    0    0  501  0.00000000000E+00  0.00000000000E+00 -0.43802531190E+03  0.43802531193E+03  0.50400001928E-02 0.  1.
    10030    2    1    2    0    0  0.00000000000E+00  0.00000000000E+00 -0.72618925727E+02  0.80343169813E+03  0.80014310295E+03 0.  0.
        3    1    3    3  502    0  0.96906354494E+02  0.37687012141E+03  0.56998813216E+02  0.39328209323E+03  0.10100000352E+00 0.  1.
       -3    1    3    3    0  502 -0.96906354494E+02 -0.37687012141E+03 -0.12961773894E+03  0.41014960490E+03  0.10100000352E+00 0. -1.
</event>
<event>
 5   0  0.6600401E-03  0.8007574E+03  0.7818609E-02  0.9558922E-01
       -1   -1    0    0    0  501  0.00000000000E+00  0.00000000000E+00  0.17699989723E+03  0.17699989731E+03  0.50400001928E-02 0.  1.
        1   -1    0    0  501    0  0.00000000000E+00  0.00000000000E+00 -0.90566767941E+03  0.90566767943E+03  0.50400001928E-02 0. -1.
    10030    2    1    2    0    0  0.00000000000E+00  0.00000000000E+00 -0.72866778218E+03  0.10826675767E+04  0.80075735708E+03 0.  0.
        2    1    3    3  502    0 -0.14158265296E+03  0.32265372558E+03 -0.62140923737E+03  0.71435321414E+03  0.25500000920E-02 0.  1.
       -2    1    3    3    0  502  0.14158265296E+03 -0.32265372558E+03 -0.10725854480E+03  0.36831436259E+03  0.25500000920E-02 0. -1.
</event>
<event>
 5   0  0.6517392E-03  0.8027577E+03  0.7818609E-02  0.9556034E-01
       -1   -1    0    0    0  501  0.00000000000E+00  0.00000000000E+00  0.95096831879E+02  0.95096832013E+02  0.50400001928E-02 0.  1.
        1   -1    0    0  501    0  0.00000000000E+00  0.00000000000E+00 -0.16941152715E+04  0.16941152715E+04  0.50400001928E-02 0. -1.
    10030    2    1    2    0    0  0.00000000000E+00  0.00000000000E+00 -0.15990184396E+04  0.17892121035E+04  0.80275773502E+03 0.  0.
        3    1    3    3  502    0  0.19263685730E+03  0.22175455464E+03 -0.18984751033E+03  0.34975152419E+03  0.10100000352E+00 0.  1.
       -3    1    3    3    0  502 -0.19263685730E+03 -0.22175455464E+03 -0.14091709293E+04  0.14394605793E+04  0.10100000352E+00 0. -1.
</event>
<event>
 5   0  0.6596225E-03  0.8017295E+03  0.7818609E-02  0.9557517E-01
       -1   -1    0    0    0  501  0.00000000000E+00  0.00000000000E+00  0.12029341549E+04  0.12029341549E+04  0.50400001928E-02 0. -1.
        1   -1    0    0  501    0  0.00000000000E+00  0.00000000000E+00 -0.13358382192E+03  0.13358382201E+03  0.50400001928E-02 0.  1.
    10030    2    1    2    0    0  0.00000000000E+00  0.00000000000E+00  0.10693503330E+04  0.13365179769E+04  0.80172948554E+03 0.  0.
        5    1    3    3  502    0 -0.15285822474E+03  0.22166877523E+03  0.10296713777E+04  0.10643063088E+04  0.46999998093E+01 0. -1.
       -5    1    3    3    0  502  0.15285822474E+03 -0.22166877523E+03  0.39678955231E+02  0.27221166813E+03  0.46999998093E+01 0.  1.
</event>
<event>
 5   0  0.6596225E-03  0.8017318E+03  0.7818609E-02  0.9557514E-01
        1   -1    0    0  501    0  0.00000000000E+00  0.00000000000E+00  0.61337157472E+03  0.61337157474E+03  0.50400001928E-02 0. -1.
       -1   -1    0    0    0  501  0.00000000000E+00  0.00000000000E+00 -0.26198389703E+03  0.26198389708E+03  0.50400001928E-02 0.  1.
    10030    2    1    2    0    0  0.00000000000E+00  0.00000000000E+00  0.35138767769E+03  0.87535547183E+03  0.80173181428E+03 0.  0.
        5    1    3    3  502    0 -0.12210954640E+03 -0.28768013600E+03  0.44974289373E+03  0.54768728525E+03  0.46999998093E+01 0. -1.
       -5    1    3    3    0  502  0.12210954640E+03  0.28768013600E+03 -0.98355216039E+02  0.32766818657E+03  0.46999998093E+01 0.  1.
</event>
<event>
 5   0  0.6596225E-03  0.8020759E+03  0.7818609E-02  0.9557017E-01
        1   -1    0    0  501    0  0.00000000000E+00  0.00000000000E+00  0.47816300167E+03  0.47816300170E+03  0.50400001928E-02 0. -1.
       -1   -1    0    0    0  501  0.00000000000E+00  0.00000000000E+00 -0.33635276685E+03  0.33635276689E+03  0.50400001928E-02 0.  1.
    10030    2    1    2    0    0  0.00000000000E+00  0.00000000000E+00  0.14181023482E+03  0.81451576859E+03  0.80207592819E+03 0.  0.
        5    1    3    3  502    0 -0.39944093175E+03  0.29490416672E+02  0.50937606299E+02  0.40378146610E+03  0.46999998093E+01 0.  1.
       -5    1    3    3    0  502  0.39944093175E+03 -0.29490416672E+02  0.90872628523E+02  0.41073430249E+03  0.46999998093E+01 0. -1.
</event>
<event>
 5   0  0.1119792E-02  0.7991894E+03  0.7818609E-02  0.9561191E-01
        2   -1    0    0  501    0  0.00000000000E+00  0.00000000000E+00  0.94066823339E+03  0.94066823339E+03  0.25500000920E-02 0.  1.
       -2   -1    0    0    0  501  0.00000000000E+00  0.00000000000E+00 -0.16974735092E+03  0.16974735093E+03  0.25500000920E-02 0. -1.
    10030    2    1    2    0    0  0.00000000000E+00  0.00000000000E+00  0.77092088248E+03  0.11104155843E+04  0.79918944117E+03 0.  0.
        4    1    3    3  502    0  0.20943366466E+03  0.97829848013E+02 -0.67418651349E+02  0.24079042029E+03  0.12699999809E+01 0. -1.
       -4    1    3    3    0  502 -0.20943366466E+03 -0.97829848013E+02  0.83833953383E+03  0.86962516404E+03  0.12699999809E+01 0.  1.
</event>
<event>
 5   0  0.6551489E-03  0.7994596E+03  0.7818609E-02  0.9560800E-01
       -1   -1    0    0    0  501  0.00000000000E+00  0.00000000000E+00  0.29203208062E+03  0.29203208066E+03  0.50400001928E-02 0.  1.
        1   -1    0    0  501    0  0.00000000000E+00  0.00000000000E+00 -0.54714503089E+03  0.54714503092E+03  0.50400001928E-02 0. -1.
    10030    2    1    2    0    0  0.00000000000E+00  0.00000000000E+00 -0.25511295027E+03  0.83917711158E+03  0.79945957196E+03 0.  0.
        4    1    3    3  502    0  0.31123102931E+03 -0.64835871067E+02  0.12679097302E+03  0.34226598943E+03  0.12699999809E+01 0.  1.
       -4    1    3    3    0  502 -0.31123102931E+03  0.64835871067E+02 -0.38190392329E+03  0.49691112214E+03  0.12699999809E+01 0. -1.
</event>
<event>
 5   0  0.1092868E-02  0.7994717E+03  0.7818609E-02  0.9560782E-01
        2   -1    0    0  501    0  0.00000000000E+00  0.00000000000E+00  0.20245139801E+04  0.20245139801E+04  0.25500000920E-02 0. -1.
       -2   -1    0    0    0  501  0.00000000000E+00  0.00000000000E+00 -0.78926960732E+02  0.78926960774E+02  0.25500000920E-02 0.  1.
    10030    2    1    2    0    0  0.00000000000E+00  0.00000000000E+00  0.19455870194E+04  0.21034409409E+04  0.79947166418E+03 0.  0.
        3    1    3    3  502    0  0.25751634258E+02  0.41772112817E+02 -0.70971997626E+02  0.86284939150E+02  0.10100000352E+00 0.  1.
       -3    1    3    3    0  502 -0.25751634258E+02 -0.41772112817E+02  0.20165590170E+04  0.20171560018E+04  0.10100000352E+00 0. -1.
</event>
<event>
 5   0  0.1106332E-02  0.8086132E+03  0.7818609E-02  0.9547633E-01
       -2   -1    0    0    0  501  0.00000000000E+00  0.00000000000E+00  0.58815805618E+02  0.58815805673E+02  0.25500000920E-02 0. -1.
        2   -1    0    0  501    0  0.00000000000E+00  0.00000000000E+00 -0.27792498065E+04  0.27792498065E+04  0.25500000920E-02 0.  1.
    10030    2    1    2    0    0  0.00000000000E+00  0.00000000000E+00 -0.27204340009E+04  0.28380656122E+04  0.80861317443E+03 0.  0.
        1    1    3    3  502    0 -0.51242867902E+02  0.44630271403E+02 -0.27590630782E+04  0.27598997739E+04  0.50400001928E-02 0.  1.
       -1    1    3    3    0  502  0.51242867902E+02 -0.44630271403E+02  0.38629077284E+02  0.78165838277E+02  0.50400001928E-02 0. -1.
</event>
<event>
 5   0  0.6551489E-03  0.8034115E+03  0.7818609E-02  0.9555092E-01
        1   -1    0    0  501    0  0.00000000000E+00  0.00000000000E+00  0.14905867161E+04  0.14905867161E+04  0.50400001928E-02 0. -1.
       -1   -1    0    0    0  501  0.00000000000E+00  0.00000000000E+00 -0.10825772358E+03  0.10825772370E+03  0.50400001928E-02 0.  1.
    10030    2    1    2    0    0  0.00000000000E+00  0.00000000000E+00  0.13823289925E+04  0.15988444398E+04  0.80341153785E+03 0.  0.
        4    1    3    3  502    0  0.58413811988E+02 -0.95683611736E+02 -0.76492575795E+02  0.13572123650E+03  0.12699999809E+01 0.  1.
       -4    1    3    3    0  502 -0.58413811988E+02  0.95683611736E+02  0.14588215683E+04  0.14631232033E+04  0.12699999809E+01 0. -1.
</event>
<event>
 5   0  0.1106332E-02  0.8015631E+03  0.7818609E-02  0.9557757E-01
       -2   -1    0    0    0  501  0.00000000000E+00  0.00000000000E+00  0.98149177214E+02  0.98149177247E+02  0.25500000920E-02 0.  1.
        2   -1    0    0  501    0  0.00000000000E+00  0.00000000000E+00 -0.16365480936E+04  0.16365480936E+04  0.25500000920E-02 0. -1.
    10030    2    1    2    0    0  0.00000000000E+00  0.00000000000E+00 -0.15383989163E+04  0.17346972708E+04  0.80156309517E+03 0.  0.
        1    1    3    3  502    0  0.38108002450E+03 -0.12024339613E+03 -0.70265814560E+03  0.80833713820E+03  0.50400001928E-02 0. -1.
       -1    1    3    3    0  502 -0.38108002450E+03  0.12024339613E+03 -0.83574077074E+03  0.92636013261E+03  0.50400001928E-02 0.  1.
</event>
<event>
 5   0  0.1092868E-02  0.8037013E+03  0.7818609E-02  0.9554675E-01
        2   -1    0    0  501    0  0.00000000000E+00  0.00000000000E+00  0.30209972684E+03  0.30209972685E+03  0.25500000920E-02 0.  1.
       -2   -1    0    0    0  501  0.00000000000E+00  0.00000000000E+00 -0.53453850070E+03  0.53453850071E+03  0.25500000920E-02 0. -1.
    10030    2    1    2    0    0  0.00000000000E+00  0.00000000000E+00 -0.23243877386E+03  0.83663822755E+03  0.80370127548E+03 0.  0.
        3    1    3    3  502    0  0.38171938596E+03  0.12559476473E+03 -0.11576526583E+03  0.41819294771E+03  0.10100000352E+00 0. -1.
       -3    1    3    3    0  502 -0.38171938596E+03 -0.12559476473E+03 -0.11667350803E+03  0.41844527984E+03  0.10100000352E+00 0.  1.
</event>
<event>
 5   0  0.6600401E-03  0.8032615E+03  0.7818609E-02  0.9555308E-01
        1   -1    0    0  501    0  0.00000000000E+00  0.00000000000E+00  0.40291958225E+03  0.40291958228E+03  0.50400001928E-02 0.  1.
       -1   -1    0    0    0  501  0.00000000000E+00  0.00000000000E+00 -0.40034602754E+03  0.40034602757E+03  0.50400001928E-02 0. -1.
    10030    2    1    2    0    0  0.00000000000E+00  0.00000000000E+00  0.25735547066E+01  0.80326560985E+03  0.80326148718E+03 0.  0.
        2    1    3    3  502    0  0.29629493838E+03 -0.26019872159E+03  0.77531440343E+02  0.40187708255E+03  0.25500000920E-02 0.  1.
       -2    1    3    3    0  502 -0.29629493838E+03  0.26019872159E+03 -0.74957885637E+02  0.40138852731E+03  0.25500000920E-02 0. -1.
</event>
<event>
 5   0  0.1092868E-02  0.8000647E+03  0.7818609E-02  0.9559924E-01
        2   -1    0    0  501    0  0.00000000000E+00  0.00000000000E+00  0.48099456812E+03  0.48099456813E+03  0.25500000920E-02 0. -1.
       -2   -1    0    0    0  501  0.00000000000E+00  0.00000000000E+00 -0.33269785665E+03  0.33269785666E+03  0.25500000920E-02 0.  1.
    10030    2    1    2    0    0  0.00000000000E+00  0.00000000000E+00  0.14829671146E+03  0.81369242479E+03  0.80006465209E+03 0.  0.
        3    1    3    3  502    0  0.29413906141E+03  0.33158425768E+02  0.34782026003E+03  0.45672334310E+03  0.10100000352E+00 0. -1.
       -3    1    3    3    0  502 -0.29413906141E+03 -0.33158425768E+02 -0.19952354857E+03  0.35696908169E+03  0.10100000352E+00 0.  1.
</event>
<event>
 5   0  0.6551489E-03  0.8053857E+03  0.7818609E-02  0.9552254E-01
       -1   -1    0    0    0  501  0.00000000000E+00  0.00000000000E+00  0.25987316798E+03  0.25987316803E+03  0.50400001928E-02 0.  1.
        1   -1    0    0  501    0  0.00000000000E+00  0.00000000000E+00 -0.62400255227E+03  0.62400255229E+03  0.50400001928E-02 0. -1.
    10030    2    1    2    0    0  0.00000000000E+00  0.00000000000E+00 -0.36412938429E+03  0.88387572032E+03  0.80538567188E+03 0.  0.
        4    1    3    3  502    0  0.21267309482E+03 -0.57417625933E+02  0.18788278754E+03  0.28953097206E+03  0.12699999809E+01 0.  1.
       -4    1    3    3    0  502 -0.21267309482E+03  0.57417625933E+02 -0.55201217183E+03  0.59434474826E+03  0.12699999809E+01 0. -1.
</event>
<event>
 5   0  0.4385875E-03  0.7987817E+03  0.7818609E-02  0.9561782E-01
       -4   -1    0    0    0  501  0.00000000000E+00  0.00000000000E+00  0.12137096759E+03  0.12137761191E+03  0.12699999809E+01 0.  1.
        4   -1    0    0  501    0  0.00000000000E+00  0.00000000000E+00 -0.13142172765E+04  0.13142178902E+04  0.12699999809E+01 0. -1.
    10030    2    1    2    0    0  0.00000000000E+00  0.00000000000E+00 -0.11928463089E+04  0.14355955021E+04  0.79878165278E+03 0.  0.
        5    1    3    3  502    0 -0.15418689449E+03 -0.10039011968E+02 -0.12582743736E+04  0.12677345422E+04  0.46999998093E+01 0. -1.
       -5    1    3    3    0  502  0.15418689449E+03  0.10039011968E+02  0.65428064701E+02  0.16786095985E+03  0.46999998093E+01 0.  1.
</event>
<event>
 5   0  0.6551489E-03  0.7986808E+03  0.7818609E-02  0.9561929E-01
       -1   -1    0    0    0  501  0.00000000000E+00  0.00000000000E+00  0.37378095166E+03  0.37378095170E+03  0.50400001928E-02 0. -1.
        1   -1    0    0  501    0  0.00000000000E+00  0.00000000000E+00 -0.42664766044E+03  0.42664766047E+03  0.50400001928E-02 0.  1.
    10030    2    1    2    0    0  0.00000000000E+00  0.00000000000E+00 -0.52866708779E+02  0.80042861217E+03  0.79868083380E+03 0.  0.
        4    1    3    3  502    0  0.10317649397E+03 -0.36440548222E+03 -0.15333751228E+03  0.40859607187E+03  0.12699999809E+01 0.  1.
       -4    1    3    3    0  502 -0.10317649397E+03  0.36440548222E+03  0.10047080350E+03  0.39183254029E+03  0.12699999809E+01 0. -1.
</event>
<event>
 5   0  0.1106332E-02  0.7928205E+03  0.7818609E-02  0.9570468E-01
        2   -1    0    0  501    0  0.00000000000E+00  0.00000000000E+00  0.18278924205E+04  0.18278924205E+04  0.25500000920E-02 0.  1.
       -2   -1    0    0    0  501  0.00000000000E+00  0.00000000000E+00 -0.85968449495E+02  0.85968449533E+02  0.25500000920E-02 0. -1.
    10030    2    1    2    0    0  0.00000000000E+00  0.00000000000E+00  0.17419239710E+04  0.19138608700E+04  0.79282047721E+03 0.  0.
        1    1    3    3  502    0 -0.12235258323E+03 -0.37034824798E+03  0.70004367354E+03  0.80136703469E+03  0.50400001928E-02 0. -1.
       -1    1    3    3    0  502  0.12235258323E+03  0.37034824798E+03  0.10418802974E+04  0.11124938353E+04  0.50400001928E-02 0.  1.
</event>
<event>
 5   0  0.6557679E-03  0.7911739E+03  0.7818609E-02  0.9572881E-01
       -1   -1    0    0    0  501  0.00000000000E+00  0.00000000000E+00  0.24438895406E+03  0.24438895411E+03  0.50400001928E-02 0. -1.
        1   -1    0    0  501    0  0.00000000000E+00  0.00000000000E+00 -0.64032779657E+03  0.64032779659E+03  0.50400001928E-02 0.  1.
    10030    2    1    2    0    0  0.00000000000E+00  0.00000000000E+00 -0.39593884251E+03  0.88471675071E+03  0.79117391386E+03 0.  0.
        1    1    3    3  502    0 -0.16344491431E+03 -0.24583473602E+03  0.96489332148E+02  0.31057873187E+03  0.50400001928E-02 0. -1.
       -1    1    3    3    0  502  0.16344491431E+03  0.24583473602E+03 -0.49242817466E+03  0.57413801883E+03  0.50400001928E-02 0.  1.
</event>
<event>
 5   0  0.6600401E-03  0.7842465E+03  0.7818609E-02  0.9583104E-01
        1   -1    0    0  501    0  0.00000000000E+00  0.00000000000E+00  0.84968138718E+03  0.84968138720E+03  0.50400001928E-02 0.  1.
       -1   -1    0    0    0  501  0.00000000000E+00  0.00000000000E+00 -0.18096269015E+03  0.18096269022E+03  0.50400001928E-02 0. -1.
    10030    2    1    2    0    0  0.00000000000E+00  0.00000000000E+00  0.66871869703E+03  0.10306440774E+04  0.78424646545E+03 0.  0.
        2    1    3    3  502    0  0.32908688906E+03 -0.14317079666E+03  0.12671591345E+03  0.38059556001E+03  0.25500000920E-02 0.  1.
       -2    1    3    3    0  502 -0.32908688906E+03  0.14317079666E+03  0.54200278358E+03  0.65004851741E+03  0.25500000920E-02 0. -1.
</event>
<event>
 5   0  0.1121480E-02  0.8025977E+03  0.7818609E-02  0.9556265E-01
        2   -1    0    0  501    0  0.00000000000E+00  0.00000000000E+00  0.54467310099E+03  0.54467310100E+03  0.25500000920E-02 0. -1.
       -2   -1    0    0    0  501  0.00000000000E+00  0.00000000000E+00 -0.29566495543E+03  0.29566495544E+03  0.25500000920E-02 0.  1.
    10030    2    1    2    0    0  0.00000000000E+00  0.00000000000E+00  0.24900814556E+03  0.84033805644E+03  0.80259765297E+03 0.  0.
        2    1    3    3  502    0 -0.38613258844E+03  0.56551733949E+02  0.26596109355E+02  0.39115703689E+03  0.25500000920E-02 0.  1.
       -2    1    3    3    0  502  0.38613258844E+03 -0.56551733949E+02  0.22241203621E+03  0.44918101955E+03  0.25500000920E-02 0. -1.
</event>
<event>
 5   0  0.1121480E-02  0.8177231E+03  0.7818609E-02  0.9534712E-01
       -2   -1    0    0    0  501  0.00000000000E+00  0.00000000000E+00  0.12342687797E+03  0.12342687800E+03  0.25500000920E-02 0.  1.
        2   -1    0    0  501    0  0.00000000000E+00  0.00000000000E+00 -0.13543870195E+04  0.13543870195E+04  0.25500000920E-02 0. -1.
    10030    2    1    2    0    0  0.00000000000E+00  0.00000000000E+00 -0.12309601415E+04  0.14778138975E+04  0.81772308613E+03 0.  0.
        2    1    3    3  502    0  0.12028966446E+03 -0.29832551770E+03 -0.15935562166E+03  0.35897344198E+03  0.25500000920E-02 0. -1.
       -2    1    3    3    0  502 -0.12028966446E+03  0.29832551770E+03 -0.10716045199E+04  0.11188404555E+04  0.25500000920E-02 0.  1.
</event>
<event>
 5   0  0.4385875E-03  0.8028411E+03  0.7818609E-02  0.9555914E-01
       -4   -1    0    0    0  501  0.00000000000E+00  0.00000000000E+00  0.16264313104E+04  0.16264318062E+04  0.12699999809E+01 0. -1.
        4   -1    0    0  501    0  0.00000000000E+00  0.00000000000E+00 -0.99070285769E+02  0.99078425614E+02  0.12699999809E+01 0.  1.
    10030    2    1    2    0    0  0.00000000000E+00  0.00000000000E+00  0.15273610246E+04  0.17255102318E+04  0.80284111795E+03 0.  0.
        2    1    3    3  502    0  0.37377416699E+03  0.14577277192E+03  0.73471447054E+03  0.83711539359E+03  0.25500000920E-02 0.  1.
       -2    1    3    3    0  502 -0.37377416699E+03 -0.14577277192E+03  0.79264655408E+03  0.88839483826E+03  0.25500000920E-02 0. -1.
</event>
<event>
 5   0  0.1106332E-02  0.7970919E+03  0.7818609E-02  0.9564236E-01
       -2   -1    0    0    0  501  0.00000000000E+00  0.00000000000E+00  0.18627088251E+03  0.18627088253E+03  0.25500000920E-02 0.  1.
        2   -1    0    0  501    0  0.00000000000E+00  0.00000000000E+00 -0.85273049783E+03  0.85273049783E+03  0.25500000920E-02 0. -1.
    10030    2    1    2    0    0  0.00000000000E+00  0.00000000000E+00 -0.66645961532E+03  0.10390013804E+04  0.79709187021E+03 0.  0.
        1    1    3    3  502    0  0.12907032201E+03 -0.27802084144E+03 -0.12000758638E+01  0.30652271777E+03  0.50400001928E-02 0. -1.
       -1    1    3    3    0  502 -0.12907032201E+03  0.27802084144E+03 -0.66525953945E+03  0.73247866260E+03  0.50400001928E-02 0.  1.
</event>
<event>
 5   0  0.6517392E-03  0.7999729E+03  0.7818609E-02  0.9560056E-01
       -1   -1    0    0    0  501  0.00000000000E+00  0.00000000000E+00  0.21025441656E+03  0.21025441662E+03  0.50400001928E-02 0.  1.
        1   -1    0    0  501    0  0.00000000000E+00  0.00000000000E+00 -0.76093117644E+03  0.76093117645E+03  0.50400001928E-02 0. -1.
    10030    2    1    2    0    0  0.00000000000E+00  0.00000000000E+00 -0.55067675988E+03  0.97118559307E+03  0.79997285098E+03 0.  0.
        3    1    3    3  502    0  0.11014185322E+01 -0.37900413474E+03 -0.12013424841E+03  0.39758973216E+03  0.10100000352E+00 0. -1.
       -3    1    3    3    0  502 -0.11014185322E+01  0.37900413474E+03 -0.43054251147E+03  0.57359586091E+03  0.10100000352E+00 0.  1.
</event>
<event>
 5   0  0.1119792E-02  0.7959455E+03  0.7818609E-02  0.9565904E-01
        2   -1    0    0  501    0  0.00000000000E+00  0.00000000000E+00  0.87876790552E+03  0.87876790552E+03  0.25500000920E-02 0. -1.
       -2   -1    0    0    0  501  0.00000000000E+00  0.00000000000E+00 -0.18023224162E+03  0.18023224164E+03  0.25500000920E-02 0.  1.
    10030    2    1    2    0    0  0.00000000000E+00  0.00000000000E+00  0.69853566389E+03  0.10590001472E+04  0.79594549937E+03 0.  0.
        4    1    3    3  502    0  0.15068570118E+03 -0.16242383216E+03 -0.90586518763E+02  0.23936418294E+03  0.12699999809E+01 0.  1.
       -4    1    3    3    0  502 -0.15068570118E+03  0.16242383216E+03  0.78912218266E+03  0.81963596423E+03  0.12699999809E+01 0. -1.
</event>
<event>
 5   0  0.1154714E-02  0.7950551E+03  0.7818609E-02  0.9567202E-01
        2   -1    0    0  501    0  0.00000000000E+00  0.00000000000E+00  0.37420340975E+03  0.37420340976E+03  0.25500000920E-02 0. -1.
       -2   -1    0    0    0  501  0.00000000000E+00  0.00000000000E+00 -0.42230549610E+03  0.42230549611E+03  0.25500000920E-02 0.  1.
    10030    2    1    2    0    0  0.00000000000E+00  0.00000000000E+00 -0.48102086348E+02  0.79650890587E+03  0.79505510905E+03 0.  0.
        5    1    3    3  502    0  0.29125431428E+03 -0.59494574129E+02 -0.28842254350E+03  0.41422015105E+03  0.46999998093E+01 0.  1.
       -5    1    3    3    0  502 -0.29125431428E+03  0.59494574129E+02  0.24032045715E+03  0.38228875482E+03  0.46999998093E+01 0. -1.
</event>
<event>
 5   0  0.1092868E-02  0.7907710E+03  0.7818609E-02  0.9573473E-01
        2   -1    0    0  501    0  0.00000000000E+00  0.00000000000E+00  0.39549068253E+03  0.39549068253E+03  0.25500000920E-02 0.  1.
       -2   -1    0    0    0  501  0.00000000000E+00  0.00000000000E+00 -0.39528039143E+03  0.39528039144E+03  0.25500000920E-02 0. -1.
    10030    2    1    2    0    0  0.00000000000E+00  0.00000000000E+00  0.21029109777E+00  0.79077107397E+03  0.79077104601E+03 0.  0.
        3    1    3    3  502    0 -0.36337878145E+03 -0.84301273437E+02  0.13117329311E+03  0.39542039216E+03  0.10100000352E+00 0. -1.
       -3    1    3    3    0  502  0.36337878145E+03  0.84301273437E+02 -0.13096300201E+03  0.39535068181E+03  0.10100000352E+00 0.  1.
</event>
<event>
 5   0  0.6557679E-03  0.8013477E+03  0.7818609E-02  0.9558068E-01
       -1   -1    0    0    0  501  0.00000000000E+00  0.00000000000E+00  0.27169971813E+03  0.27169971818E+03  0.50400001928E-02 0.  1.
        1   -1    0    0  501    0  0.00000000000E+00  0.00000000000E+00 -0.59087114269E+03  0.59087114271E+03  0.50400001928E-02 0. -1.
    10030    2    1    2    0    0  0.00000000000E+00  0.00000000000E+00 -0.31917142456E+03  0.86257086089E+03  0.80134767224E+03 0.  0.
        1    1    3    3  502    0  0.72735132256E+02 -0.35703087703E+02 -0.58196059254E+03  0.58757403042E+03  0.50400001928E-02 0. -1.
       -1    1    3    3    0  502 -0.72735132256E+02  0.35703087703E+02  0.26278916798E+03  0.27499683047E+03  0.50400001928E-02 0.  1.
</event>
<event>
 5   0  0.4385875E-03  0.7982456E+03  0.7818609E-02  0.9562560E-01
        4   -1    0    0  501    0  0.00000000000E+00  0.00000000000E+00  0.11627378399E+03  0.11628071957E+03  0.12699999809E+01 0. -1.
       -4   -1    0    0    0  501  0.00000000000E+00  0.00000000000E+00 -0.13699858290E+04  0.13699864176E+04  0.12699999809E+01 0.  1.
    10030    2    1    2    0    0  0.00000000000E+00  0.00000000000E+00 -0.12537120450E+04  0.14862671372E+04  0.79824564602E+03 0.  0.
        1    1    3    3  502    0 -0.15146847641E+03 -0.16615762640E+03 -0.12408595971E+04  0.12610644694E+04  0.50400001928E-02 0.  1.
       -1    1    3    3    0  502  0.15146847641E+03  0.16615762640E+03 -0.12852447877E+02  0.22520266783E+03  0.50400001928E-02 0. -1.
</event>
<event>
 5   0  0.6600401E-03  0.8091666E+03  0.7818609E-02  0.9546843E-01
        1   -1    0    0  501    0  0.00000000000E+00  0.00000000000E+00  0.20504368518E+03  0.20504368524E+03  0.50400001928E-02 0. -1.
       -1   -1    0    0    0  501  0.00000000000E+00  0.00000000000E+00 -0.79830621335E+03  0.79830621336E+03  0.50400001928E-02 0.  1.
    10030    2    1    2    0    0  0.00000000000E+00  0.00000000000E+00 -0.59326252816E+03  0.10033498986E+04  0.80916660318E+03 0.  0.
        2    1    3    3  502    0 -0.21542304846E+03 -0.22775556398E+03  0.20493215389E+02  0.31416501812E+03  0.25500000920E-02 0. -1.
       -2    1    3    3    0  502  0.21542304846E+03  0.22775556398E+03 -0.61375574355E+03  0.68918488048E+03  0.25500000920E-02 0.  1.
</event>
<event>
 5   0  0.1121480E-02  0.7955831E+03  0.7818609E-02  0.9566433E-01
        2   -1    0    0  501    0  0.00000000000E+00  0.00000000000E+00  0.53057068843E+03  0.53057068843E+03  0.25500000920E-02 0.  1.
       -2   -1    0    0    0  501  0.00000000000E+00  0.00000000000E+00 -0.29824132135E+03  0.29824132136E+03  0.25500000920E-02 0. -1.
    10030    2    1    2    0    0  0.00000000000E+00  0.00000000000E+00  0.23232936708E+03  0.82881200979E+03  0.79558306466E+03 0.  0.
        2    1    3    3  502    0  0.87075402324E+02  0.62225249012E+02  0.51529053572E+03  0.52628741531E+03  0.25500000920E-02 0.  1.
       -2    1    3    3    0  502 -0.87075402324E+02 -0.62225249012E+02 -0.28296116864E+03  0.30252459448E+03  0.25500000920E-02 0. -1.
</event>
<event>
 5   0  0.1119792E-02  0.8003829E+03  0.7818609E-02  0.9559463E-01
       -2   -1    0    0    0  501  0.00000000000E+00  0.00000000000E+00  0.47825797774E+02  0.47825797842E+02  0.25500000920E-02 0. -1.
        2   -1    0    0  501    0  0.00000000000E+00  0.00000000000E+00 -0.33486780128E+04  0.33486780128E+04  0.25500000920E-02 0.  1.
    10030    2    1    2    0    0  0.00000000000E+00  0.00000000000E+00 -0.33008522150E+04  0.33965038106E+04  0.80038290228E+03 0.  0.
        4    1    3    3  502    0 -0.25143960080E+03 -0.13528375426E+03 -0.28403603620E+04  0.28546754923E+04  0.12699999809E+01 0.  1.
       -4    1    3    3    0  502  0.25143960080E+03  0.13528375426E+03 -0.46049185294E+03  0.54182831833E+03  0.12699999809E+01 0. -1.
</event>
<event>
 5   0  0.1154714E-02  0.7967838E+03  0.7818609E-02  0.9564684E-01
        2   -1    0    0  501    0  0.00000000000E+00  0.00000000000E+00  0.13418552354E+04  0.13418552354E+04  0.25500000920E-02 0.  1.
       -2   -1    0    0    0  501  0.00000000000E+00  0.00000000000E+00 -0.11828109383E+03  0.11828109385E+03  0.25500000920E-02 0. -1.
    10030    2    1    2    0    0  0.00000000000E+00  0.00000000000E+00  0.12235741416E+04  0.14601363293E+04  0.79678379758E+03 0.  0.
        5    1    3    3  502    0  0.22123774667E+03  0.10908511692E+03  0.11850179547E+04  0.12104277535E+04  0.46999998093E+01 0.  1.
       -5    1    3    3    0  502 -0.22123774667E+03 -0.10908511692E+03  0.38556186828E+02  0.24970857579E+03  0.46999998093E+01 0. -1.
</event>
<event>
 5   0  0.6551489E-03  0.8135320E+03  0.7818609E-02  0.9540634E-01
        1   -1    0    0  501    0  0.00000000000E+00  0.00000000000E+00  0.13406715960E+04  0.13406715960E+04  0.50400001928E-02 0.  1.
       -1   -1    0    0    0  501  0.00000000000E+00  0.00000000000E+00 -0.12341469792E+03  0.12341469802E+03  0.50400001928E-02 0. -1.
    10030    2    1    2    0    0  0.00000000000E+00  0.00000000000E+00  0.12172568981E+04  0.14640862941E+04  0.81353200335E+03 0.  0.
        4    1    3    3  502    0  0.27010865353E+03 -0.15815506665E+03  0.14111243973E+03  0.34334537038E+03  0.12699999809E+01 0. -1.
       -4    1    3    3    0  502 -0.27010865353E+03  0.15815506665E+03  0.10761444584E+04  0.11207409237E+04  0.12699999809E+01 0.  1.
</event>
<event>
 5   0  0.6551489E-03  0.7974867E+03  0.7818609E-02  0.9563662E-01
       -1   -1    0    0    0  501  0.00000000000E+00  0.00000000000E+00  0.46152173442E+03  0.46152173445E+03  0.50400001928E-02 0.  1.
        1   -1    0    0  501    0  0.00000000000E+00  0.00000000000E+00 -0.34450441207E+03  0.34450441211E+03  0.50400001928E-02 0. -1.
    10030    2    1    2    0    0  0.00000000000E+00  0.00000000000E+00  0.11701732235E+03  0.80602614655E+03  0.79748673669E+03 0.  0.
        4    1    3    3  502    0  0.27837791751E+03 -0.56107700134E+02  0.34142080958E+03  0.44408571367E+03  0.12699999809E+01 0.  1.
       -4    1    3    3    0  502 -0.27837791751E+03  0.56107700134E+02 -0.22440348723E+03  0.36194043288E+03  0.12699999809E+01 0. -1.
</event>
<event>
 5   0  0.1121480E-02  0.7965642E+03  0.7818609E-02  0.9565004E-01
        2   -1    0    0  501    0  0.00000000000E+00  0.00000000000E+00  0.62562664804E+03  0.62562664804E+03  0.25500000920E-02 0.  1.
       -2   -1    0    0    0  501  0.00000000000E+00  0.00000000000E+00 -0.25355161908E+03  0.25355161910E+03  0.25500000920E-02 0. -1.
    10030    2    1    2    0    0  0.00000000000E+00  0.00000000000E+00  0.37207502896E+03  0.87917826714E+03  0.79656424615E+03 0.  0.
        2    1    3    3  502    0 -0.10631967685E+03  0.10032997726E+03 -0.22287088392E+03  0.26653594304E+03  0.25500000920E-02 0. -1.
       -2    1    3    3    0  502  0.10631967685E+03 -0.10032997726E+03  0.59494591288E+03  0.61264232410E+03  0.25500000920E-02 0.  1.
</event>
<event>
 5   0  0.1106332E-02  0.8003026E+03  0.7818609E-02  0.9559579E-01
       -2   -1    0    0    0  501  0.00000000000E+00  0.00000000000E+00  0.10729446046E+03  0.10729446049E+03  0.25500000920E-02 0. -1.
        2   -1    0    0  501    0  0.00000000000E+00  0.00000000000E+00 -0.14923517336E+04  0.14923517336E+04  0.25500000920E-02 0.  1.
    10030    2    1    2    0    0  0.00000000000E+00  0.00000000000E+00 -0.13850572731E+04  0.15996461941E+04  0.80030262798E+03 0.  0.
        1    1    3    3  502    0 -0.28207682733E+03 -0.27803534542E+03 -0.80647933808E+03  0.89848756953E+03  0.50400001928E-02 0. -1.
       -1    1    3    3    0  502  0.28207682733E+03  0.27803534542E+03 -0.57857793503E+03  0.70115862452E+03  0.50400001928E-02 0.  1.
</event>
<event>
 5   0  0.1106332E-02  0.8017107E+03  0.7818609E-02  0.9557544E-01
       -2   -1    0    0    0  501  0.00000000000E+00  0.00000000000E+00  0.62461389472E+02  0.62461389524E+02  0.25500000920E-02 0.  1.
        2   -1    0    0  501    0  0.00000000000E+00  0.00000000000E+00 -0.25725495786E+04  0.25725495786E+04  0.25500000920E-02 0. -1.
    10030    2    1    2    0    0  0.00000000000E+00  0.00000000000E+00 -0.25100881891E+04  0.26350109681E+04  0.80171072397E+03 0.  0.
        1    1    3    3  502    0  0.29127408974E+03 -0.20219651688E+03 -0.18695932453E+04  0.19029195805E+04  0.50400001928E-02 0. -1.
       -1    1    3    3    0  502 -0.29127408974E+03  0.20219651688E+03 -0.64049494375E+03  0.73209138759E+03  0.50400001928E-02 0.  1.
</event>
<event>
 5   0  0.6600401E-03  0.8171797E+03  0.7818609E-02  0.9535478E-01
       -1   -1    0    0    0  501  0.00000000000E+00  0.00000000000E+00  0.72467247818E+03  0.72467247820E+03  0.50400001928E-02 0. -1.
        1   -1    0    0  501    0  0.00000000000E+00  0.00000000000E+00 -0.23037393076E+03  0.23037393081E+03  0.50400001928E-02 0.  1.
    10030    2    1    2    0    0  0.00000000000E+00  0.00000000000E+00  0.49429854742E+03  0.95504640901E+03  0.81717965551E+03 0.  0.
        2    1    3    3  502    0  0.34184978809E+03  0.38249363706E+01  0.50866306466E+03  0.61287357678E+03  0.25500000920E-02 0. -1.
       -2    1    3    3    0  502 -0.34184978809E+03 -0.38249363706E+01 -0.14364517237E+02  0.34217283223E+03  0.25500000920E-02 0.  1.
</event>
<event>
 5   0  0.1154714E-02  0.7933707E+03  0.7818609E-02  0.9569663E-01
       -2   -1    0    0    0  501  0.00000000000E+00  0.00000000000E+00  0.12131549710E+04  0.12131549710E+04  0.25500000920E-02 0.  1.
        2   -1    0    0  501    0  0.00000000000E+00  0.00000000000E+00 -0.12971078553E+03  0.12971078556E+03  0.25500000920E-02 0. -1.
    10030    2    1    2    0    0  0.00000000000E+00  0.00000000000E+00  0.10834441854E+04  0.13428657565E+04  0.79337074379E+03 0.  0.
        5    1    3    3  502    0  0.20862821027E+03 -0.31181515287E+03  0.32375796859E+03  0.49557616156E+03  0.46999998093E+01 0. -1.
       -5    1    3    3    0  502 -0.20862821027E+03  0.31181515287E+03  0.75968621684E+03  0.84728959496E+03  0.46999998093E+01 0.  1.
</event>
<event>
 5   0  0.6551489E-03  0.8012339E+03  0.7818609E-02  0.9558233E-01
       -1   -1    0    0    0  501  0.00000000000E+00  0.00000000000E+00  0.16513786416E+03  0.16513786424E+03  0.50400001928E-02 0.  1.
        1   -1    0    0  501    0  0.00000000000E+00  0.00000000000E+00 -0.97187842593E+03  0.97187842595E+03  0.50400001928E-02 0. -1.
    10030    2    1    2    0    0  0.00000000000E+00  0.00000000000E+00 -0.80674056177E+03  0.11370162902E+04  0.80123386732E+03 0.  0.
        4    1    3    3  502    0  0.26387441737E+03 -0.27412772320E+03 -0.58127466861E+03  0.69473561161E+03  0.12699999809E+01 0. -1.
       -4    1    3    3    0  502 -0.26387441737E+03  0.27412772320E+03 -0.22546589316E+03  0.44228067858E+03  0.12699999809E+01 0.  1.
</event>
<event>
 5   0  0.6557679E-03  0.7831853E+03  0.7818609E-02  0.9584680E-01
        1   -1    0    0  501    0  0.00000000000E+00  0.00000000000E+00  0.91506640894E+03  0.91506640896E+03  0.50400001928E-02 0.  1.
       -1   -1    0    0    0  501  0.00000000000E+00  0.00000000000E+00 -0.16757778963E+03  0.16757778971E+03  0.50400001928E-02 0. -1.
    10030    2    1    2    0    0  0.00000000000E+00  0.00000000000E+00  0.74748861931E+03  0.10826441987E+04  0.78318530687E+03 0.  0.
        1    1    3    3  502    0  0.11665619718E+03 -0.34427380205E+03  0.17241415474E+03  0.40231798357E+03  0.50400001928E-02 0. -1.
       -1    1    3    3    0  502 -0.11665619718E+03  0.34427380205E+03  0.57507446457E+03  0.68032621510E+03  0.50400001928E-02 0.  1.
</event>
<event>
 5   0  0.6557679E-03  0.7986983E+03  0.7818609E-02  0.9561903E-01
        1   -1    0    0  501    0  0.00000000000E+00  0.00000000000E+00  0.48910833426E+03  0.48910833429E+03  0.50400001928E-02 0.  1.
       -1   -1    0    0    0  501  0.00000000000E+00  0.00000000000E+00 -0.32606219084E+03  0.32606219088E+03  0.50400001928E-02 0. -1.
    10030    2    1    2    0    0  0.00000000000E+00  0.00000000000E+00  0.16304614342E+03  0.81517052517E+03  0.79869827858E+03 0.  0.
        1    1    3    3  502    0 -0.30668747091E+03 -0.19436046260E+03 -0.88178599492E+02  0.37364242220E+03  0.50400001928E-02 0. -1.
       -1    1    3    3    0  502  0.30668747091E+03  0.19436046260E+03  0.25122474292E+03  0.44152810297E+03  0.50400001928E-02 0.  1.
</event>
<event>
 5   0  0.6600401E-03  0.7960667E+03  0.7818609E-02  0.9565728E-01
       -1   -1    0    0    0  501  0.00000000000E+00  0.00000000000E+00  0.99936282999E+03  0.99936283001E+03  0.50400001928E-02 0.  1.
        1   -1    0    0  501    0  0.00000000000E+00  0.00000000000E+00 -0.15853155929E+03  0.15853155937E+03  0.50400001928E-02 0. -1.
    10030    2    1    2    0    0  0.00000000000E+00  0.00000000000E+00  0.84083127071E+03  0.11578943894E+04  0.79606670018E+03 0.  0.
        2    1    3    3  502    0 -0.19102310101E+03  0.31696118498E+03  0.63357259891E+03  0.73373595795E+03  0.25500000920E-02 0.  1.
       -2    1    3    3    0  502  0.19102310101E+03 -0.31696118498E+03  0.20725867180E+03  0.42415843142E+03  0.25500000920E-02 0. -1.
</event>
<event>
 5   0  0.4385875E-03  0.8023575E+03  0.7818609E-02  0.9556611E-01
       -3   -1    0    0    0  501  0.00000000000E+00  0.00000000000E+00  0.73590393343E+03  0.73590394036E+03  0.10100000352E+00 0.  1.
        3   -1    0    0  501    0  0.00000000000E+00  0.00000000000E+00 -0.21870297630E+03  0.21870299962E+03  0.10100000352E+00 0. -1.
    10030    2    1    2    0    0  0.00000000000E+00  0.00000000000E+00  0.51720095713E+03  0.95460693998E+03  0.80235751371E+03 0.  0.
        1    1    3    3  502    0  0.56982796524E+02 -0.16525887778E+03 -0.17100872362E+03  0.24454349177E+03  0.50400001928E-02 0. -1.
       -1    1    3    3    0  502 -0.56982796524E+02  0.16525887778E+03  0.68820968075E+03  0.71006344821E+03  0.50400001928E-02 0.  1.
</event>
<event>
 5   0  0.6557679E-03  0.7983903E+03  0.7818609E-02  0.9562350E-01
        1   -1    0    0  501    0  0.00000000000E+00  0.00000000000E+00  0.15573477842E+04  0.15573477842E+04  0.50400001928E-02 0. -1.
       -1   -1    0    0    0  501  0.00000000000E+00  0.00000000000E+00 -0.10232573071E+03  0.10232573084E+03  0.50400001928E-02 0.  1.
    10030    2    1    2    0    0  0.00000000000E+00  0.00000000000E+00  0.14550220535E+04  0.16596735150E+04  0.79839025571E+03 0.  0.
        1    1    3    3  502    0  0.35683134519E+03 -0.10908995246E+03  0.43259212609E+03  0.57128379482E+03  0.50400001928E-02 0.  1.
       -1    1    3    3    0  502 -0.35683134519E+03  0.10908995246E+03  0.10224299274E+04  0.10883897202E+04  0.50400001928E-02 0. -1.
</event>
<event>
 5   0  0.1092868E-02  0.7757448E+03  0.7818609E-02  0.9595805E-01
        2   -1    0    0  501    0  0.00000000000E+00  0.00000000000E+00  0.70202387718E+03  0.70202387718E+03  0.25500000920E-02 0.  1.
       -2   -1    0    0    0  501  0.00000000000E+00  0.00000000000E+00 -0.21430181822E+03  0.21430181823E+03  0.25500000920E-02 0. -1.
    10030    2    1    2    0    0  0.00000000000E+00  0.00000000000E+00  0.48772205896E+03  0.91632569542E+03  0.77574478618E+03 0.  0.
        3    1    3    3  502    0 -0.35860193587E+03  0.11040439705E+03  0.35996067349E+03  0.51995785979E+03  0.10100000352E+00 0.  1.
       -3    1    3    3    0  502  0.35860193587E+03 -0.11040439705E+03  0.12776138547E+03  0.39636783563E+03  0.10100000352E+00 0. -1.
</event>
<event>
 5   0  0.6557679E-03  0.8132529E+03  0.7818609E-02  0.9541030E-01
        1   -1    0    0  501    0  0.00000000000E+00  0.00000000000E+00  0.56817594895E+03  0.56817594898E+03  0.50400001928E-02 0.  1.
       -1   -1    0    0    0  501  0.00000000000E+00  0.00000000000E+00 -0.29101035757E+03  0.29101035762E+03  0.50400001928E-02 0. -1.
    10030    2    1    2    0    0  0.00000000000E+00  0.00000000000E+00  0.27716559138E+03  0.85918630659E+03  0.81325293998E+03 0.  0.
        1    1    3    3  502    0  0.20363448681E+03 -0.24909358181E+03 -0.12411896069E+03  0.34484798557E+03  0.50400001928E-02 0. -1.
       -1    1    3    3    0  502 -0.20363448681E+03  0.24909358181E+03  0.40128455207E+03  0.51433832103E+03  0.50400001928E-02 0.  1.
</event>
<event>
 5   0  0.1119792E-02  0.7994501E+03  0.7818609E-02  0.9560813E-01
        2   -1    0    0  501    0  0.00000000000E+00  0.00000000000E+00  0.18397996712E+03  0.18397996714E+03  0.25500000920E-02 0.  1.
       -2   -1    0    0    0  501  0.00000000000E+00  0.00000000000E+00 -0.86846465773E+03  0.86846465773E+03  0.25500000920E-02 0. -1.
    10030    2    1    2    0    0  0.00000000000E+00  0.00000000000E+00 -0.68448469061E+03  0.10524446249E+04  0.79945005894E+03 0.  0.
        4    1    3    3  502    0  0.72096361343E+02  0.18501029795E+03 -0.79894569148E+03  0.82325119284E+03  0.12699999809E+01 0. -1.
       -4    1    3    3    0  502 -0.72096361343E+02 -0.18501029795E+03  0.11446100087E+03  0.22919343203E+03  0.12699999809E+01 0.  1.
</event>
<event>
 5   0  0.1092868E-02  0.8061624E+03  0.7818609E-02  0.9551140E-01
        2   -1    0    0  501    0  0.00000000000E+00  0.00000000000E+00  0.27235185333E+04  0.27235185334E+04  0.25500000920E-02 0. -1.
       -2   -1    0    0    0  501  0.00000000000E+00  0.00000000000E+00 -0.59656080435E+02  0.59656080489E+02  0.25500000920E-02 0.  1.
    10030    2    1    2    0    0  0.00000000000E+00  0.00000000000E+00  0.26638624529E+04  0.27831746138E+04  0.80616236769E+03 0.  0.
        3    1    3    3  502    0 -0.24233960714E+03 -0.20479767945E+03  0.21902047569E+04  0.22130674328E+04  0.10100000352E+00 0. -1.
       -3    1    3    3    0  502  0.24233960714E+03  0.20479767945E+03  0.47365769601E+03  0.57010718105E+03  0.10100000352E+00 0.  1.
</event>
<event>
 5   0  0.1121480E-02  0.7993813E+03  0.7818609E-02  0.9560913E-01
       -2   -1    0    0    0  501  0.00000000000E+00  0.00000000000E+00  0.52396709188E+03  0.52396709189E+03  0.25500000920E-02 0.  1.
        2   -1    0    0  501    0  0.00000000000E+00  0.00000000000E+00 -0.30489056127E+03  0.30489056128E+03  0.25500000920E-02 0. -1.
    10030    2    1    2    0    0  0.00000000000E+00  0.00000000000E+00  0.21907653062E+03  0.82885765316E+03  0.79938131260E+03 0.  0.
        2    1    3    3  502    0  0.11705887991E+03 -0.20057961449E+03  0.44682948224E+03  0.50357874193E+03  0.25500000920E-02 0.  1.
       -2    1    3    3    0  502 -0.11705887991E+03  0.20057961449E+03 -0.22775295162E+03  0.32527891124E+03  0.25500000920E-02 0. -1.
</event>
<event>
 5   0  0.6596225E-03  0.7952207E+03  0.7818609E-02  0.9566961E-01
       -1   -1    0    0    0  501  0.00000000000E+00  0.00000000000E+00  0.80302284603E+03  0.80302284605E+03  0.50400001928E-02 0. -1.
        1   -1    0    0  501    0  0.00000000000E+00  0.00000000000E+00 -0.19687357492E+03  0.19687357498E+03  0.50400001928E-02 0.  1.
    10030    2    1    2    0    0  0.00000000000E+00  0.00000000000E+00  0.60614927111E+03  0.99989642103E+03  0.79522066995E+03 0.  0.
        5    1    3    3  502    0  0.96515742381E+02  0.38375098823E+03  0.35163921096E+03  0.52938864191E+03  0.46999998093E+01 0.  1.
       -5    1    3    3    0  502 -0.96515742381E+02 -0.38375098823E+03  0.25451006015E+03  0.47050777912E+03  0.46999998093E+01 0. -1.
</event>
<event>
 5   0  0.6557679E-03  0.8055249E+03  0.7818609E-02  0.9552054E-01
        1   -1    0    0  501    0  0.00000000000E+00  0.00000000000E+00  0.99663650882E+03  0.99663650883E+03  0.50400001928E-02 0. -1.
       -1   -1    0    0    0  501  0.00000000000E+00  0.00000000000E+00 -0.16276505302E+03  0.16276505309E+03  0.50400001928E-02 0.  1.
    10030    2    1    2    0    0  0.00000000000E+00  0.00000000000E+00  0.83387145580E+03  0.11594015619E+04  0.80552490774E+03 0.  0.
        1    1    3    3  502    0 -0.13058460226E+03 -0.34332482170E+03  0.65471999271E+03  0.75072134672E+03  0.50400001928E-02 0.  1.
       -1    1    3    3    0  502  0.13058460226E+03  0.34332482170E+03  0.17915146309E+03  0.40868021520E+03  0.50400001928E-02 0. -1.
</event>
<event>
 5   0  0.1106332E-02  0.8006223E+03  0.7818609E-02  0.9559117E-01
        2   -1    0    0  501    0  0.00000000000E+00  0.00000000000E+00  0.89063438713E+03  0.89063438714E+03  0.25500000920E-02 0. -1.
       -2   -1    0    0    0  501  0.00000000000E+00  0.00000000000E+00 -0.17992683194E+03  0.17992683196E+03  0.25500000920E-02 0.  1.
    10030    2    1    2    0    0  0.00000000000E+00  0.00000000000E+00  0.71070755519E+03  0.10705612191E+04  0.80062231721E+03 0.  0.
        1    1    3    3  502    0 -0.29754293732E+03  0.20332191868E+03  0.58840923063E+03  0.68999784411E+03  0.50400001928E-02 0. -1.
       -1    1    3    3    0  502  0.29754293732E+03 -0.20332191868E+03  0.12229832457E+03  0.38056337499E+03  0.50400001928E-02 0.  1.
</event>
<event>
 5   0  0.1119792E-02  0.7965670E+03  0.7818609E-02  0.9565000E-01
        2   -1    0    0  501    0  0.00000000000E+00  0.00000000000E+00  0.52760744386E+03  0.52760744387E+03  0.25500000920E-02 0. -1.
       -2   -1    0    0    0  501  0.00000000000E+00  0.00000000000E+00 -0.30065864832E+03  0.30065864833E+03  0.25500000920E-02 0.  1.
    10030    2    1    2    0    0  0.00000000000E+00  0.00000000000E+00  0.22694879554E+03  0.82826609219E+03  0.79656698631E+03 0.  0.
        4    1    3    3  502    0 -0.34810186396E+03 -0.17936035863E+03  0.37897117642E+02  0.39342451673E+03  0.12699999809E+01 0.  1.
       -4    1    3    3    0  502  0.34810186396E+03  0.17936035863E+03  0.18905167790E+03  0.43484157547E+03  0.12699999809E+01 0. -1.
</event>
<event>
 5   0  0.1154714E-02  0.7997806E+03  0.7818609E-02  0.9560335E-01
        2   -1    0    0  501    0  0.00000000000E+00  0.00000000000E+00  0.39423623500E+03  0.39423623500E+03  0.25500000920E-02 0.  1.
       -2   -1    0    0    0  501  0.00000000000E+00  0.00000000000E+00 -0.40562547983E+03  0.40562547984E+03  0.25500000920E-02 0. -1.
    10030    2    1    2    0    0  0.00000000000E+00  0.00000000000E+00 -0.11389244833E+02  0.79986171484E+03  0.79978062490E+03 0.  0.
        5    1    3    3  502    0  0.99501207827E+02  0.29009759161E+03 -0.26230019389E+03  0.40358466860E+03  0.46999998093E+01 0. -1.
       -5    1    3    3    0  502 -0.99501207827E+02 -0.29009759161E+03  0.25091094906E+03  0.39627704624E+03  0.46999998093E+01 0.  1.
</event>
<event>
 5   0  0.1092868E-02  0.7990874E+03  0.7818609E-02  0.9561339E-01
        2   -1    0    0  501    0  0.00000000000E+00  0.00000000000E+00  0.87326610446E+03  0.87326610446E+03  0.25500000920E-02 0. -1.
       -2   -1    0    0    0  501  0.00000000000E+00  0.00000000000E+00 -0.18280243436E+03  0.18280243438E+03  0.25500000920E-02 0.  1.
    10030    2    1    2    0    0  0.00000000000E+00  0.00000000000E+00  0.69046367010E+03  0.10560685388E+04  0.79908740385E+03 0.  0.
        3    1    3    3  502    0  0.18446215299E+03  0.19199953845E+03 -0.48472223117E+02  0.27062829723E+03  0.10100000352E+00 0.  1.
       -3    1    3    3    0  502 -0.18446215299E+03 -0.19199953845E+03  0.73893589322E+03  0.78544024161E+03  0.10100000352E+00 0. -1.
</event>
<event>
 5   0  0.4385875E-03  0.7972230E+03  0.7818609E-02  0.9564045E-01
        3   -1    0    0  501    0  0.00000000000E+00  0.00000000000E+00  0.48818017527E+03  0.48818018572E+03  0.10100000352E+00 0. -1.
       -3   -1    0    0    0  501  0.00000000000E+00  0.00000000000E+00 -0.32547636856E+03  0.32547638423E+03  0.10100000352E+00 0.  1.
    10030    2    1    2    0    0  0.00000000000E+00  0.00000000000E+00  0.16270380671E+03  0.81365656994E+03  0.79722298329E+03 0.  0.
        5    1    3    3  502    0 -0.12052032573E+03 -0.53199871825E+02 -0.30258556822E+03  0.33005377042E+03  0.46999998093E+01 0.  1.
       -5    1    3    3    0  502  0.12052032573E+03  0.53199871825E+02  0.46528937494E+03  0.48360279952E+03  0.46999998093E+01 0. -1.
</event>
<event>
 5   0  0.1119792E-02  0.8056471E+03  0.7818609E-02  0.9551879E-01
       -2   -1    0    0    0  501  0.00000000000E+00  0.00000000000E+00  0.29202678322E+03  0.29202678323E+03  0.25500000920E-02 0.  1.
        2   -1    0    0  501    0  0.00000000000E+00  0.00000000000E+00 -0.55565734450E+03  0.55565734451E+03  0.25500000920E-02 0. -1.
    10030    2    1    2    0    0  0.00000000000E+00  0.00000000000E+00 -0.26363056128E+03  0.84768412774E+03  0.80564713590E+03 0.  0.
        4    1    3    3  502    0 -0.33626536435E+03  0.13578656606E+03  0.52699732279E+02  0.36645772125E+03  0.12699999809E+01 0.  1.
       -4    1    3    3    0  502  0.33626536435E+03 -0.13578656606E+03 -0.31633029356E+03  0.48122640649E+03  0.12699999809E+01 0. -1.
</event>
<event>
 5   0  0.4385875E-03  0.8001949E+03  0.7818609E-02  0.9559735E-01
        3   -1    0    0  501    0  0.00000000000E+00  0.00000000000E+00  0.13819709594E+04  0.13819709631E+04  0.10100000352E+00 0.  1.
       -3   -1    0    0    0  501  0.00000000000E+00  0.00000000000E+00 -0.11583307203E+03  0.11583311606E+03  0.10100000352E+00 0. -1.
    10030    2    1    2    0    0  0.00000000000E+00  0.00000000000E+00  0.12661378874E+04  0.14978040791E+04  0.80019491980E+03 0.  0.
        3    1    3    3  502    0  0.26492981708E+03  0.28338311592E+03  0.44982212339E+03  0.59399810711E+03  0.10100000352E+00 0.  1.
       -3    1    3    3    0  502 -0.26492981708E+03 -0.28338311592E+03  0.81631576398E+03  0.90380597203E+03  0.10100000352E+00 0. -1.
</event>
<event>
 5   0  0.6596225E-03  0.8160650E+03  0.7818609E-02  0.9537050E-01
       -1   -1    0    0    0  501  0.00000000000E+00  0.00000000000E+00  0.14735450754E+03  0.14735450763E+03  0.50400001928E-02 0.  1.
        1   -1    0    0  501    0  0.00000000000E+00  0.00000000000E+00 -0.11298638387E+04  0.11298638387E+04  0.50400001928E-02 0. -1.
    10030    2    1    2    0    0  0.00000000000E+00  0.00000000000E+00 -0.98250933116E+03  0.12772183463E+04  0.81606502094E+03 0.  0.
        5    1    3    3  502    0  0.28260966107E+03 -0.87582277225E+02 -0.93095848342E+03  0.97685447415E+03  0.46999998093E+01 0. -1.
       -5    1    3    3    0  502 -0.28260966107E+03  0.87582277225E+02 -0.51550847746E+02  0.30036387219E+03  0.46999998093E+01 0.  1.
</event>
<event>
 5   0  0.6600401E-03  0.8062480E+03  0.7818609E-02  0.9551017E-01
       -1   -1    0    0    0  501  0.00000000000E+00  0.00000000000E+00  0.10544005577E+03  0.10544005589E+03  0.50400001928E-02 0.  1.
        1   -1    0    0  501    0  0.00000000000E+00  0.00000000000E+00 -0.15412448712E+04  0.15412448712E+04  0.50400001928E-02 0. -1.
    10030    2    1    2    0    0  0.00000000000E+00  0.00000000000E+00 -0.14358048155E+04  0.16466849271E+04  0.80624796506E+03 0.  0.
        2    1    3    3  502    0  0.34073281925E+03  0.19297247347E+03 -0.52230316466E+03  0.65279232949E+03  0.25500000920E-02 0.  1.
       -2    1    3    3    0  502 -0.34073281925E+03 -0.19297247347E+03 -0.91350165080E+03  0.99389259764E+03  0.25500000920E-02 0. -1.
</event>
<event>
 5   0  0.4385875E-03  0.7782642E+03  0.7818609E-02  0.9592023E-01
        3   -1    0    0  501    0  0.00000000000E+00  0.00000000000E+00  0.84163804898E+03  0.84163805504E+03  0.10100000352E+00 0.  1.
       -3   -1    0    0    0  501  0.00000000000E+00  0.00000000000E+00 -0.17991556326E+03  0.17991559161E+03  0.10100000352E+00 0. -1.
    10030    2    1    2    0    0  0.00000000000E+00  0.00000000000E+00  0.66172248572E+03  0.10215536467E+04  0.77826422562E+03 0.  0.
        1    1    3    3  502    0 -0.17005591675E+03 -0.20754376971E+03  0.70079793044E+03  0.75040733638E+03  0.50400001928E-02 0.  1.
       -1    1    3    3    0  502  0.17005591675E+03  0.20754376971E+03 -0.39075444717E+02  0.27114631027E+03  0.50400001928E-02 0. -1.
</event>
<event>
 5   0  0.1119792E-02  0.7955181E+03  0.7818609E-02  0.9566527E-01
        2   -1    0    0  501    0  0.00000000000E+00  0.00000000000E+00  0.16675453927E+04  0.16675453927E+04  0.25500000920E-02 0. -1.
       -2   -1    0    0    0  501  0.00000000000E+00  0.00000000000E+00 -0.94877344903E+02  0.94877344937E+02  0.25500000920E-02 0.  1.
    10030    2    1    2    0    0  0.00000000000E+00  0.00000000000E+00  0.15726680478E+04  0.17624227376E+04  0.79551814409E+03 0.  0.
        4    1    3    3  502    0  0.28394299223E+03  0.27853098296E+03  0.78025257634E+03  0.87578469220E+03  0.12699999809E+01 0.  1.
       -4    1    3    3    0  502 -0.28394299223E+03 -0.27853098296E+03  0.79241547142E+03  0.88663804540E+03  0.12699999809E+01 0. -1.
</event>
<event>
 5   0  0.1092868E-02  0.7973192E+03  0.7818609E-02  0.9563906E-01
       -2   -1    0    0    0  501  0.00000000000E+00  0.00000000000E+00  0.31450697836E+03  0.31450697837E+03  0.25500000920E-02 0. -1.
        2   -1    0    0  501    0  0.00000000000E+00  0.00000000000E+00 -0.50532897997E+03  0.50532897998E+03  0.25500000920E-02 0.  1.
    10030    2    1    2    0    0  0.00000000000E+00  0.00000000000E+00 -0.19082200161E+03  0.81983595835E+03  0.79731923488E+03 0.  0.
        3    1    3    3  502    0 -0.10745310280E+03  0.77517536805E+02  0.29120517487E+03  0.31993062043E+03  0.10100000352E+00 0. -1.
       -3    1    3    3    0  502  0.10745310280E+03 -0.77517536805E+02 -0.48202717648E+03  0.49990533792E+03  0.10100000352E+00 0.  1.
</event>
<event>
 5   0  0.6596225E-03  0.8009388E+03  0.7818609E-02  0.9558659E-01
        1   -1    0    0  501    0  0.00000000000E+00  0.00000000000E+00  0.72779435434E+03  0.72779435436E+03  0.50400001928E-02 0.  1.
       -1   -1    0    0    0  501  0.00000000000E+00  0.00000000000E+00 -0.22035860374E+03  0.22035860380E+03  0.50400001928E-02 0. -1.
    10030    2    1    2    0    0  0.00000000000E+00  0.00000000000E+00  0.50743575060E+03  0.94815295815E+03  0.80093881856E+03 0.  0.
        5    1    3    3  502    0 -0.29959646815E+03  0.16245138827E+03  0.48232334218E+01  0.34087219138E+03  0.46999998093E+01 0. -1.
       -5    1    3    3    0  502  0.29959646815E+03 -0.16245138827E+03  0.50261251718E+03  0.60728076678E+03  0.46999998093E+01 0.  1.
</event>
<event>
 5   0  0.1121480E-02  0.8004059E+03  0.7818609E-02  0.9559430E-01
        2   -1    0    0  501    0  0.00000000000E+00  0.00000000000E+00  0.18612212325E+04  0.18612212325E+04  0.25500000920E-02 0.  1.
       -2   -1    0    0    0  501  0.00000000000E+00  0.00000000000E+00 -0.86052313702E+02  0.86052313740E+02  0.25500000920E-02 0. -1.
    10030    2    1    2    0    0  0.00000000000E+00  0.00000000000E+00  0.17751689188E+04  0.19472735462E+04  0.80040588055E+03 0.  0.
        2    1    3    3  502    0  0.19453601848E+03  0.31196280804E+03  0.12722325390E+04  0.13242887485E+04  0.25500000920E-02 0. -1.
       -2    1    3    3    0  502 -0.19453601848E+03 -0.31196280804E+03  0.50293637977E+03  0.62298479772E+03  0.25500000920E-02 0.  1.
</event>
<event>
 5   0  0.4385875E-03  0.8025008E+03  0.7818609E-02  0.9556404E-01
        3   -1    0    0  501    0  0.00000000000E+00  0.00000000000E+00  0.35061574490E+03  0.35061575944E+03  0.10100000352E+00 0.  1.
       -3   -1    0    0    0  501  0.00000000000E+00  0.00000000000E+00 -0.45919752104E+03  0.45919753214E+03  0.10100000352E+00 0. -1.
    10030    2    1    2    0    0  0.00000000000E+00  0.00000000000E+00 -0.10858177614E+03  0.80981329159E+03  0.80250081939E+03 0.  0.
        5    1    3    3  502    0 -0.17567956292E+03 -0.10007545371E+03  0.29542345435E+03  0.35801607875E+03  0.46999998093E+01 0.  1.
       -5    1    3    3    0  502  0.17567956292E+03  0.10007545371E+03 -0.40400523049E+03  0.45179721284E+03  0.46999998093E+01 0. -1.
</event>
<event>
 5   0  0.1119792E-02  0.8118949E+03  0.7818609E-02  0.9542958E-01
        2   -1    0    0  501    0  0.00000000000E+00  0.00000000000E+00  0.62830432366E+03  0.62830432367E+03  0.25500000920E-02 0.  1.
       -2   -1    0    0    0  501  0.00000000000E+00  0.00000000000E+00 -0.26228265281E+03  0.26228265283E+03  0.25500000920E-02 0. -1.
    10030    2    1    2    0    0  0.00000000000E+00  0.00000000000E+00  0.36602167085E+03  0.89058697649E+03  0.81189488184E+03 0.  0.
        4    1    3    3  502    0  0.22709933900E+03  0.30381105467E+03  0.24367995911E+02  0.38009298709E+03  0.12699999809E+01 0. -1.
       -4    1    3    3    0  502 -0.22709933900E+03 -0.30381105467E+03  0.34165367494E+03  0.51049398940E+03  0.12699999809E+01 0.  1.
</event>
<event>
 5   0  0.6557679E-03  0.7313543E+03  0.7818609E-02  0.9665065E-01
        1   -1    0    0  501    0  0.00000000000E+00  0.00000000000E+00  0.86382709935E+03  0.86382709937E+03  0.50400001928E-02 0. -1.
       -1   -1    0    0    0  501  0.00000000000E+00  0.00000000000E+00 -0.15479925473E+03  0.15479925481E+03  0.50400001928E-02 0.  1.
    10030    2    1    2    0    0  0.00000000000E+00  0.00000000000E+00  0.70902784462E+03  0.10186263542E+04  0.73135433613E+03 0.  0.
        1    1    3    3  502    0 -0.12163168785E+02 -0.23431718038E+03 -0.36132823295E+02  0.23739853546E+03  0.50400001928E-02 0.  1.
       -1    1    3    3    0  502  0.12163168785E+02  0.23431718038E+03  0.74516066792E+03  0.78122781871E+03  0.50400001928E-02 0. -1.
</event>
<event>
 5   0  0.1121480E-02  0.7977631E+03  0.7818609E-02  0.9563261E-01
       -2   -1    0    0    0  501  0.00000000000E+00  0.00000000000E+00  0.17912002859E+03  0.17912002861E+03  0.25500000920E-02 0.  1.
        2   -1    0    0  501    0  0.00000000000E+00  0.00000000000E+00 -0.88826746776E+03  0.88826746776E+03  0.25500000920E-02 0. -1.
    10030    2    1    2    0    0  0.00000000000E+00  0.00000000000E+00 -0.70914743917E+03  0.10673874964E+04  0.79776310828E+03 0.  0.
        2    1    3    3  502    0 -0.38096201238E+03 -0.11798445859E+03 -0.34473192261E+03  0.52715508707E+03  0.25500000920E-02 0. -1.
       -2    1    3    3    0  502  0.38096201238E+03  0.11798445859E+03 -0.36441551656E+03  0.54023240930E+03  0.25500000920E-02 0.  1.
</event>
<event>
 5   0  0.6596225E-03  0.8119985E+03  0.7818609E-02  0.9542810E-01
        1   -1    0    0  501    0  0.00000000000E+00  0.00000000000E+00  0.50111367607E+03  0.50111367610E+03  0.50400001928E-02 0.  1.
       -1   -1    0    0    0  501  0.00000000000E+00  0.00000000000E+00 -0.32893813486E+03  0.32893813490E+03  0.50400001928E-02 0. -1.
    10030    2    1    2    0    0  0.00000000000E+00  0.00000000000E+00  0.17217554121E+03  0.83005181100E+03  0.81199851721E+03 0.  0.
        5    1    3    3  502    0  0.14900162840E+03  0.21409421578E+03  0.40409182247E+03  0.48098867916E+03  0.46999998093E+01 0.  1.
       -5    1    3    3    0  502 -0.14900162840E+03 -0.21409421578E+03 -0.23191628126E+03  0.34906313184E+03  0.46999998093E+01 0. -1.
</event>
<event>
 5   0  0.4385875E-03  0.7953413E+03  0.7818609E-02  0.9566785E-01
        3   -1    0    0  501    0  0.00000000000E+00  0.00000000000E+00  0.84411502739E+03  0.84411503343E+03  0.10100000352E+00 0. -1.
       -3   -1    0    0    0  501  0.00000000000E+00  0.00000000000E+00 -0.18734639945E+03  0.18734642668E+03  0.10100000352E+00 0.  1.
    10030    2    1    2    0    0  0.00000000000E+00  0.00000000000E+00  0.65676862794E+03  0.10314614601E+04  0.79534125572E+03 0.  0.
        4    1    3    3  502    0 -0.18028980180E+03  0.11156647981E+03 -0.10793181487E+03  0.23791255035E+03  0.12699999809E+01 0.  1.
       -4    1    3    3    0  502  0.18028980180E+03 -0.11156647981E+03  0.76470044281E+03  0.79354890976E+03  0.12699999809E+01 0. -1.
</event>
<event>
 5   0  0.6557679E-03  0.7835606E+03  0.7818609E-02  0.9584122E-01
       -1   -1    0    0    0  501  0.00000000000E+00  0.00000000000E+00  0.12573464946E+03  0.12573464956E+03  0.50400001928E-02 0.  1.
        1   -1    0    0  501    0  0.00000000000E+00  0.00000000000E+00 -0.12207597295E+04  0.12207597295E+04  0.50400001928E-02 0. -1.
    10030    2    1    2    0    0  0.00000000000E+00  0.00000000000E+00 -0.10950250800E+04  0.13464943790E+04  0.78356058281E+03 0.  0.
        1    1    3    3  502    0  0.37863363806E+03  0.34983751170E+02 -0.70966994357E+03  0.80512031619E+03  0.50400001928E-02 0. -1.
       -1    1    3    3    0  502 -0.37863363806E+03 -0.34983751170E+02 -0.38535513643E+03  0.54137406284E+03  0.50400001928E-02 0.  1.
</event>
<event>
 5   0  0.1154714E-02  0.7982265E+03  0.7818609E-02  0.9562588E-01
        2   -1    0    0  501    0  0.00000000000E+00  0.00000000000E+00  0.39462995885E+03  0.39462995886E+03  0.25500000920E-02 0.  1.
       -2   -1    0    0    0  501  0.00000000000E+00  0.00000000000E+00 -0.40364750335E+03  0.40364750336E+03  0.25500000920E-02 0. -1.
    10030    2    1    2    0    0  0.00000000000E+00  0.00000000000E+00 -0.90175445004E+01  0.79827746221E+03  0.79822652835E+03 0.  0.
        5    1    3    3  502    0  0.38056593964E+03 -0.11272341095E+03 -0.46132406567E+02  0.39960892223E+03  0.46999998093E+01 0. -1.
       -5    1    3    3    0  502 -0.38056593964E+03  0.11272341095E+03  0.37114862067E+02  0.39866853999E+03  0.46999998093E+01 0.  1.
</event>
<event>
 5   0  0.6596225E-03  0.7867749E+03  0.7818609E-02  0.9579360E-01
       -1   -1    0    0    0  501  0.00000000000E+00  0.00000000000E+00  0.14584357431E+03  0.14584357439E+03  0.50400001928E-02 0. -1.
        1   -1    0    0  501    0  0.00000000000E+00  0.00000000000E+00 -0.10610935561E+04  0.10610935561E+04  0.50400001928E-02 0.  1.
    10030    2    1    2    0    0  0.00000000000E+00  0.00000000000E+00 -0.91524998181E+03  0.12069371305E+04  0.78677487748E+03 0.  0.
        5    1    3    3  502    0  0.20842464779E+03 -0.29283461291E+03 -0.21247432923E+03  0.41756481521E+03  0.46999998093E+01 0. -1.
       -5    1    3    3    0  502 -0.20842464779E+03  0.29283461291E+03 -0.70277565258E+03  0.78937231531E+03  0.46999998093E+01 0.  1.
</event>
<event>
 5   0  0.1092868E-02  0.8015851E+03  0.7818609E-02  0.9557726E-01
       -2   -1    0    0    0  501  0.00000000000E+00  0.00000000000E+00  0.44367899630E+03  0.44367899630E+03  0.25500000920E-02 0. -1.
        2   -1    0    0  501    0  0.00000000000E+00  0.00000000000E+00 -0.36205152508E+03  0.36205152509E+03  0.25500000920E-02 0.  1.
    10030    2    1    2    0    0  0.00000000000E+00  0.00000000000E+00  0.81627471216E+02  0.80573052139E+03  0.80158507287E+03 0.  0.
        3    1    3    3  502    0  0.36993517482E+03 -0.71409044255E+02  0.17820771648E+03  0.41678445939E+03  0.10100000352E+00 0. -1.
       -3    1    3    3    0  502 -0.36993517482E+03  0.71409044255E+02 -0.96580245259E+02  0.38894606200E+03  0.10100000352E+00 0.  1.
</event>
<event>
 5   0  0.6557679E-03  0.7959968E+03  0.7818609E-02  0.9565830E-01
       -1   -1    0    0    0  501  0.00000000000E+00  0.00000000000E+00  0.64937089982E+03  0.64937089983E+03  0.50400001928E-02 0.  1.
        1   -1    0    0  501    0  0.00000000000E+00  0.00000000000E+00 -0.24393261213E+03  0.24393261219E+03  0.50400001928E-02 0. -1.
    10030    2    1    2    0    0  0.00000000000E+00  0.00000000000E+00  0.40543828768E+03  0.89330351202E+03  0.79599683383E+03 0.  0.
        1    1    3    3  502    0  0.25766387903E+03 -0.26052821167E+03  0.37707253220E+03  0.52578447885E+03  0.50400001928E-02 0.  1.
       -1    1    3    3    0  502 -0.25766387903E+03  0.26052821167E+03  0.28365755478E+02  0.36751903317E+03  0.50400001928E-02 0. -1.
</event>
<event>
 5   0  0.6517392E-03  0.8007210E+03  0.7818609E-02  0.9558974E-01
       -1   -1    0    0    0  501  0.00000000000E+00  0.00000000000E+00  0.51984151590E+03  0.51984151592E+03  0.50400001928E-02 0.  1.
        1   -1    0    0  501    0  0.00000000000E+00  0.00000000000E+00 -0.30834118234E+03  0.30834118238E+03  0.50400001928E-02 0. -1.
    10030    2    1    2    0    0  0.00000000000E+00  0.00000000000E+00  0.21150033356E+03  0.82818269830E+03  0.80072104423E+03 0.  0.
        3    1    3    3  502    0  0.29902545054E+03  0.26534508541E+03  0.12803686211E+03  0.41978289946E+03  0.10100000352E+00 0.  1.
       -3    1    3    3    0  502 -0.29902545054E+03 -0.26534508541E+03  0.83463471450E+02  0.40839979884E+03  0.10100000352E+00 0. -1.
</event>
<event>
 5   0  0.1092868E-02  0.8014073E+03  0.7818609E-02  0.9557982E-01
       -2   -1    0    0    0  501  0.00000000000E+00  0.00000000000E+00  0.77259297372E+02  0.77259297414E+02  0.25500000920E-02 0.  1.
        2   -1    0    0  501    0  0.00000000000E+00  0.00000000000E+00 -0.20782406767E+04  0.20782406767E+04  0.25500000920E-02 0. -1.
    10030    2    1    2    0    0  0.00000000000E+00  0.00000000000E+00 -0.20009813793E+04  0.21554999741E+04  0.80140729843E+03 0.  0.
        3    1    3    3  502    0 -0.33886750831E+02 -0.26123910589E+03 -0.18126081597E+04  0.18316502213E+04  0.10100000352E+00 0. -1.
       -3    1    3    3    0  502  0.33886750831E+02  0.26123910589E+03 -0.18837321961E+03  0.32384975281E+03  0.10100000352E+00 0.  1.
</event>
<event>
 5   0  0.1154714E-02  0.7779126E+03  0.7818609E-02  0.9592550E-01
       -2   -1    0    0    0  501  0.00000000000E+00  0.00000000000E+00  0.18372398900E+03  0.18372398902E+03  0.25500000920E-02 0.  1.
        2   -1    0    0  501    0  0.00000000000E+00  0.00000000000E+00 -0.82344721174E+03  0.82344721174E+03  0.25500000920E-02 0. -1.
    10030    2    1    2    0    0  0.00000000000E+00  0.00000000000E+00 -0.63972322274E+03  0.10071712008E+04  0.77791260815E+03 0.  0.
        5    1    3    3  502    0 -0.24814076157E+03  0.25991788174E+03 -0.12724212476E+03  0.38123980788E+03  0.46999998093E+01 0.  1.
       -5    1    3    3    0  502  0.24814076157E+03 -0.25991788174E+03 -0.51248109798E+03  0.62593139288E+03  0.46999998093E+01 0. -1.
</event>
<event>
 5   0  0.1154714E-02  0.7775173E+03  0.7818609E-02  0.9593142E-01
       -2   -1    0    0    0  501  0.00000000000E+00  0.00000000000E+00  0.10054890799E+03  0.10054890802E+03  0.25500000920E-02 0. -1.
        2   -1    0    0  501    0  0.00000000000E+00  0.00000000000E+00 -0.15030822636E+04  0.15030822636E+04  0.25500000920E-02 0.  1.
    10030    2    1    2    0    0  0.00000000000E+00  0.00000000000E+00 -0.14025333556E+04  0.16036311716E+04  0.77751728017E+03 0.  0.
        5    1    3    3  502    0 -0.32575819157E+02 -0.25877252938E+03 -0.10675496542E+03  0.28185655678E+03  0.46999998093E+01 0. -1.
       -5    1    3    3    0  502  0.32575819157E+02  0.25877252938E+03 -0.12957783901E+04  0.13217746148E+04  0.46999998093E+01 0.  1.
</event>
<event>
 5   0  0.6551489E-03  0.7234316E+03  0.7818609E-02  0.9677979E-01
       -1   -1    0    0    0  501  0.00000000000E+00  0.00000000000E+00  0.31578616768E+03  0.31578616772E+03  0.50400001928E-02 0.  1.
        1   -1    0    0  501    0  0.00000000000E+00  0.00000000000E+00 -0.41432567103E+03  0.41432567107E+03  0.50400001928E-02 0. -1.
    10030    2    1    2    0    0  0.00000000000E+00  0.00000000000E+00 -0.98539503357E+02  0.73011183878E+03  0.72343158862E+03 0.  0.
        4    1    3    3  502    0  0.17636660035E+03 -0.12383898713E+02  0.26920424656E+03  0.32207309409E+03  0.12699999809E+01 0.  1.
       -4    1    3    3    0  502 -0.17636660035E+03  0.12383898713E+02 -0.36774374992E+03  0.40803874470E+03  0.12699999809E+01 0. -1.
</event>
<event>
 5   0  0.6596225E-03  0.8028262E+03  0.7818609E-02  0.9555935E-01
       -1   -1    0    0    0  501  0.00000000000E+00  0.00000000000E+00  0.38115410575E+03  0.38115410578E+03  0.50400001928E-02 0.  1.
        1   -1    0    0  501    0  0.00000000000E+00  0.00000000000E+00 -0.42274886684E+03  0.42274886687E+03  0.50400001928E-02 0. -1.
    10030    2    1    2    0    0  0.00000000000E+00  0.00000000000E+00 -0.41594761090E+02  0.80390297265E+03  0.80282617377E+03 0.  0.
        5    1    3    3  502    0 -0.12073468431E+03  0.37479512685E+03 -0.98761461362E+02  0.40598542752E+03  0.46999998093E+01 0. -1.
       -5    1    3    3    0  502  0.12073468431E+03 -0.37479512685E+03  0.57166700272E+02  0.39791754513E+03  0.46999998093E+01 0.  1.
</event>
<event>
 5   0  0.6600401E-03  0.8021136E+03  0.7818609E-02  0.9556963E-01
       -1   -1    0    0    0  501  0.00000000000E+00  0.00000000000E+00  0.31417557642E+03  0.31417557646E+03  0.50400001928E-02 0.  1.
        1   -1    0    0  501    0  0.00000000000E+00  0.00000000000E+00 -0.51196385293E+03  0.51196385295E+03  0.50400001928E-02 0. -1.
    10030    2    1    2    0    0  0.00000000000E+00  0.00000000000E+00 -0.19778827651E+03  0.82613942941E+03  0.80211355462E+03 0.  0.
        2    1    3    3  502    0 -0.37151492738E+03  0.14259696017E+03 -0.47506756539E+02  0.40076692258E+03  0.25500000920E-02 0.  1.
       -2    1    3    3    0  502  0.37151492738E+03 -0.14259696017E+03 -0.15028151997E+03  0.42537250683E+03  0.25500000920E-02 0. -1.
</event>
<event>
 5   0  0.6557679E-03  0.7873527E+03  0.7818609E-02  0.9578506E-01
       -1   -1    0    0    0  501  0.00000000000E+00  0.00000000000E+00  0.34714248883E+03  0.34714248887E+03  0.50400001928E-02 0. -1.
        1   -1    0    0  501    0  0.00000000000E+00  0.00000000000E+00 -0.44644797654E+03  0.44644797657E+03  0.50400001928E-02 0.  1.
    10030    2    1    2    0    0  0.00000000000E+00  0.00000000000E+00 -0.99305487712E+02  0.79359046544E+03  0.78735268270E+03 0.  0.
        1    1    3    3  502    0 -0.11944978542E+03 -0.15665030917E+03  0.29388989718E+03  0.35380622138E+03  0.50400001928E-02 0. -1.
       -1    1    3    3    0  502  0.11944978542E+03  0.15665030917E+03 -0.39319538489E+03  0.43978424406E+03  0.50400001928E-02 0.  1.
</event>
<event>
 5   0  0.4385875E-03  0.8001977E+03  0.7818609E-02  0.9559731E-01
        3   -1    0    0  501    0  0.00000000000E+00  0.00000000000E+00  0.73761691103E+03  0.73761691795E+03  0.10100000352E+00 0.  1.
       -3   -1    0    0    0  501  0.00000000000E+00  0.00000000000E+00 -0.21702196004E+03  0.21702198354E+03  0.10100000352E+00 0. -1.
    10030    2    1    2    0    0  0.00000000000E+00  0.00000000000E+00  0.52059495100E+03  0.95463890149E+03  0.80019768135E+03 0.  0.
        1    1    3    3  502    0 -0.58841218409E+02 -0.12868181622E+03  0.70677074612E+03  0.72079552330E+03  0.50400001928E-02 0.  1.
       -1    1    3    3    0  502  0.58841218409E+02  0.12868181622E+03 -0.18617579512E+03  0.23384337819E+03  0.50400001928E-02 0. -1.
</event>
<event>
 5   0  0.6551489E-03  0.8164767E+03  0.7818609E-02  0.9536469E-01
       -1   -1    0    0    0  501  0.00000000000E+00  0.00000000000E+00  0.11363552276E+03  0.11363552287E+03  0.50400001928E-02 0. -1.
        1   -1    0    0  501    0  0.00000000000E+00  0.00000000000E+00 -0.14666061690E+04  0.14666061690E+04  0.50400001928E-02 0.  1.
    10030    2    1    2    0    0  0.00000000000E+00  0.00000000000E+00 -0.13529706463E+04  0.15802416919E+04  0.81647672052E+03 0.  0.
        4    1    3    3  502    0 -0.89964368029E+02  0.25222938615E+02  0.92659505283E+02  0.13159476041E+03  0.12699999809E+01 0. -1.
       -4    1    3    3    0  502  0.89964368029E+02 -0.25222938615E+02 -0.14456301516E+04  0.14486469315E+04  0.12699999809E+01 0.  1.
</event>
<event>
 5   0  0.1092868E-02  0.8022826E+03  0.7818609E-02  0.9556719E-01
       -2   -1    0    0    0  501  0.00000000000E+00  0.00000000000E+00  0.24959609209E+03  0.24959609210E+03  0.25500000920E-02 0. -1.
        2   -1    0    0  501    0  0.00000000000E+00  0.00000000000E+00 -0.64469902341E+03  0.64469902342E+03  0.25500000920E-02 0.  1.
    10030    2    1    2    0    0  0.00000000000E+00  0.00000000000E+00 -0.39510293132E+03  0.89429511552E+03  0.80228263555E+03 0.  0.
        3    1    3    3  502    0 -0.32599870184E+03  0.11250428125E+03 -0.42594558812E+03  0.54805293643E+03  0.10100000352E+00 0.  1.
       -3    1    3    3    0  502  0.32599870184E+03 -0.11250428125E+03  0.30842656797E+02  0.34624217909E+03  0.10100000352E+00 0. -1.
</event>
<event>
 5   0  0.1154714E-02  0.7803461E+03  0.7818609E-02  0.9588909E-01
        2   -1    0    0  501    0  0.00000000000E+00  0.00000000000E+00  0.67387428098E+03  0.67387428099E+03  0.25500000920E-02 0. -1.
       -2   -1    0    0    0  501  0.00000000000E+00  0.00000000000E+00 -0.22591011531E+03  0.22591011532E+03  0.25500000920E-02 0.  1.
    10030    2    1    2    0    0  0.00000000000E+00  0.00000000000E+00  0.44796416567E+03  0.89978439631E+03  0.78034611944E+03 0.  0.
        5    1    3    3  502    0  0.32139843077E+03  0.21456422192E+03  0.28584200887E+03  0.48068960948E+03  0.46999998093E+01 0.  1.
       -5    1    3    3    0  502 -0.32139843077E+03 -0.21456422192E+03  0.16212215680E+03  0.41909478683E+03  0.46999998093E+01 0. -1.
</event>
<event>
 5   0  0.1154714E-02  0.8054601E+03  0.7818609E-02  0.9552147E-01
       -2   -1    0    0    0  501  0.00000000000E+00  0.00000000000E+00  0.66871117801E+02  0.66871117849E+02  0.25500000920E-02 0.  1.
        2   -1    0    0  501    0  0.00000000000E+00  0.00000000000E+00 -0.24254341583E+04  0.24254341583E+04  0.25500000920E-02 0. -1.
    10030    2    1    2    0    0  0.00000000000E+00  0.00000000000E+00 -0.23585630405E+04  0.24923052761E+04  0.80546010051E+03 0.  0.
        5    1    3    3  502    0 -0.28006829572E+03 -0.19166868911E+02 -0.28588158761E+03  0.40069438636E+03  0.46999998093E+01 0.  1.
       -5    1    3    3    0  502  0.28006829572E+03  0.19166868911E+02 -0.20726814529E+04  0.20916108898E+04  0.46999998093E+01 0. -1.
</event>
<event>
 5   0  0.6557679E-03  0.8027111E+03  0.7818609E-02  0.9556101E-01
        1   -1    0    0  501    0  0.00000000000E+00  0.00000000000E+00  0.10394023585E+04  0.10394023585E+04  0.50400001928E-02 0. -1.
       -1   -1    0    0    0  501  0.00000000000E+00  0.00000000000E+00 -0.15497970470E+03  0.15497970478E+03  0.50400001928E-02 0.  1.
    10030    2    1    2    0    0  0.00000000000E+00  0.00000000000E+00  0.88442265383E+03  0.11943820633E+04  0.80271108289E+03 0.  0.
        1    1    3    3  502    0  0.21167551216E+03  0.16529164346E+03  0.88600136145E+03  0.92581113752E+03  0.50400001928E-02 0. -1.
       -1    1    3    3    0  502 -0.21167551216E+03 -0.16529164346E+03 -0.15787076152E+01  0.26857092581E+03  0.50400001928E-02 0.  1.
</event>
<event>
 5   0  0.1106332E-02  0.7919692E+03  0.7818609E-02  0.9571715E-01
       -2   -1    0    0    0  501  0.00000000000E+00  0.00000000000E+00  0.57546484509E+03  0.57546484509E+03  0.25500000920E-02 0. -1.
        2   -1    0    0  501    0  0.00000000000E+00  0.00000000000E+00 -0.27248201043E+03  0.27248201044E+03  0.25500000920E-02 0.  1.
    10030    2    1    2    0    0  0.00000000000E+00  0.00000000000E+00  0.30298283465E+03  0.84794685554E+03  0.79196923660E+03 0.  0.
        1    1    3    3  502    0  0.22848200705E+03  0.17070147688E+03 -0.14262618261E+03  0.31888124709E+03  0.50400001928E-02 0.  1.
       -1    1    3    3    0  502 -0.22848200705E+03 -0.17070147688E+03  0.44560901726E+03  0.52906560845E+03  0.50400001928E-02 0. -1.
</event>
<event>
 5   0  0.1106332E-02  0.8010428E+03  0.7818609E-02  0.9558509E-01
       -2   -1    0    0    0  501  0.00000000000E+00  0.00000000000E+00  0.97576764105E+03  0.97576764106E+03  0.25500000920E-02 0.  1.
        2   -1    0    0  501    0  0.00000000000E+00  0.00000000000E+00 -0.16440120911E+03  0.16440120913E+03  0.25500000920E-02 0. -1.
    10030    2    1    2    0    0  0.00000000000E+00  0.00000000000E+00  0.81136643194E+03  0.11401688502E+04  0.80104277044E+03 0.  0.
        1    1    3    3  502    0  0.31154820010E+03  0.14899165046E+03  0.69444062978E+03  0.77556984289E+03  0.50400001928E-02 0.  1.
       -1    1    3    3    0  502 -0.31154820010E+03 -0.14899165046E+03  0.11692580216E+03  0.36459900730E+03  0.50400001928E-02 0. -1.
</event>
<event>
 5   0  0.6557679E-03  0.7971812E+03  0.7818609E-02  0.9564106E-01
        1   -1    0    0  501    0  0.00000000000E+00  0.00000000000E+00  0.14899337132E+04  0.14899337132E+04  0.50400001928E-02 0. -1.
       -1   -1    0    0    0  501  0.00000000000E+00  0.00000000000E+00 -0.10663191539E+03  0.10663191551E+03  0.50400001928E-02 0.  1.
    10030    2    1    2    0    0  0.00000000000E+00  0.00000000000E+00  0.13833017978E+04  0.15965656288E+04  0.79718124852E+03 0.  0.
        1    1    3    3  502    0  0.20279617636E+03 -0.10063126020E+03  0.34629803174E+02  0.22902437200E+03  0.50400001928E-02 0.  1.
       -1    1    3    3    0  502 -0.20279617636E+03  0.10063126020E+03  0.13486719947E+04  0.13675412567E+04  0.50400001928E-02 0. -1.
</event>
<event>
 5   0  0.1119792E-02  0.7958980E+03  0.7818609E-02  0.9565974E-01
        2   -1    0    0  501    0  0.00000000000E+00  0.00000000000E+00  0.14032904136E+04  0.14032904136E+04  0.25500000920E-02 0.  1.
       -2   -1    0    0    0  501  0.00000000000E+00  0.00000000000E+00 -0.11285147291E+03  0.11285147294E+03  0.25500000920E-02 0. -1.
    10030    2    1    2    0    0  0.00000000000E+00  0.00000000000E+00  0.12904389407E+04  0.15161418865E+04  0.79589795857E+03 0.  0.
        4    1    3    3  502    0 -0.18387245998E+02  0.16992343658E+03 -0.39368363206E+02  0.17539539913E+03  0.12699999809E+01 0. -1.
       -4    1    3    3    0  502  0.18387245998E+02 -0.16992343658E+03  0.13298073039E+04  0.13407464874E+04  0.12699999809E+01 0.  1.
</event>
<event>
 5   0  0.6600401E-03  0.8047567E+03  0.7818609E-02  0.9553157E-01
       -1   -1    0    0    0  501  0.00000000000E+00  0.00000000000E+00  0.59408342904E+03  0.59408342906E+03  0.50400001928E-02 0. -1.
        1   -1    0    0  501    0  0.00000000000E+00  0.00000000000E+00 -0.27253467184E+03  0.27253467189E+03  0.50400001928E-02 0.  1.
    10030    2    1    2    0    0  0.00000000000E+00  0.00000000000E+00  0.32154875719E+03  0.86661810095E+03  0.80475668972E+03 0.  0.
        2    1    3    3  502    0 -0.31789879317E+03  0.17846187812E+03 -0.22610075550E+02  0.36526634140E+03  0.25500000920E-02 0.  1.
       -2    1    3    3    0  502  0.31789879317E+03 -0.17846187812E+03  0.34415883274E+03  0.50135175955E+03  0.25500000920E-02 0. -1.
</event>
<event>
 5   0  0.1121480E-02  0.8011626E+03  0.7818609E-02  0.9558336E-01
        2   -1    0    0  501    0  0.00000000000E+00  0.00000000000E+00  0.75062692901E+03  0.75062692902E+03  0.25500000920E-02 0.  1.
       -2   -1    0    0    0  501  0.00000000000E+00  0.00000000000E+00 -0.21377513209E+03  0.21377513211E+03  0.25500000920E-02 0. -1.
    10030    2    1    2    0    0  0.00000000000E+00  0.00000000000E+00  0.53685179692E+03  0.96440206113E+03  0.80116258253E+03 0.  0.
        2    1    3    3  502    0 -0.29095675488E+03  0.15715375117E+03 -0.37188216993E+01  0.33070676492E+03  0.25500000920E-02 0. -1.
       -2    1    3    3    0  502  0.29095675488E+03 -0.15715375117E+03  0.54057061862E+03  0.63369529621E+03  0.25500000920E-02 0.  1.
</event>
<event>
 5   0  0.6557679E-03  0.7950900E+03  0.7818609E-02  0.9567152E-01
        1   -1    0    0  501    0  0.00000000000E+00  0.00000000000E+00  0.59296284940E+03  0.59296284942E+03  0.50400001928E-02 0.  1.
       -1   -1    0    0    0  501  0.00000000000E+00  0.00000000000E+00 -0.26652936277E+03  0.26652936281E+03  0.50400001928E-02 0. -1.
    10030    2    1    2    0    0  0.00000000000E+00  0.00000000000E+00  0.32643348663E+03  0.85949221224E+03  0.79508995824E+03 0.  0.
        1    1    3    3  502    0  0.36400438536E+03 -0.15964479156E+03  0.17133204878E+03  0.43282828350E+03  0.50400001928E-02 0. -1.
       -1    1    3    3    0  502 -0.36400438536E+03  0.15964479156E+03  0.15510143785E+03  0.42666392873E+03  0.50400001928E-02 0.  1.
</event>
<event>
 5   0  0.1121480E-02  0.7968803E+03  0.7818609E-02  0.9564544E-01
       -2   -1    0    0    0  501  0.00000000000E+00  0.00000000000E+00  0.40539888841E+03  0.40539888842E+03  0.25500000920E-02 0.  1.
        2   -1    0    0  501    0  0.00000000000E+00  0.00000000000E+00 -0.39160085725E+03  0.39160085725E+03  0.25500000920E-02 0. -1.
    10030    2    1    2    0    0  0.00000000000E+00  0.00000000000E+00  0.13798031161E+02  0.79699974567E+03  0.79688029775E+03 0.  0.
        2    1    3    3  502    0 -0.30468626793E+03  0.23782573142E+03  0.10365932767E+03  0.40017503247E+03  0.25500000920E-02 0.  1.
       -2    1    3    3    0  502  0.30468626793E+03 -0.23782573142E+03 -0.89861296506E+02  0.39682471320E+03  0.25500000920E-02 0. -1.
</event>
<event>
 5   0  0.1154714E-02  0.7997854E+03  0.7818609E-02  0.9560328E-01
        2   -1    0    0  501    0  0.00000000000E+00  0.00000000000E+00  0.19042329534E+04  0.19042329534E+04  0.25500000920E-02 0. -1.
       -2   -1    0    0    0  501  0.00000000000E+00  0.00000000000E+00 -0.83978258787E+02  0.83978258826E+02  0.25500000920E-02 0.  1.
    10030    2    1    2    0    0  0.00000000000E+00  0.00000000000E+00  0.18202546946E+04  0.19882112122E+04  0.79978539068E+03 0.  0.
        5    1    3    3  502    0 -0.19090984132E+03  0.28753427514E+03  0.14120733679E+04  0.14536491369E+04  0.46999998093E+01 0. -1.
       -5    1    3    3    0  502  0.19090984132E+03 -0.28753427514E+03  0.40818132669E+03  0.53456207530E+03  0.46999998093E+01 0.  1.
</event>
<event>
 5   0  0.1154714E-02  0.7965694E+03  0.7818609E-02  0.9564996E-01
        2   -1    0    0  501    0  0.00000000000E+00  0.00000000000E+00  0.82973463040E+03  0.82973463041E+03  0.25500000920E-02 0.  1.
       -2   -1    0    0    0  501  0.00000000000E+00  0.00000000000E+00 -0.19118245879E+03  0.19118245880E+03  0.25500000920E-02 0. -1.
    10030    2    1    2    0    0  0.00000000000E+00  0.00000000000E+00  0.63855217162E+03  0.10209170892E+04  0.79656941139E+03 0.  0.
        5    1    3    3  502    0 -0.12479031743E+03  0.32914310988E+03  0.80529794643E+02  0.36113009835E+03  0.46999998093E+01 0. -1.
       -5    1    3    3    0  502  0.12479031743E+03 -0.32914310988E+03  0.55802237697E+03  0.65978699086E+03  0.46999998093E+01 0.  1.
</event>
<event>
 5   0  0.4385875E-03  0.7913325E+03  0.7818609E-02  0.9572648E-01
        4   -1    0    0  501    0  0.00000000000E+00  0.00000000000E+00  0.72485850977E+03  0.72485962233E+03  0.12699999809E+01 0.  1.
       -4   -1    0    0    0  501  0.00000000000E+00  0.00000000000E+00 -0.21597247953E+03  0.21597621353E+03  0.12699999809E+01 0. -1.
    10030    2    1    2    0    0  0.00000000000E+00  0.00000000000E+00  0.50888603025E+03  0.94083583587E+03  0.79133247012E+03 0.  0.
        2    1    3    3  502    0 -0.57540745463E+02 -0.72373000165E+02 -0.20295059838E+03  0.22301958194E+03  0.25500000920E-02 0. -1.
       -2    1    3    3    0  502  0.57540745463E+02  0.72373000165E+02  0.71183662863E+03  0.71781625393E+03  0.25500000920E-02 0.  1.
</event>
<event>
 5   0  0.6557679E-03  0.7997045E+03  0.7818609E-02  0.9560445E-01
       -1   -1    0    0    0  501  0.00000000000E+00  0.00000000000E+00  0.27388862929E+03  0.27388862934E+03  0.50400001928E-02 0.  1.
        1   -1    0    0  501    0  0.00000000000E+00  0.00000000000E+00 -0.58374756109E+03  0.58374756111E+03  0.50400001928E-02 0. -1.
    10030    2    1    2    0    0  0.00000000000E+00  0.00000000000E+00 -0.30985893180E+03  0.85763619045E+03  0.79970449389E+03 0.  0.
        1    1    3    3  502    0  0.14373181005E+03 -0.21680961516E+03  0.17074076428E+03  0.31115534875E+03  0.50400001928E-02 0.  1.
       -1    1    3    3    0  502 -0.14373181005E+03  0.21680961516E+03 -0.48059969608E+03  0.54648084170E+03  0.50400001928E-02 0. -1.
</event>
<event>
 5   0  0.6557679E-03  0.8226902E+03  0.7818609E-02  0.9527743E-01
       -1   -1    0    0    0  501  0.00000000000E+00  0.00000000000E+00  0.89656109106E+02  0.89656109248E+02  0.50400001928E-02 0. -1.
        1   -1    0    0  501    0  0.00000000000E+00  0.00000000000E+00 -0.18872642976E+04  0.18872642976E+04  0.50400001928E-02 0.  1.
    10030    2    1    2    0    0  0.00000000000E+00  0.00000000000E+00 -0.17976081885E+04  0.19769204068E+04  0.82269015777E+03 0.  0.
        1    1    3    3  502    0 -0.16616454410E+03  0.12517077220E+03 -0.17515335593E+04  0.17638447174E+04  0.50400001928E-02 0.  1.
       -1    1    3    3    0  502  0.16616454410E+03 -0.12517077220E+03 -0.46074629187E+02  0.21307568939E+03  0.50400001928E-02 0. -1.
</event>
<event>
 5   0  0.6517392E-03  0.7962073E+03  0.7818609E-02  0.9565523E-01
       -1   -1    0    0    0  501  0.00000000000E+00  0.00000000000E+00  0.19110209288E+03  0.19110209295E+03  0.50400001928E-02 0.  1.
        1   -1    0    0  501    0  0.00000000000E+00  0.00000000000E+00 -0.82932894772E+03  0.82932894773E+03  0.50400001928E-02 0. -1.
    10030    2    1    2    0    0  0.00000000000E+00  0.00000000000E+00 -0.63822685483E+03  0.10204310407E+04  0.79620725352E+03 0.  0.
        3    1    3    3  502    0  0.20953392509E+03  0.23797744969E+03 -0.62763077335E+03  0.70317716842E+03  0.10100000352E+00 0. -1.
       -3    1    3    3    0  502 -0.20953392509E+03 -0.23797744969E+03 -0.10596081482E+02  0.31725387227E+03  0.10100000352E+00 0.  1.
</event>
<event>
 5   0  0.1106332E-02  0.7922152E+03  0.7818609E-02  0.9571354E-01
       -2   -1    0    0    0  501  0.00000000000E+00  0.00000000000E+00  0.13001952982E+03  0.13001952984E+03  0.25500000920E-02 0.  1.
        2   -1    0    0  501    0  0.00000000000E+00  0.00000000000E+00 -0.12067512163E+04  0.12067512163E+04  0.25500000920E-02 0. -1.
    10030    2    1    2    0    0  0.00000000000E+00  0.00000000000E+00 -0.10767316865E+04  0.13367707462E+04  0.79221518736E+03 0.  0.
        1    1    3    3  502    0 -0.35152729280E+02  0.38895531285E+03 -0.65003029200E+03  0.75832798334E+03  0.50400001928E-02 0. -1.
       -1    1    3    3    0  502  0.35152729280E+02 -0.38895531285E+03 -0.42670139448E+03  0.57844276281E+03  0.50400001928E-02 0.  1.
</event>
<event>
 5   0  0.6596225E-03  0.7711116E+03  0.7818609E-02  0.9602800E-01
       -1   -1    0    0    0  501  0.00000000000E+00  0.00000000000E+00  0.20263722574E+03  0.20263722580E+03  0.50400001928E-02 0. -1.
        1   -1    0    0  501    0  0.00000000000E+00  0.00000000000E+00 -0.73359319998E+03  0.73359320000E+03  0.50400001928E-02 0.  1.
    10030    2    1    2    0    0  0.00000000000E+00  0.00000000000E+00 -0.53095597424E+03  0.93623042580E+03  0.77111164147E+03 0.  0.
        5    1    3    3  502    0  0.26924581885E+03 -0.71578298998E+02 -0.58902605850E+03  0.65160613214E+03  0.46999998093E+01 0. -1.
       -5    1    3    3    0  502 -0.26924581885E+03  0.71578298998E+02  0.58070084266E+02  0.28462429366E+03  0.46999998093E+01 0.  1.
</event>
<event>
 5   0  0.1106332E-02  0.7990438E+03  0.7818609E-02  0.9561402E-01
        2   -1    0    0  501    0  0.00000000000E+00  0.00000000000E+00  0.58198720657E+03  0.58198720657E+03  0.25500000920E-02 0.  1.
       -2   -1    0    0    0  501  0.00000000000E+00  0.00000000000E+00 -0.27426329497E+03  0.27426329499E+03  0.25500000920E-02 0. -1.
    10030    2    1    2    0    0  0.00000000000E+00  0.00000000000E+00  0.30772391159E+03  0.85625050156E+03  0.79904375077E+03 0.  0.
        1    1    3    3  502    0  0.23295498690E+02 -0.12931316143E+03  0.55817134588E+03  0.57342813444E+03  0.50400001928E-02 0.  1.
       -1    1    3    3    0  502 -0.23295498690E+02  0.12931316143E+03 -0.25044743429E+03  0.28282236712E+03  0.50400001928E-02 0. -1.
</event>
<event>
 5   0  0.1092868E-02  0.7785412E+03  0.7818609E-02  0.9591608E-01
        2   -1    0    0  501    0  0.00000000000E+00  0.00000000000E+00  0.44804442737E+03  0.44804442738E+03  0.25500000920E-02 0. -1.
       -2   -1    0    0    0  501  0.00000000000E+00  0.00000000000E+00 -0.33820661029E+03  0.33820661030E+03  0.25500000920E-02 0.  1.
    10030    2    1    2    0    0  0.00000000000E+00  0.00000000000E+00  0.10983781709E+03  0.78625103768E+03  0.77854116666E+03 0.  0.
        3    1    3    3  502    0 -0.37890461113E+03  0.88551524998E+02  0.66050766803E+02  0.39468061887E+03  0.10100000352E+00 0.  1.
       -3    1    3    3    0  502  0.37890461113E+03 -0.88551524998E+02  0.43787050284E+02  0.39157041881E+03  0.10100000352E+00 0. -1.
</event>
<event>
 5   0  0.1121480E-02  0.8022466E+03  0.7818609E-02  0.9556771E-01
       -2   -1    0    0    0  501  0.00000000000E+00  0.00000000000E+00  0.72192193172E+03  0.72192193172E+03  0.25500000920E-02 0.  1.
        2   -1    0    0  501    0  0.00000000000E+00  0.00000000000E+00 -0.22287712105E+03  0.22287712107E+03  0.25500000920E-02 0. -1.
    10030    2    1    2    0    0  0.00000000000E+00  0.00000000000E+00  0.49904481066E+03  0.94479905279E+03  0.80224655007E+03 0.  0.
        2    1    3    3  502    0 -0.15365599374E+03  0.30183467292E+03 -0.35732205594E+01  0.33871389417E+03  0.25500000920E-02 0. -1.
       -2    1    3    3    0  502  0.15365599374E+03 -0.30183467292E+03  0.50261803122E+03  0.60608515863E+03  0.25500000920E-02 0.  1.
</event>
<event>
 5   0  0.6600401E-03  0.7605244E+03  0.7818609E-02  0.9618982E-01
        1   -1    0    0  501    0  0.00000000000E+00  0.00000000000E+00  0.14985597882E+04  0.14985597882E+04  0.50400001928E-02 0. -1.
       -1   -1    0    0    0  501  0.00000000000E+00  0.00000000000E+00 -0.96492209541E+02  0.96492209673E+02  0.50400001928E-02 0.  1.
    10030    2    1    2    0    0  0.00000000000E+00  0.00000000000E+00  0.14020675786E+04  0.15950519978E+04  0.76052441171E+03 0.  0.
        2    1    3    3  502    0 -0.18176543658E+03  0.98402197692E+02  0.31609899310E+02  0.20909531842E+03  0.25500000920E-02 0.  1.
       -2    1    3    3    0  502  0.18176543658E+03 -0.98402197692E+02  0.13704576793E+04  0.13859566794E+04  0.25500000920E-02 0. -1.
</event>
<event>
 5   0  0.1154714E-02  0.7982329E+03  0.7818609E-02  0.9562578E-01
       -2   -1    0    0    0  501  0.00000000000E+00  0.00000000000E+00  0.15600049199E+03  0.15600049201E+03  0.25500000920E-02 0.  1.
        2   -1    0    0  501    0  0.00000000000E+00  0.00000000000E+00 -0.10211116974E+04  0.10211116974E+04  0.25500000920E-02 0. -1.
    10030    2    1    2    0    0  0.00000000000E+00  0.00000000000E+00 -0.86511120544E+03  0.11771121894E+04  0.79823286626E+03 0.  0.
        5    1    3    3  502    0 -0.12207476197E+03  0.85982735234E+02 -0.97832776166E+03  0.98966791274E+03  0.46999998093E+01 0. -1.
       -5    1    3    3    0  502  0.12207476197E+03 -0.85982735234E+02  0.11321655623E+03  0.18744427671E+03  0.46999998093E+01 0.  1.
</event>
<event>
 5   0  0.6596225E-03  0.7762108E+03  0.7818609E-02  0.9595104E-01
        1   -1    0    0  501    0  0.00000000000E+00  0.00000000000E+00  0.24486099759E+03  0.24486099764E+03  0.50400001928E-02 0. -1.
       -1   -1    0    0    0  501  0.00000000000E+00  0.00000000000E+00 -0.61514825407E+03  0.61514825409E+03  0.50400001928E-02 0.  1.
    10030    2    1    2    0    0  0.00000000000E+00  0.00000000000E+00 -0.37028725648E+03  0.86000925173E+03  0.77621083524E+03 0.  0.
        5    1    3    3  502    0  0.24286930642E+03 -0.24675691490E+03 -0.37936606732E+03  0.51362941708E+03  0.46999998093E+01 0.  1.
       -5    1    3    3    0  502 -0.24286930642E+03  0.24675691490E+03  0.90788108425E+01  0.34637983465E+03  0.46999998093E+01 0. -1.
</event>
<event>
 5   0  0.1154714E-02  0.7923991E+03  0.7818609E-02  0.9571085E-01
       -2   -1    0    0    0  501  0.00000000000E+00  0.00000000000E+00  0.52651141952E+03  0.52651141952E+03  0.25500000920E-02 0.  1.
        2   -1    0    0  501    0  0.00000000000E+00  0.00000000000E+00 -0.29813995909E+03  0.29813995910E+03  0.25500000920E-02 0. -1.
    10030    2    1    2    0    0  0.00000000000E+00  0.00000000000E+00  0.22837146043E+03  0.82465137863E+03  0.79239912439E+03 0.  0.
        5    1    3    3  502    0 -0.84168681479E+02 -0.82089744576E+02  0.50790809445E+03  0.52135958370E+03  0.46999998093E+01 0.  1.
       -5    1    3    3    0  502  0.84168681479E+02  0.82089744576E+02 -0.27953663403E+03  0.30329179493E+03  0.46999998093E+01 0. -1.
</event>
<event>
 5   0  0.1106332E-02  0.7971625E+03  0.7818609E-02  0.9564133E-01
        2   -1    0    0  501    0  0.00000000000E+00  0.00000000000E+00  0.56730033328E+03  0.56730033328E+03  0.25500000920E-02 0. -1.
       -2   -1    0    0    0  501  0.00000000000E+00  0.00000000000E+00 -0.28004040959E+03  0.28004040960E+03  0.25500000920E-02 0.  1.
    10030    2    1    2    0    0  0.00000000000E+00  0.00000000000E+00  0.28725992369E+03  0.84734074288E+03  0.79716251216E+03 0.  0.
        1    1    3    3  502    0  0.28893021222E+03 -0.23533312064E+03 -0.67108685352E+01  0.37270280518E+03  0.50400001928E-02 0. -1.
       -1    1    3    3    0  502 -0.28893021222E+03  0.23533312064E+03  0.29397079222E+03  0.47463793771E+03  0.50400001928E-02 0.  1.
</event>
<event>
 5   0  0.1119792E-02  0.8033180E+03  0.7818609E-02  0.9555227E-01
        2   -1    0    0  501    0  0.00000000000E+00  0.00000000000E+00  0.35938057831E+03  0.35938057832E+03  0.25500000920E-02 0. -1.
       -2   -1    0    0    0  501  0.00000000000E+00  0.00000000000E+00 -0.44891115602E+03  0.44891115603E+03  0.25500000920E-02 0.  1.
    10030    2    1    2    0    0  0.00000000000E+00  0.00000000000E+00 -0.89530577710E+02  0.80829173434E+03  0.80331799648E+03 0.  0.
        4    1    3    3  502    0  0.72098407211E+02  0.16749433132E+03 -0.40485788432E+03  0.44403158755E+03  0.12699999809E+01 0.  1.
       -4    1    3    3    0  502 -0.72098407211E+02 -0.16749433132E+03  0.31532730661E+03  0.36426014679E+03  0.12699999809E+01 0. -1.
</event>
<event>
 5   0  0.6600401E-03  0.7578142E+03  0.7818609E-02  0.9623170E-01
       -1   -1    0    0    0  501  0.00000000000E+00  0.00000000000E+00  0.10708387611E+04  0.10708387611E+04  0.50400001928E-02 0.  1.
        1   -1    0    0  501    0  0.00000000000E+00  0.00000000000E+00 -0.13407300785E+03  0.13407300794E+03  0.50400001928E-02 0. -1.
    10030    2    1    2    0    0  0.00000000000E+00  0.00000000000E+00  0.93676575328E+03  0.12049117691E+04  0.75781415581E+03 0.  0.
        2    1    3    3  502    0 -0.22190051402E+03  0.27000246133E+03  0.70113711808E+03  0.78341204075E+03  0.25500000920E-02 0.  1.
       -2    1    3    3    0  502  0.22190051402E+03 -0.27000246133E+03  0.23562863520E+03  0.42149972833E+03  0.25500000920E-02 0. -1.
</event>
<event>
 5   0  0.6600401E-03  0.8009495E+03  0.7818609E-02  0.9558644E-01
        1   -1    0    0  501    0  0.00000000000E+00  0.00000000000E+00  0.60127090696E+03  0.60127090698E+03  0.50400001928E-02 0.  1.
       -1   -1    0    0    0  501  0.00000000000E+00  0.00000000000E+00 -0.26673507149E+03  0.26673507154E+03  0.50400001928E-02 0. -1.
    10030    2    1    2    0    0  0.00000000000E+00  0.00000000000E+00  0.33453583547E+03  0.86800597852E+03  0.80094953246E+03 0.  0.
        2    1    3    3  502    0 -0.35890552803E+01  0.29980533876E+03 -0.12044713000E+03  0.32311551123E+03  0.25500000920E-02 0. -1.
       -2    1    3    3    0  502  0.35890552803E+01 -0.29980533876E+03  0.45498296547E+03  0.54489046729E+03  0.25500000920E-02 0.  1.
</event>
<event>
 5   0  0.1154714E-02  0.8005393E+03  0.7818609E-02  0.9559237E-01
        2   -1    0    0  501    0  0.00000000000E+00  0.00000000000E+00  0.76992793858E+03  0.76992793858E+03  0.25500000920E-02 0.  1.
       -2   -1    0    0    0  501  0.00000000000E+00  0.00000000000E+00 -0.20809192881E+03  0.20809192882E+03  0.25500000920E-02 0. -1.
    10030    2    1    2    0    0  0.00000000000E+00  0.00000000000E+00  0.56183600977E+03  0.97801986741E+03  0.80053929271E+03 0.  0.
        5    1    3    3  502    0  0.10272491272E+03  0.10913722982E+03 -0.17248026731E+03  0.22854950281E+03  0.46999998093E+01 0. -1.
       -5    1    3    3    0  502 -0.10272491272E+03 -0.10913722982E+03  0.73431627708E+03  0.74947036460E+03  0.46999998093E+01 0.  1.
</event>
<event>
 5   0  0.1092868E-02  0.8045385E+03  0.7818609E-02  0.9553471E-01
       -2   -1    0    0    0  501  0.00000000000E+00  0.00000000000E+00  0.73836206358E+03  0.73836206358E+03  0.25500000920E-02 0.  1.
        2   -1    0    0  501    0  0.00000000000E+00  0.00000000000E+00 -0.21916153956E+03  0.21916153957E+03  0.25500000920E-02 0. -1.
    10030    2    1    2    0    0  0.00000000000E+00  0.00000000000E+00  0.51920052402E+03  0.95752360316E+03  0.80453854255E+03 0.  0.
        3    1    3    3  502    0 -0.25330924013E+03 -0.27955200668E+03  0.42582014340E+03  0.56889164196E+03  0.10100000352E+00 0.  1.
       -3    1    3    3    0  502  0.25330924013E+03  0.27955200668E+03  0.93380380625E+02  0.38863196119E+03  0.10100000352E+00 0. -1.
</event>
<event>
 5   0  0.6600401E-03  0.8041724E+03  0.7818609E-02  0.9553997E-01
       -1   -1    0    0    0  501  0.00000000000E+00  0.00000000000E+00  0.14883172583E+03  0.14883172592E+03  0.50400001928E-02 0.  1.
        1   -1    0    0  501    0  0.00000000000E+00  0.00000000000E+00 -0.10862825195E+04  0.10862825195E+04  0.50400001928E-02 0. -1.
    10030    2    1    2    0    0  0.00000000000E+00  0.00000000000E+00 -0.93745079370E+03  0.12351142455E+04  0.80417237502E+03 0.  0.
        2    1    3    3  502    0 -0.21110556370E+03 -0.61882836369E+02 -0.98565483012E+03  0.10099061781E+04  0.25500000920E-02 0. -1.
       -2    1    3    3    0  502  0.21110556370E+03  0.61882836369E+02  0.48204036424E+02  0.22520806734E+03  0.25500000920E-02 0.  1.
</event>
<event>
 5   0  0.1119792E-02  0.7956066E+03  0.7818609E-02  0.9566398E-01
       -2   -1    0    0    0  501  0.00000000000E+00  0.00000000000E+00  0.37389785659E+03  0.37389785660E+03  0.25500000920E-02 0. -1.
        2   -1    0    0  501    0  0.00000000000E+00  0.00000000000E+00 -0.42323713976E+03  0.42323713977E+03  0.25500000920E-02 0.  1.
    10030    2    1    2    0    0  0.00000000000E+00  0.00000000000E+00 -0.49339283173E+02  0.79713499636E+03  0.79560658467E+03 0.  0.
        4    1    3    3  502    0 -0.10236632738E+03 -0.24178962597E+03  0.27474346483E+03  0.38003509387E+03  0.12699999809E+01 0. -1.
       -4    1    3    3    0  502  0.10236632738E+03  0.24178962597E+03 -0.32408274800E+03  0.41709990249E+03  0.12699999809E+01 0.  1.
</event>
<event>
 5   0  0.6600401E-03  0.8062379E+03  0.7818609E-02  0.9551032E-01
       -1   -1    0    0    0  501  0.00000000000E+00  0.00000000000E+00  0.73602645558E+02  0.73602645731E+02  0.50400001928E-02 0. -1.
        1   -1    0    0  501    0  0.00000000000E+00  0.00000000000E+00 -0.22078674466E+04  0.22078674466E+04  0.50400001928E-02 0.  1.
    10030    2    1    2    0    0  0.00000000000E+00  0.00000000000E+00 -0.21342648010E+04  0.22814700923E+04  0.80623789371E+03 0.  0.
        2    1    3    3  502    0  0.30399107730E+03  0.20243615185E+03 -0.58429391853E+03  0.68905032755E+03  0.25500000920E-02 0.  1.
       -2    1    3    3    0  502 -0.30399107730E+03 -0.20243615185E+03 -0.15499708825E+04  0.15924197647E+04  0.25500000920E-02 0. -1.
</event>
<event>
 5   0  0.4385875E-03  0.8002304E+03  0.7818609E-02  0.9559684E-01
        3   -1    0    0  501    0  0.00000000000E+00  0.00000000000E+00  0.57970150331E+03  0.57970151211E+03  0.10100000352E+00 0.  1.
       -3   -1    0    0    0  501  0.00000000000E+00  0.00000000000E+00 -0.27616312080E+03  0.27616313927E+03  0.10100000352E+00 0. -1.
    10030    2    1    2    0    0  0.00000000000E+00  0.00000000000E+00  0.30353838251E+03  0.85586465137E+03  0.80023043669E+03 0.  0.
        5    1    3    3  502    0 -0.98875167777E+02  0.38569662771E+03  0.10990846839E+03  0.41308612765E+03  0.46999998093E+01 0.  1.
       -5    1    3    3    0  502  0.98875167777E+02 -0.38569662771E+03  0.19362991413E+03  0.44277852373E+03  0.46999998093E+01 0. -1.
</event>
<event>
 5   0  0.6517392E-03  0.8022738E+03  0.7818609E-02  0.9556732E-01
       -1   -1    0    0    0  501  0.00000000000E+00  0.00000000000E+00  0.18592810462E+03  0.18592810469E+03  0.50400001928E-02 0.  1.
        1   -1    0    0  501    0  0.00000000000E+00  0.00000000000E+00 -0.86544648794E+03  0.86544648796E+03  0.50400001928E-02 0. -1.
    10030    2    1    2    0    0  0.00000000000E+00  0.00000000000E+00 -0.67951838332E+03  0.10513745926E+04  0.80227383156E+03 0.  0.
        3    1    3    3  502    0 -0.28433959244E+03 -0.27374348304E+03 -0.43358829502E+03  0.58633038307E+03  0.10100000352E+00 0.  1.
       -3    1    3    3    0  502  0.28433959244E+03  0.27374348304E+03 -0.24593008830E+03  0.46504420958E+03  0.10100000352E+00 0. -1.
</event>
<event>
 5   0  0.1106332E-02  0.7801520E+03  0.7818609E-02  0.9589199E-01
        2   -1    0    0  501    0  0.00000000000E+00  0.00000000000E+00  0.12141171646E+04  0.12141171646E+04  0.25500000920E-02 0.  1.
       -2   -1    0    0    0  501  0.00000000000E+00  0.00000000000E+00 -0.12532504906E+03  0.12532504908E+03  0.25500000920E-02 0. -1.
    10030    2    1    2    0    0  0.00000000000E+00  0.00000000000E+00  0.10887921155E+04  0.13394422137E+04  0.78015201911E+03 0.  0.
        1    1    3    3  502    0 -0.18760629858E+03 -0.42260336590E+02  0.11270733150E+04  0.11433618486E+04  0.50400001928E-02 0.  1.
       -1    1    3    3    0  502  0.18760629858E+03  0.42260336590E+02 -0.38281199492E+02  0.19608036510E+03  0.50400001928E-02 0. -1.
</event>
<event>
 5   0  0.6600401E-03  0.7847276E+03  0.7818609E-02  0.9582390E-01
       -1   -1    0    0    0  501  0.00000000000E+00  0.00000000000E+00  0.16712685113E+03  0.16712685121E+03  0.50400001928E-02 0. -1.
        1   -1    0    0  501    0  0.00000000000E+00  0.00000000000E+00 -0.92115279777E+03  0.92115279778E+03  0.50400001928E-02 0.  1.
    10030    2    1    2    0    0  0.00000000000E+00  0.00000000000E+00 -0.75402594664E+03  0.10882796490E+04  0.78472763823E+03 0.  0.
        2    1    3    3  502    0 -0.32964582234E+02  0.17770409231E+03 -0.85998640458E+03  0.87877302199E+03  0.25500000920E-02 0.  1.
       -2    1    3    3    0  502  0.32964582234E+02 -0.17770409231E+03  0.10596045794E+03  0.20950662700E+03  0.25500000920E-02 0. -1.
</event>
<event>
 5   0  0.1106332E-02  0.8000777E+03  0.7818609E-02  0.9559905E-01
       -2   -1    0    0    0  501  0.00000000000E+00  0.00000000000E+00  0.34781555237E+03  0.34781555238E+03  0.25500000920E-02 0.  1.
        2   -1    0    0  501    0  0.00000000000E+00  0.00000000000E+00 -0.46010329976E+03  0.46010329977E+03  0.25500000920E-02 0. -1.
    10030    2    1    2    0    0  0.00000000000E+00  0.00000000000E+00 -0.11228774739E+03  0.80791885215E+03  0.80007770463E+03 0.  0.
        1    1    3    3  502    0 -0.20371154576E+03 -0.27653982182E+03  0.15094751106E+03  0.37517704894E+03  0.50400001928E-02 0.  1.
       -1    1    3    3    0  502  0.20371154576E+03  0.27653982182E+03 -0.26323525845E+03  0.43274180321E+03  0.50400001928E-02 0. -1.
</event>
<event>
 5   0  0.1092868E-02  0.7911858E+03  0.7818609E-02  0.9572864E-01
        2   -1    0    0  501    0  0.00000000000E+00  0.00000000000E+00  0.24073321232E+04  0.24073321232E+04  0.25500000920E-02 0.  1.
       -2   -1    0    0    0  501  0.00000000000E+00  0.00000000000E+00 -0.65007124805E+02  0.65007124855E+02  0.25500000920E-02 0. -1.
    10030    2    1    2    0    0  0.00000000000E+00  0.00000000000E+00  0.23423249984E+04  0.24723392481E+04  0.79118579321E+03 0.  0.
        3    1    3    3  502    0  0.14259236505E+02  0.26245664540E+03  0.20950146503E+04  0.21114386592E+04  0.10100000352E+00 0.  1.
       -3    1    3    3    0  502 -0.14259236505E+02 -0.26245664540E+03  0.24731034811E+03  0.36090058884E+03  0.10100000352E+00 0. -1.
</event>
<event>
 5   0  0.6557679E-03  0.8020501E+03  0.7818609E-02  0.9557054E-01
       -1   -1    0    0    0  501  0.00000000000E+00  0.00000000000E+00  0.18593153246E+03  0.18593153253E+03  0.50400001928E-02 0. -1.
        1   -1    0    0  501    0  0.00000000000E+00  0.00000000000E+00 -0.86494786682E+03  0.86494786684E+03  0.50400001928E-02 0.  1.
    10030    2    1    2    0    0  0.00000000000E+00  0.00000000000E+00 -0.67901633436E+03  0.10508793994E+04  0.80205007928E+03 0.  0.
        1    1    3    3  502    0 -0.73135897501E+02 -0.33240226784E+03 -0.61622767360E+02  0.34588653147E+03  0.50400001928E-02 0. -1.
       -1    1    3    3    0  502  0.73135897501E+02  0.33240226784E+03 -0.61739356700E+03  0.70499286789E+03  0.50400001928E-02 0.  1.
</event>
<event>
 5   0  0.6557679E-03  0.8007789E+03  0.7818609E-02  0.9558890E-01
        1   -1    0    0  501    0  0.00000000000E+00  0.00000000000E+00  0.10203687114E+04  0.10203687114E+04  0.50400001928E-02 0.  1.
       -1   -1    0    0    0  501  0.00000000000E+00  0.00000000000E+00 -0.15711153528E+03  0.15711153536E+03  0.50400001928E-02 0. -1.
    10030    2    1    2    0    0  0.00000000000E+00  0.00000000000E+00  0.86325717615E+03  0.11774802468E+04  0.80077885801E+03 0.  0.
        1    1    3    3  502    0 -0.21686832700E+03  0.23326352009E+03  0.78839215868E+03  0.85029755789E+03  0.50400001928E-02 0.  1.
       -1    1    3    3    0  502  0.21686832700E+03 -0.23326352009E+03  0.74865017468E+02  0.32718268891E+03  0.50400001928E-02 0. -1.
</event>
<event>
 5   0  0.1106332E-02  0.8811762E+03  0.7818609E-02  0.9449423E-01
       -2   -1    0    0    0  501  0.00000000000E+00  0.00000000000E+00  0.13418010744E+03  0.13418010747E+03  0.25500000920E-02 0. -1.
        2   -1    0    0  501    0  0.00000000000E+00  0.00000000000E+00 -0.14466962203E+04  0.14466962203E+04  0.25500000920E-02 0.  1.
    10030    2    1    2    0    0  0.00000000000E+00  0.00000000000E+00 -0.13125161128E+04  0.15808763277E+04  0.88117615559E+03 0.  0.
        1    1    3    3  502    0  0.10139550574E+03 -0.37727297236E+03 -0.10217427569E+04  0.10938803434E+04  0.50400001928E-02 0.  1.
       -1    1    3    3    0  502 -0.10139550574E+03  0.37727297236E+03 -0.29077335588E+03  0.48699598435E+03  0.50400001928E-02 0. -1.
</event>
<event>
 5   0  0.6600401E-03  0.7837119E+03  0.7818609E-02  0.9583897E-01
       -1   -1    0    0    0  501  0.00000000000E+00  0.00000000000E+00  0.23438466120E+03  0.23438466125E+03  0.50400001928E-02 0.  1.
        1   -1    0    0  501    0  0.00000000000E+00  0.00000000000E+00 -0.65512432382E+03  0.65512432383E+03  0.50400001928E-02 0. -1.
    10030    2    1    2    0    0  0.00000000000E+00  0.00000000000E+00 -0.42073966262E+03  0.88950898509E+03  0.78371191828E+03 0.  0.
        2    1    3    3  502    0 -0.19423821874E+03  0.12693434042E+03  0.14802674854E+03  0.27523213963E+03  0.25500000920E-02 0.  1.
       -2    1    3    3    0  502  0.19423821874E+03 -0.12693434042E+03 -0.56876641116E+03  0.61427684546E+03  0.25500000920E-02 0. -1.
</event>
<event>
 5   0  0.6557679E-03  0.7997616E+03  0.7818609E-02  0.9560362E-01
        1   -1    0    0  501    0  0.00000000000E+00  0.00000000000E+00  0.15585197628E+04  0.15585197628E+04  0.50400001928E-02 0. -1.
       -1   -1    0    0    0  501  0.00000000000E+00  0.00000000000E+00 -0.10260033489E+03  0.10260033501E+03  0.50400001928E-02 0.  1.
    10030    2    1    2    0    0  0.00000000000E+00  0.00000000000E+00  0.14559194279E+04  0.16611200978E+04  0.79976158872E+03 0.  0.
        1    1    3    3  502    0  0.22833564876E+03 -0.31714986247E+03  0.90399790777E+03  0.98485197925E+03  0.50400001928E-02 0.  1.
       -1    1    3    3    0  502 -0.22833564876E+03  0.31714986247E+03  0.55192152014E+03  0.67626811856E+03  0.50400001928E-02 0. -1.
</event>
<event>
 5   0  0.1092868E-02  0.8030503E+03  0.7818609E-02  0.9555612E-01
       -2   -1    0    0    0  501  0.00000000000E+00  0.00000000000E+00  0.28565333935E+03  0.28565333936E+03  0.25500000920E-02 0. -1.
        2   -1    0    0  501    0  0.00000000000E+00  0.00000000000E+00 -0.56439897128E+03  0.56439897129E+03  0.25500000920E-02 0.  1.
    10030    2    1    2    0    0  0.00000000000E+00  0.00000000000E+00 -0.27874563194E+03  0.85005231065E+03  0.80305031194E+03 0.  0.
        3    1    3    3  502    0 -0.28035879591E+03  0.19863946952E+03 -0.35929167220E+03  0.49714103554E+03  0.10100000352E+00 0.  1.
       -3    1    3    3    0  502  0.28035879591E+03 -0.19863946952E+03  0.80546040269E+02  0.35291127511E+03  0.10100000352E+00 0. -1.
</event>
<event>
 5   0  0.6551489E-03  0.8016588E+03  0.7818609E-02  0.9557619E-01
        1   -1    0    0  501    0  0.00000000000E+00  0.00000000000E+00  0.77864881873E+03  0.77864881875E+03  0.50400001928E-02 0. -1.
       -1   -1    0    0    0  501  0.00000000000E+00  0.00000000000E+00 -0.20633720034E+03  0.20633720040E+03  0.50400001928E-02 0.  1.
    10030    2    1    2    0    0  0.00000000000E+00  0.00000000000E+00  0.57231161839E+03  0.98498601915E+03  0.80165882355E+03 0.  0.
        4    1    3    3  502    0 -0.23446732306E+03 -0.94333661758E+02  0.66841076944E+03  0.71459662392E+03  0.12699999809E+01 0. -1.
       -4    1    3    3    0  502  0.23446732306E+03  0.94333661758E+02 -0.96099151047E+02  0.27038939523E+03  0.12699999809E+01 0.  1.
</event>
<event>
 5   0  0.6551489E-03  0.8594153E+03  0.7818609E-02  0.9477786E-01
       -1   -1    0    0    0  501  0.00000000000E+00  0.00000000000E+00  0.16431660028E+03  0.16431660035E+03  0.50400001928E-02 0. -1.
        1   -1    0    0  501    0  0.00000000000E+00  0.00000000000E+00 -0.11237372246E+04  0.11237372246E+04  0.50400001928E-02 0.  1.
    10030    2    1    2    0    0  0.00000000000E+00  0.00000000000E+00 -0.95942062430E+03  0.12880538249E+04  0.85941533708E+03 0.  0.
        4    1    3    3  502    0  0.12211394075E+03  0.34850844675E+03 -0.80901777181E+03  0.88931508477E+03  0.12699999809E+01 0.  1.
       -4    1    3    3    0  502 -0.12211394075E+03 -0.34850844675E+03 -0.15040285249E+03  0.39873874018E+03  0.12699999809E+01 0. -1.
</event>
<event>
 5   0  0.6551489E-03  0.7996201E+03  0.7818609E-02  0.9560567E-01
       -1   -1    0    0    0  501  0.00000000000E+00  0.00000000000E+00  0.46464270423E+03  0.46464270425E+03  0.50400001928E-02 0.  1.
        1   -1    0    0  501    0  0.00000000000E+00  0.00000000000E+00 -0.34402368289E+03  0.34402368293E+03  0.50400001928E-02 0. -1.
    10030    2    1    2    0    0  0.00000000000E+00  0.00000000000E+00  0.12061902134E+03  0.80866638718E+03  0.79962014573E+03 0.  0.
        4    1    3    3  502    0  0.28974990538E+03  0.13935699247E+03 -0.18001540445E+03  0.36848682168E+03  0.12699999809E+01 0. -1.
       -4    1    3    3    0  502 -0.28974990538E+03 -0.13935699247E+03  0.30063442578E+03  0.44017956550E+03  0.12699999809E+01 0.  1.
</event>
<event>
 5   0  0.1121480E-02  0.8002114E+03  0.7818609E-02  0.9559711E-01
       -2   -1    0    0    0  501  0.00000000000E+00  0.00000000000E+00  0.41831333551E+03  0.41831333551E+03  0.25500000920E-02 0. -1.
        2   -1    0    0  501    0  0.00000000000E+00  0.00000000000E+00 -0.38269060087E+03  0.38269060088E+03  0.25500000920E-02 0.  1.
    10030    2    1    2    0    0  0.00000000000E+00  0.00000000000E+00  0.35622734632E+02  0.80100393640E+03  0.80021142637E+03 0.  0.
        2    1    3    3  502    0  0.29959979743E+03  0.26435133673E+03 -0.32549947053E+01  0.39956509212E+03  0.25500000920E-02 0.  1.
       -2    1    3    3    0  502 -0.29959979743E+03 -0.26435133673E+03  0.38877729337E+02  0.40143884427E+03  0.25500000920E-02 0. -1.
</event>
<event>
 5   0  0.1119792E-02  0.8353560E+03  0.7818609E-02  0.9510205E-01
       -2   -1    0    0    0  501  0.00000000000E+00  0.00000000000E+00  0.22601844097E+03  0.22601844099E+03  0.25500000920E-02 0.  1.
        2   -1    0    0  501    0  0.00000000000E+00  0.00000000000E+00 -0.77186143245E+03  0.77186143245E+03  0.25500000920E-02 0. -1.
    10030    2    1    2    0    0  0.00000000000E+00  0.00000000000E+00 -0.54584299148E+03  0.99787987344E+03  0.83535601420E+03 0.  0.
        4    1    3    3  502    0  0.48753437763E+02 -0.78837097570E+02  0.21357414737E+03  0.23282550327E+03  0.12699999809E+01 0.  1.
       -4    1    3    3    0  502 -0.48753437763E+02  0.78837097570E+02 -0.75941713884E+03  0.76505437017E+03  0.12699999809E+01 0. -1.
</event>
<event>
 5   0  0.1092868E-02  0.7983569E+03  0.7818609E-02  0.9562398E-01
        2   -1    0    0  501    0  0.00000000000E+00  0.00000000000E+00  0.17662480556E+04  0.17662480556E+04  0.25500000920E-02 0. -1.
       -2   -1    0    0    0  501  0.00000000000E+00  0.00000000000E+00 -0.90215781436E+02  0.90215781472E+02  0.25500000920E-02 0.  1.
    10030    2    1    2    0    0  0.00000000000E+00  0.00000000000E+00  0.16760322742E+04  0.18564638371E+04  0.79835693417E+03 0.  0.
        3    1    3    3  502    0  0.37674164981E+03 -0.48671317404E+02  0.55283735086E+03  0.67076994160E+03  0.10100000352E+00 0.  1.
       -3    1    3    3    0  502 -0.37674164981E+03  0.48671317404E+02  0.11231949233E+04  0.11856938955E+04  0.10100000352E+00 0. -1.
</event>
<event>
 5   0  0.6517392E-03  0.7999405E+03  0.7818609E-02  0.9560103E-01
       -1   -1    0    0    0  501  0.00000000000E+00  0.00000000000E+00  0.30344441979E+03  0.30344441983E+03  0.50400001928E-02 0. -1.
        1   -1    0    0  501    0  0.00000000000E+00  0.00000000000E+00 -0.52720100653E+03  0.52720100656E+03  0.50400001928E-02 0.  1.
    10030    2    1    2    0    0  0.00000000000E+00  0.00000000000E+00 -0.22375658675E+03  0.83064542639E+03  0.79994050670E+03 0.  0.
        3    1    3    3  502    0  0.24623055212E+03 -0.29936965705E+03 -0.21427641954E+03  0.44290639026E+03  0.10100000352E+00 0.  1.
       -3    1    3    3    0  502 -0.24623055212E+03  0.29936965705E+03 -0.94801672124E+01  0.38773903613E+03  0.10100000352E+00 0. -1.
</event>
<event>
 5   0  0.1154714E-02  0.8042508E+03  0.7818609E-02  0.9553885E-01
        2   -1    0    0  501    0  0.00000000000E+00  0.00000000000E+00  0.19853392213E+04  0.19853392213E+04  0.25500000920E-02 0.  1.
       -2   -1    0    0    0  501  0.00000000000E+00  0.00000000000E+00 -0.81449470528E+02  0.81449470568E+02  0.25500000920E-02 0. -1.
    10030    2    1    2    0    0  0.00000000000E+00  0.00000000000E+00  0.19038897508E+04  0.20667886919E+04  0.80425077789E+03 0.  0.
        5    1    3    3  502    0  0.53459887266E+02 -0.76790060144E+02 -0.53013755900E+02  0.10764395569E+03  0.46999998093E+01 0. -1.
       -5    1    3    3    0  502 -0.53459887266E+02  0.76790060144E+02  0.19569035067E+04  0.19591447362E+04  0.46999998093E+01 0.  1.
</event>
<event>
 5   0  0.4385875E-03  0.8004828E+03  0.7818609E-02  0.9559319E-01
        3   -1    0    0  501    0  0.00000000000E+00  0.00000000000E+00  0.64307975556E+03  0.64307976349E+03  0.10100000352E+00 0. -1.
       -3   -1    0    0    0  501  0.00000000000E+00  0.00000000000E+00 -0.24910308684E+03  0.24910310731E+03  0.10100000352E+00 0.  1.
    10030    2    1    2    0    0  0.00000000000E+00  0.00000000000E+00  0.39397666872E+03  0.89218287080E+03  0.80048276649E+03 0.  0.
        1    1    3    3  502    0  0.16719995820E+03 -0.10697645544E+03  0.58435607942E+03  0.61714813102E+03  0.50400001928E-02 0. -1.
       -1    1    3    3    0  502 -0.16719995820E+03  0.10697645544E+03 -0.19037941070E+03  0.27503473978E+03  0.50400001928E-02 0.  1.
</event>
<event>
 5   0  0.1121480E-02  0.7938782E+03  0.7818609E-02  0.9568921E-01
       -2   -1    0    0    0  501  0.00000000000E+00  0.00000000000E+00  0.24377343536E+03  0.24377343537E+03  0.25500000920E-02 0.  1.
        2   -1    0    0  501    0  0.00000000000E+00  0.00000000000E+00 -0.64634057317E+03  0.64634057318E+03  0.25500000920E-02 0. -1.
    10030    2    1    2    0    0  0.00000000000E+00  0.00000000000E+00 -0.40256713782E+03  0.89011400854E+03  0.79387823232E+03 0.  0.
        2    1    3    3  502    0 -0.37293127330E+03  0.40527186411E+02 -0.34678554910E+03  0.51086241251E+03  0.25500000920E-02 0.  1.
       -2    1    3    3    0  502  0.37293127330E+03 -0.40527186411E+02 -0.55781588712E+02  0.37925159603E+03  0.25500000920E-02 0. -1.
</event>
<event>
 5   0  0.6517392E-03  0.7993013E+03  0.7818609E-02  0.9561029E-01
        1   -1    0    0  501    0  0.00000000000E+00  0.00000000000E+00  0.92760392921E+03  0.92760392922E+03  0.50400001928E-02 0. -1.
       -1   -1    0    0    0  501  0.00000000000E+00  0.00000000000E+00 -0.17218625929E+03  0.17218625937E+03  0.50400001928E-02 0.  1.
    10030    2    1    2    0    0  0.00000000000E+00  0.00000000000E+00  0.75541766991E+03  0.10997901886E+04  0.79930132172E+03 0.  0.
        3    1    3    3  502    0 -0.13033693231E+02 -0.38842641673E+03  0.50586842987E+03  0.63792463263E+03  0.10100000352E+00 0. -1.
       -3    1    3    3    0  502  0.13033693231E+02  0.38842641673E+03  0.24954924005E+03  0.46186555596E+03  0.10100000352E+00 0.  1.
</event>
<event>
 5   0  0.1154714E-02  0.7942519E+03  0.7818609E-02  0.9568375E-01
        2   -1    0    0  501    0  0.00000000000E+00  0.00000000000E+00  0.17914389906E+04  0.17914389906E+04  0.25500000920E-02 0.  1.
       -2   -1    0    0    0  501  0.00000000000E+00  0.00000000000E+00 -0.88034825077E+02  0.88034825114E+02  0.25500000920E-02 0. -1.
    10030    2    1    2    0    0  0.00000000000E+00  0.00000000000E+00  0.17034041656E+04  0.18794738158E+04  0.79425189509E+03 0.  0.
        5    1    3    3  502    0  0.21448489848E+03 -0.33416384797E+03  0.84175238477E+03  0.93071930045E+03  0.46999998093E+01 0. -1.
       -5    1    3    3    0  502 -0.21448489848E+03  0.33416384797E+03  0.86165178079E+03  0.94875451530E+03  0.46999998093E+01 0.  1.
</event>
<event>
 5   0  0.6596225E-03  0.8028146E+03  0.7818609E-02  0.9555952E-01
        1   -1    0    0  501    0  0.00000000000E+00  0.00000000000E+00  0.99718636637E+03  0.99718636638E+03  0.50400001928E-02 0. -1.
       -1   -1    0    0    0  501  0.00000000000E+00  0.00000000000E+00 -0.16158247342E+03  0.16158247350E+03  0.50400001928E-02 0.  1.
    10030    2    1    2    0    0  0.00000000000E+00  0.00000000000E+00  0.83560389295E+03  0.11587688399E+04  0.80281464757E+03 0.  0.
        5    1    3    3  502    0  0.22317231697E+03 -0.10821552357E+03 -0.37697431665E+02  0.25091765374E+03  0.46999998093E+01 0.  1.
       -5    1    3    3    0  502 -0.22317231697E+03  0.10821552357E+03  0.87330132461E+03  0.90785118614E+03  0.46999998093E+01 0. -1.
</event>
<event>
 5   0  0.1154714E-02  0.7992879E+03  0.7818609E-02  0.9561048E-01
        2   -1    0    0  501    0  0.00000000000E+00  0.00000000000E+00  0.44904867303E+03  0.44904867304E+03  0.25500000920E-02 0.  1.
       -2   -1    0    0    0  501  0.00000000000E+00  0.00000000000E+00 -0.35567479747E+03  0.35567479748E+03  0.25500000920E-02 0. -1.
    10030    2    1    2    0    0  0.00000000000E+00  0.00000000000E+00  0.93373875564E+02  0.80472347052E+03  0.79928792270E+03 0.  0.
        5    1    3    3  502    0  0.10573196239E+03 -0.91664810453E+02 -0.33017331957E+03  0.35863379136E+03  0.46999998093E+01 0. -1.
       -5    1    3    3    0  502 -0.10573196239E+03  0.91664810453E+02  0.42354719514E+03  0.44608967916E+03  0.46999998093E+01 0.  1.
</event>
<event>
 5   0  0.1106332E-02  0.8001761E+03  0.7818609E-02  0.9559762E-01
        2   -1    0    0  501    0  0.00000000000E+00  0.00000000000E+00  0.12279897384E+04  0.12279897384E+04  0.25500000920E-02 0. -1.
       -2   -1    0    0    0  501  0.00000000000E+00  0.00000000000E+00 -0.13035160306E+03  0.13035160309E+03  0.25500000920E-02 0.  1.
    10030    2    1    2    0    0  0.00000000000E+00  0.00000000000E+00  0.10976381354E+04  0.13583413415E+04  0.80017605804E+03 0.  0.
        1    1    3    3  502    0  0.18491234110E+02 -0.39717969564E+03  0.47334389143E+03  0.61818126464E+03  0.50400001928E-02 0.  1.
       -1    1    3    3    0  502 -0.18491234110E+02  0.39717969564E+03  0.62429424395E+03  0.74016007689E+03  0.50400001928E-02 0. -1.
</event>
<event>
 5   0  0.1119792E-02  0.8070008E+03  0.7818609E-02  0.9549939E-01
        2   -1    0    0  501    0  0.00000000000E+00  0.00000000000E+00  0.90978609398E+03  0.90978609398E+03  0.25500000920E-02 0.  1.
       -2   -1    0    0    0  501  0.00000000000E+00  0.00000000000E+00 -0.17895698110E+03  0.17895698112E+03  0.25500000920E-02 0. -1.
    10030    2    1    2    0    0  0.00000000000E+00  0.00000000000E+00  0.73082911288E+03  0.10887430751E+04  0.80700080009E+03 0.  0.
        4    1    3    3  502    0  0.16713912793E+03  0.60719408392E+02 -0.12323727521E+03  0.21635936204E+03  0.12699999809E+01 0. -1.
       -4    1    3    3    0  502 -0.16713912793E+03 -0.60719408392E+02  0.85406638809E+03  0.87238371306E+03  0.12699999809E+01 0.  1.
</event>
<event>
 5   0  0.6517392E-03  0.8039797E+03  0.7818609E-02  0.9554274E-01
        1   -1    0    0  501    0  0.00000000000E+00  0.00000000000E+00  0.21335882496E+04  0.21335882496E+04  0.50400001928E-02 0.  1.
       -1   -1    0    0    0  501  0.00000000000E+00  0.00000000000E+00 -0.75739001488E+02  0.75739001656E+02  0.50400001928E-02 0. -1.
    10030    2    1    2    0    0  0.00000000000E+00  0.00000000000E+00  0.20578492481E+04  0.22093272513E+04  0.80397971071E+03 0.  0.
        3    1    3    3  502    0 -0.25730469325E+03  0.29699871633E+03  0.79604345996E+03  0.88774948213E+03  0.10100000352E+00 0. -1.
       -3    1    3    3    0  502  0.25730469325E+03 -0.29699871633E+03  0.12618057882E+04  0.13215777692E+04  0.10100000352E+00 0.  1.
</event>
<event>
 5   0  0.6551489E-03  0.7921063E+03  0.7818609E-02  0.9571514E-01
        1   -1    0    0  501    0  0.00000000000E+00  0.00000000000E+00  0.10805825373E+04  0.10805825373E+04  0.50400001928E-02 0. -1.
       -1   -1    0    0    0  501  0.00000000000E+00  0.00000000000E+00 -0.14516069948E+03  0.14516069957E+03  0.50400001928E-02 0.  1.
    10030    2    1    2    0    0  0.00000000000E+00  0.00000000000E+00  0.93542183785E+03  0.12257432369E+04  0.79210634899E+03 0.  0.
        4    1    3    3  502    0 -0.16086651079E+03 -0.12675259385E+03  0.99227575570E+03  0.10131915133E+04  0.12699999809E+01 0. -1.
       -4    1    3    3    0  502  0.16086651079E+03  0.12675259385E+03 -0.56853917854E+02  0.21255172363E+03  0.12699999809E+01 0.  1.
</event>
<event>
 5   0  0.1106332E-02  0.8073774E+03  0.7818609E-02  0.9549400E-01
        2   -1    0    0  501    0  0.00000000000E+00  0.00000000000E+00  0.11057121976E+04  0.11057121976E+04  0.25500000920E-02 0. -1.
       -2   -1    0    0    0  501  0.00000000000E+00  0.00000000000E+00 -0.14738425584E+03  0.14738425586E+03  0.25500000920E-02 0.  1.
    10030    2    1    2    0    0  0.00000000000E+00  0.00000000000E+00  0.95832794179E+03  0.12530964535E+04  0.80737740726E+03 0.  0.
        1    1    3    3  502    0  0.26275013470E+03  0.30363102783E+03  0.54381486745E+03  0.67599115707E+03  0.50400001928E-02 0. -1.
       -1    1    3    3    0  502 -0.26275013470E+03 -0.30363102783E+03  0.41451307434E+03  0.57710529643E+03  0.50400001928E-02 0.  1.
</event>
<event>
 5   0  0.6551489E-03  0.7975710E+03  0.7818609E-02  0.9563540E-01
       -1   -1    0    0    0  501  0.00000000000E+00  0.00000000000E+00  0.16911790871E+03  0.16911790878E+03  0.50400001928E-02 0.  1.
        1   -1    0    0  501    0  0.00000000000E+00  0.00000000000E+00 -0.94034908638E+03  0.94034908639E+03  0.50400001928E-02 0. -1.
    10030    2    1    2    0    0  0.00000000000E+00  0.00000000000E+00 -0.77123117767E+03  0.11094669952E+04  0.79757098993E+03 0.  0.
        4    1    3    3  502    0  0.26288190298E+03 -0.29249356462E+03 -0.47756098508E+03  0.61864811293E+03  0.12699999809E+01 0. -1.
       -4    1    3    3    0  502 -0.26288190298E+03  0.29249356462E+03 -0.29367019259E+03  0.49081888225E+03  0.12699999809E+01 0.  1.
</event>
<event>
 5   0  0.1119792E-02  0.8015823E+03  0.7818609E-02  0.9557730E-01
       -2   -1    0    0    0  501  0.00000000000E+00  0.00000000000E+00  0.14344241955E+03  0.14344241958E+03  0.25500000920E-02 0. -1.
        2   -1    0    0  501    0  0.00000000000E+00  0.00000000000E+00 -0.11198469580E+04  0.11198469580E+04  0.25500000920E-02 0.  1.
    10030    2    1    2    0    0  0.00000000000E+00  0.00000000000E+00 -0.97640453847E+03  0.12632893776E+04  0.80158232816E+03 0.  0.
        4    1    3    3  502    0 -0.17962225429E+03  0.16330531686E+03 -0.99079175723E+03  0.10200993578E+04  0.12699999809E+01 0.  1.
       -4    1    3    3    0  502  0.17962225429E+03 -0.16330531686E+03  0.14387218763E+02  0.24319001977E+03  0.12699999809E+01 0. -1.
</event>
<event>
 5   0  0.1154714E-02  0.8300152E+03  0.7818609E-02  0.9517560E-01
       -2   -1    0    0    0  501  0.00000000000E+00  0.00000000000E+00  0.23257962130E+03  0.23257962131E+03  0.25500000920E-02 0.  1.
        2   -1    0    0  501    0  0.00000000000E+00  0.00000000000E+00 -0.74052615065E+03  0.74052615066E+03  0.25500000920E-02 0. -1.
    10030    2    1    2    0    0  0.00000000000E+00  0.00000000000E+00 -0.50794652935E+03  0.97310577197E+03  0.83001516056E+03 0.  0.
        5    1    3    3  502    0  0.11554203608E+02  0.21132439972E+03 -0.67246694543E+03  0.70500027251E+03  0.46999998093E+01 0. -1.
       -5    1    3    3    0  502 -0.11554203608E+02 -0.21132439972E+03  0.16452041608E+03  0.26810549946E+03  0.46999998093E+01 0.  1.
</event>
<event>
 5   0  0.1154714E-02  0.7977324E+03  0.7818609E-02  0.9563305E-01
        2   -1    0    0  501    0  0.00000000000E+00  0.00000000000E+00  0.38584667513E+03  0.38584667514E+03  0.25500000920E-02 0. -1.
       -2   -1    0    0    0  501  0.00000000000E+00  0.00000000000E+00 -0.41232504169E+03  0.41232504170E+03  0.25500000920E-02 0.  1.
    10030    2    1    2    0    0  0.00000000000E+00  0.00000000000E+00 -0.26478366562E+02  0.79817171684E+03  0.79773240229E+03 0.  0.
        5    1    3    3  502    0  0.23741184430E+02 -0.29318270355E+03 -0.28274307333E+03  0.40802631902E+03  0.46999998093E+01 0.  1.
       -5    1    3    3    0  502 -0.23741184430E+02  0.29318270355E+03  0.25626470677E+03  0.39014539781E+03  0.46999998093E+01 0. -1.
</event>
<event>
 5   0  0.6551489E-03  0.7985990E+03  0.7818609E-02  0.9562047E-01
       -1   -1    0    0    0  501  0.00000000000E+00  0.00000000000E+00  0.48055030314E+03  0.48055030317E+03  0.50400001928E-02 0. -1.
        1   -1    0    0  501    0  0.00000000000E+00  0.00000000000E+00 -0.33178650587E+03  0.33178650591E+03  0.50400001928E-02 0.  1.
    10030    2    1    2    0    0  0.00000000000E+00  0.00000000000E+00  0.14876379727E+03  0.81233680908E+03  0.79859903832E+03 0.  0.
        4    1    3    3  502    0 -0.35375479111E+02 -0.36615216111E+03  0.23235857480E+03  0.43509878165E+03  0.12699999809E+01 0. -1.
       -4    1    3    3    0  502  0.35375479111E+02  0.36615216111E+03 -0.83594777536E+02  0.37723802743E+03  0.12699999809E+01 0.  1.
</event>
<event>
 5   0  0.6551489E-03  0.8029389E+03  0.7818609E-02  0.9555773E-01
       -1   -1    0    0    0  501  0.00000000000E+00  0.00000000000E+00  0.37665552155E+03  0.37665552158E+03  0.50400001928E-02 0. -1.
        1   -1    0    0  501    0  0.00000000000E+00  0.00000000000E+00 -0.42791809192E+03  0.42791809195E+03  0.50400001928E-02 0.  1.
    10030    2    1    2    0    0  0.00000000000E+00  0.00000000000E+00 -0.51262570370E+02  0.80457361352E+03  0.80293888214E+03 0.  0.
        4    1    3    3  502    0 -0.21974420396E+03 -0.34829192121E+02  0.30922794268E+03  0.38095159959E+03  0.12699999809E+01 0. -1.
       -4    1    3    3    0  502  0.21974420396E+03  0.34829192121E+02 -0.36049051304E+03  0.42362201394E+03  0.12699999809E+01 0.  1.
</event>
<event>
 5   0  0.4385875E-03  0.7686881E+03  0.7818609E-02  0.9606479E-01
       -3   -1    0    0    0  501  0.00000000000E+00  0.00000000000E+00  0.69077239483E+03  0.69077240222E+03  0.10100000352E+00 0.  1.
        3   -1    0    0  501    0  0.00000000000E+00  0.00000000000E+00 -0.21384807650E+03  0.21384810035E+03  0.10100000352E+00 0. -1.
    10030    2    1    2    0    0  0.00000000000E+00  0.00000000000E+00  0.47692431833E+03  0.90462050257E+03  0.76868813458E+03 0.  0.
        1    1    3    3  502    0 -0.34180889853E+03 -0.16017410677E+03  0.15334427262E+03  0.40743531212E+03  0.50400001928E-02 0. -1.
       -1    1    3    3    0  502  0.34180889853E+03  0.16017410677E+03  0.32358004572E+03  0.49718519045E+03  0.50400001928E-02 0.  1.
</event>
<event>
 5   0  0.6557679E-03  0.7962383E+03  0.7818609E-02  0.9565478E-01
       -1   -1    0    0    0  501  0.00000000000E+00  0.00000000000E+00  0.30504205208E+03  0.30504205212E+03  0.50400001928E-02 0.  1.
        1   -1    0    0  501    0  0.00000000000E+00  0.00000000000E+00 -0.51959672876E+03  0.51959672878E+03  0.50400001928E-02 0. -1.
    10030    2    1    2    0    0  0.00000000000E+00  0.00000000000E+00 -0.21455467668E+03  0.82463878091E+03  0.79623828700E+03 0.  0.
        1    1    3    3  502    0 -0.14235470585E+03 -0.27760035337E+03 -0.36342898877E+03  0.47896497615E+03  0.50400001928E-02 0. -1.
       -1    1    3    3    0  502  0.14235470585E+03  0.27760035337E+03  0.14887431209E+03  0.34567380476E+03  0.50400001928E-02 0.  1.
</event>
<event>
 5   0  0.1154714E-02  0.8011140E+03  0.7818609E-02  0.9558406E-01
        2   -1    0    0  501    0  0.00000000000E+00  0.00000000000E+00  0.95964930888E+03  0.95964930889E+03  0.25500000920E-02 0. -1.
       -2   -1    0    0    0  501  0.00000000000E+00  0.00000000000E+00 -0.16719222881E+03  0.16719222883E+03  0.25500000920E-02 0.  1.
    10030    2    1    2    0    0  0.00000000000E+00  0.00000000000E+00  0.79245708008E+03  0.11268415377E+04  0.80111399148E+03 0.  0.
        5    1    3    3  502    0  0.25611743459E+03  0.28692384773E+03  0.23895164906E+03  0.45281499012E+03  0.46999998093E+01 0.  1.
       -5    1    3    3    0  502 -0.25611743459E+03 -0.28692384773E+03  0.55350543102E+03  0.67402654759E+03  0.46999998093E+01 0. -1.
</event>
<event>
 5   0  0.1119792E-02  0.7229061E+03  0.7818609E-02  0.9678842E-01
        2   -1    0    0  501    0  0.00000000000E+00  0.00000000000E+00  0.86863931196E+03  0.86863931197E+03  0.25500000920E-02 0.  1.
       -2   -1    0    0    0  501  0.00000000000E+00  0.00000000000E+00 -0.15040568832E+03  0.15040568835E+03  0.25500000920E-02 0. -1.
    10030    2    1    2    0    0  0.00000000000E+00  0.00000000000E+00  0.71823362364E+03  0.10190450003E+04  0.72290606204E+03 0.  0.
        4    1    3    3  502    0 -0.74469909804E+01  0.30499455216E+03  0.63234749668E+03  0.70209835776E+03  0.12699999809E+01 0.  1.
       -4    1    3    3    0  502  0.74469909804E+01 -0.30499455216E+03  0.85886126962E+02  0.31694664255E+03  0.12699999809E+01 0. -1.
</event>
<event>
 5   0  0.1106332E-02  0.8017018E+03  0.7818609E-02  0.9557557E-01
        2   -1    0    0  501    0  0.00000000000E+00  0.00000000000E+00  0.11765897487E+04  0.11765897487E+04  0.25500000920E-02 0. -1.
       -2   -1    0    0    0  501  0.00000000000E+00  0.00000000000E+00 -0.13656538056E+03  0.13656538058E+03  0.25500000920E-02 0.  1.
    10030    2    1    2    0    0  0.00000000000E+00  0.00000000000E+00  0.10400243682E+04  0.13131551293E+04  0.80170175704E+03 0.  0.
        1    1    3    3  502    0  0.23784592371E+03 -0.85724357214E+02  0.10295257974E+04  0.10601144826E+04  0.50400001928E-02 0. -1.
       -1    1    3    3    0  502 -0.23784592371E+03  0.85724357214E+02  0.10498570785E+02  0.25304064665E+03  0.50400001928E-02 0.  1.
</event>
<event>
 5   0  0.1106332E-02  0.7895601E+03  0.7818609E-02  0.9575253E-01
        2   -1    0    0  501    0  0.00000000000E+00  0.00000000000E+00  0.37753738524E+03  0.37753738525E+03  0.25500000920E-02 0. -1.
       -2   -1    0    0    0  501  0.00000000000E+00  0.00000000000E+00 -0.41281020632E+03  0.41281020633E+03  0.25500000920E-02 0.  1.
    10030    2    1    2    0    0  0.00000000000E+00  0.00000000000E+00 -0.35272821085E+02  0.79034759158E+03  0.78956009499E+03 0.  0.
        1    1    3    3  502    0 -0.32736277795E+03 -0.16611522938E+03  0.12773456336E+03  0.38868596131E+03  0.50400001928E-02 0. -1.
       -1    1    3    3    0  502  0.32736277795E+03  0.16611522938E+03 -0.16300738444E+03  0.40166163026E+03  0.50400001928E-02 0.  1.
</event>
<event>
 5   0  0.6600401E-03  0.8147386E+03  0.7818609E-02  0.9538925E-01
       -1   -1    0    0    0  501  0.00000000000E+00  0.00000000000E+00  0.14759286678E+03  0.14759286687E+03  0.50400001928E-02 0. -1.
        1   -1    0    0  501    0  0.00000000000E+00  0.00000000000E+00 -0.11243751603E+04  0.11243751603E+04  0.50400001928E-02 0.  1.
    10030    2    1    2    0    0  0.00000000000E+00  0.00000000000E+00 -0.97678229353E+03  0.12719680272E+04  0.81473861652E+03 0.  0.
        2    1    3    3  502    0  0.17553620261E+03  0.17478768848E+03  0.16496555276E+02  0.24826564566E+03  0.25500000920E-02 0. -1.
       -2    1    3    3    0  502 -0.17553620261E+03 -0.17478768848E+03 -0.99327884880E+03  0.10237023815E+04  0.25500000920E-02 0.  1.
</event>
<event>
 5   0  0.6596225E-03  0.7689194E+03  0.7818609E-02  0.9606128E-01
        1   -1    0    0  501    0  0.00000000000E+00  0.00000000000E+00  0.23015960501E+03  0.23015960506E+03  0.50400001928E-02 0.  1.
       -1   -1    0    0    0  501  0.00000000000E+00  0.00000000000E+00 -0.64220336305E+03  0.64220336307E+03  0.50400001928E-02 0. -1.
    10030    2    1    2    0    0  0.00000000000E+00  0.00000000000E+00 -0.41204375805E+03  0.87236296813E+03  0.76891942987E+03 0.  0.
        5    1    3    3  502    0 -0.60264091721E+01  0.32941467127E+03 -0.43075309067E+03  0.54232892083E+03  0.46999998093E+01 0. -1.
       -5    1    3    3    0  502  0.60264091721E+01 -0.32941467127E+03  0.18709332620E+02  0.33003404730E+03  0.46999998093E+01 0.  1.
</event>
<event>
 5   0  0.1154714E-02  0.8019230E+03  0.7818609E-02  0.9557238E-01
       -2   -1    0    0    0  501  0.00000000000E+00  0.00000000000E+00  0.11703514542E+03  0.11703514545E+03  0.25500000920E-02 0.  1.
        2   -1    0    0  501    0  0.00000000000E+00  0.00000000000E+00 -0.13736911565E+04  0.13736911565E+04  0.25500000920E-02 0. -1.
    10030    2    1    2    0    0  0.00000000000E+00  0.00000000000E+00 -0.12566560110E+04  0.14907263019E+04  0.80192304938E+03 0.  0.
        5    1    3    3  502    0 -0.31041783258E+03 -0.25068801275E+03 -0.55527514817E+03  0.68378087915E+03  0.46999998093E+01 0.  1.
       -5    1    3    3    0  502  0.31041783258E+03  0.25068801275E+03 -0.70138086287E+03  0.80694542276E+03  0.46999998093E+01 0. -1.
</event>
<event>
 5   0  0.6551489E-03  0.8001199E+03  0.7818609E-02  0.9559844E-01
       -1   -1    0    0    0  501  0.00000000000E+00  0.00000000000E+00  0.44924618600E+03  0.44924618602E+03  0.50400001928E-02 0. -1.
        1   -1    0    0  501    0  0.00000000000E+00  0.00000000000E+00 -0.35625893775E+03  0.35625893779E+03  0.50400001928E-02 0.  1.
    10030    2    1    2    0    0  0.00000000000E+00  0.00000000000E+00  0.92987248244E+02  0.80550512381E+03  0.80011991361E+03 0.  0.
        4    1    3    3  502    0 -0.31173881787E+03 -0.12439936281E+03  0.26565139579E+03  0.42805206344E+03  0.12699999809E+01 0. -1.
       -4    1    3    3    0  502  0.31173881787E+03  0.12439936281E+03 -0.17266414755E+03  0.37745306037E+03  0.12699999809E+01 0.  1.
</event>
<event>
 5   0  0.1121480E-02  0.8064027E+03  0.7818609E-02  0.9550795E-01
       -2   -1    0    0    0  501  0.00000000000E+00  0.00000000000E+00  0.42253632029E+03  0.42253632030E+03  0.25500000920E-02 0. -1.
        2   -1    0    0  501    0  0.00000000000E+00  0.00000000000E+00 -0.38475113170E+03  0.38475113171E+03  0.25500000920E-02 0.  1.
    10030    2    1    2    0    0  0.00000000000E+00  0.00000000000E+00  0.37785188593E+02  0.80728745200E+03  0.80640269697E+03 0.  0.
        2    1    3    3  502    0  0.11130457768E+03  0.81277667082E+02  0.39822330197E+03  0.42139834648E+03  0.25500000920E-02 0. -1.
       -2    1    3    3    0  502 -0.11130457768E+03 -0.81277667082E+02 -0.36043811338E+03  0.38588910552E+03  0.25500000920E-02 0.  1.
</event>
<event>
 5   0  0.6557679E-03  0.7930918E+03  0.7818609E-02  0.9570071E-01
        1   -1    0    0  501    0  0.00000000000E+00  0.00000000000E+00  0.23503299582E+03  0.23503299588E+03  0.50400001928E-02 0.  1.
       -1   -1    0    0    0  501  0.00000000000E+00  0.00000000000E+00 -0.66904925612E+03  0.66904925614E+03  0.50400001928E-02 0. -1.
    10030    2    1    2    0    0  0.00000000000E+00  0.00000000000E+00 -0.43401626029E+03  0.90408225202E+03  0.79309180062E+03 0.  0.
        1    1    3    3  502    0  0.52204938188E+02  0.34661223478E+03 -0.56310120271E+01  0.35056683414E+03  0.50400001928E-02 0.  1.
       -1    1    3    3    0  502 -0.52204938188E+02 -0.34661223478E+03 -0.42838524827E+03  0.55351541788E+03  0.50400001928E-02 0. -1.
</event>
<event>
 5   0  0.1092868E-02  0.8101839E+03  0.7818609E-02  0.9545392E-01
       -2   -1    0    0    0  501  0.00000000000E+00  0.00000000000E+00  0.27021145924E+03  0.27021145925E+03  0.25500000920E-02 0. -1.
        2   -1    0    0  501    0  0.00000000000E+00  0.00000000000E+00 -0.60730018553E+03  0.60730018553E+03  0.25500000920E-02 0.  1.
    10030    2    1    2    0    0  0.00000000000E+00  0.00000000000E+00 -0.33708872629E+03  0.87751164479E+03  0.81018385404E+03 0.  0.
        3    1    3    3  502    0  0.47853566121E+02  0.25548688328E+03  0.16797792785E+03  0.30948361146E+03  0.10100000352E+00 0. -1.
       -3    1    3    3    0  502 -0.47853566121E+02 -0.25548688328E+03 -0.50506665414E+03  0.56802803332E+03  0.10100000352E+00 0.  1.
</event>
<event>
 5   0  0.1154714E-02  0.7825316E+03  0.7818609E-02  0.9585652E-01
       -2   -1    0    0    0  501  0.00000000000E+00  0.00000000000E+00  0.27842352664E+03  0.27842352665E+03  0.25500000920E-02 0. -1.
        2   -1    0    0  501    0  0.00000000000E+00  0.00000000000E+00 -0.54984185681E+03  0.54984185682E+03  0.25500000920E-02 0.  1.
    10030    2    1    2    0    0  0.00000000000E+00  0.00000000000E+00 -0.27141833017E+03  0.82826538346E+03  0.78253155559E+03 0.  0.
        5    1    3    3  502    0 -0.13549176484E+03  0.36501698975E+03 -0.17630978754E+03  0.42743730807E+03  0.46999998093E+01 0. -1.
       -5    1    3    3    0  502  0.13549176484E+03 -0.36501698975E+03 -0.95108542631E+02  0.40082807540E+03  0.46999998093E+01 0.  1.
</event>
<event>
 5   0  0.6557679E-03  0.8355430E+03  0.7818609E-02  0.9509949E-01
        1   -1    0    0  501    0  0.00000000000E+00  0.00000000000E+00  0.62379836492E+03  0.62379836494E+03  0.50400001928E-02 0. -1.
       -1   -1    0    0    0  501  0.00000000000E+00  0.00000000000E+00 -0.27979079600E+03  0.27979079604E+03  0.50400001928E-02 0.  1.
    10030    2    1    2    0    0  0.00000000000E+00  0.00000000000E+00  0.34400756892E+03  0.90358916098E+03  0.83554303561E+03 0.  0.
        1    1    3    3  502    0  0.20183119083E+03  0.36476484379E+03  0.20149795429E+03  0.46302337572E+03  0.50400001928E-02 0. -1.
       -1    1    3    3    0  502 -0.20183119083E+03 -0.36476484379E+03  0.14250961463E+03  0.44056578526E+03  0.50400001928E-02 0.  1.
</event>
<event>
 5   0  0.6551489E-03  0.8076349E+03  0.7818609E-02  0.9549031E-01
        1   -1    0    0  501    0  0.00000000000E+00  0.00000000000E+00  0.11852031661E+04  0.11852031661E+04  0.50400001928E-02 0. -1.
       -1   -1    0    0    0  501  0.00000000000E+00  0.00000000000E+00 -0.13758697565E+03  0.13758697575E+03  0.50400001928E-02 0.  1.
    10030    2    1    2    0    0  0.00000000000E+00  0.00000000000E+00  0.10476161905E+04  0.13227901419E+04  0.80763486609E+03 0.  0.
        4    1    3    3  502    0 -0.27199874945E+03 -0.20812843791E+03  0.17342105669E+03  0.38389743704E+03  0.12699999809E+01 0.  1.
       -4    1    3    3    0  502  0.27199874945E+03  0.20812843791E+03  0.87419513380E+03  0.93889270485E+03  0.12699999809E+01 0. -1.
</event>
<event>
 5   0  0.6596225E-03  0.7972735E+03  0.7818609E-02  0.9563972E-01
       -1   -1    0    0    0  501  0.00000000000E+00  0.00000000000E+00  0.53384278387E+03  0.53384278389E+03  0.50400001928E-02 0.  1.
        1   -1    0    0  501    0  0.00000000000E+00  0.00000000000E+00 -0.29767423224E+03  0.29767423228E+03  0.50400001928E-02 0. -1.
    10030    2    1    2    0    0  0.00000000000E+00  0.00000000000E+00  0.23616855163E+03  0.83151701617E+03  0.79727345585E+03 0.  0.
        5    1    3    3  502    0  0.29148213084E+03 -0.45259996520E+02  0.39770180834E+03  0.49517584578E+03  0.46999998093E+01 0.  1.
       -5    1    3    3    0  502 -0.29148213084E+03  0.45259996520E+02 -0.16153325671E+03  0.33634117040E+03  0.46999998093E+01 0. -1.
</event>
<event>
 5   0  0.6596225E-03  0.7738533E+03  0.7818609E-02  0.9598654E-01
       -1   -1    0    0    0  501  0.00000000000E+00  0.00000000000E+00  0.79928470644E+03  0.79928470646E+03  0.50400001928E-02 0. -1.
        1   -1    0    0  501    0  0.00000000000E+00  0.00000000000E+00 -0.18730775641E+03  0.18730775648E+03  0.50400001928E-02 0.  1.
    10030    2    1    2    0    0  0.00000000000E+00  0.00000000000E+00  0.61197695003E+03  0.98659246294E+03  0.77385328103E+03 0.  0.
        5    1    3    3  502    0  0.61812457510E+02 -0.26693927141E+03  0.65423418710E+03  0.70931080359E+03  0.46999998093E+01 0. -1.
       -5    1    3    3    0  502 -0.61812457510E+02  0.26693927141E+03 -0.42257237076E+02  0.27728165934E+03  0.46999998093E+01 0.  1.
</event>
<event>
 5   0  0.1154714E-02  0.7997155E+03  0.7818609E-02  0.9560429E-01
        2   -1    0    0  501    0  0.00000000000E+00  0.00000000000E+00  0.37222519845E+03  0.37222519845E+03  0.25500000920E-02 0. -1.
       -2   -1    0    0    0  501  0.00000000000E+00  0.00000000000E+00 -0.42954161215E+03  0.42954161216E+03  0.25500000920E-02 0.  1.
    10030    2    1    2    0    0  0.00000000000E+00  0.00000000000E+00 -0.57316413709E+02  0.80176681062E+03  0.79971547898E+03 0.  0.
        5    1    3    3  502    0 -0.85301530510E+02 -0.34978817877E+03 -0.20298925685E+03  0.41334591991E+03  0.46999998093E+01 0.  1.
       -5    1    3    3    0  502  0.85301530510E+02  0.34978817877E+03  0.14567284314E+03  0.38842089071E+03  0.46999998093E+01 0. -1.
</event>
<event>
 5   0  0.1154714E-02  0.8146234E+03  0.7818609E-02  0.9539088E-01
        2   -1    0    0  501    0  0.00000000000E+00  0.00000000000E+00  0.94993658606E+03  0.94993658607E+03  0.25500000920E-02 0.  1.
       -2   -1    0    0    0  501  0.00000000000E+00  0.00000000000E+00 -0.17464622222E+03  0.17464622224E+03  0.25500000920E-02 0. -1.
    10030    2    1    2    0    0  0.00000000000E+00  0.00000000000E+00  0.77529036384E+03  0.11245828083E+04  0.81462343723E+03 0.  0.
        5    1    3    3  502    0  0.19722462569E+03 -0.35633856723E+03  0.38425842410E+03  0.55995656435E+03  0.46999998093E+01 0. -1.
       -5    1    3    3    0  502 -0.19722462569E+03  0.35633856723E+03  0.39103193974E+03  0.56462624396E+03  0.46999998093E+01 0.  1.
</event>
<event>
 5   0  0.1092868E-02  0.8024265E+03  0.7818609E-02  0.9556512E-01
        2   -1    0    0  501    0  0.00000000000E+00  0.00000000000E+00  0.18108092866E+04  0.18108092866E+04  0.25500000920E-02 0. -1.
       -2   -1    0    0    0  501  0.00000000000E+00  0.00000000000E+00 -0.88895093148E+02  0.88895093185E+02  0.25500000920E-02 0.  1.
    10030    2    1    2    0    0  0.00000000000E+00  0.00000000000E+00  0.17219141934E+04  0.18997043798E+04  0.80242647075E+03 0.  0.
        3    1    3    3  502    0 -0.27206760874E+03 -0.13127642870E+03  0.14860614264E+04  0.15164540407E+04  0.10100000352E+00 0. -1.
       -3    1    3    3    0  502  0.27206760874E+03  0.13127642870E+03  0.23585276708E+03  0.38325033907E+03  0.10100000352E+00 0.  1.
</event>
<event>
 5   0  0.1154714E-02  0.7975082E+03  0.7818609E-02  0.9563631E-01
        2   -1    0    0  501    0  0.00000000000E+00  0.00000000000E+00  0.12026108300E+04  0.12026108300E+04  0.25500000920E-02 0. -1.
       -2   -1    0    0    0  501  0.00000000000E+00  0.00000000000E+00 -0.13221636378E+03  0.13221636380E+03  0.25500000920E-02 0.  1.
    10030    2    1    2    0    0  0.00000000000E+00  0.00000000000E+00  0.10703944663E+04  0.13348271938E+04  0.79750819684E+03 0.  0.
        5    1    3    3  502    0 -0.10126993461E+03  0.28641806434E+02  0.11788978772E+04  0.11835954746E+04  0.46999998093E+01 0. -1.
       -5    1    3    3    0  502  0.10126993461E+03 -0.28641806434E+02 -0.10850341090E+03  0.15123171925E+03  0.46999998093E+01 0.  1.
</event>
<event>
 5   0  0.6600401E-03  0.7957381E+03  0.7818609E-02  0.9566207E-01
       -1   -1    0    0    0  501  0.00000000000E+00  0.00000000000E+00  0.37160602478E+03  0.37160602482E+03  0.50400001928E-02 0.  1.
        1   -1    0    0  501    0  0.00000000000E+00  0.00000000000E+00 -0.42598818141E+03  0.42598818144E+03  0.50400001928E-02 0. -1.
    10030    2    1    2    0    0  0.00000000000E+00  0.00000000000E+00 -0.54382156630E+02  0.79759420626E+03  0.79573808436E+03 0.  0.
        2    1    3    3  502    0 -0.42821500606E+02  0.25157909841E+03  0.27876517618E+03  0.37793616806E+03  0.25500000920E-02 0.  1.
       -2    1    3    3    0  502  0.42821500606E+02 -0.25157909841E+03 -0.33314733281E+03  0.41965803821E+03  0.25500000920E-02 0. -1.
</event>
<event>
 5   0  0.1092868E-02  0.8298077E+03  0.7818609E-02  0.9517846E-01
        2   -1    0    0  501    0  0.00000000000E+00  0.00000000000E+00  0.21787986618E+04  0.21787986618E+04  0.25500000920E-02 0.  1.
       -2   -1    0    0    0  501  0.00000000000E+00  0.00000000000E+00 -0.79009235132E+02  0.79009235173E+02  0.25500000920E-02 0. -1.
    10030    2    1    2    0    0  0.00000000000E+00  0.00000000000E+00  0.20997894267E+04  0.22578078970E+04  0.82980772670E+03 0.  0.
        3    1    3    3  502    0 -0.12443617812E+03  0.38147016509E+03  0.13370908184E+04  0.13959998984E+04  0.10100000352E+00 0.  1.
       -3    1    3    3    0  502  0.12443617812E+03 -0.38147016509E+03  0.76269860824E+03  0.86180799862E+03  0.10100000352E+00 0. -1.
</event>
<event>
 5   0  0.1119792E-02  0.7743405E+03  0.7818609E-02  0.9597919E-01
       -2   -1    0    0    0  501  0.00000000000E+00  0.00000000000E+00  0.15017419523E+03  0.15017419525E+03  0.25500000920E-02 0.  1.
        2   -1    0    0  501    0  0.00000000000E+00  0.00000000000E+00 -0.99817946043E+03  0.99817946043E+03  0.25500000920E-02 0. -1.
    10030    2    1    2    0    0  0.00000000000E+00  0.00000000000E+00 -0.84800526520E+03  0.11483536557E+04  0.77434048629E+03 0.  0.
        4    1    3    3  502    0 -0.20605581456E+03  0.28932279326E+02 -0.90820691411E+03  0.93173895874E+03  0.12699999809E+01 0. -1.
       -4    1    3    3    0  502  0.20605581456E+03 -0.28932279326E+02  0.60201648905E+02  0.21661469694E+03  0.12699999809E+01 0.  1.
</event>
<event>
 5   0  0.1092868E-02  0.7993863E+03  0.7818609E-02  0.9560906E-01
        2   -1    0    0  501    0  0.00000000000E+00  0.00000000000E+00  0.56690756866E+03  0.56690756867E+03  0.25500000920E-02 0.  1.
       -2   -1    0    0    0  501  0.00000000000E+00  0.00000000000E+00 -0.28180012421E+03  0.28180012422E+03  0.25500000920E-02 0. -1.
    10030    2    1    2    0    0  0.00000000000E+00  0.00000000000E+00  0.28510744446E+03  0.84870769289E+03  0.79938632280E+03 0.  0.
        3    1    3    3  502    0 -0.13854578710E+03  0.93237744586E+02  0.52809288674E+03  0.55386850367E+03  0.10100000352E+00 0.  1.
       -3    1    3    3    0  502  0.13854578710E+03 -0.93237744586E+02 -0.24298544228E+03  0.29483918922E+03  0.10100000352E+00 0. -1.
</event>
<event>
 5   0  0.6600401E-03  0.8000855E+03  0.7818609E-02  0.9559893E-01
        1   -1    0    0  501    0  0.00000000000E+00  0.00000000000E+00  0.56888980221E+03  0.56888980224E+03  0.50400001928E-02 0. -1.
       -1   -1    0    0    0  501  0.00000000000E+00  0.00000000000E+00 -0.28130963405E+03  0.28130963410E+03  0.50400001928E-02 0.  1.
    10030    2    1    2    0    0  0.00000000000E+00  0.00000000000E+00  0.28758016816E+03  0.85019943633E+03  0.80008545070E+03 0.  0.
        2    1    3    3  502    0 -0.25325549044E+03  0.15096105481E+03 -0.14352784585E+03  0.32791435780E+03  0.25500000920E-02 0.  1.
       -2    1    3    3    0  502  0.25325549044E+03 -0.15096105481E+03  0.43110801402E+03  0.52228507854E+03  0.25500000920E-02 0. -1.
</event>
<event>
 5   0  0.1121480E-02  0.7791728E+03  0.7818609E-02  0.9590663E-01
       -2   -1    0    0    0  501  0.00000000000E+00  0.00000000000E+00  0.11768657860E+03  0.11768657863E+03  0.25500000920E-02 0.  1.
        2   -1    0    0  501    0  0.00000000000E+00  0.00000000000E+00 -0.12896761723E+04  0.12896761723E+04  0.25500000920E-02 0. -1.
    10030    2    1    2    0    0  0.00000000000E+00  0.00000000000E+00 -0.11719895936E+04  0.14073627509E+04  0.77917283382E+03 0.  0.
        2    1    3    3  502    0  0.18030758552E+02  0.20320320514E+03  0.13500855321E+02  0.20444785138E+03  0.25500000920E-02 0.  1.
       -2    1    3    3    0  502 -0.18030758552E+02 -0.20320320514E+03 -0.11854904490E+04  0.12029148995E+04  0.25500000920E-02 0. -1.
</event>
<event>
 5   0  0.6551489E-03  0.7940155E+03  0.7818609E-02  0.9568720E-01
       -1   -1    0    0    0  501  0.00000000000E+00  0.00000000000E+00  0.21380625895E+03  0.21380625901E+03  0.50400001928E-02 0.  1.
        1   -1    0    0  501    0  0.00000000000E+00  0.00000000000E+00 -0.73718683372E+03  0.73718683374E+03  0.50400001928E-02 0. -1.
    10030    2    1    2    0    0  0.00000000000E+00  0.00000000000E+00 -0.52338057477E+03  0.95099309276E+03  0.79401551397E+03 0.  0.
        4    1    3    3  502    0 -0.39685195201E+03 -0.15457477870E+01 -0.27479321482E+03  0.48270776352E+03  0.12699999809E+01 0. -1.
       -4    1    3    3    0  502  0.39685195201E+03  0.15457477870E+01 -0.24858735995E+03  0.46828532924E+03  0.12699999809E+01 0.  1.
</event>
<event>
 5   0  0.6551489E-03  0.8004001E+03  0.7818609E-02  0.9559438E-01
       -1   -1    0    0    0  501  0.00000000000E+00  0.00000000000E+00  0.34182693775E+03  0.34182693779E+03  0.50400001928E-02 0.  1.
        1   -1    0    0  501    0  0.00000000000E+00  0.00000000000E+00 -0.46854139015E+03  0.46854139018E+03  0.50400001928E-02 0. -1.
    10030    2    1    2    0    0  0.00000000000E+00  0.00000000000E+00 -0.12671445240E+03  0.81036832797E+03  0.80040007154E+03 0.  0.
        4    1    3    3  502    0 -0.25337062599E+03 -0.28295891986E+02 -0.37568105636E+03  0.45402114557E+03  0.12699999809E+01 0. -1.
       -4    1    3    3    0  502  0.25337062599E+03  0.28295891986E+02  0.24896660396E+03  0.35634718240E+03  0.12699999809E+01 0.  1.
</event>
<event>
 5   0  0.1119792E-02  0.8080763E+03  0.7818609E-02  0.9548400E-01
       -2   -1    0    0    0  501  0.00000000000E+00  0.00000000000E+00  0.71310077747E+03  0.71310077748E+03  0.25500000920E-02 0. -1.
        2   -1    0    0  501    0  0.00000000000E+00  0.00000000000E+00 -0.22892534987E+03  0.22892534988E+03  0.25500000920E-02 0.  1.
    10030    2    1    2    0    0  0.00000000000E+00  0.00000000000E+00  0.48417542760E+03  0.94202612736E+03  0.80807634536E+03 0.  0.
        4    1    3    3  502    0 -0.39493651139E+03  0.73398206590E+02  0.19149991476E+03  0.44501233130E+03  0.12699999809E+01 0. -1.
       -4    1    3    3    0  502  0.39493651139E+03 -0.73398206590E+02  0.29267551284E+03  0.49701379606E+03  0.12699999809E+01 0.  1.
</event>
<event>
 5   0  0.6517392E-03  0.8017332E+03  0.7818609E-02  0.9557512E-01
       -1   -1    0    0    0  501  0.00000000000E+00  0.00000000000E+00  0.25695890961E+03  0.25695890966E+03  0.50400001928E-02 0. -1.
        1   -1    0    0  501    0  0.00000000000E+00  0.00000000000E+00 -0.62536865581E+03  0.62536865583E+03  0.50400001928E-02 0.  1.
    10030    2    1    2    0    0  0.00000000000E+00  0.00000000000E+00 -0.36840974620E+03  0.88232756549E+03  0.80173324225E+03 0.  0.
        3    1    3    3  502    0 -0.25106471018E+03 -0.59310312805E+02  0.15346599520E+03  0.30017165720E+03  0.10100000352E+00 0. -1.
       -3    1    3    3    0  502  0.25106471018E+03  0.59310312805E+02 -0.52187574140E+03  0.58215590830E+03  0.10100000352E+00 0.  1.
</event>
<event>
 5   0  0.4385875E-03  0.7994170E+03  0.7818609E-02  0.9560861E-01
       -4   -1    0    0    0  501  0.00000000000E+00  0.00000000000E+00  0.10090928169E+04  0.10090936161E+04  0.12699999809E+01 0.  1.
        4   -1    0    0  501    0  0.00000000000E+00  0.00000000000E+00 -0.15832382936E+03  0.15832892296E+03  0.12699999809E+01 0. -1.
    10030    2    1    2    0    0  0.00000000000E+00  0.00000000000E+00  0.85076898754E+03  0.11674225390E+04  0.79941698412E+03 0.  0.
        3    1    3    3  502    0 -0.32392082446E+03  0.13178411850E+03  0.14268424909E+03  0.37769109011E+03  0.10100000352E+00 0.  1.
       -3    1    3    3    0  502  0.32392082446E+03 -0.13178411850E+03  0.70808473845E+03  0.78973144893E+03  0.10100000352E+00 0. -1.
</event>
<event>
 5   0  0.1092868E-02  0.7929404E+03  0.7818609E-02  0.9570292E-01
       -2   -1    0    0    0  501  0.00000000000E+00  0.00000000000E+00  0.11651744563E+03  0.11651744566E+03  0.25500000920E-02 0.  1.
        2   -1    0    0  501    0  0.00000000000E+00  0.00000000000E+00 -0.13490563873E+04  0.13490563873E+04  0.25500000920E-02 0. -1.
    10030    2    1    2    0    0  0.00000000000E+00  0.00000000000E+00 -0.12325389417E+04  0.14655738330E+04  0.79294036166E+03 0.  0.
        3    1    3    3  502    0 -0.16492546691E+03 -0.35832649640E+03 -0.54256266611E+03  0.67079992883E+03  0.10100000352E+00 0. -1.
       -3    1    3    3    0  502  0.16492546691E+03  0.35832649640E+03 -0.68997627555E+03  0.79477390413E+03  0.10100000352E+00 0.  1.
</event>
<event>
 5   0  0.1092868E-02  0.8006553E+03  0.7818609E-02  0.9559069E-01
       -2   -1    0    0    0  501  0.00000000000E+00  0.00000000000E+00  0.19977790155E+03  0.19977790157E+03  0.25500000920E-02 0.  1.
        2   -1    0    0  501    0  0.00000000000E+00  0.00000000000E+00 -0.80220201510E+03  0.80220201511E+03  0.25500000920E-02 0. -1.
    10030    2    1    2    0    0  0.00000000000E+00  0.00000000000E+00 -0.60242411355E+03  0.10019799167E+04  0.80065531962E+03 0.  0.
        3    1    3    3  502    0  0.10154936896E+03 -0.38405672159E+03 -0.23926358315E+03  0.46374444704E+03  0.10100000352E+00 0.  1.
       -3    1    3    3    0  502 -0.10154936896E+03  0.38405672159E+03 -0.36316053040E+03  0.53823546964E+03  0.10100000352E+00 0. -1.
</event>
<event>
 5   0  0.1119792E-02  0.7751086E+03  0.7818609E-02  0.9596762E-01
        2   -1    0    0  501    0  0.00000000000E+00  0.00000000000E+00  0.83581898295E+03  0.83581898295E+03  0.25500000920E-02 0. -1.
       -2   -1    0    0    0  501  0.00000000000E+00  0.00000000000E+00 -0.17970201048E+03  0.17970201050E+03  0.25500000920E-02 0.  1.
    10030    2    1    2    0    0  0.00000000000E+00  0.00000000000E+00  0.65611697246E+03  0.10155209934E+04  0.77510864179E+03 0.  0.
        4    1    3    3  502    0  0.64302435994E+02 -0.26562393284E+03 -0.31953252008E+02  0.27516086238E+03  0.12699999809E+01 0.  1.
       -4    1    3    3    0  502 -0.64302435994E+02  0.26562393284E+03  0.68807022447E+03  0.74036013107E+03  0.12699999809E+01 0. -1.
</event>
<event>
 5   0  0.6557679E-03  0.7997892E+03  0.7818609E-02  0.9560322E-01
        1   -1    0    0  501    0  0.00000000000E+00  0.00000000000E+00  0.77248423203E+03  0.77248423205E+03  0.50400001928E-02 0. -1.
       -1   -1    0    0    0  501  0.00000000000E+00  0.00000000000E+00 -0.20701485238E+03  0.20701485244E+03  0.50400001928E-02 0.  1.
    10030    2    1    2    0    0  0.00000000000E+00  0.00000000000E+00  0.56546937965E+03  0.97949908449E+03  0.79978924549E+03 0.  0.
        1    1    3    3  502    0 -0.89841816600E+02 -0.20788814893E+03 -0.12090765194E+03  0.25672493996E+03  0.50400001928E-02 0.  1.
       -1    1    3    3    0  502  0.89841816600E+02  0.20788814893E+03  0.68637703159E+03  0.72277414453E+03  0.50400001928E-02 0. -1.
</event>
<event>
 5   0  0.1119792E-02  0.7940704E+03  0.7818609E-02  0.9568640E-01
        2   -1    0    0  501    0  0.00000000000E+00  0.00000000000E+00  0.67755016846E+03  0.67755016847E+03  0.25500000920E-02 0.  1.
       -2   -1    0    0    0  501  0.00000000000E+00  0.00000000000E+00 -0.23265723535E+03  0.23265723536E+03  0.25500000920E-02 0. -1.
    10030    2    1    2    0    0  0.00000000000E+00  0.00000000000E+00  0.44489293311E+03  0.91020740383E+03  0.79407039741E+03 0.  0.
        4    1    3    3  502    0 -0.11127159067E+03  0.33192455374E+02  0.65764962706E+03  0.66782314340E+03  0.12699999809E+01 0.  1.
       -4    1    3    3    0  502  0.11127159067E+03 -0.33192455374E+02 -0.21275669395E+03  0.24238426043E+03  0.12699999809E+01 0. -1.
</event>
<event>
 5   0  0.6517392E-03  0.8003151E+03  0.7818609E-02  0.9559561E-01
       -1   -1    0    0    0  501  0.00000000000E+00  0.00000000000E+00  0.12249028905E+03  0.12249028916E+03  0.50400001928E-02 0. -1.
        1   -1    0    0  501    0  0.00000000000E+00  0.00000000000E+00 -0.13072551154E+04  0.13072551154E+04  0.50400001928E-02 0.  1.
    10030    2    1    2    0    0  0.00000000000E+00  0.00000000000E+00 -0.11847648263E+04  0.14297454045E+04  0.80031508053E+03 0.  0.
        3    1    3    3  502    0 -0.56080934412E+02  0.18018607691E+03 -0.12227686460E+04  0.12372450304E+04  0.10100000352E+00 0.  1.
       -3    1    3    3    0  502  0.56080934412E+02 -0.18018607691E+03  0.38003819682E+02  0.19250037409E+03  0.10100000352E+00 0. -1.
</event>
<event>
 5   0  0.1092868E-02  0.8008243E+03  0.7818609E-02  0.9558825E-01
       -2   -1    0    0    0  501  0.00000000000E+00  0.00000000000E+00  0.91842818122E+03  0.91842818123E+03  0.25500000920E-02 0.  1.
        2   -1    0    0  501    0  0.00000000000E+00  0.00000000000E+00 -0.17456989221E+03  0.17456989222E+03  0.25500000920E-02 0. -1.
    10030    2    1    2    0    0  0.00000000000E+00  0.00000000000E+00  0.74385828902E+03  0.10929980735E+04  0.80082434680E+03 0.  0.
        3    1    3    3  502    0  0.14002246859E+03 -0.25389172332E+03 -0.49810903111E+01  0.28998641406E+03  0.10100000352E+00 0. -1.
       -3    1    3    3    0  502 -0.14002246859E+03  0.25389172332E+03  0.74883937933E+03  0.80301165939E+03  0.10100000352E+00 0.  1.
</event>
<event>
 5   0  0.1092868E-02  0.7970700E+03  0.7818609E-02  0.9564268E-01
       -2   -1    0    0    0  501  0.00000000000E+00  0.00000000000E+00  0.11765677154E+04  0.11765677154E+04  0.25500000920E-02 0.  1.
        2   -1    0    0  501    0  0.00000000000E+00  0.00000000000E+00 -0.13499448636E+03  0.13499448639E+03  0.25500000920E-02 0. -1.
    10030    2    1    2    0    0  0.00000000000E+00  0.00000000000E+00  0.10415732290E+04  0.13115622018E+04  0.79707002058E+03 0.  0.
        3    1    3    3  502    0  0.29399423753E+03 -0.13866735391E+03  0.90020751011E+03  0.95709707878E+03  0.10100000352E+00 0.  1.
       -3    1    3    3    0  502 -0.29399423753E+03  0.13866735391E+03  0.14136571892E+03  0.35446512301E+03  0.10100000352E+00 0. -1.
</event>
<event>
 5   0  0.6551489E-03  0.8003216E+03  0.7818609E-02  0.9559552E-01
       -1   -1    0    0    0  501  0.00000000000E+00  0.00000000000E+00  0.11762323943E+03  0.11762323954E+03  0.50400001928E-02 0. -1.
        1   -1    0    0  501    0  0.00000000000E+00  0.00000000000E+00 -0.13613694514E+04  0.13613694514E+04  0.50400001928E-02 0.  1.
    10030    2    1    2    0    0  0.00000000000E+00  0.00000000000E+00 -0.12437462120E+04  0.14789926909E+04  0.80032164789E+03 0.  0.
        4    1    3    3  502    0 -0.34821550576E+00 -0.21490450525E+03  0.19267884602E+01  0.21491717717E+03  0.12699999809E+01 0. -1.
       -4    1    3    3    0  502  0.34821550576E+00  0.21490450525E+03 -0.12456730004E+04  0.12640755138E+04  0.12699999809E+01 0.  1.
</event>
<event>
 5   0  0.6557679E-03  0.8006522E+03  0.7818609E-02  0.9559074E-01
        1   -1    0    0  501    0  0.00000000000E+00  0.00000000000E+00  0.27537679479E+03  0.27537679483E+03  0.50400001928E-02 0. -1.
       -1   -1    0    0    0  501  0.00000000000E+00  0.00000000000E+00 -0.58196983647E+03  0.58196983650E+03  0.50400001928E-02 0.  1.
    10030    2    1    2    0    0  0.00000000000E+00  0.00000000000E+00 -0.30659304169E+03  0.85734663133E+03  0.80065220479E+03 0.  0.
        1    1    3    3  502    0  0.43852297142E+02 -0.10993413149E+03 -0.56280615019E+03  0.57511677071E+03  0.50400001928E-02 0.  1.
       -1    1    3    3    0  502 -0.43852297142E+02  0.10993413149E+03  0.25621310850E+03  0.28222986062E+03  0.50400001928E-02 0. -1.
</event>
<event>
 5   0  0.1106332E-02  0.7989736E+03  0.7818609E-02  0.9561504E-01
       -2   -1    0    0    0  501  0.00000000000E+00  0.00000000000E+00  0.65353315327E+03  0.65353315328E+03  0.25500000920E-02 0.  1.
        2   -1    0    0  501    0  0.00000000000E+00  0.00000000000E+00 -0.24419529153E+03  0.24419529154E+03  0.25500000920E-02 0. -1.
    10030    2    1    2    0    0  0.00000000000E+00  0.00000000000E+00  0.40933786174E+03  0.89772844482E+03  0.79897363885E+03 0.  0.
        1    1    3    3  502    0 -0.37330493337E+03 -0.14186681539E+03  0.19304889217E+03  0.44356582530E+03  0.50400001928E-02 0.  1.
       -1    1    3    3    0  502  0.37330493337E+03  0.14186681539E+03  0.21628896957E+03  0.45416261952E+03  0.50400001928E-02 0. -1.
</event>
<event>
 5   0  0.6551489E-03  0.7971536E+03  0.7818609E-02  0.9564146E-01
       -1   -1    0    0    0  501  0.00000000000E+00  0.00000000000E+00  0.18714441754E+03  0.18714441761E+03  0.50400001928E-02 0.  1.
        1   -1    0    0  501    0  0.00000000000E+00  0.00000000000E+00 -0.84888160692E+03  0.84888160694E+03  0.50400001928E-02 0. -1.
    10030    2    1    2    0    0  0.00000000000E+00  0.00000000000E+00 -0.66173718939E+03  0.10360260245E+04  0.79715357098E+03 0.  0.
        4    1    3    3  502    0  0.76512927905E+01  0.32898457010E+03 -0.62313955849E+03  0.70469419744E+03  0.12699999809E+01 0. -1.
       -4    1    3    3    0  502 -0.76512927905E+01 -0.32898457010E+03 -0.38597630894E+02  0.33133182711E+03  0.12699999809E+01 0.  1.
</event>
<event>
 5   0  0.1154714E-02  0.8049571E+03  0.7818609E-02  0.9552870E-01
        2   -1    0    0  501    0  0.00000000000E+00  0.00000000000E+00  0.52770036513E+03  0.52770036513E+03  0.25500000920E-02 0.  1.
       -2   -1    0    0    0  501  0.00000000000E+00  0.00000000000E+00 -0.30697150244E+03  0.30697150245E+03  0.25500000920E-02 0. -1.
    10030    2    1    2    0    0  0.00000000000E+00  0.00000000000E+00  0.22072886269E+03  0.83467186758E+03  0.80495707694E+03 0.  0.
        5    1    3    3  502    0  0.22997208197E+03 -0.25093601130E+03 -0.11229679016E+03  0.35845320383E+03  0.46999998093E+01 0. -1.
       -5    1    3    3    0  502 -0.22997208197E+03  0.25093601130E+03  0.33302565285E+03  0.47621866376E+03  0.46999998093E+01 0.  1.
</event>
<event>
 5   0  0.6600401E-03  0.8154904E+03  0.7818609E-02  0.9537862E-01
       -1   -1    0    0    0  501  0.00000000000E+00  0.00000000000E+00  0.44064864615E+03  0.44064864618E+03  0.50400001928E-02 0.  1.
        1   -1    0    0  501    0  0.00000000000E+00  0.00000000000E+00 -0.37729870831E+03  0.37729870834E+03  0.50400001928E-02 0. -1.
    10030    2    1    2    0    0  0.00000000000E+00  0.00000000000E+00  0.63349937846E+02  0.81794735452E+03  0.81549044148E+03 0.  0.
        2    1    3    3  502    0  0.34035199214E+03  0.22186097494E+03  0.66339101292E+02  0.41165841072E+03  0.25500000920E-02 0. -1.
       -2    1    3    3    0  502 -0.34035199214E+03 -0.22186097494E+03 -0.29891634463E+01  0.40628894380E+03  0.25500000920E-02 0.  1.
</event>
<event>
 5   0  0.6596225E-03  0.8010636E+03  0.7818609E-02  0.9558479E-01
        1   -1    0    0  501    0  0.00000000000E+00  0.00000000000E+00  0.98326028026E+03  0.98326028027E+03  0.50400001928E-02 0. -1.
       -1   -1    0    0    0  501  0.00000000000E+00  0.00000000000E+00 -0.16315691564E+03  0.16315691572E+03  0.50400001928E-02 0.  1.
    10030    2    1    2    0    0  0.00000000000E+00  0.00000000000E+00  0.82010336462E+03  0.11464171960E+04  0.80106357962E+03 0.  0.
        5    1    3    3  502    0  0.20852948944E+03  0.46912045699E+02  0.89477300599E+03  0.91995984164E+03  0.46999998093E+01 0. -1.
       -5    1    3    3    0  502 -0.20852948944E+03 -0.46912045699E+02 -0.74669641365E+02  0.22645735434E+03  0.46999998093E+01 0.  1.
</event>
<event>
 5   0  0.6557679E-03  0.8009602E+03  0.7818609E-02  0.9558628E-01
       -1   -1    0    0    0  501  0.00000000000E+00  0.00000000000E+00  0.14017831483E+03  0.14017831492E+03  0.50400001928E-02 0.  1.
        1   -1    0    0  501    0  0.00000000000E+00  0.00000000000E+00 -0.11441449837E+04  0.11441449837E+04  0.50400001928E-02 0. -1.
    10030    2    1    2    0    0  0.00000000000E+00  0.00000000000E+00 -0.10039666689E+04  0.12843232986E+04  0.80096021324E+03 0.  0.
        1    1    3    3  502    0  0.20171869314E+03  0.29294388978E+03 -0.79711837432E+03  0.87287127140E+03  0.50400001928E-02 0.  1.
       -1    1    3    3    0  502 -0.20171869314E+03 -0.29294388978E+03 -0.20684829453E+03  0.41145202721E+03  0.50400001928E-02 0. -1.
</event>
<event>
 5   0  0.1154714E-02  0.8023517E+03  0.7818609E-02  0.9556619E-01
       -2   -1    0    0    0  501  0.00000000000E+00  0.00000000000E+00  0.31532541814E+03  0.31532541815E+03  0.25500000920E-02 0. -1.
        2   -1    0    0  501    0  0.00000000000E+00  0.00000000000E+00 -0.51039996337E+03  0.51039996338E+03  0.25500000920E-02 0.  1.
    10030    2    1    2    0    0  0.00000000000E+00  0.00000000000E+00 -0.19507454524E+03  0.82572538153E+03  0.80235174799E+03 0.  0.
        5    1    3    3  502    0 -0.22110992466E+03  0.31497752918E+03  0.18984533597E+02  0.38533484813E+03  0.46999998093E+01 0. -1.
       -5    1    3    3    0  502  0.22110992466E+03 -0.31497752918E+03 -0.21405907884E+03  0.44039053339E+03  0.46999998093E+01 0.  1.
</event>
<event>
 5   0  0.6600401E-03  0.7938675E+03  0.7818609E-02  0.9568936E-01
       -1   -1    0    0    0  501  0.00000000000E+00  0.00000000000E+00  0.21934462277E+03  0.21934462283E+03  0.50400001928E-02 0. -1.
        1   -1    0    0  501    0  0.00000000000E+00  0.00000000000E+00 -0.71830533048E+03  0.71830533050E+03  0.50400001928E-02 0.  1.
    10030    2    1    2    0    0  0.00000000000E+00  0.00000000000E+00 -0.49896070772E+03  0.93764995333E+03  0.79386752493E+03 0.  0.
        2    1    3    3  502    0  0.31755130505E+03  0.80273088449E+02 -0.51430817476E+03  0.60975035769E+03  0.25500000920E-02 0.  1.
       -2    1    3    3    0  502 -0.31755130505E+03 -0.80273088449E+02  0.15347467039E+02  0.32789959564E+03  0.25500000920E-02 0. -1.
</event>
<event>
 5   0  0.6517392E-03  0.8034757E+03  0.7818609E-02  0.9555000E-01
       -1   -1    0    0    0  501  0.00000000000E+00  0.00000000000E+00  0.12128170225E+03  0.12128170236E+03  0.50400001928E-02 0.  1.
        1   -1    0    0  501    0  0.00000000000E+00  0.00000000000E+00 -0.13307309143E+04  0.13307309144E+04  0.50400001928E-02 0. -1.
    10030    2    1    2    0    0  0.00000000000E+00  0.00000000000E+00 -0.12094492121E+04  0.14520126167E+04  0.80347572613E+03 0.  0.
        3    1    3    3  502    0  0.24012888245E+03  0.28588846712E+03 -0.87276553760E+03  0.94927013523E+03  0.10100000352E+00 0. -1.
       -3    1    3    3    0  502 -0.24012888245E+03 -0.28588846712E+03 -0.33668367449E+03  0.50274248149E+03  0.10100000352E+00 0.  1.
</event>
<event>
 5   0  0.1092868E-02  0.7981543E+03  0.7818609E-02  0.9562693E-01
       -2   -1    0    0    0  501  0.00000000000E+00  0.00000000000E+00  0.17435055836E+03  0.17435055838E+03  0.25500000920E-02 0.  1.
        2   -1    0    0  501    0  0.00000000000E+00  0.00000000000E+00 -0.91346181780E+03  0.91346181780E+03  0.25500000920E-02 0. -1.
    10030    2    1    2    0    0  0.00000000000E+00  0.00000000000E+00 -0.73911125944E+03  0.10878123762E+04  0.79815431587E+03 0.  0.
        3    1    3    3  502    0 -0.38215922179E+03 -0.11183572647E+03 -0.40586297684E+03  0.56857511965E+03  0.10100000352E+00 0.  1.
       -3    1    3    3    0  502  0.38215922179E+03  0.11183572647E+03 -0.33324828260E+03  0.51923725653E+03  0.10100000352E+00 0. -1.
</event>
<event>
 5   0  0.1154714E-02  0.8257930E+03  0.7818609E-02  0.9523415E-01
        2   -1    0    0  501    0  0.00000000000E+00  0.00000000000E+00  0.13233441810E+04  0.13233441810E+04  0.25500000920E-02 0. -1.
       -2   -1    0    0    0  501  0.00000000000E+00  0.00000000000E+00 -0.12882781123E+03  0.12882781126E+03  0.25500000920E-02 0.  1.
    10030    2    1    2    0    0  0.00000000000E+00  0.00000000000E+00  0.11945163697E+04  0.14521719922E+04  0.82579303548E+03 0.  0.
        5    1    3    3  502    0 -0.13705877066E+03  0.13010038955E+03  0.12427809938E+04  0.12570751396E+04  0.46999998093E+01 0. -1.
       -5    1    3    3    0  502  0.13705877066E+03 -0.13010038955E+03 -0.48264624077E+02  0.19509685265E+03  0.46999998093E+01 0.  1.
</event>
<event>
 5   0  0.1106332E-02  0.8024850E+03  0.7818609E-02  0.9556427E-01
        2   -1    0    0  501    0  0.00000000000E+00  0.00000000000E+00  0.63988054109E+03  0.63988054109E+03  0.25500000920E-02 0. -1.
       -2   -1    0    0    0  501  0.00000000000E+00  0.00000000000E+00 -0.25160248681E+03  0.25160248682E+03  0.25500000920E-02 0.  1.
    10030    2    1    2    0    0  0.00000000000E+00  0.00000000000E+00  0.38827805428E+03  0.89148302792E+03  0.80248497907E+03 0.  0.
        1    1    3    3  502    0  0.36899268371E+03 -0.14455553820E+03  0.12437616171E+03  0.41535687533E+03  0.50400001928E-02 0.  1.
       -1    1    3    3    0  502 -0.36899268371E+03  0.14455553820E+03  0.26390189257E+03  0.47612615259E+03  0.50400001928E-02 0. -1.
</event>
<event>
 5   0  0.6551489E-03  0.8010832E+03  0.7818609E-02  0.9558451E-01
        1   -1    0    0  501    0  0.00000000000E+00  0.00000000000E+00  0.71928958980E+03  0.71928958982E+03  0.50400001928E-02 0. -1.
       -1   -1    0    0    0  501  0.00000000000E+00  0.00000000000E+00 -0.22304449127E+03  0.22304449133E+03  0.50400001928E-02 0.  1.
    10030    2    1    2    0    0  0.00000000000E+00  0.00000000000E+00  0.49624509853E+03  0.94233408115E+03  0.80108321833E+03 0.  0.
        4    1    3    3  502    0  0.12424363742E+03 -0.76482751023E+02 -0.19067322119E+03  0.24009161340E+03  0.12699999809E+01 0.  1.
       -4    1    3    3    0  502 -0.12424363742E+03  0.76482751023E+02  0.68691831972E+03  0.70224246775E+03  0.12699999809E+01 0. -1.
</event>
<event>
 5   0  0.6517392E-03  0.7568105E+03  0.7818609E-02  0.9624726E-01
        1   -1    0    0  501    0  0.00000000000E+00  0.00000000000E+00  0.11725530199E+03  0.11725530210E+03  0.50400001928E-02 0. -1.
       -1   -1    0    0    0  501  0.00000000000E+00  0.00000000000E+00 -0.12211858798E+04  0.12211858798E+04  0.50400001928E-02 0.  1.
    10030    2    1    2    0    0  0.00000000000E+00  0.00000000000E+00 -0.11039305778E+04  0.13384411819E+04  0.75681046294E+03 0.  0.
        3    1    3    3  502    0 -0.25359829837E+03 -0.13710968034E+03 -0.11847959696E+03  0.31168667998E+03  0.10100000352E+00 0. -1.
       -3    1    3    3    0  502  0.25359829837E+03  0.13710968034E+03 -0.98545098085E+03  0.10267545019E+04  0.10100000352E+00 0.  1.
</event>
<event>
 5   0  0.6557679E-03  0.7997610E+03  0.7818609E-02  0.9560363E-01
       -1   -1    0    0    0  501  0.00000000000E+00  0.00000000000E+00  0.99034668399E+02  0.99034668528E+02  0.50400001928E-02 0. -1.
        1   -1    0    0  501    0  0.00000000000E+00  0.00000000000E+00 -0.16146306697E+04  0.16146306697E+04  0.50400001928E-02 0.  1.
    10030    2    1    2    0    0  0.00000000000E+00  0.00000000000E+00 -0.15155960013E+04  0.17136653383E+04  0.79976099700E+03 0.  0.
        1    1    3    3  502    0  0.32087878034E+03 -0.15997434428E+03 -0.37841259501E+03  0.52129749144E+03  0.50400001928E-02 0. -1.
       -1    1    3    3    0  502 -0.32087878034E+03  0.15997434428E+03 -0.11371834063E+04  0.11923678468E+04  0.50400001928E-02 0.  1.
</event>
<event>
 5   0  0.1121480E-02  0.7941879E+03  0.7818609E-02  0.9568468E-01
       -2   -1    0    0    0  501  0.00000000000E+00  0.00000000000E+00  0.19385942772E+03  0.19385942774E+03  0.25500000920E-02 0.  1.
        2   -1    0    0  501    0  0.00000000000E+00  0.00000000000E+00 -0.81339150843E+03  0.81339150843E+03  0.25500000920E-02 0. -1.
    10030    2    1    2    0    0  0.00000000000E+00  0.00000000000E+00 -0.61953208071E+03  0.10072509362E+04  0.79418791819E+03 0.  0.
        2    1    3    3  502    0  0.11483604288E+03  0.33160682720E+03 -0.74080540322E+02  0.35866186171E+03  0.25500000920E-02 0.  1.
       -2    1    3    3    0  502 -0.11483604288E+03 -0.33160682720E+03 -0.54545154039E+03  0.64858907446E+03  0.25500000920E-02 0. -1.
</event>
<event>
 5   0  0.6557679E-03  0.8018056E+03  0.7818609E-02  0.9557407E-01
       -1   -1    0    0    0  501  0.00000000000E+00  0.00000000000E+00  0.40217541183E+03  0.40217541187E+03  0.50400001928E-02 0.  1.
        1   -1    0    0  501    0  0.00000000000E+00  0.00000000000E+00 -0.39963421288E+03  0.39963421291E+03  0.50400001928E-02 0. -1.
    10030    2    1    2    0    0  0.00000000000E+00  0.00000000000E+00  0.25411989527E+01  0.80180962478E+03  0.80180559782E+03 0.  0.
        1    1    3    3  502    0 -0.25996718097E+03 -0.30274034141E+03  0.39850640985E+02  0.40102708526E+03  0.50400001928E-02 0.  1.
       -1    1    3    3    0  502  0.25996718097E+03  0.30274034141E+03 -0.37309442032E+02  0.40078253952E+03  0.50400001928E-02 0. -1.
</event>
<event>
 5   0  0.4385875E-03  0.7922983E+03  0.7818609E-02  0.9571232E-01
       -4   -1    0    0    0  501  0.00000000000E+00  0.00000000000E+00  0.94614220892E+02  0.94622744068E+02  0.12699999809E+01 0.  1.
        4   -1    0    0  501    0  0.00000000000E+00  0.00000000000E+00 -0.16585905806E+04  0.16585910669E+04  0.12699999809E+01 0. -1.
    10030    2    1    2    0    0  0.00000000000E+00  0.00000000000E+00 -0.15639763598E+04  0.17532138109E+04  0.79229831061E+03 0.  0.
        1    1    3    3  502    0  0.39462695707E+03 -0.66737060899E+01 -0.70664889001E+03  0.80939954743E+03  0.50400001928E-02 0. -1.
       -1    1    3    3    0  502 -0.39462695707E+03  0.66737060899E+01 -0.85732746974E+03  0.94381426351E+03  0.50400001928E-02 0.  1.
</event>
<event>
 5   0  0.6551489E-03  0.7991995E+03  0.7818609E-02  0.9561177E-01
        1   -1    0    0  501    0  0.00000000000E+00  0.00000000000E+00  0.18757074720E+04  0.18757074720E+04  0.50400001928E-02 0.  1.
       -1   -1    0    0    0  501  0.00000000000E+00  0.00000000000E+00 -0.85130526287E+02  0.85130526436E+02  0.50400001928E-02 0. -1.
    10030    2    1    2    0    0  0.00000000000E+00  0.00000000000E+00  0.17905769457E+04  0.19608379985E+04  0.79919951053E+03 0.  0.
        4    1    3    3  502    0 -0.20873353565E+03 -0.20673782761E+03  0.15598577188E+04  0.15872831928E+04  0.12699999809E+01 0.  1.
       -4    1    3    3    0  502  0.20873353565E+03  0.20673782761E+03  0.23071922691E+03  0.37355480566E+03  0.12699999809E+01 0. -1.
</event>
<event>
 5   0  0.1092868E-02  0.8014981E+03  0.7818609E-02  0.9557851E-01
        2   -1    0    0  501    0  0.00000000000E+00  0.00000000000E+00  0.52610755237E+03  0.52610755237E+03  0.25500000920E-02 0. -1.
       -2   -1    0    0    0  501  0.00000000000E+00  0.00000000000E+00 -0.30526037198E+03  0.30526037199E+03  0.25500000920E-02 0.  1.
    10030    2    1    2    0    0  0.00000000000E+00  0.00000000000E+00  0.22084718039E+03  0.83136792436E+03  0.80149806523E+03 0.  0.
        3    1    3    3  502    0 -0.34673506300E+03 -0.20092531164E+03  0.10845765446E+03  0.41516172485E+03  0.10100000352E+00 0.  1.
       -3    1    3    3    0  502  0.34673506300E+03  0.20092531164E+03  0.11238952593E+03  0.41620619951E+03  0.10100000352E+00 0. -1.
</event>
<event>
 5   0  0.1092868E-02  0.8137560E+03  0.7818609E-02  0.9540317E-01
        2   -1    0    0  501    0  0.00000000000E+00  0.00000000000E+00  0.11269736236E+04  0.11269736236E+04  0.25500000920E-02 0.  1.
       -2   -1    0    0    0  501  0.00000000000E+00  0.00000000000E+00 -0.14689757256E+03  0.14689757258E+03  0.25500000920E-02 0. -1.
    10030    2    1    2    0    0  0.00000000000E+00  0.00000000000E+00  0.98007605105E+03  0.12738711962E+04  0.81375595768E+03 0.  0.
        3    1    3    3  502    0  0.29044898078E+02 -0.10383356607E+03 -0.12412751240E+03  0.16441613389E+03  0.10100000352E+00 0. -1.
       -3    1    3    3    0  502 -0.29044898078E+02  0.10383356607E+03  0.11042035634E+04  0.11094550623E+04  0.10100000352E+00 0.  1.
</event>
<event>
 5   0  0.6600401E-03  0.8018559E+03  0.7818609E-02  0.9557335E-01
        1   -1    0    0  501    0  0.00000000000E+00  0.00000000000E+00  0.98392906392E+03  0.98392906394E+03  0.50400001928E-02 0.  1.
       -1   -1    0    0    0  501  0.00000000000E+00  0.00000000000E+00 -0.16336869771E+03  0.16336869779E+03  0.50400001928E-02 0. -1.
    10030    2    1    2    0    0  0.00000000000E+00  0.00000000000E+00  0.82056036621E+03  0.11472977617E+04  0.80185587201E+03 0.  0.
        2    1    3    3  502    0 -0.28707715974E+03 -0.91889446810E+02  0.32033017930E+02  0.30312222011E+03  0.25500000920E-02 0. -1.
       -2    1    3    3    0  502  0.28707715974E+03  0.91889446810E+02  0.78852734828E+03  0.84417554162E+03  0.25500000920E-02 0.  1.
</event>
<event>
 5   0  0.4385875E-03  0.7980930E+03  0.7818609E-02  0.9562782E-01
        3   -1    0    0  501    0  0.00000000000E+00  0.00000000000E+00  0.40547690525E+03  0.40547691782E+03  0.10100000352E+00 0. -1.
       -3   -1    0    0    0  501  0.00000000000E+00  0.00000000000E+00 -0.39271800425E+03  0.39271801724E+03  0.10100000352E+00 0.  1.
    10030    2    1    2    0    0  0.00000000000E+00  0.00000000000E+00  0.12758900996E+02  0.79819493506E+03  0.79809295499E+03 0.  0.
        2    1    3    3  502    0  0.35244469485E+03 -0.10543719988E+03 -0.14824892459E+03  0.39662578043E+03  0.25500000920E-02 0.  1.
       -2    1    3    3    0  502 -0.35244469485E+03  0.10543719988E+03  0.16100782559E+03  0.40156915464E+03  0.25500000920E-02 0. -1.
</event>
<event>
 5   0  0.6596225E-03  0.7988799E+03  0.7818609E-02  0.9561640E-01
        1   -1    0    0  501    0  0.00000000000E+00  0.00000000000E+00  0.51800488974E+03  0.51800488976E+03  0.50400001928E-02 0.  1.
       -1   -1    0    0    0  501  0.00000000000E+00  0.00000000000E+00 -0.30801307886E+03  0.30801307891E+03  0.50400001928E-02 0. -1.
    10030    2    1    2    0    0  0.00000000000E+00  0.00000000000E+00  0.20999181087E+03  0.82601796867E+03  0.79887991834E+03 0.  0.
        5    1    3    3  502    0 -0.13251582428E+03  0.15260991362E+03  0.46119818049E+03  0.50356338341E+03  0.46999998093E+01 0.  1.
       -5    1    3    3    0  502  0.13251582428E+03 -0.15260991362E+03 -0.25120636962E+03  0.32245458526E+03  0.46999998093E+01 0. -1.
</event>
<event>
 5   0  0.1154714E-02  0.8279324E+03  0.7818609E-02  0.9520444E-01
       -2   -1    0    0    0  501  0.00000000000E+00  0.00000000000E+00  0.14911444592E+03  0.14911444594E+03  0.25500000920E-02 0.  1.
        2   -1    0    0  501    0  0.00000000000E+00  0.00000000000E+00 -0.11492380492E+04  0.11492380492E+04  0.25500000920E-02 0. -1.
    10030    2    1    2    0    0  0.00000000000E+00  0.00000000000E+00 -0.10001236032E+04  0.12983524951E+04  0.82793235219E+03 0.  0.
        5    1    3    3  502    0 -0.10405024210E+02  0.41293397434E+03 -0.45789031202E+03  0.61669146219E+03  0.46999998093E+01 0.  1.
       -5    1    3    3    0  502  0.10405024210E+02 -0.41293397434E+03 -0.54223329122E+03  0.68166103292E+03  0.46999998093E+01 0. -1.
</event>
<event>
 5   0  0.1106332E-02  0.8163490E+03  0.7818609E-02  0.9536649E-01
       -2   -1    0    0    0  501  0.00000000000E+00  0.00000000000E+00  0.33375364932E+03  0.33375364933E+03  0.25500000920E-02 0. -1.
        2   -1    0    0  501    0  0.00000000000E+00  0.00000000000E+00 -0.49918985013E+03  0.49918985014E+03  0.25500000920E-02 0.  1.
    10030    2    1    2    0    0  0.00000000000E+00  0.00000000000E+00 -0.16543620081E+03  0.83294349947E+03  0.81634902876E+03 0.  0.
        1    1    3    3  502    0  0.11318529124E+03 -0.34470883227E+03  0.10808957051E+03  0.37857422585E+03  0.50400001928E-02 0. -1.
       -1    1    3    3    0  502 -0.11318529124E+03  0.34470883227E+03 -0.27352577132E+03  0.45436927361E+03  0.50400001928E-02 0.  1.
</event>
<event>
 5   0  0.6596225E-03  0.8007286E+03  0.7818609E-02  0.9558963E-01
       -1   -1    0    0    0  501  0.00000000000E+00  0.00000000000E+00  0.11274677351E+03  0.11274677362E+03  0.50400001928E-02 0.  1.
        1   -1    0    0  501    0  0.00000000000E+00  0.00000000000E+00 -0.14216952671E+04  0.14216952671E+04  0.50400001928E-02 0. -1.
    10030    2    1    2    0    0  0.00000000000E+00  0.00000000000E+00 -0.13089484936E+04  0.15344420407E+04  0.80072855417E+03 0.  0.
        5    1    3    3  502    0 -0.18599483958E+03  0.35396229868E+03 -0.69212737694E+03  0.79934084416E+03  0.46999998093E+01 0. -1.
       -5    1    3    3    0  502  0.18599483958E+03 -0.35396229868E+03 -0.61682111662E+03  0.73510119653E+03  0.46999998093E+01 0.  1.
</event>
<event>
 5   0  0.6600401E-03  0.8014053E+03  0.7818609E-02  0.9557985E-01
        1   -1    0    0  501    0  0.00000000000E+00  0.00000000000E+00  0.70391303232E+03  0.70391303234E+03  0.50400001928E-02 0. -1.
       -1   -1    0    0    0  501  0.00000000000E+00  0.00000000000E+00 -0.22810004603E+03  0.22810004609E+03  0.50400001928E-02 0.  1.
    10030    2    1    2    0    0  0.00000000000E+00  0.00000000000E+00  0.47581298629E+03  0.93201307843E+03  0.80140525356E+03 0.  0.
        2    1    3    3  502    0 -0.29642661788E+03  0.24550661057E+03  0.36751601381E+03  0.53217502387E+03  0.25500000920E-02 0.  1.
       -2    1    3    3    0  502  0.29642661788E+03 -0.24550661057E+03  0.10829697248E+03  0.39983805456E+03  0.25500000920E-02 0. -1.
</event>
<event>
 5   0  0.1119792E-02  0.7995542E+03  0.7818609E-02  0.9560663E-01
        2   -1    0    0  501    0  0.00000000000E+00  0.00000000000E+00  0.71675234101E+03  0.71675234101E+03  0.25500000920E-02 0.  1.
       -2   -1    0    0    0  501  0.00000000000E+00  0.00000000000E+00 -0.22298038576E+03  0.22298038577E+03  0.25500000920E-02 0. -1.
    10030    2    1    2    0    0  0.00000000000E+00  0.00000000000E+00  0.49377195525E+03  0.93973272679E+03  0.79955415952E+03 0.  0.
        4    1    3    3  502    0 -0.27624034683E+03 -0.26370990854E+03  0.38579506545E+03  0.54285457583E+03  0.12699999809E+01 0.  1.
       -4    1    3    3    0  502  0.27624034683E+03  0.26370990854E+03  0.10797688980E+03  0.39687815096E+03  0.12699999809E+01 0. -1.
</event>
<event>
 5   0  0.1092868E-02  0.7962177E+03  0.7818609E-02  0.9565508E-01
       -2   -1    0    0    0  501  0.00000000000E+00  0.00000000000E+00  0.22863208569E+03  0.22863208571E+03  0.25500000920E-02 0.  1.
        2   -1    0    0  501    0  0.00000000000E+00  0.00000000000E+00 -0.69321258334E+03  0.69321258334E+03  0.25500000920E-02 0. -1.
    10030    2    1    2    0    0  0.00000000000E+00  0.00000000000E+00 -0.46458049764E+03  0.92184466905E+03  0.79621765558E+03 0.  0.
        3    1    3    3  502    0 -0.34655082263E+03 -0.19594171435E+03 -0.23226502544E+03  0.46090962274E+03  0.10100000352E+00 0. -1.
       -3    1    3    3    0  502  0.34655082263E+03  0.19594171435E+03 -0.23231547220E+03  0.46093504631E+03  0.10100000352E+00 0.  1.
</event>
<event>
 5   0  0.1154714E-02  0.8052270E+03  0.7818609E-02  0.9552482E-01
        2   -1    0    0  501    0  0.00000000000E+00  0.00000000000E+00  0.13194761526E+04  0.13194761526E+04  0.25500000920E-02 0.  1.
       -2   -1    0    0    0  501  0.00000000000E+00  0.00000000000E+00 -0.12284997545E+03  0.12284997548E+03  0.25500000920E-02 0. -1.
    10030    2    1    2    0    0  0.00000000000E+00  0.00000000000E+00  0.11966261772E+04  0.14423261281E+04  0.80522695678E+03 0.  0.
        5    1    3    3  502    0 -0.12001865595E+01 -0.23487536375E+03  0.11839784637E+04  0.12070604663E+04  0.46999998093E+01 0.  1.
       -5    1    3    3    0  502  0.12001865595E+01  0.23487536375E+03  0.12647713477E+02  0.23526566175E+03  0.46999998093E+01 0. -1.
</event>
<event>
 5   0  0.1154714E-02  0.7993469E+03  0.7818609E-02  0.9560963E-01
        2   -1    0    0  501    0  0.00000000000E+00  0.00000000000E+00  0.85347958503E+03  0.85347958504E+03  0.25500000920E-02 0.  1.
       -2   -1    0    0    0  501  0.00000000000E+00  0.00000000000E+00 -0.18716191836E+03  0.18716191838E+03  0.25500000920E-02 0. -1.
    10030    2    1    2    0    0  0.00000000000E+00  0.00000000000E+00  0.66631766667E+03  0.10406415034E+04  0.79934692451E+03 0.  0.
        5    1    3    3  502    0  0.10222012735E+03  0.41338499778E+02 -0.16693169344E+03  0.20011523248E+03  0.46999998093E+01 0. -1.
       -5    1    3    3    0  502 -0.10222012735E+03 -0.41338499778E+02  0.83324936011E+03  0.84052627093E+03  0.46999998093E+01 0.  1.
</event>
<event>
 5   0  0.1154714E-02  0.8009985E+03  0.7818609E-02  0.9558573E-01
       -2   -1    0    0    0  501  0.00000000000E+00  0.00000000000E+00  0.42078934892E+03  0.42078934893E+03  0.25500000920E-02 0. -1.
        2   -1    0    0  501    0  0.00000000000E+00  0.00000000000E+00 -0.38118754866E+03  0.38118754867E+03  0.25500000920E-02 0.  1.
    10030    2    1    2    0    0  0.00000000000E+00  0.00000000000E+00  0.39601800262E+02  0.80197689760E+03  0.80099852790E+03 0.  0.
        5    1    3    3  502    0  0.17905444914E+03 -0.16340076166E+02  0.37807883410E+03  0.41868029407E+03  0.46999998093E+01 0. -1.
       -5    1    3    3    0  502 -0.17905444914E+03  0.16340076166E+02 -0.33847703384E+03  0.38329660353E+03  0.46999998093E+01 0.  1.
</event>
<event>
 5   0  0.6596225E-03  0.8137707E+03  0.7818609E-02  0.9540296E-01
       -1   -1    0    0    0  501  0.00000000000E+00  0.00000000000E+00  0.44013683726E+03  0.44013683729E+03  0.50400001928E-02 0. -1.
        1   -1    0    0  501    0  0.00000000000E+00  0.00000000000E+00 -0.37614596776E+03  0.37614596779E+03  0.50400001928E-02 0.  1.
    10030    2    1    2    0    0  0.00000000000E+00  0.00000000000E+00  0.63990869505E+02  0.81628280509E+03  0.81377072109E+03 0.  0.
        5    1    3    3  502    0 -0.25177468755E+03  0.20325041273E+03 -0.21540815853E+03  0.38874668915E+03  0.46999998093E+01 0.  1.
       -5    1    3    3    0  502  0.25177468755E+03 -0.20325041273E+03  0.27939902803E+03  0.42753611594E+03  0.46999998093E+01 0. -1.
</event>
<event>
 5   0  0.1106332E-02  0.7983134E+03  0.7818609E-02  0.9562462E-01
       -2   -1    0    0    0  501  0.00000000000E+00  0.00000000000E+00  0.72627534680E+03  0.72627534680E+03  0.25500000920E-02 0. -1.
        2   -1    0    0  501    0  0.00000000000E+00  0.00000000000E+00 -0.21937417217E+03  0.21937417218E+03  0.25500000920E-02 0.  1.
    10030    2    1    2    0    0  0.00000000000E+00  0.00000000000E+00  0.50690117463E+03  0.94564951899E+03  0.79831335447E+03 0.  0.
        1    1    3    3  502    0  0.88699345067E+02 -0.18467421632E+03  0.65924456655E+03  0.69034450714E+03  0.50400001928E-02 0. -1.
       -1    1    3    3    0  502 -0.88699345067E+02  0.18467421632E+03 -0.15234339192E+03  0.25530501185E+03  0.50400001928E-02 0.  1.
</event>
<event>
 5   0  0.6600401E-03  0.8015380E+03  0.7818609E-02  0.9557794E-01
        1   -1    0    0  501    0  0.00000000000E+00  0.00000000000E+00  0.17853047680E+04  0.17853047680E+04  0.50400001928E-02 0.  1.
       -1   -1    0    0    0  501  0.00000000000E+00  0.00000000000E+00 -0.89965475918E+02  0.89965476060E+02  0.50400001928E-02 0. -1.
    10030    2    1    2    0    0  0.00000000000E+00  0.00000000000E+00  0.16953392921E+04  0.18752702441E+04  0.80153800472E+03 0.  0.
        2    1    3    3  502    0 -0.37104868050E+03 -0.10564372208E+03  0.11015779365E+04  0.11671810782E+04  0.25500000920E-02 0. -1.
       -2    1    3    3    0  502  0.37104868050E+03  0.10564372208E+03  0.59376135563E+03  0.70808916582E+03  0.25500000920E-02 0.  1.
</event>
<event>
 5   0  0.6600401E-03  0.7918501E+03  0.7818609E-02  0.9571889E-01
       -1   -1    0    0    0  501  0.00000000000E+00  0.00000000000E+00  0.19772546297E+03  0.19772546304E+03  0.50400001928E-02 0.  1.
        1   -1    0    0  501    0  0.00000000000E+00  0.00000000000E+00 -0.79279942922E+03  0.79279942923E+03  0.50400001928E-02 0. -1.
    10030    2    1    2    0    0  0.00000000000E+00  0.00000000000E+00 -0.59507396624E+03  0.99052489227E+03  0.79185007224E+03 0.  0.
        2    1    3    3  502    0 -0.16650872174E+03 -0.27613546919E+03 -0.58491922871E+03  0.66791201208E+03  0.25500000920E-02 0. -1.
       -2    1    3    3    0  502  0.16650872174E+03  0.27613546919E+03 -0.10154737533E+02  0.32261288019E+03  0.25500000920E-02 0.  1.
</event>
<event>
 5   0  0.6517392E-03  0.7967035E+03  0.7818609E-02  0.9564801E-01
        1   -1    0    0  501    0  0.00000000000E+00  0.00000000000E+00  0.69639461351E+03  0.69639461353E+03  0.50400001928E-02 0.  1.
       -1   -1    0    0    0  501  0.00000000000E+00  0.00000000000E+00 -0.22786523458E+03  0.22786523464E+03  0.50400001928E-02 0. -1.
    10030    2    1    2    0    0  0.00000000000E+00  0.00000000000E+00  0.46852937893E+03  0.92425984817E+03  0.79670351324E+03 0.  0.
        3    1    3    3  502    0  0.30626415996E+03 -0.20317850385E+03  0.56027561069E+02  0.37177726922E+03  0.10100000352E+00 0. -1.
       -3    1    3    3    0  502 -0.30626415996E+03  0.20317850385E+03  0.41250181786E+03  0.55248257895E+03  0.10100000352E+00 0.  1.
</event>
<event>
 5   0  0.1106332E-02  0.8042962E+03  0.7818609E-02  0.9553819E-01
       -2   -1    0    0    0  501  0.00000000000E+00  0.00000000000E+00  0.57753963183E+03  0.57753963184E+03  0.25500000920E-02 0.  1.
        2   -1    0    0  501    0  0.00000000000E+00  0.00000000000E+00 -0.28002077345E+03  0.28002077346E+03  0.25500000920E-02 0. -1.
    10030    2    1    2    0    0  0.00000000000E+00  0.00000000000E+00  0.29751885839E+03  0.85756040530E+03  0.80429620019E+03 0.  0.
        1    1    3    3  502    0  0.34067102260E+03 -0.10741785361E+03 -0.48211690807E+02  0.36044376548E+03  0.50400001928E-02 0. -1.
       -1    1    3    3    0  502 -0.34067102260E+03  0.10741785361E+03  0.34573054919E+03  0.49711663982E+03  0.50400001928E-02 0.  1.
</event>
<event>
 5   0  0.6551489E-03  0.8020227E+03  0.7818609E-02  0.9557094E-01
        1   -1    0    0  501    0  0.00000000000E+00  0.00000000000E+00  0.27521423910E+03  0.27521423915E+03  0.50400001928E-02 0.  1.
       -1   -1    0    0    0  501  0.00000000000E+00  0.00000000000E+00 -0.58430882347E+03  0.58430882349E+03  0.50400001928E-02 0. -1.
    10030    2    1    2    0    0  0.00000000000E+00  0.00000000000E+00 -0.30909458437E+03  0.85952306264E+03  0.80202271359E+03 0.  0.
        4    1    3    3  502    0  0.17865011789E+03 -0.35525684722E+03 -0.21008135523E+03  0.44973223237E+03  0.12699999809E+01 0. -1.
       -4    1    3    3    0  502 -0.17865011789E+03  0.35525684722E+03 -0.99013229138E+02  0.40979083026E+03  0.12699999809E+01 0.  1.
</event>
<event>
 5   0  0.6551489E-03  0.8023951E+03  0.7818609E-02  0.9556557E-01
        1   -1    0    0  501    0  0.00000000000E+00  0.00000000000E+00  0.61964532269E+03  0.61964532271E+03  0.50400001928E-02 0. -1.
       -1   -1    0    0    0  501  0.00000000000E+00  0.00000000000E+00 -0.25976066265E+03  0.25976066270E+03  0.50400001928E-02 0.  1.
    10030    2    1    2    0    0  0.00000000000E+00  0.00000000000E+00  0.35988466004E+03  0.87940598541E+03  0.80239511380E+03 0.  0.
        4    1    3    3  502    0  0.43028864126E+02 -0.30557113133E+03  0.46093291572E+03  0.55469447910E+03  0.12699999809E+01 0.  1.
       -4    1    3    3    0  502 -0.43028864126E+02  0.30557113133E+03 -0.10104825568E+03  0.32471150631E+03  0.12699999809E+01 0. -1.
</event>
<event>
 5   0  0.6596225E-03  0.7585226E+03  0.7818609E-02  0.9622074E-01
       -1   -1    0    0    0  501  0.00000000000E+00  0.00000000000E+00  0.21626862907E+03  0.21626862913E+03  0.50400001928E-02 0. -1.
        1   -1    0    0  501    0  0.00000000000E+00  0.00000000000E+00 -0.66509469321E+03  0.66509469322E+03  0.50400001928E-02 0.  1.
    10030    2    1    2    0    0  0.00000000000E+00  0.00000000000E+00 -0.44882606413E+03  0.88136332235E+03  0.75852255744E+03 0.  0.
        5    1    3    3  502    0  0.19202554471E+02  0.33154679884E+03 -0.43716369815E+03  0.54902295662E+03  0.46999998093E+01 0.  1.
       -5    1    3    3    0  502 -0.19202554471E+02 -0.33154679884E+03 -0.11662365986E+02  0.33234036574E+03  0.46999998093E+01 0. -1.
</event>
<event>
 5   0  0.1121480E-02  0.7964252E+03  0.7818609E-02  0.9565206E-01
       -2   -1    0    0    0  501  0.00000000000E+00  0.00000000000E+00  0.18796738003E+03  0.18796738005E+03  0.25500000920E-02 0. -1.
        2   -1    0    0  501    0  0.00000000000E+00  0.00000000000E+00 -0.84362127830E+03  0.84362127830E+03  0.25500000920E-02 0.  1.
    10030    2    1    2    0    0  0.00000000000E+00  0.00000000000E+00 -0.65565389826E+03  0.10315886584E+04  0.79642521666E+03 0.  0.
        2    1    3    3  502    0 -0.28200244929E+03 -0.24733704867E+03 -0.50098854890E+03  0.62585183805E+03  0.25500000920E-02 0.  1.
       -2    1    3    3    0  502  0.28200244929E+03  0.24733704867E+03 -0.15466534936E+03  0.40573682031E+03  0.25500000920E-02 0. -1.
</event>
<event>
 5   0  0.1119792E-02  0.7981808E+03  0.7818609E-02  0.9562654E-01
        2   -1    0    0  501    0  0.00000000000E+00  0.00000000000E+00  0.43193045379E+03  0.43193045380E+03  0.25500000920E-02 0. -1.
       -2   -1    0    0    0  501  0.00000000000E+00  0.00000000000E+00 -0.36874718982E+03  0.36874718983E+03  0.25500000920E-02 0.  1.
    10030    2    1    2    0    0  0.00000000000E+00  0.00000000000E+00  0.63183263975E+02  0.80067764362E+03  0.79818078413E+03 0.  0.
        4    1    3    3  502    0  0.40699967457E+02 -0.28831019722E+03  0.30537813926E+03  0.42194392756E+03  0.12699999809E+01 0. -1.
       -4    1    3    3    0  502 -0.40699967457E+02  0.28831019722E+03 -0.24219487528E+03  0.37873371606E+03  0.12699999809E+01 0.  1.
</event>
<event>
 5   0  0.1154714E-02  0.8003765E+03  0.7818609E-02  0.9559472E-01
       -2   -1    0    0    0  501  0.00000000000E+00  0.00000000000E+00  0.43459687496E+03  0.43459687496E+03  0.25500000920E-02 0. -1.
        2   -1    0    0  501    0  0.00000000000E+00  0.00000000000E+00 -0.36850391058E+03  0.36850391058E+03  0.25500000920E-02 0.  1.
    10030    2    1    2    0    0  0.00000000000E+00  0.00000000000E+00  0.66092964381E+02  0.80310078555E+03  0.80037653127E+03 0.  0.
        5    1    3    3  502    0  0.17476315985E+02  0.37005310454E+03 -0.11874245490E+03  0.38905858478E+03  0.46999998093E+01 0. -1.
       -5    1    3    3    0  502 -0.17476315985E+02 -0.37005310454E+03  0.18483541928E+03  0.41404220077E+03  0.46999998093E+01 0.  1.
</event>
<event>
 5   0  0.1092868E-02  0.7080831E+03  0.7818609E-02  0.9703508E-01
        2   -1    0    0  501    0  0.00000000000E+00  0.00000000000E+00  0.58368414620E+03  0.58368414621E+03  0.25500000920E-02 0.  1.
       -2   -1    0    0    0  501  0.00000000000E+00  0.00000000000E+00 -0.21474868795E+03  0.21474868796E+03  0.25500000920E-02 0. -1.
    10030    2    1    2    0    0  0.00000000000E+00  0.00000000000E+00  0.36893545825E+03  0.79843283417E+03  0.70808305892E+03 0.  0.
        3    1    3    3  502    0 -0.26752242316E+03 -0.15899538349E+03 -0.58847098273E+01  0.31125940769E+03  0.10100000352E+00 0. -1.
       -3    1    3    3    0  502  0.26752242316E+03  0.15899538349E+03  0.37482016808E+03  0.48717342648E+03  0.10100000352E+00 0.  1.
</event>
<event>
 5   0  0.1154714E-02  0.8014424E+03  0.7818609E-02  0.9557932E-01
        2   -1    0    0  501    0  0.00000000000E+00  0.00000000000E+00  0.72362139590E+03  0.72362139591E+03  0.25500000920E-02 0. -1.
       -2   -1    0    0    0  501  0.00000000000E+00  0.00000000000E+00 -0.22190814854E+03  0.22190814855E+03  0.25500000920E-02 0.  1.
    10030    2    1    2    0    0  0.00000000000E+00  0.00000000000E+00  0.50171324737E+03  0.94552954446E+03  0.80144241019E+03 0.  0.
        5    1    3    3  502    0  0.30723287247E+03  0.63237419864E+02 -0.43296594371E+02  0.31668232391E+03  0.46999998093E+01 0.  1.
       -5    1    3    3    0  502 -0.30723287247E+03 -0.63237419864E+02  0.54500984174E+03  0.62884722054E+03  0.46999998093E+01 0. -1.
</event>
<event>
 5   0  0.1121480E-02  0.7983847E+03  0.7818609E-02  0.9562358E-01
       -2   -1    0    0    0  501  0.00000000000E+00  0.00000000000E+00  0.33938015744E+03  0.33938015745E+03  0.25500000920E-02 0. -1.
        2   -1    0    0  501    0  0.00000000000E+00  0.00000000000E+00 -0.46954581661E+03  0.46954581662E+03  0.25500000920E-02 0.  1.
    10030    2    1    2    0    0  0.00000000000E+00  0.00000000000E+00 -0.13016565918E+03  0.80892597406E+03  0.79838470219E+03 0.  0.
        2    1    3    3  502    0 -0.14167142357E+03  0.25399770255E+03 -0.34213215218E+03  0.44904346640E+03  0.25500000920E-02 0.  1.
       -2    1    3    3    0  502  0.14167142357E+03 -0.25399770255E+03  0.21196649301E+03  0.35988250766E+03  0.25500000920E-02 0. -1.
</event>
<event>
 5   0  0.6557679E-03  0.8015193E+03  0.7818609E-02  0.9557821E-01
       -1   -1    0    0    0  501  0.00000000000E+00  0.00000000000E+00  0.25381715112E+03  0.25381715117E+03  0.50400001928E-02 0. -1.
        1   -1    0    0  501    0  0.00000000000E+00  0.00000000000E+00 -0.63277160132E+03  0.63277160134E+03  0.50400001928E-02 0.  1.
    10030    2    1    2    0    0  0.00000000000E+00  0.00000000000E+00 -0.37895445020E+03  0.88658875251E+03  0.80151927036E+03 0.  0.
        1    1    3    3  502    0 -0.35418290574E+02 -0.14422344039E+03  0.22225692382E+03  0.26730693271E+03  0.50400001928E-02 0. -1.
       -1    1    3    3    0  502  0.35418290574E+02  0.14422344039E+03 -0.60121137401E+03  0.61928181980E+03  0.50400001928E-02 0.  1.
</event>
<event>
 5   0  0.6551489E-03  0.8012583E+03  0.7818609E-02  0.9558198E-01
       -1   -1    0    0    0  501  0.00000000000E+00  0.00000000000E+00  0.58634019037E+03  0.58634019039E+03  0.50400001928E-02 0.  1.
        1   -1    0    0  501    0  0.00000000000E+00  0.00000000000E+00 -0.27373821578E+03  0.27373821582E+03  0.50400001928E-02 0. -1.
    10030    2    1    2    0    0  0.00000000000E+00  0.00000000000E+00  0.31260197459E+03  0.86007840621E+03  0.80125830437E+03 0.  0.
        4    1    3    3  502    0 -0.14672113221E+03 -0.37049008072E+03  0.20071621126E+03  0.44618225078E+03  0.12699999809E+01 0.  1.
       -4    1    3    3    0  502  0.14672113221E+03  0.37049008072E+03  0.11188576333E+03  0.41389615544E+03  0.12699999809E+01 0. -1.
</event>
<event>
 5   0  0.1119792E-02  0.8002358E+03  0.7818609E-02  0.9559676E-01
        2   -1    0    0  501    0  0.00000000000E+00  0.00000000000E+00  0.12662533753E+03  0.12662533756E+03  0.25500000920E-02 0.  1.
       -2   -1    0    0    0  501  0.00000000000E+00  0.00000000000E+00 -0.12643151510E+04  0.12643151510E+04  0.25500000920E-02 0. -1.
    10030    2    1    2    0    0  0.00000000000E+00  0.00000000000E+00 -0.11376898135E+04  0.13909404886E+04  0.80023579716E+03 0.  0.
        4    1    3    3  502    0 -0.11704449401E+03  0.97154830373E+01 -0.12336757018E+04  0.12392542735E+04  0.12699999809E+01 0. -1.
       -4    1    3    3    0  502  0.11704449401E+03 -0.97154830373E+01  0.95985888336E+02  0.15168621509E+03  0.12699999809E+01 0.  1.
</event>
<event>
 5   0  0.1119792E-02  0.8030164E+03  0.7818609E-02  0.9555661E-01
       -2   -1    0    0    0  501  0.00000000000E+00  0.00000000000E+00  0.45441330521E+03  0.45441330522E+03  0.25500000920E-02 0. -1.
        2   -1    0    0  501    0  0.00000000000E+00  0.00000000000E+00 -0.35476257101E+03  0.35476257102E+03  0.25500000920E-02 0.  1.
    10030    2    1    2    0    0  0.00000000000E+00  0.00000000000E+00  0.99650734199E+02  0.80917587624E+03  0.80301639452E+03 0.  0.
        4    1    3    3  502    0 -0.79881402658E+02  0.34714207790E+03  0.23649902417E+03  0.42757696625E+03  0.12699999809E+01 0. -1.
       -4    1    3    3    0  502  0.79881402658E+02 -0.34714207790E+03 -0.13684828997E+03  0.38159890999E+03  0.12699999809E+01 0.  1.
</event>
<event>
 5   0  0.6600401E-03  0.7879161E+03  0.7818609E-02  0.9577675E-01
        1   -1    0    0  501    0  0.00000000000E+00  0.00000000000E+00  0.15746095468E+04  0.15746095468E+04  0.50400001928E-02 0.  1.
       -1   -1    0    0    0  501  0.00000000000E+00  0.00000000000E+00 -0.98565978377E+02  0.98565978506E+02  0.50400001928E-02 0. -1.
    10030    2    1    2    0    0  0.00000000000E+00  0.00000000000E+00  0.14760435684E+04  0.16731755253E+04  0.78791606319E+03 0.  0.
        2    1    3    3  502    0 -0.27600706479E+03 -0.28074909395E+03  0.76827594101E+03  0.86327740334E+03  0.25500000920E-02 0.  1.
       -2    1    3    3    0  502  0.27600706479E+03  0.28074909395E+03  0.70776762741E+03  0.80989812198E+03  0.25500000920E-02 0. -1.
</event>
<event>
 5   0  0.4385875E-03  0.8023854E+03  0.7818609E-02  0.9556571E-01
       -4   -1    0    0    0  501  0.00000000000E+00  0.00000000000E+00  0.37192039613E+03  0.37192256447E+03  0.12699999809E+01 0. -1.
        4   -1    0    0  501    0  0.00000000000E+00  0.00000000000E+00 -0.43276454306E+03  0.43276640654E+03  0.12699999809E+01 0.  1.
    10030    2    1    2    0    0  0.00000000000E+00  0.00000000000E+00 -0.60844146931E+02  0.80468897101E+03  0.80238539982E+03 0.  0.
        5    1    3    3  502    0  0.13816046094E+02  0.12637619250E+02  0.37145634039E+03  0.37195765265E+03  0.46999998093E+01 0. -1.
       -5    1    3    3    0  502 -0.13816046094E+02 -0.12637619250E+02 -0.43230048732E+03  0.43273131836E+03  0.46999998093E+01 0.  1.
</event>
<event>
 5   0  0.1121480E-02  0.7926320E+03  0.7818609E-02  0.9570744E-01
       -2   -1    0    0    0  501  0.00000000000E+00  0.00000000000E+00  0.52400357200E+03  0.52400357201E+03  0.25500000920E-02 0. -1.
        2   -1    0    0  501    0  0.00000000000E+00  0.00000000000E+00 -0.29974295787E+03  0.29974295788E+03  0.25500000920E-02 0.  1.
    10030    2    1    2    0    0  0.00000000000E+00  0.00000000000E+00  0.22426061413E+03  0.82374652989E+03  0.79263202209E+03 0.  0.
        2    1    3    3  502    0 -0.68235208565E+02 -0.38969577615E+02  0.51582651783E+03  0.52177741247E+03  0.25500000920E-02 0. -1.
       -2    1    3    3    0  502  0.68235208565E+02  0.38969577615E+02 -0.29156590369E+03  0.30196911741E+03  0.25500000920E-02 0.  1.
</event>
<event>
 5   0  0.1092868E-02  0.7943033E+03  0.7818609E-02  0.9568300E-01
        2   -1    0    0  501    0  0.00000000000E+00  0.00000000000E+00  0.13333293799E+04  0.13333293799E+04  0.25500000920E-02 0.  1.
       -2   -1    0    0    0  501  0.00000000000E+00  0.00000000000E+00 -0.11829741910E+03  0.11829741913E+03  0.25500000920E-02 0. -1.
    10030    2    1    2    0    0  0.00000000000E+00  0.00000000000E+00  0.12150319608E+04  0.14516267990E+04  0.79430327829E+03 0.  0.
        3    1    3    3  502    0 -0.23853192787E+03  0.10391262572E+03  0.11558840210E+04  0.11848051294E+04  0.10100000352E+00 0.  1.
       -3    1    3    3    0  502  0.23853192787E+03 -0.10391262572E+03  0.59147939749E+02  0.26682166961E+03  0.10100000352E+00 0. -1.
</event>
<event>
 5   0  0.4385875E-03  0.7938852E+03  0.7818609E-02  0.9568910E-01
       -3   -1    0    0    0  501  0.00000000000E+00  0.00000000000E+00  0.93811782983E+03  0.93811783527E+03  0.10100000352E+00 0.  1.
        3   -1    0    0  501    0  0.00000000000E+00  0.00000000000E+00 -0.16795693724E+03  0.16795696761E+03  0.10100000352E+00 0. -1.
    10030    2    1    2    0    0  0.00000000000E+00  0.00000000000E+00  0.77016089259E+03  0.11060748029E+04  0.79388517375E+03 0.  0.
        1    1    3    3  502    0  0.29350534594E+02  0.13699642246E+03  0.90252328899E+03  0.91333332406E+03  0.50400001928E-02 0.  1.
       -1    1    3    3    0  502 -0.29350534594E+02 -0.13699642246E+03 -0.13236239641E+03  0.19274147882E+03  0.50400001928E-02 0. -1.
</event>
<event>
 5   0  0.1121480E-02  0.8008044E+03  0.7818609E-02  0.9558854E-01
        2   -1    0    0  501    0  0.00000000000E+00  0.00000000000E+00  0.57885864619E+03  0.57885864619E+03  0.25500000920E-02 0. -1.
       -2   -1    0    0    0  501  0.00000000000E+00  0.00000000000E+00 -0.27696212372E+03  0.27696212373E+03  0.25500000920E-02 0.  1.
    10030    2    1    2    0    0  0.00000000000E+00  0.00000000000E+00  0.30189652247E+03  0.85582076992E+03  0.80080439556E+03 0.  0.
        2    1    3    3  502    0 -0.28624762073E+03 -0.20291997239E+03  0.35709326433E+03  0.50062941884E+03  0.25500000920E-02 0. -1.
       -2    1    3    3    0  502  0.28624762073E+03  0.20291997239E+03 -0.55196741858E+02  0.35519135109E+03  0.25500000920E-02 0.  1.
</event>
<event>
 5   0  0.1106332E-02  0.7980162E+03  0.7818609E-02  0.9562893E-01
       -2   -1    0    0    0  501  0.00000000000E+00  0.00000000000E+00  0.85890952651E+03  0.85890952651E+03  0.25500000920E-02 0. -1.
        2   -1    0    0  501    0  0.00000000000E+00  0.00000000000E+00 -0.18536001009E+03  0.18536001011E+03  0.25500000920E-02 0.  1.
    10030    2    1    2    0    0  0.00000000000E+00  0.00000000000E+00  0.67354951642E+03  0.10442695366E+04  0.79801623670E+03 0.  0.
        1    1    3    3  502    0  0.26130656838E+02  0.57869750298E+02 -0.17870642979E+03  0.18965154178E+03  0.50400001928E-02 0.  1.
       -1    1    3    3    0  502 -0.26130656838E+02 -0.57869750298E+02  0.85225594621E+03  0.85461799484E+03  0.50400001928E-02 0. -1.
</event>
<event>
 5   0  0.6517392E-03  0.8096605E+03  0.7818609E-02  0.9546138E-01
       -1   -1    0    0    0  501  0.00000000000E+00  0.00000000000E+00  0.35413435368E+03  0.35413435371E+03  0.50400001928E-02 0.  1.
        1   -1    0    0  501    0  0.00000000000E+00  0.00000000000E+00 -0.46278344824E+03  0.46278344826E+03  0.50400001928E-02 0. -1.
    10030    2    1    2    0    0  0.00000000000E+00  0.00000000000E+00 -0.10864909456E+03  0.81691780198E+03  0.80966046553E+03 0.  0.
        3    1    3    3  502    0  0.32760902006E+03  0.16859119399E+03  0.11491939635E+03  0.38594965809E+03  0.10100000352E+00 0. -1.
       -3    1    3    3    0  502 -0.32760902006E+03 -0.16859119399E+03 -0.22356849091E+03  0.43096814389E+03  0.10100000352E+00 0.  1.
</event>
<event>
 5   0  0.1154714E-02  0.8017146E+03  0.7818609E-02  0.9557539E-01
        2   -1    0    0  501    0  0.00000000000E+00  0.00000000000E+00  0.10027276508E+04  0.10027276508E+04  0.25500000920E-02 0. -1.
       -2   -1    0    0    0  501  0.00000000000E+00  0.00000000000E+00 -0.16024946673E+03  0.16024946675E+03  0.25500000920E-02 0.  1.
    10030    2    1    2    0    0  0.00000000000E+00  0.00000000000E+00  0.84247818405E+03  0.11629771175E+04  0.80171459092E+03 0.  0.
        5    1    3    3  502    0 -0.10379188101E+03 -0.38431274751E+03  0.35326990807E+03  0.53225065562E+03  0.46999998093E+01 0.  1.
       -5    1    3    3    0  502  0.10379188101E+03  0.38431274751E+03  0.48920827598E+03  0.63072646191E+03  0.46999998093E+01 0. -1.
</event>
<event>
 5   0  0.1119792E-02  0.8056851E+03  0.7818609E-02  0.9551824E-01
       -2   -1    0    0    0  501  0.00000000000E+00  0.00000000000E+00  0.15612368032E+03  0.15612368034E+03  0.25500000920E-02 0.  1.
        2   -1    0    0  501    0  0.00000000000E+00  0.00000000000E+00 -0.10394458159E+04  0.10394458159E+04  0.25500000920E-02 0. -1.
    10030    2    1    2    0    0  0.00000000000E+00  0.00000000000E+00 -0.88332213558E+03  0.11955694962E+04  0.80568506573E+03 0.  0.
        4    1    3    3  502    0  0.31660409608E+03 -0.19988763026E+03 -0.66219762043E+03  0.76072368163E+03  0.12699999809E+01 0.  1.
       -4    1    3    3    0  502 -0.31660409608E+03  0.19988763026E+03 -0.22112451514E+03  0.43484581461E+03  0.12699999809E+01 0. -1.
</event>
<event>
 5   0  0.1121480E-02  0.7893589E+03  0.7818609E-02  0.9575549E-01
       -2   -1    0    0    0  501  0.00000000000E+00  0.00000000000E+00  0.21731457674E+03  0.21731457676E+03  0.25500000920E-02 0.  1.
        2   -1    0    0  501    0  0.00000000000E+00  0.00000000000E+00 -0.71680359235E+03  0.71680359235E+03  0.25500000920E-02 0. -1.
    10030    2    1    2    0    0  0.00000000000E+00  0.00000000000E+00 -0.49948901560E+03  0.93411816911E+03  0.78935890262E+03 0.  0.
        2    1    3    3  502    0  0.12812044816E+03  0.12554805629E+03  0.16628797604E+03  0.24459937583E+03  0.25500000920E-02 0.  1.
       -2    1    3    3    0  502 -0.12812044816E+03 -0.12554805629E+03 -0.66577699164E+03  0.68951879328E+03  0.25500000920E-02 0. -1.
</event>
<event>
 5   0  0.6517392E-03  0.7994823E+03  0.7818609E-02  0.9560767E-01
       -1   -1    0    0    0  501  0.00000000000E+00  0.00000000000E+00  0.17865210631E+03  0.17865210638E+03  0.50400001928E-02 0. -1.
        1   -1    0    0  501    0  0.00000000000E+00  0.00000000000E+00 -0.89443669408E+03  0.89443669410E+03  0.50400001928E-02 0.  1.
    10030    2    1    2    0    0  0.00000000000E+00  0.00000000000E+00 -0.71578458778E+03  0.10730888005E+04  0.79948233102E+03 0.  0.
        3    1    3    3  502    0  0.23998409788E+03 -0.12287124831E+03 -0.75402804825E+03  0.80077963176E+03  0.10100000352E+00 0.  1.
       -3    1    3    3    0  502 -0.23998409788E+03  0.12287124831E+03  0.38243460475E+02  0.27230916872E+03  0.10100000352E+00 0. -1.
</event>
<event>
 5   0  0.6596225E-03  0.7930351E+03  0.7818609E-02  0.9570154E-01
       -1   -1    0    0    0  501  0.00000000000E+00  0.00000000000E+00  0.21583348028E+03  0.21583348034E+03  0.50400001928E-02 0. -1.
        1   -1    0    0  501    0  0.00000000000E+00  0.00000000000E+00 -0.72846053278E+03  0.72846053280E+03  0.50400001928E-02 0.  1.
    10030    2    1    2    0    0  0.00000000000E+00  0.00000000000E+00 -0.51262705250E+03  0.94429401314E+03  0.79303511164E+03 0.  0.
        5    1    3    3  502    0  0.97038771055E+02 -0.25347424545E+02 -0.71307311550E+03  0.72010719554E+03  0.46999998093E+01 0.  1.
       -5    1    3    3    0  502 -0.97038771055E+02  0.25347424545E+02  0.20044606300E+03  0.22418681760E+03  0.46999998093E+01 0. -1.
</event>
<event>
 5   0  0.1106332E-02  0.8009274E+03  0.7818609E-02  0.9558676E-01
       -2   -1    0    0    0  501  0.00000000000E+00  0.00000000000E+00  0.18602892271E+03  0.18602892273E+03  0.25500000920E-02 0.  1.
        2   -1    0    0  501    0  0.00000000000E+00  0.00000000000E+00 -0.86207653232E+03  0.86207653232E+03  0.25500000920E-02 0. -1.
    10030    2    1    2    0    0  0.00000000000E+00  0.00000000000E+00 -0.67604760961E+03  0.10481054550E+04  0.80092738400E+03 0.  0.
        1    1    3    3  502    0 -0.33270308737E+02 -0.18757936254E+03  0.12293238097E+03  0.22672737155E+03  0.50400001928E-02 0.  1.
       -1    1    3    3    0  502  0.33270308737E+02  0.18757936254E+03 -0.79897999057E+03  0.82137808350E+03  0.50400001928E-02 0. -1.
</event>
<event>
 5   0  0.1154714E-02  0.8111756E+03  0.7818609E-02  0.9543980E-01
       -2   -1    0    0    0  501  0.00000000000E+00  0.00000000000E+00  0.60874260971E+03  0.60874260971E+03  0.25500000920E-02 0. -1.
        2   -1    0    0  501    0  0.00000000000E+00  0.00000000000E+00 -0.27023153713E+03  0.27023153714E+03  0.25500000920E-02 0.  1.
    10030    2    1    2    0    0  0.00000000000E+00  0.00000000000E+00  0.33851107258E+03  0.87897414685E+03  0.81117556951E+03 0.  0.
        5    1    3    3  502    0 -0.34484819472E+03  0.87172450075E+02 -0.41862148097E+02  0.35818129892E+03  0.46999998093E+01 0.  1.
       -5    1    3    3    0  502  0.34484819472E+03 -0.87172450075E+02  0.38037322068E+03  0.52079284794E+03  0.46999998093E+01 0. -1.
</event>
<event>
 5   0  0.1154714E-02  0.7998157E+03  0.7818609E-02  0.9560284E-01
       -2   -1    0    0    0  501  0.00000000000E+00  0.00000000000E+00  0.12251080222E+03  0.12251080225E+03  0.25500000920E-02 0.  1.
        2   -1    0    0  501    0  0.00000000000E+00  0.00000000000E+00 -0.13054057577E+04  0.13054057577E+04  0.25500000920E-02 0. -1.
    10030    2    1    2    0    0  0.00000000000E+00  0.00000000000E+00 -0.11828949555E+04  0.14279165599E+04  0.79981574533E+03 0.  0.
        5    1    3    3  502    0 -0.35481981648E+03 -0.15345331123E+03 -0.77403118706E+03  0.86521175988E+03  0.46999998093E+01 0.  1.
       -5    1    3    3    0  502  0.35481981648E+03  0.15345331123E+03 -0.40886376842E+03  0.56270480006E+03  0.46999998093E+01 0. -1.
</event>
<event>
 5   0  0.6551489E-03  0.7993894E+03  0.7818609E-02  0.9560901E-01
       -1   -1    0    0    0  501  0.00000000000E+00  0.00000000000E+00  0.23716825867E+03  0.23716825872E+03  0.50400001928E-02 0. -1.
        1   -1    0    0  501    0  0.00000000000E+00  0.00000000000E+00 -0.67359702462E+03  0.67359702464E+03  0.50400001928E-02 0.  1.
    10030    2    1    2    0    0  0.00000000000E+00  0.00000000000E+00 -0.43642876595E+03  0.91076528336E+03  0.79938935046E+03 0.  0.
        4    1    3    3  502    0  0.33817028832E+03 -0.18015062435E+03 -0.34782159281E+03  0.51748899958E+03  0.12699999809E+01 0.  1.
       -4    1    3    3    0  502 -0.33817028832E+03  0.18015062435E+03 -0.88607173139E+02  0.39327628379E+03  0.12699999809E+01 0. -1.
</event>
<event>
 5   0  0.6551489E-03  0.7975146E+03  0.7818609E-02  0.9563622E-01
       -1   -1    0    0    0  501  0.00000000000E+00  0.00000000000E+00  0.17026488244E+04  0.17026488244E+04  0.50400001928E-02 0. -1.
        1   -1    0    0  501    0  0.00000000000E+00  0.00000000000E+00 -0.93388255090E+02  0.93388255226E+02  0.50400001928E-02 0.  1.
    10030    2    1    2    0    0  0.00000000000E+00  0.00000000000E+00  0.16092605693E+04  0.17960370796E+04  0.79751464656E+03 0.  0.
        4    1    3    3  502    0 -0.36410380872E+02  0.75127135825E+02 -0.73481550484E+02  0.11122478831E+03  0.12699999809E+01 0.  1.
       -4    1    3    3    0  502  0.36410380872E+02 -0.75127135825E+02  0.16827421198E+04  0.16848122913E+04  0.12699999809E+01 0. -1.
</event>
<event>
 5   0  0.6600401E-03  0.7664721E+03  0.7818609E-02  0.9609857E-01
       -1   -1    0    0    0  501  0.00000000000E+00  0.00000000000E+00  0.46013854939E+03  0.46013854942E+03  0.50400001928E-02 0.  1.
        1   -1    0    0  501    0  0.00000000000E+00  0.00000000000E+00 -0.31918621634E+03  0.31918621638E+03  0.50400001928E-02 0. -1.
    10030    2    1    2    0    0  0.00000000000E+00  0.00000000000E+00  0.14095233305E+03  0.77932476580E+03  0.76647213282E+03 0.  0.
        2    1    3    3  502    0  0.23769797651E+03  0.90737904947E+02  0.36187605250E+03  0.44236633327E+03  0.25500000920E-02 0.  1.
       -2    1    3    3    0  502 -0.23769797651E+03 -0.90737904947E+02 -0.22092371944E+03  0.33695843253E+03  0.25500000920E-02 0. -1.
</event>
<event>
 5   0  0.1106332E-02  0.8021403E+03  0.7818609E-02  0.9556924E-01
        2   -1    0    0  501    0  0.00000000000E+00  0.00000000000E+00  0.33466286195E+03  0.33466286196E+03  0.25500000920E-02 0.  1.
       -2   -1    0    0    0  501  0.00000000000E+00  0.00000000000E+00 -0.48065463937E+03  0.48065463938E+03  0.25500000920E-02 0. -1.
    10030    2    1    2    0    0  0.00000000000E+00  0.00000000000E+00 -0.14599177742E+03  0.81531750134E+03  0.80214028008E+03 0.  0.
        1    1    3    3  502    0  0.14514766692E+03  0.24968650881E+03  0.20986708435E+03  0.35700895089E+03  0.50400001928E-02 0.  1.
       -1    1    3    3    0  502 -0.14514766692E+03 -0.24968650881E+03 -0.35585886177E+03  0.45830855046E+03  0.50400001928E-02 0. -1.
</event>
<event>
 5   0  0.1154714E-02  0.8868411E+03  0.7818609E-02  0.9442182E-01
       -2   -1    0    0    0  501  0.00000000000E+00  0.00000000000E+00  0.33841478968E+03  0.33841478969E+03  0.25500000920E-02 0.  1.
        2   -1    0    0  501    0  0.00000000000E+00  0.00000000000E+00 -0.58100830200E+03  0.58100830200E+03  0.25500000920E-02 0. -1.
    10030    2    1    2    0    0  0.00000000000E+00  0.00000000000E+00 -0.24259351232E+03  0.91942309169E+03  0.88684114097E+03 0.  0.
        5    1    3    3  502    0  0.24339498393E+03  0.37050555378E+03 -0.11178195445E+03  0.45720102682E+03  0.46999998093E+01 0.  1.
       -5    1    3    3    0  502 -0.24339498393E+03 -0.37050555378E+03 -0.13081155786E+03  0.46222206487E+03  0.46999998093E+01 0. -1.
</event>
<event>
 5   0  0.1092868E-02  0.8027789E+03  0.7818609E-02  0.9556003E-01
       -2   -1    0    0    0  501  0.00000000000E+00  0.00000000000E+00  0.35879280458E+03  0.35879280459E+03  0.25500000920E-02 0. -1.
        2   -1    0    0  501    0  0.00000000000E+00  0.00000000000E+00 -0.44904324854E+03  0.44904324855E+03  0.25500000920E-02 0.  1.
    10030    2    1    2    0    0  0.00000000000E+00  0.00000000000E+00 -0.90250443955E+02  0.80783605314E+03  0.80277888993E+03 0.  0.
        3    1    3    3  502    0 -0.38726420849E+03 -0.26143047379E+02 -0.14802618164E+03  0.41541399442E+03  0.10100000352E+00 0.  1.
       -3    1    3    3    0  502  0.38726420849E+03  0.26143047379E+02  0.57775737681E+02  0.39242205872E+03  0.10100000352E+00 0. -1.
</event>
<event>
 5   0  0.6551489E-03  0.7976564E+03  0.7818609E-02  0.9563416E-01
       -1   -1    0    0    0  501  0.00000000000E+00  0.00000000000E+00  0.11556373571E+03  0.11556373582E+03  0.50400001928E-02 0.  1.
        1   -1    0    0  501    0  0.00000000000E+00  0.00000000000E+00 -0.13764173529E+04  0.13764173530E+04  0.50400001928E-02 0. -1.
    10030    2    1    2    0    0  0.00000000000E+00  0.00000000000E+00 -0.12608536172E+04  0.14919810888E+04  0.79765639542E+03 0.  0.
        4    1    3    3  502    0 -0.89448813177E+02 -0.37140668751E+02 -0.13540824695E+04  0.13575424364E+04  0.12699999809E+01 0. -1.
       -4    1    3    3    0  502  0.89448813177E+02  0.37140668751E+02  0.93228852284E+02  0.13443865237E+03  0.12699999809E+01 0.  1.
</event>
<event>
 5   0  0.1106332E-02  0.7885334E+03  0.7818609E-02  0.9576764E-01
       -2   -1    0    0    0  501  0.00000000000E+00  0.00000000000E+00  0.54696789329E+03  0.54696789330E+03  0.25500000920E-02 0. -1.
        2   -1    0    0  501    0  0.00000000000E+00  0.00000000000E+00 -0.28419627060E+03  0.28419627061E+03  0.25500000920E-02 0.  1.
    10030    2    1    2    0    0  0.00000000000E+00  0.00000000000E+00  0.26277162270E+03  0.83116416391E+03  0.78853341189E+03 0.  0.
        1    1    3    3  502    0  0.33431322403E+03  0.15311839520E+03 -0.18556915371E+02  0.36817785626E+03  0.50400001928E-02 0.  1.
       -1    1    3    3    0  502 -0.33431322403E+03 -0.15311839520E+03  0.28132853807E+03  0.46298630764E+03  0.50400001928E-02 0. -1.
</event>
<event>
 5   0  0.6551489E-03  0.7936842E+03  0.7818609E-02  0.9569204E-01
       -1   -1    0    0    0  501  0.00000000000E+00  0.00000000000E+00  0.50838674132E+03  0.50838674135E+03  0.50400001928E-02 0.  1.
        1   -1    0    0  501    0  0.00000000000E+00  0.00000000000E+00 -0.30977139242E+03  0.30977139246E+03  0.50400001928E-02 0. -1.
    10030    2    1    2    0    0  0.00000000000E+00  0.00000000000E+00  0.19861534890E+03  0.81815813381E+03  0.79368424144E+03 0.  0.
        4    1    3    3  502    0  0.25136607956E+03  0.18600478449E+03 -0.15256112329E+03  0.34793561911E+03  0.12699999809E+01 0. -1.
       -4    1    3    3    0  502 -0.25136607956E+03 -0.18600478449E+03  0.35117647219E+03  0.47022251470E+03  0.12699999809E+01 0.  1.
</event>
<event>
 5   0  0.1092868E-02  0.8009200E+03  0.7818609E-02  0.9558686E-01
        2   -1    0    0  501    0  0.00000000000E+00  0.00000000000E+00  0.26754419299E+03  0.26754419300E+03  0.25500000920E-02 0.  1.
       -2   -1    0    0    0  501  0.00000000000E+00  0.00000000000E+00 -0.59940825071E+03  0.59940825072E+03  0.25500000920E-02 0. -1.
    10030    2    1    2    0    0  0.00000000000E+00  0.00000000000E+00 -0.33186405772E+03  0.86695244372E+03  0.80091996284E+03 0.  0.
        3    1    3    3  502    0 -0.56203295867E+02  0.23703639624E+02  0.26248616840E+03  0.26948037368E+03  0.10100000352E+00 0.  1.
       -3    1    3    3    0  502  0.56203295867E+02 -0.23703639624E+02 -0.59435022612E+03  0.59747207004E+03  0.10100000352E+00 0. -1.
</event>
<event>
 5   0  0.1119792E-02  0.7974004E+03  0.7818609E-02  0.9563788E-01
        2   -1    0    0  501    0  0.00000000000E+00  0.00000000000E+00  0.88467203189E+03  0.88467203190E+03  0.25500000920E-02 0.  1.
       -2   -1    0    0    0  501  0.00000000000E+00  0.00000000000E+00 -0.17968448895E+03  0.17968448897E+03  0.25500000920E-02 0. -1.
    10030    2    1    2    0    0  0.00000000000E+00  0.00000000000E+00  0.70498754294E+03  0.10643565209E+04  0.79740038112E+03 0.  0.
        4    1    3    3  502    0  0.21086509268E+03  0.14057292386E+03  0.76332819062E+03  0.80429868440E+03  0.12699999809E+01 0.  1.
       -4    1    3    3    0  502 -0.21086509268E+03 -0.14057292386E+03 -0.58340647682E+02  0.26005783646E+03  0.12699999809E+01 0. -1.
</event>
<event>
 5   0  0.6557679E-03  0.7984171E+03  0.7818609E-02  0.9562311E-01
        1   -1    0    0  501    0  0.00000000000E+00  0.00000000000E+00  0.12703122331E+04  0.12703122331E+04  0.50400001928E-02 0.  1.
       -1   -1    0    0    0  501  0.00000000000E+00  0.00000000000E+00 -0.12545534250E+03  0.12545534260E+03  0.50400001928E-02 0. -1.
    10030    2    1    2    0    0  0.00000000000E+00  0.00000000000E+00  0.11448568906E+04  0.13957675757E+04  0.79841707488E+03 0.  0.
        1    1    3    3  502    0 -0.56676961412E+02  0.12363663376E+02  0.12629048069E+04  0.12642364057E+04  0.50400001928E-02 0.  1.
       -1    1    3    3    0  502  0.56676961412E+02 -0.12363663376E+02 -0.11804791629E+03  0.13153117004E+03  0.50400001928E-02 0. -1.
</event>
<event>
 5   0  0.1106332E-02  0.8013370E+03  0.7818609E-02  0.9558084E-01
       -2   -1    0    0    0  501  0.00000000000E+00  0.00000000000E+00  0.75296903242E+02  0.75296903285E+02  0.25500000920E-02 0.  1.
        2   -1    0    0  501    0  0.00000000000E+00  0.00000000000E+00 -0.21320299389E+04  0.21320299389E+04  0.25500000920E-02 0. -1.
    10030    2    1    2    0    0  0.00000000000E+00  0.00000000000E+00 -0.20567330357E+04  0.22073268422E+04  0.80133701292E+03 0.  0.
        1    1    3    3  502    0  0.11690553181E+03  0.14949504633E+03 -0.20003754705E+04  0.20093575329E+04  0.50400001928E-02 0. -1.
       -1    1    3    3    0  502 -0.11690553181E+03 -0.14949504633E+03 -0.56357565243E+02  0.19796930931E+03  0.50400001928E-02 0.  1.
</event>
<event>
 5   0  0.6517392E-03  0.8071615E+03  0.7818609E-02  0.9549709E-01
       -1   -1    0    0    0  501  0.00000000000E+00  0.00000000000E+00  0.11504030555E+03  0.11504030566E+03  0.50400001928E-02 0.  1.
        1   -1    0    0  501    0  0.00000000000E+00  0.00000000000E+00 -0.14158291436E+04  0.14158291436E+04  0.50400001928E-02 0. -1.
    10030    2    1    2    0    0  0.00000000000E+00  0.00000000000E+00 -0.13007888381E+04  0.15308694493E+04  0.80716148912E+03 0.  0.
        3    1    3    3  502    0  0.30099148537E+03  0.24402597128E+03 -0.43638116254E+03  0.58358639304E+03  0.10100000352E+00 0.  1.
       -3    1    3    3    0  502 -0.30099148537E+03 -0.24402597128E+03 -0.86440767555E+03  0.94728305626E+03  0.10100000352E+00 0. -1.
</event>
<event>
 5   0  0.6596225E-03  0.8012702E+03  0.7818609E-02  0.9558180E-01
       -1   -1    0    0    0  501  0.00000000000E+00  0.00000000000E+00  0.29723557268E+03  0.29723557273E+03  0.50400001928E-02 0.  1.
        1   -1    0    0  501    0  0.00000000000E+00  0.00000000000E+00 -0.54000431422E+03  0.54000431424E+03  0.50400001928E-02 0. -1.
    10030    2    1    2    0    0  0.00000000000E+00  0.00000000000E+00 -0.24276874154E+03  0.83723988697E+03  0.80127022063E+03 0.  0.
        5    1    3    3  502    0 -0.15593597805E+03  0.50505286026E+02  0.26056515302E+03  0.30786864429E+03  0.46999998093E+01 0.  1.
       -5    1    3    3    0  502  0.15593597805E+03 -0.50505286026E+02 -0.50333389456E+03  0.52937124268E+03  0.46999998093E+01 0. -1.
</event>
<event>
 5   0  0.6551489E-03  0.7649265E+03  0.7818609E-02  0.9612220E-01
        1   -1    0    0  501    0  0.00000000000E+00  0.00000000000E+00  0.24325908674E+03  0.24325908679E+03  0.50400001928E-02 0.  1.
       -1   -1    0    0    0  501  0.00000000000E+00  0.00000000000E+00 -0.60132652540E+03  0.60132652542E+03  0.50400001928E-02 0. -1.
    10030    2    1    2    0    0  0.00000000000E+00  0.00000000000E+00 -0.35806743866E+03  0.84458561221E+03  0.76492651002E+03 0.  0.
        4    1    3    3  502    0 -0.29411920081E+03 -0.22059838251E+03 -0.29539754997E+03  0.47162599174E+03  0.12699999809E+01 0.  1.
       -4    1    3    3    0  502  0.29411920081E+03  0.22059838251E+03 -0.62669888685E+02  0.37295962047E+03  0.12699999809E+01 0. -1.
</event>
<event>
 5   0  0.6517392E-03  0.7979465E+03  0.7818609E-02  0.9562994E-01
       -1   -1    0    0    0  501  0.00000000000E+00  0.00000000000E+00  0.47981762939E+03  0.47981762942E+03  0.50400001928E-02 0. -1.
        1   -1    0    0  501    0  0.00000000000E+00  0.00000000000E+00 -0.33175033662E+03  0.33175033666E+03  0.50400001928E-02 0.  1.
    10030    2    1    2    0    0  0.00000000000E+00  0.00000000000E+00  0.14806729277E+03  0.81156796608E+03  0.79794651473E+03 0.  0.
        3    1    3    3  502    0  0.12224551569E+03  0.37629995631E+03  0.21834764836E+02  0.39626050823E+03  0.10100000352E+00 0.  1.
       -3    1    3    3    0  502 -0.12224551569E+03 -0.37629995631E+03  0.12623252793E+03  0.41530745784E+03  0.10100000352E+00 0. -1.
</event>
<event>
 5   0  0.6517392E-03  0.8004991E+03  0.7818609E-02  0.9559295E-01
        1   -1    0    0  501    0  0.00000000000E+00  0.00000000000E+00  0.75892804256E+03  0.75892804257E+03  0.50400001928E-02 0. -1.
       -1   -1    0    0    0  501  0.00000000000E+00  0.00000000000E+00 -0.21108681000E+03  0.21108681006E+03  0.50400001928E-02 0.  1.
    10030    2    1    2    0    0  0.00000000000E+00  0.00000000000E+00  0.54784123255E+03  0.97001485263E+03  0.80049909322E+03 0.  0.
        3    1    3    3  502    0  0.11477845699E+03 -0.21776641932E+02  0.73780791929E+03  0.74699990113E+03  0.10100000352E+00 0. -1.
       -3    1    3    3    0  502 -0.11477845699E+03  0.21776641932E+02 -0.18996668673E+03  0.22301495150E+03  0.10100000352E+00 0.  1.
</event>
<event>
 5   0  0.6551489E-03  0.7865161E+03  0.7818609E-02  0.9579742E-01
       -1   -1    0    0    0  501  0.00000000000E+00  0.00000000000E+00  0.21690252437E+03  0.21690252443E+03  0.50400001928E-02 0.  1.
        1   -1    0    0  501    0  0.00000000000E+00  0.00000000000E+00 -0.71300177752E+03  0.71300177754E+03  0.50400001928E-02 0. -1.
    10030    2    1    2    0    0  0.00000000000E+00  0.00000000000E+00 -0.49609925315E+03  0.92990430197E+03  0.78651607856E+03 0.  0.
        4    1    3    3  502    0  0.34262707485E+02  0.30485412171E+03  0.42856555135E+02  0.30975517084E+03  0.12699999809E+01 0.  1.
       -4    1    3    3    0  502 -0.34262707485E+02 -0.30485412171E+03 -0.53895580829E+03  0.62014913112E+03  0.12699999809E+01 0. -1.
</event>
<event>
 5   0  0.6517392E-03  0.8132431E+03  0.7818609E-02  0.9541044E-01
       -1   -1    0    0    0  501  0.00000000000E+00  0.00000000000E+00  0.10045365578E+03  0.10045365590E+03  0.50400001928E-02 0.  1.
        1   -1    0    0  501    0  0.00000000000E+00  0.00000000000E+00 -0.16459441188E+04  0.16459441188E+04  0.50400001928E-02 0. -1.
    10030    2    1    2    0    0  0.00000000000E+00  0.00000000000E+00 -0.15454904630E+04  0.17463977747E+04  0.81324314705E+03 0.  0.
        3    1    3    3  502    0  0.22117822637E+03 -0.29967235806E+03 -0.11231004099E+04  0.11832488626E+04  0.10100000352E+00 0. -1.
       -3    1    3    3    0  502 -0.22117822637E+03  0.29967235806E+03 -0.42239005317E+03  0.56314891212E+03  0.10100000352E+00 0.  1.
</event>
<event>
 5   0  0.6557679E-03  0.7944975E+03  0.7818609E-02  0.9568016E-01
        1   -1    0    0  501    0  0.00000000000E+00  0.00000000000E+00  0.24330532313E+04  0.24330532313E+04  0.50400001928E-02 0. -1.
       -1   -1    0    0    0  501  0.00000000000E+00  0.00000000000E+00 -0.64859481936E+02  0.64859482132E+02  0.50400001928E-02 0.  1.
    10030    2    1    2    0    0  0.00000000000E+00  0.00000000000E+00  0.23681937493E+04  0.24979127134E+04  0.79449750750E+03 0.  0.
        1    1    3    3  502    0  0.44180215337E+02  0.26417172246E+03  0.26172610953E+03  0.37448517569E+03  0.50400001928E-02 0.  1.
       -1    1    3    3    0  502 -0.44180215337E+02 -0.26417172246E+03  0.21064676398E+04  0.21234275377E+04  0.50400001928E-02 0. -1.
</event>
<event>
 5   0  0.6596225E-03  0.7958775E+03  0.7818609E-02  0.9566003E-01
       -1   -1    0    0    0  501  0.00000000000E+00  0.00000000000E+00  0.17220030625E+03  0.17220030632E+03  0.50400001928E-02 0.  1.
        1   -1    0    0  501    0  0.00000000000E+00  0.00000000000E+00 -0.91959922031E+03  0.91959922033E+03  0.50400001928E-02 0. -1.
    10030    2    1    2    0    0  0.00000000000E+00  0.00000000000E+00 -0.74739891406E+03  0.10917995267E+04  0.79587754690E+03 0.  0.
        5    1    3    3  502    0  0.38187565331E+03 -0.64316302920E+02 -0.49918580552E+03  0.63180231072E+03  0.46999998093E+01 0.  1.
       -5    1    3    3    0  502 -0.38187565331E+03  0.64316302920E+02 -0.24821310855E+03  0.45999721593E+03  0.46999998093E+01 0. -1.
</event>
<event>
 5   0  0.1092868E-02  0.7982764E+03  0.7818609E-02  0.9562515E-01
        2   -1    0    0  501    0  0.00000000000E+00  0.00000000000E+00  0.45512658189E+03  0.45512658189E+03  0.25500000920E-02 0.  1.
       -2   -1    0    0    0  501  0.00000000000E+00  0.00000000000E+00 -0.35003736963E+03  0.35003736964E+03  0.25500000920E-02 0. -1.
    10030    2    1    2    0    0  0.00000000000E+00  0.00000000000E+00  0.10508921225E+03  0.80516395153E+03  0.79827642225E+03 0.  0.
        3    1    3    3  502    0  0.22202483296E+03  0.26253526412E+03  0.25700400088E+03  0.42926781620E+03  0.10100000352E+00 0.  1.
       -3    1    3    3    0  502 -0.22202483296E+03 -0.26253526412E+03 -0.15191478863E+03  0.37589613533E+03  0.10100000352E+00 0. -1.
</event>
<event>
 5   0  0.1121480E-02  0.8046080E+03  0.7818609E-02  0.9553371E-01
       -2   -1    0    0    0  501  0.00000000000E+00  0.00000000000E+00  0.98207372847E+02  0.98207372880E+02  0.25500000920E-02 0. -1.
        2   -1    0    0  501    0  0.00000000000E+00  0.00000000000E+00 -0.16480282377E+04  0.16480282377E+04  0.25500000920E-02 0.  1.
    10030    2    1    2    0    0  0.00000000000E+00  0.00000000000E+00 -0.15498208648E+04  0.17462356106E+04  0.80460803782E+03 0.  0.
        2    1    3    3  502    0 -0.38608257797E+03 -0.76536113795E+02 -0.59422792595E+03  0.71275827719E+03  0.25500000920E-02 0. -1.
       -2    1    3    3    0  502  0.38608257797E+03  0.76536113795E+02 -0.95559293889E+03  0.10334773334E+04  0.25500000920E-02 0.  1.
</event>
<event>
 5   0  0.6596225E-03  0.8066908E+03  0.7818609E-02  0.9550383E-01
        1   -1    0    0  501    0  0.00000000000E+00  0.00000000000E+00  0.34471409597E+03  0.34471409601E+03  0.50400001928E-02 0.  1.
       -1   -1    0    0    0  501  0.00000000000E+00  0.00000000000E+00 -0.47194914952E+03  0.47194914955E+03  0.50400001928E-02 0. -1.
    10030    2    1    2    0    0  0.00000000000E+00  0.00000000000E+00 -0.12723505355E+03  0.81666324556E+03  0.80669083161E+03 0.  0.
        5    1    3    3  502    0 -0.17859366243E+03  0.22005998872E+03  0.22688514270E+03  0.36307169109E+03  0.46999998093E+01 0.  1.
       -5    1    3    3    0  502  0.17859366243E+03 -0.22005998872E+03 -0.35412019625E+03  0.45359155447E+03  0.46999998093E+01 0. -1.
</event>
<event>
 5   0  0.1092868E-02  0.8025287E+03  0.7818609E-02  0.9556364E-01
        2   -1    0    0  501    0  0.00000000000E+00  0.00000000000E+00  0.15041965259E+04  0.15041965259E+04  0.25500000920E-02 0. -1.
       -2   -1    0    0    0  501  0.00000000000E+00  0.00000000000E+00 -0.10704257846E+03  0.10704257849E+03  0.25500000920E-02 0.  1.
    10030    2    1    2    0    0  0.00000000000E+00  0.00000000000E+00  0.13971539474E+04  0.16112391044E+04  0.80252869025E+03 0.  0.
        3    1    3    3  502    0  0.33492472770E+03  0.21953008701E+03  0.64758637589E+03  0.76140406931E+03  0.10100000352E+00 0. -1.
       -3    1    3    3    0  502 -0.33492472770E+03 -0.21953008701E+03  0.74956757154E+03  0.84983503507E+03  0.10100000352E+00 0.  1.
</event>
<event>
 5   0  0.1106332E-02  0.7961462E+03  0.7818609E-02  0.9565612E-01
       -2   -1    0    0    0  501  0.00000000000E+00  0.00000000000E+00  0.30603649288E+03  0.30603649289E+03  0.25500000920E-02 0.  1.
        2   -1    0    0  501    0  0.00000000000E+00  0.00000000000E+00 -0.51778856725E+03  0.51778856726E+03  0.25500000920E-02 0. -1.
    10030    2    1    2    0    0  0.00000000000E+00  0.00000000000E+00 -0.21175207438E+03  0.82382506015E+03  0.79614621065E+03 0.  0.
        1    1    3    3  502    0 -0.33166643576E+03 -0.43465351202E+02  0.11742814200E+03  0.35451548615E+03  0.50400001928E-02 0.  1.
       -1    1    3    3    0  502  0.33166643576E+03  0.43465351202E+02 -0.32918021638E+03  0.46930957400E+03  0.50400001928E-02 0. -1.
</event>
<event>
 5   0  0.1119792E-02  0.7987752E+03  0.7818609E-02  0.9561792E-01
       -2   -1    0    0    0  501  0.00000000000E+00  0.00000000000E+00  0.10096972564E+04  0.10096972564E+04  0.25500000920E-02 0. -1.
        2   -1    0    0  501    0  0.00000000000E+00  0.00000000000E+00 -0.15797848384E+03  0.15797848386E+03  0.25500000920E-02 0.  1.
    10030    2    1    2    0    0  0.00000000000E+00  0.00000000000E+00  0.85171877251E+03  0.11676757402E+04  0.79877516664E+03 0.  0.
        4    1    3    3  502    0 -0.36943804286E+03 -0.25284350211E+02  0.64457352692E+03  0.74337097763E+03  0.12699999809E+01 0. -1.
       -4    1    3    3    0  502  0.36943804286E+03  0.25284350211E+02  0.20714524560E+03  0.42430476259E+03  0.12699999809E+01 0.  1.
</event>
<event>
 5   0  0.1121480E-02  0.7998807E+03  0.7818609E-02  0.9560190E-01
       -2   -1    0    0    0  501  0.00000000000E+00  0.00000000000E+00  0.17894456742E+03  0.17894456744E+03  0.25500000920E-02 0.  1.
        2   -1    0    0  501    0  0.00000000000E+00  0.00000000000E+00 -0.89386493560E+03  0.89386493560E+03  0.25500000920E-02 0. -1.
    10030    2    1    2    0    0  0.00000000000E+00  0.00000000000E+00 -0.71492036818E+03  0.10728095030E+04  0.79988067671E+03 0.  0.
        2    1    3    3  502    0 -0.36454819960E+03 -0.61235590250E+02 -0.15270193643E+03  0.39995383326E+03  0.25500000920E-02 0.  1.
       -2    1    3    3    0  502  0.36454819960E+03  0.61235590250E+02 -0.56221843176E+03  0.67285566978E+03  0.25500000920E-02 0. -1.
</event>
<event>
 5   0  0.6596225E-03  0.8018413E+03  0.7818609E-02  0.9557356E-01
        1   -1    0    0  501    0  0.00000000000E+00  0.00000000000E+00  0.87575624739E+02  0.87575624884E+02  0.50400001928E-02 0.  1.
       -1   -1    0    0    0  501  0.00000000000E+00  0.00000000000E+00 -0.18354120149E+04  0.18354120149E+04  0.50400001928E-02 0. -1.
    10030    2    1    2    0    0  0.00000000000E+00  0.00000000000E+00 -0.17478363902E+04  0.19229876398E+04  0.80184126610E+03 0.  0.
        5    1    3    3  502    0  0.83301441737E+02 -0.17418038051E+03 -0.31337805064E+02  0.19565807720E+03  0.46999998093E+01 0.  1.
       -5    1    3    3    0  502 -0.83301441737E+02  0.17418038051E+03 -0.17164985851E+04  0.17273295626E+04  0.46999998093E+01 0. -1.
</event>
<event>
 5   0  0.1121480E-02  0.8090966E+03  0.7818609E-02  0.9546943E-01
       -2   -1    0    0    0  501  0.00000000000E+00  0.00000000000E+00  0.27667647812E+03  0.27667647813E+03  0.25500000920E-02 0. -1.
        2   -1    0    0  501    0  0.00000000000E+00  0.00000000000E+00 -0.59151876219E+03  0.59151876219E+03  0.25500000920E-02 0.  1.
    10030    2    1    2    0    0  0.00000000000E+00  0.00000000000E+00 -0.31484228407E+03  0.86819524032E+03  0.80909660207E+03 0.  0.
        2    1    3    3  502    0  0.26830600335E+03 -0.25522706233E+03  0.17357604392E+02  0.37071586318E+03  0.25500000920E-02 0. -1.
       -2    1    3    3    0  502 -0.26830600335E+03  0.25522706233E+03 -0.33219988846E+03  0.49747937714E+03  0.25500000920E-02 0.  1.
</event>
<event>
 5   0  0.6596225E-03  0.8031727E+03  0.7818609E-02  0.9555436E-01
       -1   -1    0    0    0  501  0.00000000000E+00  0.00000000000E+00  0.75354546125E+02  0.75354546293E+02  0.50400001928E-02 0. -1.
        1   -1    0    0  501    0  0.00000000000E+00  0.00000000000E+00 -0.21401705493E+04  0.21401705493E+04  0.50400001928E-02 0.  1.
    10030    2    1    2    0    0  0.00000000000E+00  0.00000000000E+00 -0.20648160031E+04  0.22155250956E+04  0.80317266030E+03 0.  0.
        5    1    3    3  502    0  0.32587104393E+03  0.17504956573E+02 -0.38695548338E+03  0.50621635384E+03  0.46999998093E+01 0. -1.
       -5    1    3    3    0  502 -0.32587104393E+03 -0.17504956573E+02 -0.16778605198E+04  0.17093087417E+04  0.46999998093E+01 0.  1.
</event>
<event>
 5   0  0.6600401E-03  0.7871384E+03  0.7818609E-02  0.9578823E-01
        1   -1    0    0  501    0  0.00000000000E+00  0.00000000000E+00  0.21463874556E+03  0.21463874562E+03  0.50400001928E-02 0. -1.
       -1   -1    0    0    0  501  0.00000000000E+00  0.00000000000E+00 -0.72166245204E+03  0.72166245205E+03  0.50400001928E-02 0.  1.
    10030    2    1    2    0    0  0.00000000000E+00  0.00000000000E+00 -0.50702370648E+03  0.93630119767E+03  0.78713842101E+03 0.  0.
        2    1    3    3  502    0 -0.25005453505E+03  0.30366484964E+03 -0.23860214283E+03  0.46007672618E+03  0.25500000920E-02 0. -1.
       -2    1    3    3    0  502  0.25005453505E+03 -0.30366484964E+03 -0.26842156365E+03  0.47622447149E+03  0.25500000920E-02 0.  1.
</event>
<event>
 5   0  0.6600401E-03  0.7979808E+03  0.7818609E-02  0.9562944E-01
        1   -1    0    0  501    0  0.00000000000E+00  0.00000000000E+00  0.95337049765E+03  0.95337049766E+03  0.50400001928E-02 0.  1.
       -1   -1    0    0    0  501  0.00000000000E+00  0.00000000000E+00 -0.16697949093E+03  0.16697949100E+03  0.50400001928E-02 0. -1.
    10030    2    1    2    0    0  0.00000000000E+00  0.00000000000E+00  0.78639100673E+03  0.11203499887E+04  0.79798075268E+03 0.  0.
        2    1    3    3  502    0 -0.17602907733E+03 -0.21013302245E+03  0.80023190447E+03  0.84588014761E+03  0.25500000920E-02 0.  1.
       -2    1    3    3    0  502  0.17602907733E+03  0.21013302245E+03 -0.13840897743E+02  0.27446984105E+03  0.25500000920E-02 0. -1.
</event>
<event>
 5   0  0.6600401E-03  0.8400396E+03  0.7818609E-02  0.9503804E-01
        1   -1    0    0  501    0  0.00000000000E+00  0.00000000000E+00  0.32028845518E+03  0.32028845522E+03  0.50400001928E-02 0.  1.
       -1   -1    0    0    0  501  0.00000000000E+00  0.00000000000E+00 -0.55080546149E+03  0.55080546151E+03  0.50400001928E-02 0. -1.
    10030    2    1    2    0    0  0.00000000000E+00  0.00000000000E+00 -0.23051700631E+03  0.87109391673E+03  0.84003959523E+03 0.  0.
        2    1    3    3  502    0  0.36186952976E+03  0.20519855740E+03 -0.55144547535E+02  0.41963904210E+03  0.25500000920E-02 0.  1.
       -2    1    3    3    0  502 -0.36186952976E+03 -0.20519855740E+03 -0.17537245878E+03  0.45145487463E+03  0.25500000920E-02 0. -1.
</event>
<event>
 5   0  0.1106332E-02  0.8222655E+03  0.7818609E-02  0.9528336E-01
        2   -1    0    0  501    0  0.00000000000E+00  0.00000000000E+00  0.52689797715E+03  0.52689797716E+03  0.25500000920E-02 0. -1.
       -2   -1    0    0    0  501  0.00000000000E+00  0.00000000000E+00 -0.32080242804E+03  0.32080242805E+03  0.25500000920E-02 0.  1.
    10030    2    1    2    0    0  0.00000000000E+00  0.00000000000E+00  0.20609554911E+03  0.84770040521E+03  0.82226552988E+03 0.  0.
        1    1    3    3  502    0 -0.16153848241E+03 -0.34422115470E+03 -0.58144956235E+02  0.38466052644E+03  0.50400001928E-02 0.  1.
       -1    1    3    3    0  502  0.16153848241E+03  0.34422115470E+03  0.26424050535E+03  0.46303987877E+03  0.50400001928E-02 0. -1.
</event>
<event>
 5   0  0.1119792E-02  0.8124250E+03  0.7818609E-02  0.9542205E-01
        2   -1    0    0  501    0  0.00000000000E+00  0.00000000000E+00  0.12622952121E+04  0.12622952121E+04  0.25500000920E-02 0. -1.
       -2   -1    0    0    0  501  0.00000000000E+00  0.00000000000E+00 -0.13072108866E+03  0.13072108868E+03  0.25500000920E-02 0.  1.
    10030    2    1    2    0    0  0.00000000000E+00  0.00000000000E+00  0.11315741234E+04  0.13930163008E+04  0.81242502263E+03 0.  0.
        4    1    3    3  502    0  0.31078248276E+03  0.13333742642E+03  0.95164720452E+03  0.10099498184E+04  0.12699999809E+01 0. -1.
       -4    1    3    3    0  502 -0.31078248276E+03 -0.13333742642E+03  0.17992691888E+03  0.38306648237E+03  0.12699999809E+01 0.  1.
</event>
<event>
 5   0  0.6517392E-03  0.8012219E+03  0.7818609E-02  0.9558250E-01
        1   -1    0    0  501    0  0.00000000000E+00  0.00000000000E+00  0.15972678530E+03  0.15972678538E+03  0.50400001928E-02 0. -1.
       -1   -1    0    0    0  501  0.00000000000E+00  0.00000000000E+00 -0.10047727401E+04  0.10047727401E+04  0.50400001928E-02 0.  1.
    10030    2    1    2    0    0  0.00000000000E+00  0.00000000000E+00 -0.84504595480E+03  0.11644995255E+04  0.80122186637E+03 0.  0.
        3    1    3    3  502    0  0.21836404416E+03  0.33064855789E+03 -0.33681171620E+03  0.52005140802E+03  0.10100000352E+00 0.  1.
       -3    1    3    3    0  502 -0.21836404416E+03 -0.33064855789E+03 -0.50823423860E+03  0.64444811747E+03  0.10100000352E+00 0. -1.
</event>
<event>
 5   0  0.1092868E-02  0.8020914E+03  0.7818609E-02  0.9556995E-01
        2   -1    0    0  501    0  0.00000000000E+00  0.00000000000E+00  0.20115595347E+03  0.20115595348E+03  0.25500000920E-02 0.  1.
       -2   -1    0    0    0  501  0.00000000000E+00  0.00000000000E+00 -0.79956705327E+03  0.79956705328E+03  0.25500000920E-02 0. -1.
    10030    2    1    2    0    0  0.00000000000E+00  0.00000000000E+00 -0.59841109981E+03  0.10007230068E+04  0.80209144858E+03 0.  0.
        3    1    3    3  502    0 -0.37830647697E+03 -0.13166695535E+03 -0.32370782659E+03  0.51501334434E+03  0.10100000352E+00 0.  1.
       -3    1    3    3    0  502  0.37830647697E+03  0.13166695535E+03 -0.27470327322E+03  0.48570966242E+03  0.10100000352E+00 0. -1.
</event>
<event>
 5   0  0.6517392E-03  0.8012132E+03  0.7818609E-02  0.9558263E-01
       -1   -1    0    0    0  501  0.00000000000E+00  0.00000000000E+00  0.31262463533E+03  0.31262463537E+03  0.50400001928E-02 0.  1.
        1   -1    0    0  501    0  0.00000000000E+00  0.00000000000E+00 -0.51334927464E+03  0.51334927466E+03  0.50400001928E-02 0. -1.
    10030    2    1    2    0    0  0.00000000000E+00  0.00000000000E+00 -0.20072463931E+03  0.82597391003E+03  0.80121315468E+03 0.  0.
        3    1    3    3  502    0 -0.17087438736E+03 -0.29940538577E+03 -0.31073743362E+03  0.46411141350E+03  0.10100000352E+00 0. -1.
       -3    1    3    3    0  502  0.17087438736E+03  0.29940538577E+03  0.11001279432E+03  0.36186249653E+03  0.10100000352E+00 0.  1.
</event>
<event>
 5   0  0.6600401E-03  0.8014029E+03  0.7818609E-02  0.9557989E-01
       -1   -1    0    0    0  501  0.00000000000E+00  0.00000000000E+00  0.14862457473E+03  0.14862457481E+03  0.50400001928E-02 0.  1.
        1   -1    0    0  501    0  0.00000000000E+00  0.00000000000E+00 -0.10803168502E+04  0.10803168502E+04  0.50400001928E-02 0. -1.
    10030    2    1    2    0    0  0.00000000000E+00  0.00000000000E+00 -0.93169227545E+03  0.12289414250E+04  0.80140285123E+03 0.  0.
        2    1    3    3  502    0 -0.32643300819E+03 -0.23103288954E+03 -0.42744987146E+03  0.58536151010E+03  0.25500000920E-02 0.  1.
       -2    1    3    3    0  502  0.32643300819E+03  0.23103288954E+03 -0.50424240399E+03  0.64357991491E+03  0.25500000920E-02 0. -1.
</event>
<event>
 5   0  0.1121480E-02  0.8128798E+03  0.7818609E-02  0.9541559E-01
       -2   -1    0    0    0  501  0.00000000000E+00  0.00000000000E+00  0.78952580820E+03  0.78952580820E+03  0.25500000920E-02 0. -1.
        2   -1    0    0  501    0  0.00000000000E+00  0.00000000000E+00 -0.20923115027E+03  0.20923115028E+03  0.25500000920E-02 0.  1.
    10030    2    1    2    0    0  0.00000000000E+00  0.00000000000E+00  0.58029465794E+03  0.99875695849E+03  0.81287980175E+03 0.  0.
        2    1    3    3  502    0 -0.11165282695E+03  0.34189492061E+03  0.52273495144E+03  0.63451581539E+03  0.25500000920E-02 0. -1.
       -2    1    3    3    0  502  0.11165282695E+03 -0.34189492061E+03  0.57559706491E+02  0.36424114310E+03  0.25500000920E-02 0.  1.
</event>
<event>
 5   0  0.6596225E-03  0.8016846E+03  0.7818609E-02  0.9557582E-01
       -1   -1    0    0    0  501  0.00000000000E+00  0.00000000000E+00  0.28275177823E+03  0.28275177828E+03  0.50400001928E-02 0. -1.
        1   -1    0    0  501    0  0.00000000000E+00  0.00000000000E+00 -0.56825302593E+03  0.56825302595E+03  0.50400001928E-02 0.  1.
    10030    2    1    2    0    0  0.00000000000E+00  0.00000000000E+00 -0.28550124770E+03  0.85100480423E+03  0.80168461029E+03 0.  0.
        5    1    3    3  502    0  0.16460653118E+03 -0.31606581658E+03 -0.33750294291E+03  0.49083931891E+03  0.46999998093E+01 0.  1.
       -5    1    3    3    0  502 -0.16460653118E+03  0.31606581658E+03  0.52001695209E+02  0.36016548532E+03  0.46999998093E+01 0. -1.
</event>
<event>
 5   0  0.6557679E-03  0.7968190E+03  0.7818609E-02  0.9564633E-01
       -1   -1    0    0    0  501  0.00000000000E+00  0.00000000000E+00  0.78052668054E+03  0.78052668055E+03  0.50400001928E-02 0.  1.
        1   -1    0    0  501    0  0.00000000000E+00  0.00000000000E+00 -0.20336285848E+03  0.20336285854E+03  0.50400001928E-02 0. -1.
    10030    2    1    2    0    0  0.00000000000E+00  0.00000000000E+00  0.57716382206E+03  0.98388953910E+03  0.79681901813E+03 0.  0.
        1    1    3    3  502    0 -0.45524230761E+02  0.13404246634E+03 -0.17126120935E+03  0.22219414984E+03  0.50400001928E-02 0. -1.
       -1    1    3    3    0  502  0.45524230761E+02 -0.13404246634E+03  0.74842503140E+03  0.76169538926E+03  0.50400001928E-02 0.  1.
</event>
<event>
 5   0  0.1119792E-02  0.7957898E+03  0.7818609E-02  0.9566131E-01
        2   -1    0    0  501    0  0.00000000000E+00  0.00000000000E+00  0.78871190168E+03  0.78871190169E+03  0.25500000920E-02 0. -1.
       -2   -1    0    0    0  501  0.00000000000E+00  0.00000000000E+00 -0.20073281281E+03  0.20073281283E+03  0.25500000920E-02 0.  1.
    10030    2    1    2    0    0  0.00000000000E+00  0.00000000000E+00  0.58797908887E+03  0.98944471451E+03  0.79578981781E+03 0.  0.
        4    1    3    3  502    0  0.13376512086E+03 -0.13604980677E+03  0.72812340927E+03  0.75270709410E+03  0.12699999809E+01 0. -1.
       -4    1    3    3    0  502 -0.13376512086E+03  0.13604980677E+03 -0.14014432040E+03  0.23673762042E+03  0.12699999809E+01 0.  1.
</event>
<event>
 5   0  0.6557679E-03  0.7998963E+03  0.7818609E-02  0.9560167E-01
        1   -1    0    0  501    0  0.00000000000E+00  0.00000000000E+00  0.10381678749E+04  0.10381678749E+04  0.50400001928E-02 0.  1.
       -1   -1    0    0    0  501  0.00000000000E+00  0.00000000000E+00 -0.15407770255E+03  0.15407770263E+03  0.50400001928E-02 0. -1.
    10030    2    1    2    0    0  0.00000000000E+00  0.00000000000E+00  0.88409017232E+03  0.11922455775E+04  0.79989629598E+03 0.  0.
        1    1    3    3  502    0 -0.19929164883E+03  0.74082203523E+02 -0.62865425302E+02  0.22171467226E+03  0.50400001928E-02 0. -1.
       -1    1    3    3    0  502  0.19929164883E+03 -0.74082203523E+02  0.94695559763E+03  0.97053090526E+03  0.50400001928E-02 0.  1.
</event>
<event>
 5   0  0.1119792E-02  0.7941986E+03  0.7818609E-02  0.9568453E-01
       -2   -1    0    0    0  501  0.00000000000E+00  0.00000000000E+00  0.17066529031E+03  0.17066529032E+03  0.25500000920E-02 0.  1.
        2   -1    0    0  501    0  0.00000000000E+00  0.00000000000E+00 -0.92395979958E+03  0.92395979958E+03  0.25500000920E-02 0. -1.
    10030    2    1    2    0    0  0.00000000000E+00  0.00000000000E+00 -0.75329450927E+03  0.10946250899E+04  0.79419863369E+03 0.  0.
        4    1    3    3  502    0 -0.24701063977E+02 -0.19382359713E+03 -0.85311741363E+03  0.87520778316E+03  0.12699999809E+01 0. -1.
       -4    1    3    3    0  502  0.24701063977E+02  0.19382359713E+03  0.99822904358E+02  0.21941730675E+03  0.12699999809E+01 0.  1.
</event>
<event>
 5   0  0.1154714E-02  0.7952654E+03  0.7818609E-02  0.9566896E-01
        2   -1    0    0  501    0  0.00000000000E+00  0.00000000000E+00  0.33160745028E+03  0.33160745029E+03  0.25500000920E-02 0. -1.
       -2   -1    0    0    0  501  0.00000000000E+00  0.00000000000E+00 -0.47680397376E+03  0.47680397377E+03  0.25500000920E-02 0.  1.
    10030    2    1    2    0    0  0.00000000000E+00  0.00000000000E+00 -0.14519652348E+03  0.80841142406E+03  0.79526536459E+03 0.  0.
        5    1    3    3  502    0  0.26431644198E+03  0.15534842045E+03 -0.32994984748E+03  0.45042791331E+03  0.46999998093E+01 0.  1.
       -5    1    3    3    0  502 -0.26431644198E+03 -0.15534842045E+03  0.18475332401E+03  0.35798351075E+03  0.46999998093E+01 0. -1.
</event>
<event>
 5   0  0.6551489E-03  0.7953861E+03  0.7818609E-02  0.9566720E-01
        1   -1    0    0  501    0  0.00000000000E+00  0.00000000000E+00  0.55217418830E+03  0.55217418832E+03  0.50400001928E-02 0. -1.
       -1   -1    0    0    0  501  0.00000000000E+00  0.00000000000E+00 -0.28643090223E+03  0.28643090228E+03  0.50400001928E-02 0.  1.
    10030    2    1    2    0    0  0.00000000000E+00  0.00000000000E+00  0.26574328606E+03  0.83860509060E+03  0.79538607223E+03 0.  0.
        4    1    3    3  502    0 -0.18178356774E+03  0.31310724219E+03  0.30636290229E+03  0.47427971853E+03  0.12699999809E+01 0.  1.
       -4    1    3    3    0  502  0.18178356774E+03 -0.31310724219E+03 -0.40619616230E+02  0.36432537207E+03  0.12699999809E+01 0. -1.
</event>
<event>
 5   0  0.1154714E-02  0.7939086E+03  0.7818609E-02  0.9568876E-01
       -2   -1    0    0    0  501  0.00000000000E+00  0.00000000000E+00  0.24329623358E+03  0.24329623359E+03  0.25500000920E-02 0.  1.
        2   -1    0    0  501    0  0.00000000000E+00  0.00000000000E+00 -0.64765784326E+03  0.64765784327E+03  0.25500000920E-02 0. -1.
    10030    2    1    2    0    0  0.00000000000E+00  0.00000000000E+00 -0.40436160968E+03  0.89095407686E+03  0.79390859404E+03 0.  0.
        5    1    3    3  502    0 -0.21627511640E+03 -0.28073419543E+03 -0.15417646691E+01  0.35441653671E+03  0.46999998093E+01 0.  1.
       -5    1    3    3    0  502  0.21627511640E+03  0.28073419543E+03 -0.40281984501E+03  0.53653754015E+03  0.46999998093E+01 0. -1.
</event>
<event>
 5   0  0.4385875E-03  0.7994425E+03  0.7818609E-02  0.9560824E-01
       -4   -1    0    0    0  501  0.00000000000E+00  0.00000000000E+00  0.39173174294E+03  0.39173380161E+03  0.12699999809E+01 0.  1.
        4   -1    0    0  501    0  0.00000000000E+00  0.00000000000E+00 -0.40786954796E+03  0.40787152518E+03  0.12699999809E+01 0. -1.
    10030    2    1    2    0    0  0.00000000000E+00  0.00000000000E+00 -0.16137805019E+02  0.79960532679E+03  0.79944246190E+03 0.  0.
        3    1    3    3  502    0  0.37772068799E+02  0.37682026695E+03  0.11985089542E+03  0.39722095879E+03  0.10100000352E+00 0.  1.
       -3    1    3    3    0  502 -0.37772068799E+02 -0.37682026695E+03 -0.13598870044E+03  0.40238436801E+03  0.10100000352E+00 0. -1.
</event>
<event>
 5   0  0.1121480E-02  0.7301983E+03  0.7818609E-02  0.9666939E-01
       -2   -1    0    0    0  501  0.00000000000E+00  0.00000000000E+00  0.12839033637E+04  0.12839033637E+04  0.25500000920E-02 0.  1.
        2   -1    0    0  501    0  0.00000000000E+00  0.00000000000E+00 -0.10382197463E+03  0.10382197466E+03  0.25500000920E-02 0. -1.
    10030    2    1    2    0    0  0.00000000000E+00  0.00000000000E+00  0.11800813891E+04  0.13877253384E+04  0.73019828123E+03 0.  0.
        2    1    3    3  502    0  0.19555130629E+03 -0.13082461206E+03  0.11206177395E+04  0.11450500036E+04  0.25500000920E-02 0.  1.
       -2    1    3    3    0  502 -0.19555130629E+03  0.13082461206E+03  0.59463649585E+02  0.24267533484E+03  0.25500000920E-02 0. -1.
</event>
<event>
 5   0  0.6517392E-03  0.8030951E+03  0.7818609E-02  0.9555548E-01
       -1   -1    0    0    0  501  0.00000000000E+00  0.00000000000E+00  0.28342792570E+03  0.28342792575E+03  0.50400001928E-02 0.  1.
        1   -1    0    0  501    0  0.00000000000E+00  0.00000000000E+00 -0.56889391682E+03  0.56889391685E+03  0.50400001928E-02 0. -1.
    10030    2    1    2    0    0  0.00000000000E+00  0.00000000000E+00 -0.28546599112E+03  0.85232184259E+03  0.80309506989E+03 0.  0.
        3    1    3    3  502    0  0.36309075424E+03  0.15167705465E+03 -0.57832023522E+02  0.39772525425E+03  0.10100000352E+00 0.  1.
       -3    1    3    3    0  502 -0.36309075424E+03 -0.15167705465E+03 -0.22763396760E+03  0.45459658834E+03  0.10100000352E+00 0. -1.
</event>
</LesHouchesEvents>
