<LesHouchesEvents version="3.0">
<header>
<!--
#*********************************************************************
#                                                                    *
#                        MadGraph5_aMC@NLO                           *
#                                                                    *
#                           Going Beyond                             *
#                                                                    *
#                   http://madgraph.hep.uiuc.edu                     *
#                   http://madgraph.phys.ucl.ac.be                   *
#                   http://amcatnlo.cern.ch                          *
#                                                                    *
#                     The MadGraph5_aMC@NLO team                     *
#                                                                    *
#....................................................................*
#                                                                    *
# This file contains all the information necessary to reproduce      *
# the events generated:                                              *
#                                                                    *
# 1. software version                                                *
# 2. proc_card          : code generation info including model       *
# 3. param_card         : model primary parameters in the LH format  *
# 4. run_card           : running parameters (collider and cuts)     *
# 5. pythia_card        : present only if pythia has been run        *
# 6. pgs_card           : present only if pgs has been run           *
# 7. delphes_cards      : present only if delphes has been run       *
#                                                                    *
#                                                                    *
#*********************************************************************
-->
<MGVersion>
#5.2.2.3
</MGVersion>
<MG5ProcCard>
#************************************************************
#*                     MadGraph5_aMC@NLO                    *
#*                                                          *
#*                *                       *                 *
#*                  *        * *        *                   *
#*                    * * * * 5 * * * *                     *
#*                  *        * *        *                   *
#*                *                       *                 *
#*                                                          *
#*                                                          *
#*         VERSION 2.2.3                 2015-02-10         *
#*                                                          *
#*    The MadGraph5_aMC@NLO Development Team - Find us at   *
#*    https://server06.fynu.ucl.ac.be/projects/madgraph     *
#*                                                          *
#************************************************************
#*                                                          *
#*               Command File for MadGraph5_aMC@NLO         *
#*                                                          *
#*     run as ./bin/mg5_aMC  filename                       *
#*                                                          *
#************************************************************
set group_subprocesses Auto
set ignore_six_quark_processes False
set loop_optimized_output True
set gauge unitary
set complex_mass_scheme False
import model sm
define p = g u c d s u~ c~ d~ s~
define j = g u c d s u~ c~ d~ s~
define l+ = e+ mu+
define l- = e- mu-
define vl = ve vm vt
define vl~ = ve~ vm~ vt~
import model Zprime_UFO
generate p p > zph, zph > j j
add process p p > zph, zph > b b~
output Dijet_signal
</MG5ProcCard>
<MGProcCard>
#*********************************************************************
#                        MadGraph/MadEvent                           *
#                   http://madgraph.hep.uiuc.edu                     *
#                                                                    *
#                          proc_card.dat                             *
#*********************************************************************
#                                                                    *
#            This Files is generated by MADGRAPH 5                   *
#                                                                    *
# WARNING: This Files is generated for MADEVENT (compatibility issue)*
#          This files is NOT a valid MG4 proc_card.dat               *
#          Running this in MG4 will NEVER reproduce the result of MG5*
#                                                                    *
#*********************************************************************
#*********************************************************************
# Process(es) requested : mg2 input                                  *
#*********************************************************************
# Begin PROCESS # This is TAG. Do not modify this line
p p > zph , zph > j j           #Process
# Be carefull the coupling are here in MG5 convention
          
end_coup           # End the couplings input

done               # this tells MG there are no more procs
# End PROCESS  # This is TAG. Do not modify this line
#*********************************************************************
# Model information                                                  *
#*********************************************************************
# Begin MODEL  # This is TAG. Do not modify this line
Zprime_UFO
# End   MODEL  # This is TAG. Do not modify this line
#*********************************************************************
# Start multiparticle definitions                                    *
#*********************************************************************
# Begin MULTIPARTICLES # This is TAG. Do not modify this line

# End  MULTIPARTICLES # This is TAG. Do not modify this line
</MGProcCard>
<MGRunCard>
#*********************************************************************
#                       MadGraph5_aMC@NLO                            *
#                                                                    *
#                     run_card.dat MadEvent                          *
#                                                                    *
#  This file is used to set the parameters of the run.               *
#                                                                    *
#  Some notation/conventions:                                        *
#                                                                    *
#   Lines starting with a '# ' are info or comments                  *
#                                                                    *
#   mind the format:   value    = variable     ! comment             *
#*********************************************************************
#
#*******************                                                 
# Running parameters
#*******************                                                 
#                                                                    
#*********************************************************************
# Tag name for the run (one word)                                    *
#*********************************************************************
  tag_1     = run_tag ! name of the run 
#*********************************************************************
# Run to generate the grid pack                                      *
#*********************************************************************
  .false.     = gridpack  !True = setting up the grid pack
#*********************************************************************
# Number of events and rnd seed                                      *
# Warning: Do not generate more than 1M events in a single run       *
# If you want to run Pythia, avoid more than 50k events in a run.    *
#*********************************************************************
  2000 = nevents ! Number of unweighted events requested 
 1209 = iseed   ! rnd seed (0=assigned automatically=default))
#*********************************************************************
# Collider type and energy                                           *
# lpp: 0=No PDF, 1=proton, -1=antiproton, 2=photon from proton,      *
#                                         3=photon from electron     *
#*********************************************************************
        1     = lpp1    ! beam 1 type 
        1     = lpp2    ! beam 2 type
     4000     = ebeam1  ! beam 1 total energy in GeV
     4000     = ebeam2  ! beam 2 total energy in GeV
#*********************************************************************
# Beam polarization from -100 (left-handed) to 100 (right-handed)    *
#*********************************************************************
        0     = polbeam1 ! beam polarization for beam 1
        0     = polbeam2 ! beam polarization for beam 2
#*********************************************************************
# PDF CHOICE: this automatically fixes also alpha_s and its evol.    *
#*********************************************************************
 'nn23lo1'    = pdlabel     ! PDF set                                     
 230000    = lhaid     ! if pdlabel=lhapdf, this is the lhapdf number
#*********************************************************************
# Renormalization and factorization scales                           *
#*********************************************************************
 F        = fixed_ren_scale  ! if .true. use fixed ren scale
 F        = fixed_fac_scale  ! if .true. use fixed fac scale
 91.1880  = scale            ! fixed ren scale
 91.1880  = dsqrt_q2fact1    ! fixed fact scale for pdf1
 91.1880  = dsqrt_q2fact2    ! fixed fact scale for pdf2
 1        = scalefact        ! scale factor for event-by-event scales
#*********************************************************************
# Matching - Warning! ickkw > 1 is still beta
#*********************************************************************
 0        = ickkw            ! 0 no matching, 1 MLM, 2 CKKW matching
 1        = highestmult      ! for ickkw=2, highest mult group
 1        = ktscheme         ! for ickkw=1, 1 Durham kT, 2 Pythia pTE
 1        = alpsfact         ! scale factor for QCD emission vx
 F        = chcluster        ! cluster only according to channel diag
 T        = pdfwgt           ! for ickkw=1, perform pdf reweighting
 5        = asrwgtflavor     ! highest quark flavor for a_s reweight
 T        = clusinfo         ! include clustering tag in output
 3.0      = lhe_version       ! Change the way clustering information pass to shower.        
#*********************************************************************
#**********************************************************
#
#**********************************************************
# Automatic ptj and mjj cuts if xqcut > 0
# (turn off for VBF and single top processes)
#**********************************************************
   T  = auto_ptj_mjj  ! Automatic setting of ptj and mjj
#**********************************************************
#                                                                    
#**********************************
# BW cutoff (M+/-bwcutoff*Gamma)
#**********************************
  15  = bwcutoff      ! (M+/-bwcutoff*Gamma)
#**********************************************************
# Apply pt/E/eta/dr/mij cuts on decay products or not
# (note that etmiss/ptll/ptheavy/ht/sorted cuts always apply)
#**********************************************************
   T  = cut_decays    ! Cut decay products 
#*************************************************************
# Number of helicities to sum per event (0 = all helicities)
# 0 gives more stable result, but longer run time (needed for
# long decay chains e.g.).
# Use >=2 if most helicities contribute, e.g. pure QCD.
#*************************************************************
   0  = nhel          ! Number of helicities used per event
#*******************                                                 
# Standard Cuts
#*******************                                                 
#                                                                    
#*********************************************************************
# Minimum and maximum pt's (for max, -1 means no cut)                *
#*********************************************************************
 20  = ptj       ! minimum pt for the jets 
  0  = ptb       ! minimum pt for the b 
 10  = pta       ! minimum pt for the photons 
 10  = ptl       ! minimum pt for the charged leptons 
  0  = misset    ! minimum missing Et (sum of neutrino's momenta)
  0  = ptheavy   ! minimum pt for one heavy final state
 1.0 = ptonium   ! minimum pt for the quarkonium states
 -1  = ptjmax    ! maximum pt for the jets
 -1  = ptbmax    ! maximum pt for the b
 -1  = ptamax    ! maximum pt for the photons
 -1  = ptlmax    ! maximum pt for the charged leptons
 -1  = missetmax ! maximum missing Et (sum of neutrino's momenta)
#*********************************************************************
# Minimum and maximum E's (in the center of mass frame)              *
#*********************************************************************
  0  = ej     ! minimum E for the jets 
  0  = eb     ! minimum E for the b 
  0  = ea     ! minimum E for the photons 
  0  = el     ! minimum E for the charged leptons 
 -1   = ejmax ! maximum E for the jets
 -1   = ebmax ! maximum E for the b
 -1   = eamax ! maximum E for the photons
 -1   = elmax ! maximum E for the charged leptons
#*********************************************************************
# Maximum and minimum absolute rapidity (for max, -1 means no cut)   *
#*********************************************************************
   5  = etaj    ! max rap for the jets 
  -1  = etab    ! max rap for the b
 2.5  = etaa    ! max rap for the photons 
 2.5  = etal    ! max rap for the charged leptons 
 0.6  = etaonium ! max rap for the quarkonium states
   0  = etajmin ! min rap for the jets
   0  = etabmin ! min rap for the b
   0  = etaamin ! min rap for the photons
   0  = etalmin ! main rap for the charged leptons
#*********************************************************************
# Minimum and maximum DeltaR distance                                *
#*********************************************************************
 0.4 = drjj    ! min distance between jets 
 0   = drbb    ! min distance between b's 
 0.4 = drll    ! min distance between leptons 
 0.4 = draa    ! min distance between gammas 
 0   = drbj    ! min distance between b and jet 
 0.4 = draj    ! min distance between gamma and jet 
 0.4 = drjl    ! min distance between jet and lepton 
 0   = drab    ! min distance between gamma and b 
 0   = drbl    ! min distance between b and lepton 
 0.4 = dral    ! min distance between gamma and lepton 
 -1  = drjjmax ! max distance between jets
 -1  = drbbmax ! max distance between b's
 -1  = drllmax ! max distance between leptons
 -1  = draamax ! max distance between gammas
 -1  = drbjmax ! max distance between b and jet
 -1  = drajmax ! max distance between gamma and jet
 -1  = drjlmax ! max distance between jet and lepton
 -1  = drabmax ! max distance between gamma and b
 -1  = drblmax ! max distance between b and lepton
 -1  = dralmax ! maxdistance between gamma and lepton
#*********************************************************************
# Minimum and maximum invariant mass for pairs                       *
# WARNING: for four lepton final state mmll cut require to have      *
#          different lepton masses for each flavor!                  *           
#*********************************************************************
 0   = mmjj    ! min invariant mass of a jet pair 
 0   = mmbb    ! min invariant mass of a b pair 
 0   = mmaa    ! min invariant mass of gamma gamma pair
 0   = mmll    ! min invariant mass of l+l- (same flavour) lepton pair
 -1  = mmjjmax ! max invariant mass of a jet pair
 -1  = mmbbmax ! max invariant mass of a b pair
 -1  = mmaamax ! max invariant mass of gamma gamma pair
 -1  = mmllmax ! max invariant mass of l+l- (same flavour) lepton pair
#*********************************************************************
# Minimum and maximum invariant mass for all letpons                 *
#*********************************************************************
 0   = mmnl    ! min invariant mass for all letpons (l+- and vl) 
 -1  = mmnlmax ! max invariant mass for all letpons (l+- and vl) 
#*********************************************************************
# Minimum and maximum pt for 4-momenta sum of leptons                *
#*********************************************************************
 0   = ptllmin  ! Minimum pt for 4-momenta sum of leptons(l and vl)
 -1  = ptllmax  ! Maximum pt for 4-momenta sum of leptons(l and vl)
#*********************************************************************
# Inclusive cuts                                                     *
#*********************************************************************
 0  = xptj ! minimum pt for at least one jet  
 0  = xptb ! minimum pt for at least one b 
 0  = xpta ! minimum pt for at least one photon 
 0  = xptl ! minimum pt for at least one charged lepton 
#*********************************************************************
# Control the pt's of the jets sorted by pt                          *
#*********************************************************************
 0   = ptj1min ! minimum pt for the leading jet in pt
 0   = ptj2min ! minimum pt for the second jet in pt
 0   = ptj3min ! minimum pt for the third jet in pt
 0   = ptj4min ! minimum pt for the fourth jet in pt
 -1  = ptj1max ! maximum pt for the leading jet in pt 
 -1  = ptj2max ! maximum pt for the second jet in pt
 -1  = ptj3max ! maximum pt for the third jet in pt
 -1  = ptj4max ! maximum pt for the fourth jet in pt
 0   = cutuse  ! reject event if fails any (0) / all (1) jet pt cuts
#*********************************************************************
# Control the pt's of leptons sorted by pt                           *
#*********************************************************************
 0   = ptl1min ! minimum pt for the leading lepton in pt
 0   = ptl2min ! minimum pt for the second lepton in pt
 0   = ptl3min ! minimum pt for the third lepton in pt
 0   = ptl4min ! minimum pt for the fourth lepton in pt
 -1  = ptl1max ! maximum pt for the leading lepton in pt 
 -1  = ptl2max ! maximum pt for the second lepton in pt
 -1  = ptl3max ! maximum pt for the third lepton in pt
 -1  = ptl4max ! maximum pt for the fourth lepton in pt
#*********************************************************************
# Control the Ht(k)=Sum of k leading jets                            *
#*********************************************************************
 0   = htjmin ! minimum jet HT=Sum(jet pt)
 -1  = htjmax ! maximum jet HT=Sum(jet pt)
 0   = ihtmin  !inclusive Ht for all partons (including b)
 -1  = ihtmax  !inclusive Ht for all partons (including b)
 0   = ht2min ! minimum Ht for the two leading jets
 0   = ht3min ! minimum Ht for the three leading jets
 0   = ht4min ! minimum Ht for the four leading jets
 -1  = ht2max ! maximum Ht for the two leading jets
 -1  = ht3max ! maximum Ht for the three leading jets
 -1  = ht4max ! maximum Ht for the four leading jets
#***********************************************************************
# Photon-isolation cuts, according to hep-ph/9801442                   *
# When ptgmin=0, all the other parameters are ignored                  *
# When ptgmin>0, pta and draj are not going to be used                 *
#***********************************************************************
   0 = ptgmin ! Min photon transverse momentum
 0.4 = R0gamma ! Radius of isolation code
 1.0 = xn ! n parameter of eq.(3.4) in hep-ph/9801442
 1.0 = epsgamma ! epsilon_gamma parameter of eq.(3.4) in hep-ph/9801442
 .true. = isoEM ! isolate photons from EM energy (photons and leptons)
#*********************************************************************
# WBF cuts                                                           *
#*********************************************************************
 0   = xetamin ! minimum rapidity for two jets in the WBF case  
 0   = deltaeta ! minimum rapidity for two jets in the WBF case 
#*********************************************************************
# KT DURHAM CUT                                                      *
#*********************************************************************
 -1    =  ktdurham        
 0.4  =  dparameter 
#*********************************************************************
# maximal pdg code for quark to be considered as a light jet         *
# (otherwise b cuts are applied)                                     *
#*********************************************************************
 4 = maxjetflavor    ! Maximum jet pdg code
#*********************************************************************
# Jet measure cuts                                                   *
#*********************************************************************
 0   = xqcut   ! minimum kt jet measure between partons
#*********************************************************************
#
#*********************************************************************
# Store info for systematics studies                                 *
# WARNING: If use_syst is T, matched Pythia output is                *
#          meaningful ONLY if plotted taking matchscale              *
#          reweighting into account!                                 *
#*********************************************************************
   F  = use_syst      ! Enable systematics studies
#
#**************************************
# Parameter of the systematics study
#  will be used by SysCalc (if installed)
#**************************************                                  
#
0.5 1 2 = sys_scalefact  # factorization/renormalization scale factor
0.5 1 2 = sys_alpsfact  # \alpha_s emission scale factors
30 50 = sys_matchscale # variation of merging scale
# PDF sets and number of members (0 or none for all members).
CT10nlo.LHgrid = sys_pdf # matching scales
# MSTW2008nlo68cl.LHgrid 1  = sys_pdf
</MGRunCard>
<slha>
######################################################################
## PARAM_CARD AUTOMATICALY GENERATED BY MG5 FOLLOWING UFO MODEL   ####
######################################################################
##                                                                  ##
##  Width set on Auto will be computed following the information    ##
##        present in the decay.py files of the model.               ##
##        See  arXiv:1402.1178 for more details.                    ##
##                                                                  ##
######################################################################

###################################
## INFORMATION FOR CKMBLOCK
###################################
Block ckmblock 
    1 2.277360e-01 # cabi 

###################################
## INFORMATION FOR FRBLOCK
###################################
Block frblock 
    1 6.000000e-01 # gz 

###################################
## INFORMATION FOR MASS
###################################
Block mass 
    1 5.040000e-03 # MD 
    2 2.550000e-03 # MU 
    3 1.010000e-01 # MS 
    4 1.270000e+00 # MC 
    5 4.700000e+00 # MB 
    6 1.720000e+02 # MT 
   11 5.110000e-04 # Me 
   13 1.056600e-01 # MM 
   15 1.777000e+00 # MTA 
   23 9.118760e+01 # MZ 
   25 1.200000e+02 # MH 
  10030 1.200000e+03 # MZph 
  10031 3.000000e+02 # MZpl 
## Dependent parameters, given by model restrictions.
## Those values should be edited following the 
## analytical expression. MG5 ignores those values 
## but they are important for interfacing the output of MG5
## to external program such as Pythia.
  12 0.000000 # ve : 0.0 
  14 0.000000 # vm : 0.0 
  16 0.000000 # vt : 0.0 
  21 0.000000 # g : 0.0 
  22 0.000000 # a : 0.0 
  24 79.824360 # w+ : cmath.sqrt(MZ__exp__2/2. + cmath.sqrt(MZ__exp__4/4. - (aEW*cmath.pi*MZ__exp__2)/(Gf*sqrt__2))) 

###################################
## INFORMATION FOR SMINPUTS
###################################
Block sminputs 
    1 1.279000e+02 # aEWM1 
    2 1.166370e-05 # Gf 
    3 1.184000e-01 # aS 

###################################
## INFORMATION FOR YUKAWA
###################################
Block yukawa 
    1 5.040000e-03 # ymdo 
    2 2.550000e-03 # ymup 
    3 1.010000e-01 # yms 
    4 1.270000e+00 # ymc 
    5 4.700000e+00 # ymb 
    6 1.720000e+02 # ymt 
   11 5.110000e-04 # yme 
   13 1.056600e-01 # ymm 
   15 1.777000e+00 # ymtau 

###################################
## INFORMATION FOR DECAY
###################################
DECAY   6 1.508336e+00 # WT 
DECAY  23 2.495200e+00 # WZ 
DECAY  24 2.085000e+00 # WW 
DECAY  25 5.753088e-03 # WH 
## Dependent parameters, given by model restrictions.
## Those values should be edited following the 
## analytical expression. MG5 ignores those values 
## but they are important for interfacing the output of MG5
## to external program such as Pythia.
DECAY  1 0.000000 # d : 0.0 
DECAY  2 0.000000 # u : 0.0 
DECAY  3 0.000000 # s : 0.0 
DECAY  4 0.000000 # c : 0.0 
DECAY  5 0.000000 # b : 0.0 
DECAY  11 0.000000 # e- : 0.0 
DECAY  12 0.000000 # ve : 0.0 
DECAY  13 0.000000 # mu- : 0.0 
DECAY  14 0.000000 # vm : 0.0 
DECAY  15 0.000000 # ta- : 0.0 
DECAY  16 0.000000 # vt : 0.0 
DECAY  21 0.000000 # g : 0.0 
DECAY  22 0.000000 # a : 0.0 
DECAY  10030 0.308725 # zph : (gz__exp__2*MZph*(5 + cmath.sqrt(1 - (4*MT__exp__2)/MZph__exp__2)))/(144.*cmath.pi) 
DECAY  10031 0.132629 # zpl : (5*gz__exp__2*MZpl)/(144.*cmath.pi) 
#===========================================================
# QUANTUM NUMBERS OF NEW STATE(S) (NON SM PDG CODE)
#===========================================================

Block QNUMBERS 10030  # zph 
        1 0  # 3 times electric charge
        2 3  # number of spin states (2S+1)
        3 1  # colour rep (1: singlet, 3: triplet, 8: octet)
        4 0  # Particle/Antiparticle distinction (0=own anti)
Block QNUMBERS 10031  # zpl 
        1 0  # 3 times electric charge
        2 3  # number of spin states (2S+1)
        3 1  # colour rep (1: singlet, 3: triplet, 8: octet)
        4 0  # Particle/Antiparticle distinction (0=own anti)
</slha>
## END BANNER##
<MGGenerationInfo>
#  Number of Events        :         3987
#  Integrated weight (pb)  :  0.27629E+00
#  Max wgt                 :  0.94107E-04
#  Average wgt             :  0.69298E-04
</MGGenerationInfo>
</header>
<init>
     2212     2212  0.40000000000E+04  0.40000000000E+04 0 0  247000  247000 2   1
  0.27661706438E+00  0.51522919277E-03  0.94106660000E-04   0
</init>
<event>
 5   0  0.9298693E-04  0.1199526E+04  0.7818609E-02  0.9113271E-01
        2   -1    0    0  501    0  0.00000000000E+00  0.00000000000E+00  0.53771943948E+03  0.53771943948E+03  0.25500000920E-02 0.  1.
       -2   -1    0    0    0  501  0.00000000000E+00  0.00000000000E+00 -0.66896561112E+03  0.66896561112E+03  0.25500000920E-02 0. -1.
    10030    2    1    2    0    0  0.00000000000E+00  0.00000000000E+00 -0.13124617164E+03  0.12066850506E+04  0.11995262622E+04 0.  0.
        1    1    3    3  502    0 -0.58910877612E+03 -0.91100110678E+02 -0.13210404934E+03  0.61057338637E+03  0.50400001928E-02 0.  1.
       -1    1    3    3    0  502  0.58910877612E+03  0.91100110678E+02  0.85787769961E+00  0.59611166424E+03  0.50400001928E-02 0. -1.
</event>
<event>
 5   0  0.9298693E-04  0.1195990E+04  0.7818609E-02  0.9116374E-01
       -2   -1    0    0    0  501  0.00000000000E+00  0.00000000000E+00  0.34835976590E+03  0.34835976591E+03  0.25500000920E-02 0. -1.
        2   -1    0    0  501    0  0.00000000000E+00  0.00000000000E+00 -0.10265190824E+04  0.10265190824E+04  0.25500000920E-02 0.  1.
    10030    2    1    2    0    0  0.00000000000E+00  0.00000000000E+00 -0.67815931654E+03  0.13748788483E+04  0.11959898783E+04 0.  0.
        1    1    3    3  502    0 -0.34592804654E+03 -0.23692116532E+03  0.15107595402E+03  0.44567005269E+03  0.50400001928E-02 0. -1.
       -1    1    3    3    0  502  0.34592804654E+03  0.23692116532E+03 -0.82923527056E+03  0.92920879565E+03  0.50400001928E-02 0.  1.
</event>
<event>
 5   0  0.9050363E-04  0.1215079E+04  0.7818609E-02  0.9099760E-01
        2   -1    0    0  501    0  0.00000000000E+00  0.00000000000E+00  0.95400758848E+03  0.95400758848E+03  0.25500000920E-02 0. -1.
       -2   -1    0    0    0  501  0.00000000000E+00  0.00000000000E+00 -0.38689835502E+03  0.38689835502E+03  0.25500000920E-02 0.  1.
    10030    2    1    2    0    0  0.00000000000E+00  0.00000000000E+00  0.56710923346E+03  0.13409059435E+04  0.12150785434E+04 0.  0.
        3    1    3    3  502    0  0.18280474747E+03 -0.50911030377E+03 -0.21659794783E+02  0.54136866737E+03  0.10100000352E+00 0. -1.
       -3    1    3    3    0  502 -0.18280474747E+03  0.50911030377E+03  0.58876902824E+03  0.79953727613E+03  0.10100000352E+00 0.  1.
</event>
<event>
 5   0  0.9298693E-04  0.1205833E+04  0.7818609E-02  0.9107766E-01
        2   -1    0    0  501    0  0.00000000000E+00  0.00000000000E+00  0.58062248347E+03  0.58062248348E+03  0.25500000920E-02 0.  1.
       -2   -1    0    0    0  501  0.00000000000E+00  0.00000000000E+00 -0.62606674705E+03  0.62606674705E+03  0.25500000920E-02 0. -1.
    10030    2    1    2    0    0  0.00000000000E+00  0.00000000000E+00 -0.45444263573E+02  0.12066892305E+04  0.12058332049E+04 0.  0.
        1    1    3    3  502    0  0.11991249948E+03 -0.46929676615E+03  0.33654522152E+03  0.58981450338E+03  0.50400001928E-02 0.  1.
       -1    1    3    3    0  502 -0.11991249948E+03  0.46929676615E+03 -0.38198948509E+03  0.61687472715E+03  0.50400001928E-02 0. -1.
</event>
<event>
 5   0  0.9050363E-04  0.1194868E+04  0.7818609E-02  0.9117360E-01
        2   -1    0    0  501    0  0.00000000000E+00  0.00000000000E+00  0.13521510818E+03  0.13521510820E+03  0.25500000920E-02 0.  1.
       -2   -1    0    0    0  501  0.00000000000E+00  0.00000000000E+00 -0.26397016726E+04  0.26397016726E+04  0.25500000920E-02 0. -1.
    10030    2    1    2    0    0  0.00000000000E+00  0.00000000000E+00 -0.25044865644E+04  0.27749167808E+04  0.11948682727E+04 0.  0.
        3    1    3    3  502    0  0.45561410645E+03  0.34116466179E+03 -0.83068500511E+03  0.10069831818E+04  0.10100000352E+00 0.  1.
       -3    1    3    3    0  502 -0.45561410645E+03 -0.34116466179E+03 -0.16738015593E+04  0.17679335990E+04  0.10100000352E+00 0. -1.
</event>
<event>
 5   0  0.5001586E-04  0.1190109E+04  0.7818609E-02  0.9121559E-01
       -1   -1    0    0    0  501  0.00000000000E+00  0.00000000000E+00  0.54246666530E+03  0.54246666533E+03  0.50400001928E-02 0. -1.
        1   -1    0    0  501    0  0.00000000000E+00  0.00000000000E+00 -0.65274004492E+03  0.65274004494E+03  0.50400001928E-02 0.  1.
    10030    2    1    2    0    0  0.00000000000E+00  0.00000000000E+00 -0.11027337962E+03  0.11952067103E+04  0.11901087606E+04 0.  0.
        1    1    3    3  502    0 -0.20847423360E+02 -0.13323542388E+03  0.52691772130E+03  0.54390125785E+03  0.50400001928E-02 0. -1.
       -1    1    3    3    0  502  0.20847423360E+02  0.13323542388E+03 -0.63719110092E+03  0.65130545243E+03  0.50400001928E-02 0.  1.
</event>
<event>
 5   0  0.5003507E-04  0.1200321E+04  0.7818609E-02  0.9112576E-01
        1   -1    0    0  501    0  0.00000000000E+00  0.00000000000E+00  0.18918998804E+04  0.18918998804E+04  0.50400001928E-02 0. -1.
       -1   -1    0    0    0  501  0.00000000000E+00  0.00000000000E+00 -0.19038673349E+03  0.19038673356E+03  0.50400001928E-02 0.  1.
    10030    2    1    2    0    0  0.00000000000E+00  0.00000000000E+00  0.17015131469E+04  0.20822866139E+04  0.12003210210E+04 0.  0.
        3    1    3    3  502    0 -0.10684939116E+03 -0.79049232604E+01  0.18751749987E+04  0.18782333631E+04  0.10100000352E+00 0. -1.
       -3    1    3    3    0  502  0.10684939116E+03  0.79049232604E+01 -0.17366185183E+03  0.20405325086E+03  0.10100000352E+00 0.  1.
</event>
<event>
 5   0  0.9298693E-04  0.1248975E+04  0.7818609E-02  0.9071036E-01
        2   -1    0    0  501    0  0.00000000000E+00  0.00000000000E+00  0.24115156838E+03  0.24115156840E+03  0.25500000920E-02 0. -1.
       -2   -1    0    0    0  501  0.00000000000E+00  0.00000000000E+00 -0.16171775149E+04  0.16171775149E+04  0.25500000920E-02 0.  1.
    10030    2    1    2    0    0  0.00000000000E+00  0.00000000000E+00 -0.13760259466E+04  0.18583290833E+04  0.12489754106E+04 0.  0.
        1    1    3    3  502    0  0.29790587493E+02 -0.18691564097E+03  0.19744604260E+03  0.27351394061E+03  0.50400001928E-02 0. -1.
       -1    1    3    3    0  502 -0.29790587493E+02  0.18691564097E+03 -0.15734719892E+04  0.15848151427E+04  0.50400001928E-02 0.  1.
</event>
<event>
 5   0  0.5052959E-04  0.1193927E+04  0.7818609E-02  0.9118189E-01
        1   -1    0    0  501    0  0.00000000000E+00  0.00000000000E+00  0.40913405858E+03  0.40913405862E+03  0.50400001928E-02 0.  1.
       -1   -1    0    0    0  501  0.00000000000E+00  0.00000000000E+00 -0.87102397684E+03  0.87102397685E+03  0.50400001928E-02 0. -1.
    10030    2    1    2    0    0  0.00000000000E+00  0.00000000000E+00 -0.46188991825E+03  0.12801580355E+04  0.11939272588E+04 0.  0.
        2    1    3    3  502    0  0.18535383770E+03 -0.36800804653E+03 -0.69409084035E+03  0.80718527125E+03  0.25500000920E-02 0. -1.
       -2    1    3    3    0  502 -0.18535383770E+03  0.36800804653E+03  0.23220092210E+03  0.47297276421E+03  0.25500000920E-02 0.  1.
</event>
<event>
 5   0  0.9050363E-04  0.1140954E+04  0.7818609E-02  0.9166169E-01
        2   -1    0    0  501    0  0.00000000000E+00  0.00000000000E+00  0.18728041649E+04  0.18728041649E+04  0.25500000920E-02 0.  1.
       -2   -1    0    0    0  501  0.00000000000E+00  0.00000000000E+00 -0.17377377643E+03  0.17377377645E+03  0.25500000920E-02 0. -1.
    10030    2    1    2    0    0  0.00000000000E+00  0.00000000000E+00  0.16990303885E+04  0.20465779414E+04  0.11409544290E+04 0.  0.
        3    1    3    3  502    0  0.12504306208E+03 -0.16865683905E+03 -0.10195184885E+03  0.23339898547E+03  0.10100000352E+00 0. -1.
       -3    1    3    3    0  502 -0.12504306208E+03  0.16865683905E+03  0.18009822373E+04  0.18131789559E+04  0.10100000352E+00 0.  1.
</event>
<event>
 5   0  0.3453625E-04  0.1199505E+04  0.7818609E-02  0.9113290E-01
       -4   -1    0    0    0  501  0.00000000000E+00  0.00000000000E+00  0.13857673580E+04  0.13857679400E+04  0.12699999809E+01 0. -1.
        4   -1    0    0  501    0  0.00000000000E+00  0.00000000000E+00 -0.25956750445E+03  0.25957061133E+03  0.12699999809E+01 0.  1.
    10030    2    1    2    0    0  0.00000000000E+00  0.00000000000E+00  0.11261998536E+04  0.16453385513E+04  0.11995052473E+04 0.  0.
        3    1    3    3  502    0 -0.58055450498E+03 -0.15399937406E+02  0.76849745621E+03  0.96325959208E+03  0.10100000352E+00 0. -1.
       -3    1    3    3    0  502  0.58055450498E+03  0.15399937406E+02  0.35770239736E+03  0.68207895922E+03  0.10100000352E+00 0.  1.
</event>
<event>
 5   0  0.9145224E-04  0.1198151E+04  0.7818609E-02  0.9114477E-01
        2   -1    0    0  501    0  0.00000000000E+00  0.00000000000E+00  0.18686530331E+04  0.18686530331E+04  0.25500000920E-02 0.  1.
       -2   -1    0    0    0  501  0.00000000000E+00  0.00000000000E+00 -0.19205890310E+03  0.19205890312E+03  0.25500000920E-02 0. -1.
    10030    2    1    2    0    0  0.00000000000E+00  0.00000000000E+00  0.16765941300E+04  0.20607119362E+04  0.11981509952E+04 0.  0.
        5    1    3    3  502    0  0.58259358424E+03  0.48146661819E+02  0.61315317713E+03  0.84717902126E+03  0.46999998093E+01 0.  1.
       -5    1    3    3    0  502 -0.58259358424E+03 -0.48146661819E+02  0.10634409528E+04  0.12135329149E+04  0.46999998093E+01 0. -1.
</event>
<event>
 5   0  0.5157631E-04  0.1201463E+04  0.7818609E-02  0.9111577E-01
       -1   -1    0    0    0  501  0.00000000000E+00  0.00000000000E+00  0.74293319285E+03  0.74293319287E+03  0.50400001928E-02 0. -1.
        1   -1    0    0  501    0  0.00000000000E+00  0.00000000000E+00 -0.48574774316E+03  0.48574774319E+03  0.50400001928E-02 0.  1.
    10030    2    1    2    0    0  0.00000000000E+00  0.00000000000E+00  0.25718544969E+03  0.12286809361E+04  0.12014626449E+04 0.  0.
        5    1    3    3  502    0  0.81876269875E+01  0.49053495628E+03  0.48309322402E+03  0.68854392282E+03  0.46999998093E+01 0. -1.
       -5    1    3    3    0  502 -0.81876269875E+01 -0.49053495628E+03 -0.22590777433E+03  0.54013701323E+03  0.46999998093E+01 0.  1.
</event>
<event>
 5   0  0.3453625E-04  0.1208719E+04  0.7818609E-02  0.9105259E-01
        3   -1    0    0  501    0  0.00000000000E+00  0.00000000000E+00  0.10924291188E+04  0.10924291234E+04  0.10100000352E+00 0.  1.
       -3   -1    0    0    0  501  0.00000000000E+00  0.00000000000E+00 -0.33434693630E+03  0.33434695156E+03  0.10100000352E+00 0. -1.
    10030    2    1    2    0    0  0.00000000000E+00  0.00000000000E+00  0.75808218246E+03  0.14267760750E+04  0.12087188973E+04 0.  0.
        5    1    3    3  502    0 -0.40200671885E+03  0.44964242310E+03  0.42384269408E+03  0.73719226120E+03  0.46999998093E+01 0.  1.
       -5    1    3    3    0  502  0.40200671885E+03 -0.44964242310E+03  0.33423948837E+03  0.68958381379E+03  0.46999998093E+01 0. -1.
</event>
<event>
 5   0  0.5001586E-04  0.1199324E+04  0.7818609E-02  0.9113448E-01
       -1   -1    0    0    0  501  0.00000000000E+00  0.00000000000E+00  0.76656221445E+03  0.76656221447E+03  0.50400001928E-02 0. -1.
        1   -1    0    0  501    0  0.00000000000E+00  0.00000000000E+00 -0.46910054947E+03  0.46910054949E+03  0.50400001928E-02 0.  1.
    10030    2    1    2    0    0  0.00000000000E+00  0.00000000000E+00  0.29746166498E+03  0.12356627640E+04  0.11993244032E+04 0.  0.
        1    1    3    3  502    0  0.26550943377E+03 -0.21516572426E+03 -0.35894968687E+03  0.49561721726E+03  0.50400001928E-02 0.  1.
       -1    1    3    3    0  502 -0.26550943377E+03  0.21516572426E+03  0.65641135185E+03  0.74004554670E+03  0.50400001928E-02 0. -1.
</event>
<event>
 5   0  0.5003507E-04  0.1207571E+04  0.7818609E-02  0.9106255E-01
       -1   -1    0    0    0  501  0.00000000000E+00  0.00000000000E+00  0.18474816899E+03  0.18474816906E+03  0.50400001928E-02 0.  1.
        1   -1    0    0  501    0  0.00000000000E+00  0.00000000000E+00 -0.19732636728E+04  0.19732636728E+04  0.50400001928E-02 0. -1.
    10030    2    1    2    0    0  0.00000000000E+00  0.00000000000E+00 -0.17885155039E+04  0.21580118419E+04  0.12075708684E+04 0.  0.
        3    1    3    3  502    0  0.50180095423E+03 -0.12359864613E+03 -0.33631442933E+03  0.61659405492E+03  0.10100000352E+00 0. -1.
       -3    1    3    3    0  502 -0.50180095423E+03  0.12359864613E+03 -0.14522010745E+04  0.15414177870E+04  0.10100000352E+00 0.  1.
</event>
<event>
 5   0  0.5003507E-04  0.1200472E+04  0.7818609E-02  0.9112443E-01
        1   -1    0    0  501    0  0.00000000000E+00  0.00000000000E+00  0.10282769033E+04  0.10282769033E+04  0.50400001928E-02 0.  1.
       -1   -1    0    0    0  501  0.00000000000E+00  0.00000000000E+00 -0.35037595762E+03  0.35037595766E+03  0.50400001928E-02 0. -1.
    10030    2    1    2    0    0  0.00000000000E+00  0.00000000000E+00  0.67790094565E+03  0.13786528609E+04  0.12004724149E+04 0.  0.
        3    1    3    3  502    0  0.48688315142E+03  0.34099333086E+03  0.24319742300E+03  0.64224345196E+03  0.10100000352E+00 0. -1.
       -3    1    3    3    0  502 -0.48688315142E+03 -0.34099333086E+03  0.43470352265E+03  0.73640940898E+03  0.10100000352E+00 0.  1.
</event>
<event>
 5   0  0.9298693E-04  0.1199491E+04  0.7818609E-02  0.9113302E-01
        2   -1    0    0  501    0  0.00000000000E+00  0.00000000000E+00  0.13429743254E+04  0.13429743254E+04  0.25500000920E-02 0.  1.
       -2   -1    0    0    0  501  0.00000000000E+00  0.00000000000E+00 -0.26783445922E+03  0.26783445923E+03  0.25500000920E-02 0. -1.
    10030    2    1    2    0    0  0.00000000000E+00  0.00000000000E+00  0.10751398662E+04  0.16108087846E+04  0.11994912291E+04 0.  0.
        1    1    3    3  502    0 -0.46388251956E+03  0.30621759937E+03  0.23507638316E+03  0.60350403152E+03  0.50400001928E-02 0. -1.
       -1    1    3    3    0  502  0.46388251956E+03 -0.30621759937E+03  0.84006348299E+03  0.10073047531E+04  0.50400001928E-02 0.  1.
</event>
<event>
 5   0  0.5447074E-04  0.1197019E+04  0.7818609E-02  0.9115470E-01
       -1   -1    0    0    0  501  0.00000000000E+00  0.00000000000E+00  0.34790803529E+03  0.34790803533E+03  0.50400001928E-02 0. -1.
        1   -1    0    0  501    0  0.00000000000E+00  0.00000000000E+00 -0.10296209253E+04  0.10296209253E+04  0.50400001928E-02 0.  1.
    10030    2    1    2    0    0  0.00000000000E+00  0.00000000000E+00 -0.68171288998E+03  0.13775289606E+04  0.11970186185E+04 0.  0.
        4    1    3    3  502    0  0.56375945248E+03 -0.17718605746E+03 -0.23172953129E+03  0.63475964568E+03  0.12699999809E+01 0. -1.
       -4    1    3    3    0  502 -0.56375945248E+03  0.17718605746E+03 -0.44998335869E+03  0.74276931494E+03  0.12699999809E+01 0.  1.
</event>
<event>
 5   0  0.5001586E-04  0.1205355E+04  0.7818609E-02  0.9108183E-01
        1   -1    0    0  501    0  0.00000000000E+00  0.00000000000E+00  0.25369917529E+03  0.25369917534E+03  0.50400001928E-02 0. -1.
       -1   -1    0    0    0  501  0.00000000000E+00  0.00000000000E+00 -0.14316953453E+04  0.14316953453E+04  0.50400001928E-02 0.  1.
    10030    2    1    2    0    0  0.00000000000E+00  0.00000000000E+00 -0.11779961700E+04  0.16853945207E+04  0.12053546008E+04 0.  0.
        1    1    3    3  502    0 -0.51453496588E+02 -0.12864997119E+03 -0.14091223011E+04  0.14159180544E+04  0.50400001928E-02 0.  1.
       -1    1    3    3    0  502  0.51453496588E+02  0.12864997119E+03  0.23112613104E+03  0.26947646627E+03  0.50400001928E-02 0. -1.
</event>
<event>
 5   0  0.9410666E-04  0.1199670E+04  0.7818609E-02  0.9113145E-01
        2   -1    0    0  501    0  0.00000000000E+00  0.00000000000E+00  0.41942233183E+03  0.41942233183E+03  0.25500000920E-02 0.  1.
       -2   -1    0    0    0  501  0.00000000000E+00  0.00000000000E+00 -0.85785179637E+03  0.85785179637E+03  0.25500000920E-02 0. -1.
    10030    2    1    2    0    0  0.00000000000E+00  0.00000000000E+00 -0.43842946454E+03  0.12772741282E+04  0.11996702894E+04 0.  0.
        2    1    3    3  502    0 -0.36817209352E+03  0.25153120928E+03  0.20796729959E+03  0.49200511928E+03  0.25500000920E-02 0.  1.
       -2    1    3    3    0  502  0.36817209352E+03 -0.25153120928E+03 -0.64639676414E+03  0.78526900893E+03  0.25500000920E-02 0. -1.
</event>
<event>
 5   0  0.5003507E-04  0.1187228E+04  0.7818609E-02  0.9124110E-01
       -1   -1    0    0    0  501  0.00000000000E+00  0.00000000000E+00  0.26408891884E+03  0.26408891889E+03  0.50400001928E-02 0. -1.
        1   -1    0    0  501    0  0.00000000000E+00  0.00000000000E+00 -0.13343149573E+04  0.13343149573E+04  0.50400001928E-02 0.  1.
    10030    2    1    2    0    0  0.00000000000E+00  0.00000000000E+00 -0.10702260384E+04  0.15984038762E+04  0.11872283597E+04 0.  0.
        3    1    3    3  502    0 -0.90242789299E+02  0.45571293539E+03 -0.37589508306E+02  0.46608048859E+03  0.10100000352E+00 0. -1.
       -3    1    3    3    0  502  0.90242789299E+02 -0.45571293539E+03 -0.10326365301E+04  0.11323233876E+04  0.10100000352E+00 0.  1.
</event>
<event>
 5   0  0.9050363E-04  0.1232970E+04  0.7818609E-02  0.9084477E-01
        2   -1    0    0  501    0  0.00000000000E+00  0.00000000000E+00  0.82109296718E+03  0.82109296718E+03  0.25500000920E-02 0.  1.
       -2   -1    0    0    0  501  0.00000000000E+00  0.00000000000E+00 -0.46286356964E+03  0.46286356964E+03  0.25500000920E-02 0. -1.
    10030    2    1    2    0    0  0.00000000000E+00  0.00000000000E+00  0.35822939754E+03  0.12839565368E+04  0.12329704324E+04 0.  0.
        3    1    3    3  502    0  0.22260784755E+02 -0.82400763929E+02  0.81490999737E+03  0.81936789201E+03  0.10100000352E+00 0.  1.
       -3    1    3    3    0  502 -0.22260784755E+02  0.82400763929E+02 -0.45668059983E+03  0.46458864482E+03  0.10100000352E+00 0. -1.
</event>
<event>
 5   0  0.5001586E-04  0.1202590E+04  0.7818609E-02  0.9110592E-01
       -1   -1    0    0    0  501  0.00000000000E+00  0.00000000000E+00  0.90535007239E+03  0.90535007241E+03  0.50400001928E-02 0. -1.
        1   -1    0    0  501    0  0.00000000000E+00  0.00000000000E+00 -0.39935486750E+03  0.39935486753E+03  0.50400001928E-02 0.  1.
    10030    2    1    2    0    0  0.00000000000E+00  0.00000000000E+00  0.50599520490E+03  0.13047049399E+04  0.12025904677E+04 0.  0.
        1    1    3    3  502    0  0.37030834476E+03  0.37942622005E+03 -0.54749395200E+02  0.53300095963E+03  0.50400001928E-02 0.  1.
       -1    1    3    3    0  502 -0.37030834476E+03 -0.37942622005E+03  0.56074460010E+03  0.77170398031E+03  0.50400001928E-02 0. -1.
</event>
<event>
 5   0  0.9410666E-04  0.1211702E+04  0.7818609E-02  0.9102675E-01
        2   -1    0    0  501    0  0.00000000000E+00  0.00000000000E+00  0.10903690550E+04  0.10903690550E+04  0.25500000920E-02 0.  1.
       -2   -1    0    0    0  501  0.00000000000E+00  0.00000000000E+00 -0.33663420599E+03  0.33663420600E+03  0.25500000920E-02 0. -1.
    10030    2    1    2    0    0  0.00000000000E+00  0.00000000000E+00  0.75373484898E+03  0.14270032610E+04  0.12117021434E+04 0.  0.
        2    1    3    3  502    0 -0.23196587111E+02  0.16257078441E+02  0.10895887799E+04  0.10899569182E+04  0.25500000920E-02 0.  1.
       -2    1    3    3    0  502  0.23196587111E+02 -0.16257078441E+02 -0.33585393092E+03  0.33704634277E+03  0.25500000920E-02 0. -1.
</event>
<event>
 5   0  0.5052959E-04  0.1202319E+04  0.7818609E-02  0.9110829E-01
        1   -1    0    0  501    0  0.00000000000E+00  0.00000000000E+00  0.12669405037E+04  0.12669405037E+04  0.50400001928E-02 0.  1.
       -1   -1    0    0    0  501  0.00000000000E+00  0.00000000000E+00 -0.28524835039E+03  0.28524835044E+03  0.50400001928E-02 0. -1.
    10030    2    1    2    0    0  0.00000000000E+00  0.00000000000E+00  0.98169215333E+03  0.15521888542E+04  0.12023189074E+04 0.  0.
        2    1    3    3  502    0 -0.37597576663E+03 -0.17223731243E+03  0.10541246728E+04  0.11323437175E+04  0.25500000920E-02 0.  1.
       -2    1    3    3    0  502  0.37597576663E+03  0.17223731243E+03 -0.72432519439E+02  0.41984513664E+03  0.25500000920E-02 0. -1.
</event>
<event>
 5   0  0.9050363E-04  0.1197579E+04  0.7818609E-02  0.9114978E-01
        2   -1    0    0  501    0  0.00000000000E+00  0.00000000000E+00  0.22120063509E+03  0.22120063510E+03  0.25500000920E-02 0. -1.
       -2   -1    0    0    0  501  0.00000000000E+00  0.00000000000E+00 -0.16209216751E+04  0.16209216751E+04  0.25500000920E-02 0.  1.
    10030    2    1    2    0    0  0.00000000000E+00  0.00000000000E+00 -0.13997210400E+04  0.18421223102E+04  0.11975790646E+04 0.  0.
        3    1    3    3  502    0 -0.57189513809E+03  0.10680796083E+03 -0.91781341477E+03  0.10866708168E+04  0.10100000352E+00 0. -1.
       -3    1    3    3    0  502  0.57189513809E+03 -0.10680796083E+03 -0.48190762521E+03  0.75545149342E+03  0.10100000352E+00 0.  1.
</event>
<event>
 5   0  0.9145224E-04  0.1200638E+04  0.7818609E-02  0.9112298E-01
        2   -1    0    0  501    0  0.00000000000E+00  0.00000000000E+00  0.12069584123E+04  0.12069584123E+04  0.25500000920E-02 0. -1.
       -2   -1    0    0    0  501  0.00000000000E+00  0.00000000000E+00 -0.29858763844E+03  0.29858763845E+03  0.25500000920E-02 0.  1.
    10030    2    1    2    0    0  0.00000000000E+00  0.00000000000E+00  0.90837077386E+03  0.15055460507E+04  0.12006379338E+04 0.  0.
        5    1    3    3  502    0  0.15164609530E+03 -0.43650962772E+03 -0.26299670451E+02  0.46287250510E+03  0.46999998093E+01 0.  1.
       -5    1    3    3    0  502 -0.15164609530E+03  0.43650962772E+03  0.93467044431E+03  0.10426735456E+04  0.46999998093E+01 0. -1.
</event>
<event>
 5   0  0.5052959E-04  0.1201363E+04  0.7818609E-02  0.9111665E-01
        1   -1    0    0  501    0  0.00000000000E+00  0.00000000000E+00  0.11420041764E+04  0.11420041764E+04  0.50400001928E-02 0.  1.
       -1   -1    0    0    0  501  0.00000000000E+00  0.00000000000E+00 -0.31595165705E+03  0.31595165709E+03  0.50400001928E-02 0. -1.
    10030    2    1    2    0    0  0.00000000000E+00  0.00000000000E+00  0.82605251935E+03  0.14579558335E+04  0.12013627461E+04 0.  0.
        2    1    3    3  502    0 -0.91987997662E+02  0.35553148541E+03 -0.16384635132E+03  0.40213188842E+03  0.25500000920E-02 0. -1.
       -2    1    3    3    0  502  0.91987997662E+02 -0.35553148541E+03  0.98989887067E+03  0.10558239451E+04  0.25500000920E-02 0.  1.
</event>
<event>
 5   0  0.9050363E-04  0.1193064E+04  0.7818609E-02  0.9118949E-01
        2   -1    0    0  501    0  0.00000000000E+00  0.00000000000E+00  0.15315323154E+04  0.15315323154E+04  0.25500000920E-02 0.  1.
       -2   -1    0    0    0  501  0.00000000000E+00  0.00000000000E+00 -0.23234945058E+03  0.23234945060E+03  0.25500000920E-02 0. -1.
    10030    2    1    2    0    0  0.00000000000E+00  0.00000000000E+00  0.12991828648E+04  0.17638817660E+04  0.11930644443E+04 0.  0.
        3    1    3    3  502    0 -0.34753208580E+03 -0.43995152035E+03  0.34835534701E+03  0.66006617010E+03  0.10100000352E+00 0. -1.
       -3    1    3    3    0  502  0.34753208580E+03  0.43995152035E+03  0.95082751780E+03  0.11038155959E+04  0.10100000352E+00 0.  1.
</event>
<event>
 5   0  0.9298693E-04  0.1206177E+04  0.7818609E-02  0.9107467E-01
        2   -1    0    0  501    0  0.00000000000E+00  0.00000000000E+00  0.63304517312E+03  0.63304517313E+03  0.25500000920E-02 0.  1.
       -2   -1    0    0    0  501  0.00000000000E+00  0.00000000000E+00 -0.57454982379E+03  0.57454982380E+03  0.25500000920E-02 0. -1.
    10030    2    1    2    0    0  0.00000000000E+00  0.00000000000E+00  0.58495349333E+02  0.12075949969E+04  0.12061774209E+04 0.  0.
        1    1    3    3  502    0 -0.20564729868E+03 -0.14510210730E+03  0.57795251656E+03  0.63037651004E+03  0.50400001928E-02 0.  1.
       -1    1    3    3    0  502  0.20564729868E+03  0.14510210730E+03 -0.51945716722E+03  0.57721848688E+03  0.50400001928E-02 0. -1.
</event>
<event>
 5   0  0.5157631E-04  0.1202496E+04  0.7818609E-02  0.9110674E-01
        1   -1    0    0  501    0  0.00000000000E+00  0.00000000000E+00  0.77784016923E+03  0.77784016924E+03  0.50400001928E-02 0. -1.
       -1   -1    0    0    0  501  0.00000000000E+00  0.00000000000E+00 -0.46474761499E+03  0.46474761502E+03  0.50400001928E-02 0.  1.
    10030    2    1    2    0    0  0.00000000000E+00  0.00000000000E+00  0.31309255424E+03  0.12425877843E+04  0.12024963426E+04 0.  0.
        5    1    3    3  502    0  0.21202029060E+03 -0.60852666619E+02  0.73449818006E+03  0.76691936810E+03  0.46999998093E+01 0. -1.
       -5    1    3    3    0  502 -0.21202029060E+03  0.60852666619E+02 -0.42140562582E+03  0.47566841616E+03  0.46999998093E+01 0.  1.
</event>
<event>
 5   0  0.9050363E-04  0.1193584E+04  0.7818609E-02  0.9118491E-01
       -2   -1    0    0    0  501  0.00000000000E+00  0.00000000000E+00  0.12270525779E+04  0.12270525779E+04  0.25500000920E-02 0. -1.
        2   -1    0    0  501    0  0.00000000000E+00  0.00000000000E+00 -0.29025730142E+03  0.29025730143E+03  0.25500000920E-02 0.  1.
    10030    2    1    2    0    0  0.00000000000E+00  0.00000000000E+00  0.93679527648E+03  0.15173098793E+04  0.11935844670E+04 0.  0.
        3    1    3    3  502    0 -0.22601010816E+03  0.53413405967E+03  0.28960591424E+03  0.64826796809E+03  0.10100000352E+00 0.  1.
       -3    1    3    3    0  502  0.22601010816E+03 -0.53413405967E+03  0.64718936224E+03  0.86904191124E+03  0.10100000352E+00 0. -1.
</event>
<event>
 5   0  0.5447074E-04  0.1200423E+04  0.7818609E-02  0.9112487E-01
       -1   -1    0    0    0  501  0.00000000000E+00  0.00000000000E+00  0.27154801072E+03  0.27154801076E+03  0.50400001928E-02 0. -1.
        1   -1    0    0  501    0  0.00000000000E+00  0.00000000000E+00 -0.13266663152E+04  0.13266663152E+04  0.50400001928E-02 0.  1.
    10030    2    1    2    0    0  0.00000000000E+00  0.00000000000E+00 -0.10551183045E+04  0.15982143259E+04  0.12004225903E+04 0.  0.
        4    1    3    3  502    0 -0.21900599358E+03  0.47020628292E+03 -0.92961369525E+03  0.10645378382E+04  0.12699999809E+01 0.  1.
       -4    1    3    3    0  502  0.21900599358E+03 -0.47020628292E+03 -0.12550460921E+03  0.53367648773E+03  0.12699999809E+01 0. -1.
</event>
<event>
 5   0  0.5001586E-04  0.1198666E+04  0.7818609E-02  0.9114025E-01
        1   -1    0    0  501    0  0.00000000000E+00  0.00000000000E+00  0.12109187567E+04  0.12109187567E+04  0.50400001928E-02 0.  1.
       -1   -1    0    0    0  501  0.00000000000E+00  0.00000000000E+00 -0.29663417428E+03  0.29663417432E+03  0.50400001928E-02 0. -1.
    10030    2    1    2    0    0  0.00000000000E+00  0.00000000000E+00  0.91428458243E+03  0.15075529310E+04  0.11986657341E+04 0.  0.
        1    1    3    3  502    0 -0.44371907291E+03 -0.92401188087E+01 -0.49425110390E+02  0.44655888416E+03  0.50400001928E-02 0. -1.
       -1    1    3    3    0  502  0.44371907291E+03  0.92401188087E+01  0.96370969282E+03  0.10609940469E+04  0.50400001928E-02 0.  1.
</event>
<event>
 5   0  0.5003507E-04  0.1203206E+04  0.7818609E-02  0.9110055E-01
       -1   -1    0    0    0  501  0.00000000000E+00  0.00000000000E+00  0.40362370552E+03  0.40362370555E+03  0.50400001928E-02 0. -1.
        1   -1    0    0  501    0  0.00000000000E+00  0.00000000000E+00 -0.89669134806E+03  0.89669134808E+03  0.50400001928E-02 0.  1.
    10030    2    1    2    0    0  0.00000000000E+00  0.00000000000E+00 -0.49306764254E+03  0.13003150536E+04  0.12032055263E+04 0.  0.
        3    1    3    3  502    0 -0.47090651366E+03  0.26906161110E+03 -0.52788947317E+03  0.75684503121E+03  0.10100000352E+00 0.  1.
       -3    1    3    3    0  502  0.47090651366E+03 -0.26906161110E+03  0.34821830623E+02  0.54347002242E+03  0.10100000352E+00 0. -1.
</event>
<event>
 5   0  0.9070772E-04  0.1201517E+04  0.7818609E-02  0.9111530E-01
       -2   -1    0    0    0  501  0.00000000000E+00  0.00000000000E+00  0.65619663821E+03  0.65619663821E+03  0.25500000920E-02 0. -1.
        2   -1    0    0  501    0  0.00000000000E+00  0.00000000000E+00 -0.55000374986E+03  0.55000374987E+03  0.25500000920E-02 0.  1.
    10030    2    1    2    0    0  0.00000000000E+00  0.00000000000E+00  0.10619288835E+03  0.12062003881E+04  0.12015167276E+04 0.  0.
        4    1    3    3  502    0 -0.76204501378E+02  0.15893730575E+03 -0.52346000403E+03  0.55234063938E+03  0.12699999809E+01 0.  1.
       -4    1    3    3    0  502  0.76204501378E+02 -0.15893730575E+03  0.62965289238E+03  0.65385974870E+03  0.12699999809E+01 0. -1.
</event>
<event>
 5   0  0.9070772E-04  0.1186714E+04  0.7818609E-02  0.9124566E-01
       -2   -1    0    0    0  501  0.00000000000E+00  0.00000000000E+00  0.39323866814E+03  0.39323866815E+03  0.25500000920E-02 0. -1.
        2   -1    0    0  501    0  0.00000000000E+00  0.00000000000E+00 -0.89531554394E+03  0.89531554395E+03  0.25500000920E-02 0.  1.
    10030    2    1    2    0    0  0.00000000000E+00  0.00000000000E+00 -0.50207687580E+03  0.12885542121E+04  0.11867142741E+04 0.  0.
        4    1    3    3  502    0 -0.33940802638E+03  0.46074257331E+03 -0.42130596806E+03  0.71062075600E+03  0.12699999809E+01 0.  1.
       -4    1    3    3    0  502  0.33940802638E+03 -0.46074257331E+03 -0.80770907734E+02  0.57793345609E+03  0.12699999809E+01 0. -1.
</event>
<event>
 5   0  0.5052959E-04  0.1201806E+04  0.7818609E-02  0.9111278E-01
        1   -1    0    0  501    0  0.00000000000E+00  0.00000000000E+00  0.92575333112E+03  0.92575333114E+03  0.50400001928E-02 0.  1.
       -1   -1    0    0    0  501  0.00000000000E+00  0.00000000000E+00 -0.39004365158E+03  0.39004365161E+03  0.50400001928E-02 0. -1.
    10030    2    1    2    0    0  0.00000000000E+00  0.00000000000E+00  0.53570967955E+03  0.13157969827E+04  0.12018056578E+04 0.  0.
        2    1    3    3  502    0  0.52743636173E+02 -0.42751924350E+03  0.72655600371E+03  0.84465272228E+03  0.25500000920E-02 0.  1.
       -2    1    3    3    0  502 -0.52743636173E+02  0.42751924350E+03 -0.19084632416E+03  0.47114426047E+03  0.25500000920E-02 0. -1.
</event>
<event>
 5   0  0.5003507E-04  0.1197316E+04  0.7818609E-02  0.9115209E-01
       -1   -1    0    0    0  501  0.00000000000E+00  0.00000000000E+00  0.28011798532E+03  0.28011798537E+03  0.50400001928E-02 0. -1.
        1   -1    0    0  501    0  0.00000000000E+00  0.00000000000E+00 -0.12794291476E+04  0.12794291476E+04  0.50400001928E-02 0.  1.
    10030    2    1    2    0    0  0.00000000000E+00  0.00000000000E+00 -0.99931116230E+03  0.15595471330E+04  0.11973155227E+04 0.  0.
        3    1    3    3  502    0  0.44384807974E+03 -0.40173262345E+03 -0.49842925511E+03  0.77898777345E+03  0.10100000352E+00 0.  1.
       -3    1    3    3    0  502 -0.44384807974E+03  0.40173262345E+03 -0.50088190719E+03  0.78055935955E+03  0.10100000352E+00 0. -1.
</event>
<event>
 5   0  0.5157631E-04  0.1198429E+04  0.7818609E-02  0.9114233E-01
       -1   -1    0    0    0  501  0.00000000000E+00  0.00000000000E+00  0.53064840769E+03  0.53064840771E+03  0.50400001928E-02 0.  1.
        1   -1    0    0  501    0  0.00000000000E+00  0.00000000000E+00 -0.67664028109E+03  0.67664028111E+03  0.50400001928E-02 0. -1.
    10030    2    1    2    0    0  0.00000000000E+00  0.00000000000E+00 -0.14599187340E+03  0.12072886888E+04  0.11984291181E+04 0.  0.
        5    1    3    3  502    0 -0.13969697131E+03 -0.38545016555E+03 -0.51320338527E+03  0.65687660833E+03  0.46999998093E+01 0. -1.
       -5    1    3    3    0  502  0.13969697131E+03  0.38545016555E+03  0.36721151186E+03  0.55041208050E+03  0.46999998093E+01 0.  1.
</event>
<event>
 5   0  0.9410666E-04  0.1200619E+04  0.7818609E-02  0.9112315E-01
        2   -1    0    0  501    0  0.00000000000E+00  0.00000000000E+00  0.10224166695E+04  0.10224166695E+04  0.25500000920E-02 0. -1.
       -2   -1    0    0    0  501  0.00000000000E+00  0.00000000000E+00 -0.35247030600E+03  0.35247030601E+03  0.25500000920E-02 0.  1.
    10030    2    1    2    0    0  0.00000000000E+00  0.00000000000E+00  0.66994636353E+03  0.13748869755E+04  0.12006190343E+04 0.  0.
        2    1    3    3  502    0  0.12053363326E+03  0.18574356942E+03  0.97394391708E+03  0.99879716858E+03  0.25500000920E-02 0. -1.
       -2    1    3    3    0  502 -0.12053363326E+03 -0.18574356942E+03 -0.30399755356E+03  0.37608980696E+03  0.25500000920E-02 0.  1.
</event>
<event>
 5   0  0.9050363E-04  0.1198887E+04  0.7818609E-02  0.9113831E-01
       -2   -1    0    0    0  501  0.00000000000E+00  0.00000000000E+00  0.20571610724E+03  0.20571610725E+03  0.25500000920E-02 0. -1.
        2   -1    0    0  501    0  0.00000000000E+00  0.00000000000E+00 -0.17467396937E+04  0.17467396937E+04  0.25500000920E-02 0.  1.
    10030    2    1    2    0    0  0.00000000000E+00  0.00000000000E+00 -0.15410235865E+04  0.19524558010E+04  0.11988869674E+04 0.  0.
        3    1    3    3  502    0 -0.22595173318E+03 -0.34897577156E+03 -0.67219849038E+02  0.42113749913E+03  0.10100000352E+00 0. -1.
       -3    1    3    3    0  502  0.22595173318E+03  0.34897577156E+03 -0.14738037375E+04  0.15313183019E+04  0.10100000352E+00 0.  1.
</event>
<event>
 5   0  0.9298693E-04  0.1197999E+04  0.7818609E-02  0.9114609E-01
        2   -1    0    0  501    0  0.00000000000E+00  0.00000000000E+00  0.10240389050E+04  0.10240389050E+04  0.25500000920E-02 0. -1.
       -2   -1    0    0    0  501  0.00000000000E+00  0.00000000000E+00 -0.35037794435E+03  0.35037794436E+03  0.25500000920E-02 0.  1.
    10030    2    1    2    0    0  0.00000000000E+00  0.00000000000E+00  0.67366096064E+03  0.13744168493E+04  0.11979994098E+04 0.  0.
        1    1    3    3  502    0  0.28708166139E+03 -0.42100164849E+03  0.69806690279E+03  0.86426597130E+03  0.50400001928E-02 0. -1.
       -1    1    3    3    0  502 -0.28708166139E+03  0.42100164849E+03 -0.24405942155E+02  0.51015087805E+03  0.50400001928E-02 0.  1.
</event>
<event>
 5   0  0.9410666E-04  0.1200097E+04  0.7818609E-02  0.9112771E-01
       -2   -1    0    0    0  501  0.00000000000E+00  0.00000000000E+00  0.31419173575E+03  0.31419173576E+03  0.25500000920E-02 0.  1.
        2   -1    0    0  501    0  0.00000000000E+00  0.00000000000E+00 -0.11459831231E+04  0.11459831231E+04  0.25500000920E-02 0. -1.
    10030    2    1    2    0    0  0.00000000000E+00  0.00000000000E+00 -0.83179138735E+03  0.14601748589E+04  0.12000973737E+04 0.  0.
        2    1    3    3  502    0  0.55555608006E+03  0.22605270459E+03 -0.39426543885E+03  0.71776571360E+03  0.25500000920E-02 0. -1.
       -2    1    3    3    0  502 -0.55555608006E+03 -0.22605270459E+03 -0.43752594850E+03  0.74240914526E+03  0.25500000920E-02 0.  1.
</event>
<event>
 5   0  0.9050363E-04  0.1197706E+04  0.7818609E-02  0.9114867E-01
       -2   -1    0    0    0  501  0.00000000000E+00  0.00000000000E+00  0.26836030940E+03  0.26836030941E+03  0.25500000920E-02 0. -1.
        2   -1    0    0  501    0  0.00000000000E+00  0.00000000000E+00 -0.13363560345E+04  0.13363560345E+04  0.25500000920E-02 0.  1.
    10030    2    1    2    0    0  0.00000000000E+00  0.00000000000E+00 -0.10679957251E+04  0.16047163439E+04  0.11977060055E+04 0.  0.
        3    1    3    3  502    0 -0.32941240377E+03 -0.46474444310E+03 -0.78150301748E+03  0.96708164375E+03  0.10100000352E+00 0.  1.
       -3    1    3    3    0  502  0.32941240377E+03  0.46474444310E+03 -0.28649270766E+03  0.63763470020E+03  0.10100000352E+00 0. -1.
</event>
<event>
 5   0  0.5003507E-04  0.1198467E+04  0.7818609E-02  0.9114199E-01
        1   -1    0    0  501    0  0.00000000000E+00  0.00000000000E+00  0.32935410139E+03  0.32935410143E+03  0.50400001928E-02 0.  1.
       -1   -1    0    0    0  501  0.00000000000E+00  0.00000000000E+00 -0.10902581202E+04  0.10902581203E+04  0.50400001928E-02 0. -1.
    10030    2    1    2    0    0  0.00000000000E+00  0.00000000000E+00 -0.76090401885E+03  0.14196122217E+04  0.11984673271E+04 0.  0.
        3    1    3    3  502    0 -0.42428677974E+03 -0.59279711544E+02  0.11584424886E+03  0.44379415934E+03  0.10100000352E+00 0.  1.
       -3    1    3    3    0  502  0.42428677974E+03  0.59279711544E+02 -0.87674826771E+03  0.97581806235E+03  0.10100000352E+00 0. -1.
</event>
<event>
 5   0  0.9145224E-04  0.1192546E+04  0.7818609E-02  0.9119406E-01
        2   -1    0    0  501    0  0.00000000000E+00  0.00000000000E+00  0.84705270491E+03  0.84705270492E+03  0.25500000920E-02 0. -1.
       -2   -1    0    0    0  501  0.00000000000E+00  0.00000000000E+00 -0.41973979977E+03  0.41973979978E+03  0.25500000920E-02 0.  1.
    10030    2    1    2    0    0  0.00000000000E+00  0.00000000000E+00  0.42731290514E+03  0.12667925047E+04  0.11925464062E+04 0.  0.
        5    1    3    3  502    0 -0.69661989190E+02  0.33930246153E+03 -0.30188449831E+03  0.45949460656E+03  0.46999998093E+01 0.  1.
       -5    1    3    3    0  502  0.69661989190E+02 -0.33930246153E+03  0.72919740346E+03  0.80729789814E+03  0.46999998093E+01 0. -1.
</event>
<event>
 5   0  0.5157631E-04  0.1202525E+04  0.7818609E-02  0.9110649E-01
       -1   -1    0    0    0  501  0.00000000000E+00  0.00000000000E+00  0.38759227137E+03  0.38759227140E+03  0.50400001928E-02 0.  1.
        1   -1    0    0  501    0  0.00000000000E+00  0.00000000000E+00 -0.93272441589E+03  0.93272441590E+03  0.50400001928E-02 0. -1.
    10030    2    1    2    0    0  0.00000000000E+00  0.00000000000E+00 -0.54513214452E+03  0.13203166873E+04  0.12025253011E+04 0.  0.
        5    1    3    3  502    0 -0.51588350662E+03  0.29508983294E+03 -0.37247912183E+03  0.70141042772E+03  0.46999998093E+01 0.  1.
       -5    1    3    3    0  502  0.51588350662E+03 -0.29508983294E+03 -0.17265302269E+03  0.61890625958E+03  0.46999998093E+01 0. -1.
</event>
<event>
 5   0  0.5003507E-04  0.1201891E+04  0.7818609E-02  0.9111203E-01
        1   -1    0    0  501    0  0.00000000000E+00  0.00000000000E+00  0.14653367353E+04  0.14653367353E+04  0.50400001928E-02 0. -1.
       -1   -1    0    0    0  501  0.00000000000E+00  0.00000000000E+00 -0.24645231419E+03  0.24645231424E+03  0.50400001928E-02 0.  1.
    10030    2    1    2    0    0  0.00000000000E+00  0.00000000000E+00  0.12188844211E+04  0.17117890496E+04  0.12018912256E+04 0.  0.
        3    1    3    3  502    0  0.52289283500E+03 -0.87981380404E+02  0.10122244316E+04  0.11426967884E+04  0.10100000352E+00 0. -1.
       -3    1    3    3    0  502 -0.52289283500E+03  0.87981380404E+02  0.20665998952E+03  0.56909226111E+03  0.10100000352E+00 0.  1.
</event>
<event>
 5   0  0.9050363E-04  0.1197239E+04  0.7818609E-02  0.9115277E-01
       -2   -1    0    0    0  501  0.00000000000E+00  0.00000000000E+00  0.29313745411E+03  0.29313745412E+03  0.25500000920E-02 0. -1.
        2   -1    0    0  501    0  0.00000000000E+00  0.00000000000E+00 -0.12224481944E+04  0.12224481944E+04  0.25500000920E-02 0.  1.
    10030    2    1    2    0    0  0.00000000000E+00  0.00000000000E+00 -0.92931074030E+03  0.15155856485E+04  0.11972390764E+04 0.  0.
        3    1    3    3  502    0  0.58766881769E+03  0.96497673845E+02 -0.54143723380E+03  0.80487311341E+03  0.10100000352E+00 0.  1.
       -3    1    3    3    0  502 -0.58766881769E+03 -0.96497673845E+02 -0.38787350649E+03  0.71071253512E+03  0.10100000352E+00 0. -1.
</event>
<event>
 5   0  0.5001586E-04  0.1209327E+04  0.7818609E-02  0.9104731E-01
        1   -1    0    0  501    0  0.00000000000E+00  0.00000000000E+00  0.28356028378E+03  0.28356028382E+03  0.50400001928E-02 0.  1.
       -1   -1    0    0    0  501  0.00000000000E+00  0.00000000000E+00 -0.12893844415E+04  0.12893844415E+04  0.50400001928E-02 0. -1.
    10030    2    1    2    0    0  0.00000000000E+00  0.00000000000E+00 -0.10058241578E+04  0.15729447254E+04  0.12093274464E+04 0.  0.
        1    1    3    3  502    0 -0.36796506949E+03  0.14149533730E+03 -0.10992396231E+04  0.11677957749E+04  0.50400001928E-02 0. -1.
       -1    1    3    3    0  502  0.36796506949E+03 -0.14149533730E+03  0.93415465378E+02  0.40514895044E+03  0.50400001928E-02 0.  1.
</event>
<event>
 5   0  0.5003507E-04  0.1197429E+04  0.7818609E-02  0.9115110E-01
        1   -1    0    0  501    0  0.00000000000E+00  0.00000000000E+00  0.65389177447E+03  0.65389177449E+03  0.50400001928E-02 0. -1.
       -1   -1    0    0    0  501  0.00000000000E+00  0.00000000000E+00 -0.54819351494E+03  0.54819351496E+03  0.50400001928E-02 0.  1.
    10030    2    1    2    0    0  0.00000000000E+00  0.00000000000E+00  0.10569825953E+03  0.12020852895E+04  0.11974292969E+04 0.  0.
        3    1    3    3  502    0  0.21570139040E+03  0.23796904525E+03  0.56008884033E+03  0.64564376833E+03  0.10100000352E+00 0. -1.
       -3    1    3    3    0  502 -0.21570139040E+03 -0.23796904525E+03 -0.45439058080E+03  0.55644152113E+03  0.10100000352E+00 0.  1.
</event>
<event>
 5   0  0.5052959E-04  0.1200518E+04  0.7818609E-02  0.9112403E-01
       -1   -1    0    0    0  501  0.00000000000E+00  0.00000000000E+00  0.76419742446E+03  0.76419742448E+03  0.50400001928E-02 0.  1.
        1   -1    0    0  501    0  0.00000000000E+00  0.00000000000E+00 -0.47148917411E+03  0.47148917414E+03  0.50400001928E-02 0. -1.
    10030    2    1    2    0    0  0.00000000000E+00  0.00000000000E+00  0.29270825035E+03  0.12356865986E+04  0.12005179091E+04 0.  0.
        2    1    3    3  502    0  0.58292365190E+03  0.14238529436E+03  0.13049976249E+03  0.61408773316E+03  0.25500000920E-02 0. -1.
       -2    1    3    3    0  502 -0.58292365190E+03 -0.14238529436E+03  0.16220848786E+03  0.62159886546E+03  0.25500000920E-02 0.  1.
</event>
<event>
 5   0  0.5157631E-04  0.1192189E+04  0.7818609E-02  0.9119721E-01
       -1   -1    0    0    0  501  0.00000000000E+00  0.00000000000E+00  0.76252209880E+03  0.76252209882E+03  0.50400001928E-02 0.  1.
        1   -1    0    0  501    0  0.00000000000E+00  0.00000000000E+00 -0.46599126645E+03  0.46599126648E+03  0.50400001928E-02 0. -1.
    10030    2    1    2    0    0  0.00000000000E+00  0.00000000000E+00  0.29653083235E+03  0.12285133653E+04  0.11921889759E+04 0.  0.
        5    1    3    3  502    0 -0.53286992021E+02 -0.20366164979E+03  0.72292053845E+03  0.75296332316E+03  0.46999998093E+01 0.  1.
       -5    1    3    3    0  502  0.53286992021E+02  0.20366164979E+03 -0.42638970610E+03  0.47555004214E+03  0.46999998093E+01 0. -1.
</event>
<event>
 5   0  0.9070772E-04  0.1128555E+04  0.7818609E-02  0.9177799E-01
        2   -1    0    0  501    0  0.00000000000E+00  0.00000000000E+00  0.61633406309E+03  0.61633406309E+03  0.25500000920E-02 0.  1.
       -2   -1    0    0    0  501  0.00000000000E+00  0.00000000000E+00 -0.51661776479E+03  0.51661776480E+03  0.25500000920E-02 0. -1.
    10030    2    1    2    0    0  0.00000000000E+00  0.00000000000E+00  0.99716298293E+02  0.11329518279E+04  0.11285550515E+04 0.  0.
        4    1    3    3  502    0 -0.42669984749E+03 -0.12471350759E+03 -0.29903186156E+03  0.53576850034E+03  0.12699999809E+01 0. -1.
       -4    1    3    3    0  502  0.42669984749E+03  0.12471350759E+03  0.39874815985E+03  0.59718332756E+03  0.12699999809E+01 0.  1.
</event>
<event>
 5   0  0.9050363E-04  0.1200147E+04  0.7818609E-02  0.9112728E-01
       -2   -1    0    0    0  501  0.00000000000E+00  0.00000000000E+00  0.44862909762E+03  0.44862909763E+03  0.25500000920E-02 0. -1.
        2   -1    0    0  501    0  0.00000000000E+00  0.00000000000E+00 -0.80264061887E+03  0.80264061887E+03  0.25500000920E-02 0.  1.
    10030    2    1    2    0    0  0.00000000000E+00  0.00000000000E+00 -0.35401152125E+03  0.12512697165E+04  0.12001465520E+04 0.  0.
        3    1    3    3  502    0  0.39908175254E+03 -0.31137813780E+03  0.15900405799E+03  0.53057034460E+03  0.10100000352E+00 0.  1.
       -3    1    3    3    0  502 -0.39908175254E+03  0.31137813780E+03 -0.51301557924E+03  0.72069937190E+03  0.10100000352E+00 0. -1.
</event>
<event>
 5   0  0.5447074E-04  0.1200119E+04  0.7818609E-02  0.9112752E-01
       -1   -1    0    0    0  501  0.00000000000E+00  0.00000000000E+00  0.37555768669E+03  0.37555768672E+03  0.50400001928E-02 0.  1.
        1   -1    0    0  501    0  0.00000000000E+00  0.00000000000E+00 -0.95876436699E+03  0.95876436700E+03  0.50400001928E-02 0. -1.
    10030    2    1    2    0    0  0.00000000000E+00  0.00000000000E+00 -0.58320668030E+03  0.13343220537E+04  0.12001188737E+04 0.  0.
        4    1    3    3  502    0  0.20418231519E+03  0.40012667095E+03 -0.73393354734E+03  0.86049511065E+03  0.12699999809E+01 0. -1.
       -4    1    3    3    0  502 -0.20418231519E+03 -0.40012667095E+03  0.15072686705E+03  0.47382694308E+03  0.12699999809E+01 0.  1.
</event>
<event>
 5   0  0.9410666E-04  0.1194689E+04  0.7818609E-02  0.9117518E-01
       -2   -1    0    0    0  501  0.00000000000E+00  0.00000000000E+00  0.30715457444E+03  0.30715457445E+03  0.25500000920E-02 0. -1.
        2   -1    0    0  501    0  0.00000000000E+00  0.00000000000E+00 -0.11616972090E+04  0.11616972090E+04  0.25500000920E-02 0.  1.
    10030    2    1    2    0    0  0.00000000000E+00  0.00000000000E+00 -0.85454263454E+03  0.14688517834E+04  0.11946892682E+04 0.  0.
        2    1    3    3  502    0  0.58652006416E+03  0.10283787212E+03 -0.36909191087E+03  0.70057851257E+03  0.25500000920E-02 0. -1.
       -2    1    3    3    0  502 -0.58652006416E+03 -0.10283787212E+03 -0.48545072367E+03  0.76827327086E+03  0.25500000920E-02 0.  1.
</event>
<event>
 5   0  0.5157631E-04  0.1203980E+04  0.7818609E-02  0.9109380E-01
        1   -1    0    0  501    0  0.00000000000E+00  0.00000000000E+00  0.14995241336E+04  0.14995241336E+04  0.50400001928E-02 0. -1.
       -1   -1    0    0    0  501  0.00000000000E+00  0.00000000000E+00 -0.24167141955E+03  0.24167141961E+03  0.50400001928E-02 0.  1.
    10030    2    1    2    0    0  0.00000000000E+00  0.00000000000E+00  0.12578527140E+04  0.17411955532E+04  0.12039802757E+04 0.  0.
        5    1    3    3  502    0  0.38765865158E+02 -0.55808910940E+03  0.30748014701E+03  0.63838262596E+03  0.46999998093E+01 0.  1.
       -5    1    3    3    0  502 -0.38765865158E+02  0.55808910940E+03  0.95037256701E+03  0.11028129272E+04  0.46999998093E+01 0. -1.
</event>
<event>
 5   0  0.9410666E-04  0.1213550E+04  0.7818609E-02  0.9101078E-01
        2   -1    0    0  501    0  0.00000000000E+00  0.00000000000E+00  0.94837709970E+03  0.94837709970E+03  0.25500000920E-02 0. -1.
       -2   -1    0    0    0  501  0.00000000000E+00  0.00000000000E+00 -0.38821704719E+03  0.38821704720E+03  0.25500000920E-02 0.  1.
    10030    2    1    2    0    0  0.00000000000E+00  0.00000000000E+00  0.56016005251E+03  0.13365941469E+04  0.12135504230E+04 0.  0.
        2    1    3    3  502    0 -0.14530909444E+03  0.28603320140E+03 -0.28715952445E+03  0.43056975941E+03  0.25500000920E-02 0.  1.
       -2    1    3    3    0  502  0.14530909444E+03 -0.28603320140E+03  0.84731957696E+03  0.90602438749E+03  0.25500000920E-02 0. -1.
</event>
<event>
 5   0  0.5447074E-04  0.1195120E+04  0.7818609E-02  0.9117139E-01
       -1   -1    0    0    0  501  0.00000000000E+00  0.00000000000E+00  0.29825013509E+03  0.29825013513E+03  0.50400001928E-02 0. -1.
        1   -1    0    0  501    0  0.00000000000E+00  0.00000000000E+00 -0.11972424389E+04  0.11972424389E+04  0.50400001928E-02 0.  1.
    10030    2    1    2    0    0  0.00000000000E+00  0.00000000000E+00 -0.89899230378E+03  0.14954925740E+04  0.11951196077E+04 0.  0.
        4    1    3    3  502    0 -0.55978219425E+03  0.21528381997E+02 -0.70975093994E+03  0.90419444031E+03  0.12699999809E+01 0. -1.
       -4    1    3    3    0  502  0.55978219425E+03 -0.21528381997E+02 -0.18924136384E+03  0.59129813370E+03  0.12699999809E+01 0.  1.
</event>
<event>
 5   0  0.5052959E-04  0.1193390E+04  0.7818609E-02  0.9118662E-01
        1   -1    0    0  501    0  0.00000000000E+00  0.00000000000E+00  0.43328926504E+03  0.43328926507E+03  0.50400001928E-02 0. -1.
       -1   -1    0    0    0  501  0.00000000000E+00  0.00000000000E+00 -0.82172546499E+03  0.82172546500E+03  0.50400001928E-02 0.  1.
    10030    2    1    2    0    0  0.00000000000E+00  0.00000000000E+00 -0.38843619994E+03  0.12550147301E+04  0.11933898321E+04 0.  0.
        2    1    3    3  502    0  0.30808881958E+03 -0.64311073277E+02 -0.72733783665E+03  0.79251180655E+03  0.25500000920E-02 0.  1.
       -2    1    3    3    0  502 -0.30808881958E+03  0.64311073277E+02  0.33890163671E+03  0.46250292352E+03  0.25500000920E-02 0. -1.
</event>
<event>
 5   0  0.5052959E-04  0.1213792E+04  0.7818609E-02  0.9100870E-01
        1   -1    0    0  501    0  0.00000000000E+00  0.00000000000E+00  0.50880225165E+03  0.50880225167E+03  0.50400001928E-02 0. -1.
       -1   -1    0    0    0  501  0.00000000000E+00  0.00000000000E+00 -0.72390101663E+03  0.72390101664E+03  0.50400001928E-02 0.  1.
    10030    2    1    2    0    0  0.00000000000E+00  0.00000000000E+00 -0.21509876498E+03  0.12327032683E+04  0.12137915262E+04 0.  0.
        2    1    3    3  502    0  0.60172424829E+03  0.22490215439E+02 -0.30575422067E+02  0.60292017482E+03  0.25500000920E-02 0.  1.
       -2    1    3    3    0  502 -0.60172424829E+03 -0.22490215439E+02 -0.18452334291E+03  0.62978309350E+03  0.25500000920E-02 0. -1.
</event>
<event>
 5   0  0.9070772E-04  0.1173262E+04  0.7818609E-02  0.9136588E-01
       -2   -1    0    0    0  501  0.00000000000E+00  0.00000000000E+00  0.61498609023E+03  0.61498609023E+03  0.25500000920E-02 0. -1.
        2   -1    0    0  501    0  0.00000000000E+00  0.00000000000E+00 -0.55958336400E+03  0.55958336400E+03  0.25500000920E-02 0.  1.
    10030    2    1    2    0    0  0.00000000000E+00  0.00000000000E+00  0.55402726228E+02  0.11745694542E+04  0.11732620938E+04 0.  0.
        4    1    3    3  502    0 -0.35099215534E+03  0.79327055265E+02 -0.43611403364E+03  0.56540723205E+03  0.12699999809E+01 0.  1.
       -4    1    3    3    0  502  0.35099215534E+03 -0.79327055265E+02  0.49151675987E+03  0.60916222219E+03  0.12699999809E+01 0. -1.
</event>
<event>
 5   0  0.3453625E-04  0.1202140E+04  0.7818609E-02  0.9110985E-01
        3   -1    0    0  501    0  0.00000000000E+00  0.00000000000E+00  0.87103236226E+03  0.87103236812E+03  0.10100000352E+00 0. -1.
       -3   -1    0    0    0  501  0.00000000000E+00  0.00000000000E+00 -0.41477821875E+03  0.41477823104E+03  0.10100000352E+00 0.  1.
    10030    2    1    2    0    0  0.00000000000E+00  0.00000000000E+00  0.45625414352E+03  0.12858105992E+04  0.12021401971E+04 0.  0.
        2    1    3    3  502    0  0.24984529709E+03 -0.20600418233E+03  0.76975612516E+03  0.83509573573E+03  0.25500000920E-02 0. -1.
       -2    1    3    3    0  502 -0.24984529709E+03  0.20600418233E+03 -0.31350198164E+03  0.45071486343E+03  0.25500000920E-02 0.  1.
</event>
<event>
 5   0  0.9145224E-04  0.1196448E+04  0.7818609E-02  0.9115971E-01
       -2   -1    0    0    0  501  0.00000000000E+00  0.00000000000E+00  0.26045342210E+03  0.26045342212E+03  0.25500000920E-02 0.  1.
        2   -1    0    0  501    0  0.00000000000E+00  0.00000000000E+00 -0.13740339656E+04  0.13740339656E+04  0.25500000920E-02 0. -1.
    10030    2    1    2    0    0  0.00000000000E+00  0.00000000000E+00 -0.11135805435E+04  0.16344873877E+04  0.11964478232E+04 0.  0.
        5    1    3    3  502    0  0.47536601363E+01  0.26313855902E+03 -0.12906699844E+04  0.13172378666E+04  0.46999998093E+01 0. -1.
       -5    1    3    3    0  502 -0.47536601363E+01 -0.26313855902E+03  0.17708944096E+03  0.31724952108E+03  0.46999998093E+01 0.  1.
</event>
<event>
 5   0  0.9145224E-04  0.1196347E+04  0.7818609E-02  0.9116060E-01
        2   -1    0    0  501    0  0.00000000000E+00  0.00000000000E+00  0.11153265284E+04  0.11153265284E+04  0.25500000920E-02 0. -1.
       -2   -1    0    0    0  501  0.00000000000E+00  0.00000000000E+00 -0.32081304718E+03  0.32081304719E+03  0.25500000920E-02 0.  1.
    10030    2    1    2    0    0  0.00000000000E+00  0.00000000000E+00  0.79451348120E+03  0.14361395756E+04  0.11963466089E+04 0.  0.
        5    1    3    3  502    0 -0.41170296354E+03  0.13950234160E+02 -0.12337251415E+03  0.43004279609E+03  0.46999998093E+01 0.  1.
       -5    1    3    3    0  502  0.41170296354E+03 -0.13950234160E+02  0.91788599535E+03  0.10060967795E+04  0.46999998093E+01 0. -1.
</event>
<event>
 5   0  0.9070772E-04  0.1204517E+04  0.7818609E-02  0.9108912E-01
       -2   -1    0    0    0  501  0.00000000000E+00  0.00000000000E+00  0.98219281418E+03  0.98219281418E+03  0.25500000920E-02 0. -1.
        2   -1    0    0  501    0  0.00000000000E+00  0.00000000000E+00 -0.36929143790E+03  0.36929143791E+03  0.25500000920E-02 0.  1.
    10030    2    1    2    0    0  0.00000000000E+00  0.00000000000E+00  0.61290137628E+03  0.13514842521E+04  0.12045171591E+04 0.  0.
        4    1    3    3  502    0 -0.48774109351E+03 -0.34964705686E+03  0.24957728495E+03  0.64994990018E+03  0.12699999809E+01 0.  1.
       -4    1    3    3    0  502  0.48774109351E+03  0.34964705686E+03  0.36332409133E+03  0.70153435191E+03  0.12699999809E+01 0. -1.
</event>
<event>
 5   0  0.5447074E-04  0.1200409E+04  0.7818609E-02  0.9112499E-01
        1   -1    0    0  501    0  0.00000000000E+00  0.00000000000E+00  0.10676264276E+04  0.10676264276E+04  0.50400001928E-02 0. -1.
       -1   -1    0    0    0  501  0.00000000000E+00  0.00000000000E+00 -0.33742622511E+03  0.33742622515E+03  0.50400001928E-02 0.  1.
    10030    2    1    2    0    0  0.00000000000E+00  0.00000000000E+00  0.73020020250E+03  0.14050526528E+04  0.12004085227E+04 0.  0.
        4    1    3    3  502    0  0.41677462934E+03 -0.16222805180E+03  0.83361996152E+03  0.94601421004E+03  0.12699999809E+01 0. -1.
       -4    1    3    3    0  502 -0.41677462934E+03  0.16222805180E+03 -0.10341975902E+03  0.45903844273E+03  0.12699999809E+01 0.  1.
</event>
<event>
 5   0  0.5052959E-04  0.1201417E+04  0.7818609E-02  0.9111617E-01
        1   -1    0    0  501    0  0.00000000000E+00  0.00000000000E+00  0.63563384894E+03  0.63563384896E+03  0.50400001928E-02 0. -1.
       -1   -1    0    0    0  501  0.00000000000E+00  0.00000000000E+00 -0.56770210391E+03  0.56770210393E+03  0.50400001928E-02 0.  1.
    10030    2    1    2    0    0  0.00000000000E+00  0.00000000000E+00  0.67931745031E+02  0.12033359529E+04  0.12014169524E+04 0.  0.
        2    1    3    3  502    0 -0.24202954301E+03 -0.33363664257E+03 -0.40372063844E+03  0.57695932514E+03  0.25500000920E-02 0.  1.
       -2    1    3    3    0  502  0.24202954301E+03  0.33363664257E+03  0.47165238347E+03  0.62637662775E+03  0.25500000920E-02 0. -1.
</event>
<event>
 5   0  0.9410666E-04  0.1200234E+04  0.7818609E-02  0.9112652E-01
        2   -1    0    0  501    0  0.00000000000E+00  0.00000000000E+00  0.25917434828E+03  0.25917434829E+03  0.25500000920E-02 0. -1.
       -2   -1    0    0    0  501  0.00000000000E+00  0.00000000000E+00 -0.13895682885E+04  0.13895682885E+04  0.25500000920E-02 0.  1.
    10030    2    1    2    0    0  0.00000000000E+00  0.00000000000E+00 -0.11303939402E+04  0.16487426368E+04  0.12002340698E+04 0.  0.
        2    1    3    3  502    0  0.48263787392E+03 -0.21197898510E+03 -0.95919789031E+03  0.10945021700E+04  0.25500000920E-02 0.  1.
       -2    1    3    3    0  502 -0.48263787392E+03  0.21197898510E+03 -0.17119604991E+03  0.55424046674E+03  0.25500000920E-02 0. -1.
</event>
<event>
 5   0  0.5052959E-04  0.1198476E+04  0.7818609E-02  0.9114191E-01
        1   -1    0    0  501    0  0.00000000000E+00  0.00000000000E+00  0.12853863600E+04  0.12853863600E+04  0.50400001928E-02 0.  1.
       -1   -1    0    0    0  501  0.00000000000E+00  0.00000000000E+00 -0.27936068278E+03  0.27936068282E+03  0.50400001928E-02 0. -1.
    10030    2    1    2    0    0  0.00000000000E+00  0.00000000000E+00  0.10060256772E+04  0.15647470428E+04  0.11984763848E+04 0.  0.
        2    1    3    3  502    0 -0.70189166770E+02  0.13920761056E+03 -0.25241875877E+03  0.29668250328E+03  0.25500000920E-02 0. -1.
       -2    1    3    3    0  502  0.70189166770E+02 -0.13920761056E+03  0.12584444360E+04  0.12680645395E+04  0.25500000920E-02 0.  1.
</event>
<event>
 5   0  0.9050363E-04  0.1202353E+04  0.7818609E-02  0.9110799E-01
        2   -1    0    0  501    0  0.00000000000E+00  0.00000000000E+00  0.77266311612E+03  0.77266311612E+03  0.25500000920E-02 0.  1.
       -2   -1    0    0    0  501  0.00000000000E+00  0.00000000000E+00 -0.46775014793E+03  0.46775014794E+03  0.25500000920E-02 0. -1.
    10030    2    1    2    0    0  0.00000000000E+00  0.00000000000E+00  0.30491296819E+03  0.12404132641E+04  0.12023531709E+04 0.  0.
        3    1    3    3  502    0 -0.10110748082E+03  0.40123596221E+03 -0.29746828024E+03  0.50960809255E+03  0.10100000352E+00 0. -1.
       -3    1    3    3    0  502  0.10110748082E+03 -0.40123596221E+03  0.60238124842E+03  0.73080517151E+03  0.10100000352E+00 0.  1.
</event>
<event>
 5   0  0.9145224E-04  0.1197892E+04  0.7818609E-02  0.9114704E-01
        2   -1    0    0  501    0  0.00000000000E+00  0.00000000000E+00  0.14358380995E+04  0.14358380995E+04  0.25500000920E-02 0.  1.
       -2   -1    0    0    0  501  0.00000000000E+00  0.00000000000E+00 -0.24984444233E+03  0.24984444234E+03  0.25500000920E-02 0. -1.
    10030    2    1    2    0    0  0.00000000000E+00  0.00000000000E+00  0.11859936572E+04  0.16856825418E+04  0.11978917635E+04 0.  0.
        5    1    3    3  502    0  0.47052314559E+03  0.24105329525E+03  0.98905858002E+03  0.11214979654E+04  0.46999998093E+01 0.  1.
       -5    1    3    3    0  502 -0.47052314559E+03 -0.24105329525E+03  0.19693507716E+03  0.56418457645E+03  0.46999998093E+01 0. -1.
</event>
<event>
 5   0  0.5157631E-04  0.1213002E+04  0.7818609E-02  0.9101552E-01
        1   -1    0    0  501    0  0.00000000000E+00  0.00000000000E+00  0.60031574897E+03  0.60031574899E+03  0.50400001928E-02 0.  1.
       -1   -1    0    0    0  501  0.00000000000E+00  0.00000000000E+00 -0.61274961101E+03  0.61274961104E+03  0.50400001928E-02 0. -1.
    10030    2    1    2    0    0  0.00000000000E+00  0.00000000000E+00 -0.12433862043E+02  0.12130653600E+04  0.12130016351E+04 0.  0.
        5    1    3    3  502    0 -0.46686330584E+03 -0.26102478220E+02  0.38003964245E+03  0.60257356857E+03  0.46999998093E+01 0.  1.
       -5    1    3    3    0  502  0.46686330584E+03  0.26102478220E+02 -0.39247350450E+03  0.61049179146E+03  0.46999998093E+01 0. -1.
</event>
<event>
 5   0  0.5003507E-04  0.1198380E+04  0.7818609E-02  0.9114275E-01
        1   -1    0    0  501    0  0.00000000000E+00  0.00000000000E+00  0.12908924554E+04  0.12908924555E+04  0.50400001928E-02 0. -1.
       -1   -1    0    0    0  501  0.00000000000E+00  0.00000000000E+00 -0.27812457396E+03  0.27812457401E+03  0.50400001928E-02 0.  1.
    10030    2    1    2    0    0  0.00000000000E+00  0.00000000000E+00  0.10127678815E+04  0.15690170295E+04  0.11983804308E+04 0.  0.
        3    1    3    3  502    0 -0.48506566867E+03  0.98731922644E+02  0.64334818244E+02  0.49917499387E+03  0.10100000352E+00 0.  1.
       -3    1    3    3    0  502  0.48506566867E+03 -0.98731922644E+02  0.94843306324E+03  0.10698420356E+04  0.10100000352E+00 0. -1.
</event>
<event>
 5   0  0.9050363E-04  0.1199663E+04  0.7818609E-02  0.9113152E-01
       -2   -1    0    0    0  501  0.00000000000E+00  0.00000000000E+00  0.84512683310E+03  0.84512683310E+03  0.25500000920E-02 0. -1.
        2   -1    0    0  501    0  0.00000000000E+00  0.00000000000E+00 -0.42573231676E+03  0.42573231676E+03  0.25500000920E-02 0.  1.
    10030    2    1    2    0    0  0.00000000000E+00  0.00000000000E+00  0.41939451634E+03  0.12708591499E+04  0.11996629604E+04 0.  0.
        3    1    3    3  502    0 -0.34274387172E+03 -0.47682806381E+03  0.33926464456E+03  0.67818793360E+03  0.10100000352E+00 0. -1.
       -3    1    3    3    0  502  0.34274387172E+03  0.47682806381E+03  0.80129871783E+02  0.59267121626E+03  0.10100000352E+00 0.  1.
</event>
<event>
 5   0  0.9298693E-04  0.1208885E+04  0.7818609E-02  0.9105115E-01
       -2   -1    0    0    0  501  0.00000000000E+00  0.00000000000E+00  0.12214359552E+04  0.12214359552E+04  0.25500000920E-02 0. -1.
        2   -1    0    0  501    0  0.00000000000E+00  0.00000000000E+00 -0.29911550804E+03  0.29911550805E+03  0.25500000920E-02 0.  1.
    10030    2    1    2    0    0  0.00000000000E+00  0.00000000000E+00  0.92232044720E+03  0.15205514633E+04  0.12088845045E+04 0.  0.
        1    1    3    3  502    0  0.48484982739E+03  0.14198786364E+03  0.87853935866E+03  0.10134452690E+04  0.50400001928E-02 0. -1.
       -1    1    3    3    0  502 -0.48484982739E+03 -0.14198786364E+03  0.43781088541E+02  0.50710619428E+03  0.50400001928E-02 0.  1.
</event>
<event>
 5   0  0.9298693E-04  0.1192750E+04  0.7818609E-02  0.9119226E-01
        2   -1    0    0  501    0  0.00000000000E+00  0.00000000000E+00  0.84672599221E+03  0.84672599221E+03  0.25500000920E-02 0.  1.
       -2   -1    0    0    0  501  0.00000000000E+00  0.00000000000E+00 -0.42004504181E+03  0.42004504181E+03  0.25500000920E-02 0. -1.
    10030    2    1    2    0    0  0.00000000000E+00  0.00000000000E+00  0.42668095040E+03  0.12667710340E+04  0.11927498561E+04 0.  0.
        1    1    3    3  502    0  0.41186373972E+01  0.58428852855E+03  0.34013543804E+03  0.67609331013E+03  0.50400001928E-02 0.  1.
       -1    1    3    3    0  502 -0.41186373972E+01 -0.58428852855E+03  0.86545512361E+02  0.59067772389E+03  0.50400001928E-02 0. -1.
</event>
<event>
 5   0  0.9410666E-04  0.1198161E+04  0.7818609E-02  0.9114468E-01
       -2   -1    0    0    0  501  0.00000000000E+00  0.00000000000E+00  0.46914850272E+03  0.46914850272E+03  0.25500000920E-02 0. -1.
        2   -1    0    0  501    0  0.00000000000E+00  0.00000000000E+00 -0.76499751572E+03  0.76499751573E+03  0.25500000920E-02 0.  1.
    10030    2    1    2    0    0  0.00000000000E+00  0.00000000000E+00 -0.29584901301E+03  0.12341460185E+04  0.11981609893E+04 0.  0.
        2    1    3    3  502    0  0.17467860845E+01  0.58235975995E+03 -0.31635684962E+01  0.58237097236E+03  0.25500000920E-02 0.  1.
       -2    1    3    3    0  502 -0.17467860845E+01 -0.58235975995E+03 -0.29268544451E+03  0.65177504609E+03  0.25500000920E-02 0. -1.
</event>
<event>
 5   0  0.5001586E-04  0.1195844E+04  0.7818609E-02  0.9116502E-01
        1   -1    0    0  501    0  0.00000000000E+00  0.00000000000E+00  0.43203310896E+03  0.43203310899E+03  0.50400001928E-02 0. -1.
       -1   -1    0    0    0  501  0.00000000000E+00  0.00000000000E+00 -0.82750831074E+03  0.82750831076E+03  0.50400001928E-02 0.  1.
    10030    2    1    2    0    0  0.00000000000E+00  0.00000000000E+00 -0.39547520178E+03  0.12595414197E+04  0.11958444518E+04 0.  0.
        1    1    3    3  502    0  0.97831083792E+02 -0.25716050381E+03  0.36139502920E+03  0.45421229930E+03  0.50400001928E-02 0. -1.
       -1    1    3    3    0  502 -0.97831083792E+02  0.25716050381E+03 -0.75687023098E+03  0.80532912045E+03  0.50400001928E-02 0.  1.
</event>
<event>
 5   0  0.9298693E-04  0.1183536E+04  0.7818609E-02  0.9127391E-01
       -2   -1    0    0    0  501  0.00000000000E+00  0.00000000000E+00  0.18011229035E+03  0.18011229036E+03  0.25500000920E-02 0. -1.
        2   -1    0    0  501    0  0.00000000000E+00  0.00000000000E+00 -0.19442834564E+04  0.19442834564E+04  0.25500000920E-02 0.  1.
    10030    2    1    2    0    0  0.00000000000E+00  0.00000000000E+00 -0.17641711661E+04  0.21243957468E+04  0.11835359672E+04 0.  0.
        1    1    3    3  502    0  0.34620300602E+03  0.31730700624E+03 -0.23577882488E+03  0.52548255144E+03  0.50400001928E-02 0. -1.
       -1    1    3    3    0  502 -0.34620300602E+03 -0.31730700624E+03 -0.15283923412E+04  0.15989131954E+04  0.50400001928E-02 0.  1.
</event>
<event>
 5   0  0.9070772E-04  0.1198768E+04  0.7818609E-02  0.9113936E-01
        2   -1    0    0  501    0  0.00000000000E+00  0.00000000000E+00  0.14450059642E+04  0.14450059642E+04  0.25500000920E-02 0. -1.
       -2   -1    0    0    0  501  0.00000000000E+00  0.00000000000E+00 -0.24862266281E+03  0.24862266282E+03  0.25500000920E-02 0.  1.
    10030    2    1    2    0    0  0.00000000000E+00  0.00000000000E+00  0.11963833014E+04  0.16936286270E+04  0.11987680853E+04 0.  0.
        4    1    3    3  502    0 -0.26431302276E+03  0.39806118573E+03  0.86947487655E+02  0.48567021743E+03  0.12699999809E+01 0.  1.
       -4    1    3    3    0  502  0.26431302276E+03 -0.39806118573E+03  0.11094358137E+04  0.12079584096E+04  0.12699999809E+01 0. -1.
</event>
<event>
 5   0  0.9050363E-04  0.1202091E+04  0.7818609E-02  0.9111028E-01
       -2   -1    0    0    0  501  0.00000000000E+00  0.00000000000E+00  0.21468688292E+03  0.21468688294E+03  0.25500000920E-02 0.  1.
        2   -1    0    0  501    0  0.00000000000E+00  0.00000000000E+00 -0.16827109387E+04  0.16827109387E+04  0.25500000920E-02 0. -1.
    10030    2    1    2    0    0  0.00000000000E+00  0.00000000000E+00 -0.14680240557E+04  0.18973978216E+04  0.12020914546E+04 0.  0.
        3    1    3    3  502    0  0.25155224174E+02  0.59281393904E+03 -0.58265864335E+03  0.83159621000E+03  0.10100000352E+00 0. -1.
       -3    1    3    3    0  502 -0.25155224174E+02 -0.59281393904E+03 -0.88536541238E+03  0.10658016116E+04  0.10100000352E+00 0.  1.
</event>
<event>
 5   0  0.5157631E-04  0.1155636E+04  0.7818609E-02  0.9152600E-01
       -1   -1    0    0    0  501  0.00000000000E+00  0.00000000000E+00  0.22447563223E+03  0.22447563228E+03  0.50400001928E-02 0. -1.
        1   -1    0    0  501    0  0.00000000000E+00  0.00000000000E+00 -0.14873478878E+04  0.14873478879E+04  0.50400001928E-02 0.  1.
    10030    2    1    2    0    0  0.00000000000E+00  0.00000000000E+00 -0.12628722556E+04  0.17118235201E+04  0.11556355092E+04 0.  0.
        5    1    3    3  502    0 -0.44288913302E+03 -0.92436338735E+02 -0.11637838690E+04  0.12486433616E+04  0.46999998093E+01 0.  1.
       -5    1    3    3    0  502  0.44288913302E+03  0.92436338735E+02 -0.99088386636E+02  0.46318015850E+03  0.46999998093E+01 0. -1.
</event>
<event>
 5   0  0.5052959E-04  0.1200336E+04  0.7818609E-02  0.9112563E-01
        1   -1    0    0  501    0  0.00000000000E+00  0.00000000000E+00  0.68526031489E+03  0.68526031491E+03  0.50400001928E-02 0. -1.
       -1   -1    0    0    0  501  0.00000000000E+00  0.00000000000E+00 -0.52564196257E+03  0.52564196260E+03  0.50400001928E-02 0.  1.
    10030    2    1    2    0    0  0.00000000000E+00  0.00000000000E+00  0.15961835232E+03  0.12109022775E+04  0.12003359143E+04 0.  0.
        2    1    3    3  502    0  0.41517311490E+03  0.26649850885E+03 -0.26497626705E+03  0.56000231487E+03  0.25500000920E-02 0.  1.
       -2    1    3    3    0  502 -0.41517311490E+03 -0.26649850885E+03  0.42459461937E+03  0.65089996263E+03  0.25500000920E-02 0. -1.
</event>
<event>
 5   0  0.9298693E-04  0.1198184E+04  0.7818609E-02  0.9114447E-01
       -2   -1    0    0    0  501  0.00000000000E+00  0.00000000000E+00  0.22120752023E+03  0.22120752025E+03  0.25500000920E-02 0.  1.
        2   -1    0    0  501    0  0.00000000000E+00  0.00000000000E+00 -0.16225098756E+04  0.16225098756E+04  0.25500000920E-02 0. -1.
    10030    2    1    2    0    0  0.00000000000E+00  0.00000000000E+00 -0.14013023554E+04  0.18437173959E+04  0.11981842699E+04 0.  0.
        1    1    3    3  502    0 -0.71788642208E+02  0.53502193517E+02  0.21085477755E+03  0.22907603781E+03  0.50400001928E-02 0.  1.
       -1    1    3    3    0  502  0.71788642208E+02 -0.53502193517E+02 -0.16121571330E+04  0.16146413581E+04  0.50400001928E-02 0. -1.
</event>
<event>
 5   0  0.9070772E-04  0.1199787E+04  0.7818609E-02  0.9113043E-01
       -2   -1    0    0    0  501  0.00000000000E+00  0.00000000000E+00  0.14357251102E+03  0.14357251105E+03  0.25500000920E-02 0.  1.
        2   -1    0    0  501    0  0.00000000000E+00  0.00000000000E+00 -0.25065522796E+04  0.25065522796E+04  0.25500000920E-02 0. -1.
    10030    2    1    2    0    0  0.00000000000E+00  0.00000000000E+00 -0.23629797686E+04  0.26501247907E+04  0.11997866558E+04 0.  0.
        4    1    3    3  502    0  0.17645493418E+03  0.39582891546E+03 -0.26528189234E+03  0.50812692254E+03  0.12699999809E+01 0.  1.
       -4    1    3    3    0  502 -0.17645493418E+03 -0.39582891546E+03 -0.20976978763E+04  0.21419978681E+04  0.12699999809E+01 0. -1.
</event>
<event>
 5   0  0.9050363E-04  0.1233144E+04  0.7818609E-02  0.9084331E-01
        2   -1    0    0  501    0  0.00000000000E+00  0.00000000000E+00  0.11627919421E+04  0.11627919421E+04  0.25500000920E-02 0. -1.
       -2   -1    0    0    0  501  0.00000000000E+00  0.00000000000E+00 -0.32693789505E+03  0.32693789506E+03  0.25500000920E-02 0.  1.
    10030    2    1    2    0    0  0.00000000000E+00  0.00000000000E+00  0.83585404700E+03  0.14897298371E+04  0.12331435438E+04 0.  0.
        3    1    3    3  502    0 -0.30608802144E+03  0.64919103964E+02  0.10597507396E+04  0.11049778311E+04  0.10100000352E+00 0. -1.
       -3    1    3    3    0  502  0.30608802144E+03 -0.64919103964E+02 -0.22389669264E+03  0.38475200598E+03  0.10100000352E+00 0.  1.
</event>
<event>
 5   0  0.5001586E-04  0.1201817E+04  0.7818609E-02  0.9111267E-01
       -1   -1    0    0    0  501  0.00000000000E+00  0.00000000000E+00  0.10300320868E+04  0.10300320868E+04  0.50400001928E-02 0. -1.
        1   -1    0    0  501    0  0.00000000000E+00  0.00000000000E+00 -0.35056300674E+03  0.35056300678E+03  0.50400001928E-02 0.  1.
    10030    2    1    2    0    0  0.00000000000E+00  0.00000000000E+00  0.67946908008E+03  0.13805950936E+04  0.12018171998E+04 0.  0.
        1    1    3    3  502    0 -0.26740422039E+02 -0.58302155166E+03  0.17541031799E+03  0.60942428533E+03  0.50400001928E-02 0.  1.
       -1    1    3    3    0  502  0.26740422039E+02  0.58302155166E+03  0.50405876210E+03  0.77117080828E+03  0.50400001928E-02 0. -1.
</event>
<event>
 5   0  0.9410666E-04  0.1227630E+04  0.7818609E-02  0.9089010E-01
        2   -1    0    0  501    0  0.00000000000E+00  0.00000000000E+00  0.11454423513E+04  0.11454423513E+04  0.25500000920E-02 0. -1.
       -2   -1    0    0    0  501  0.00000000000E+00  0.00000000000E+00 -0.32892894311E+03  0.32892894312E+03  0.25500000920E-02 0.  1.
    10030    2    1    2    0    0  0.00000000000E+00  0.00000000000E+00  0.81651340815E+03  0.14743712944E+04  0.12276304688E+04 0.  0.
        2    1    3    3  502    0  0.45500229413E+03 -0.29137430452E+03  0.58434483056E+02  0.54345253870E+03  0.25500000920E-02 0.  1.
       -2    1    3    3    0  502 -0.45500229413E+03  0.29137430452E+03  0.75807892510E+03  0.93091875568E+03  0.25500000920E-02 0. -1.
</event>
<event>
 5   0  0.5001586E-04  0.1201268E+04  0.7818609E-02  0.9111747E-01
       -1   -1    0    0    0  501  0.00000000000E+00  0.00000000000E+00  0.86596964046E+03  0.86596964047E+03  0.50400001928E-02 0. -1.
        1   -1    0    0  501    0  0.00000000000E+00  0.00000000000E+00 -0.41659806624E+03  0.41659806627E+03  0.50400001928E-02 0.  1.
    10030    2    1    2    0    0  0.00000000000E+00  0.00000000000E+00  0.44937157422E+03  0.12825677067E+04  0.12012681260E+04 0.  0.
        1    1    3    3  502    0 -0.30790190906E+03 -0.29283914114E+03  0.67791852299E+03  0.80008241577E+03  0.50400001928E-02 0. -1.
       -1    1    3    3    0  502  0.30790190906E+03  0.29283914114E+03 -0.22854694876E+03  0.48248529097E+03  0.50400001928E-02 0.  1.
</event>
<event>
 5   0  0.5052959E-04  0.1197461E+04  0.7818609E-02  0.9115082E-01
        1   -1    0    0  501    0  0.00000000000E+00  0.00000000000E+00  0.20715795253E+04  0.20715795254E+04  0.50400001928E-02 0. -1.
       -1   -1    0    0    0  501  0.00000000000E+00  0.00000000000E+00 -0.17304588701E+03  0.17304588708E+03  0.50400001928E-02 0.  1.
    10030    2    1    2    0    0  0.00000000000E+00  0.00000000000E+00  0.18985336383E+04  0.22446254124E+04  0.11974611753E+04 0.  0.
        2    1    3    3  502    0  0.25656815222E+03  0.15280740107E+03  0.19220172134E+04  0.19450777587E+04  0.25500000920E-02 0. -1.
       -2    1    3    3    0  502 -0.25656815222E+03 -0.15280740107E+03 -0.23483575111E+02  0.29954765374E+03  0.25500000920E-02 0.  1.
</event>
<event>
 5   0  0.9145224E-04  0.1187759E+04  0.7818609E-02  0.9123639E-01
        2   -1    0    0  501    0  0.00000000000E+00  0.00000000000E+00  0.36880940577E+03  0.36880940578E+03  0.25500000920E-02 0.  1.
       -2   -1    0    0    0  501  0.00000000000E+00  0.00000000000E+00 -0.95630069243E+03  0.95630069244E+03  0.25500000920E-02 0. -1.
    10030    2    1    2    0    0  0.00000000000E+00  0.00000000000E+00 -0.58749128666E+03  0.13251100982E+04  0.11877587131E+04 0.  0.
        5    1    3    3  502    0 -0.47689678066E+03  0.42094353435E+02  0.98267986435E+02  0.48875470448E+03  0.46999998093E+01 0.  1.
       -5    1    3    3    0  502  0.47689678066E+03 -0.42094353435E+02 -0.68575927310E+03  0.83635539374E+03  0.46999998093E+01 0. -1.
</event>
<event>
 5   0  0.5001586E-04  0.1197100E+04  0.7818609E-02  0.9115399E-01
        1   -1    0    0  501    0  0.00000000000E+00  0.00000000000E+00  0.28284296735E+03  0.28284296739E+03  0.50400001928E-02 0.  1.
       -1   -1    0    0    0  501  0.00000000000E+00  0.00000000000E+00 -0.12666460652E+04  0.12666460653E+04  0.50400001928E-02 0. -1.
    10030    2    1    2    0    0  0.00000000000E+00  0.00000000000E+00 -0.98380309789E+03  0.15494890326E+04  0.11970997147E+04 0.  0.
        1    1    3    3  502    0  0.45286046417E+02  0.81283302578E+02 -0.12572275299E+04  0.12606660396E+04  0.50400001928E-02 0. -1.
       -1    1    3    3    0  502 -0.45286046417E+02 -0.81283302578E+02  0.27342443203E+03  0.28882299309E+03  0.50400001928E-02 0.  1.
</event>
<event>
 5   0  0.9070772E-04  0.1198148E+04  0.7818609E-02  0.9114479E-01
        2   -1    0    0  501    0  0.00000000000E+00  0.00000000000E+00  0.10126112639E+04  0.10126112639E+04  0.25500000920E-02 0.  1.
       -2   -1    0    0    0  501  0.00000000000E+00  0.00000000000E+00 -0.35442005754E+03  0.35442005755E+03  0.25500000920E-02 0. -1.
    10030    2    1    2    0    0  0.00000000000E+00  0.00000000000E+00  0.65819120637E+03  0.13670313215E+04  0.11981481418E+04 0.  0.
        4    1    3    3  502    0 -0.10614072685E+03 -0.32424921512E+03  0.89093234534E+03  0.95402592432E+03  0.12699999809E+01 0.  1.
       -4    1    3    3    0  502  0.10614072685E+03  0.32424921512E+03 -0.23274113896E+03  0.41300539715E+03  0.12699999809E+01 0. -1.
</event>
<event>
 5   0  0.3453625E-04  0.1196871E+04  0.7818609E-02  0.9115599E-01
       -3   -1    0    0    0  501  0.00000000000E+00  0.00000000000E+00  0.55440190472E+03  0.55440191392E+03  0.10100000352E+00 0.  1.
        3   -1    0    0  501    0  0.00000000000E+00  0.00000000000E+00 -0.64596678407E+03  0.64596679197E+03  0.10100000352E+00 0. -1.
    10030    2    1    2    0    0  0.00000000000E+00  0.00000000000E+00 -0.91564879348E+02  0.12003687059E+04  0.11968712976E+04 0.  0.
        2    1    3    3  502    0 -0.22306311998E+03  0.41272022761E+03 -0.41839208135E+03  0.62860725061E+03  0.25500000920E-02 0. -1.
       -2    1    3    3    0  502  0.22306311998E+03 -0.41272022761E+03  0.32682720200E+03  0.57176145528E+03  0.25500000920E-02 0.  1.
</event>
<event>
 5   0  0.9050363E-04  0.1193753E+04  0.7818609E-02  0.9118342E-01
       -2   -1    0    0    0  501  0.00000000000E+00  0.00000000000E+00  0.48449612201E+03  0.48449612202E+03  0.25500000920E-02 0.  1.
        2   -1    0    0  501    0  0.00000000000E+00  0.00000000000E+00 -0.73532422433E+03  0.73532422433E+03  0.25500000920E-02 0. -1.
    10030    2    1    2    0    0  0.00000000000E+00  0.00000000000E+00 -0.25082810232E+03  0.12198203464E+04  0.11937532997E+04 0.  0.
        3    1    3    3  502    0 -0.96857075740E+02  0.46415421104E+03  0.24505097209E+03  0.53373253027E+03  0.10100000352E+00 0.  1.
       -3    1    3    3    0  502  0.96857075740E+02 -0.46415421104E+03 -0.49587907441E+03  0.68608781608E+03  0.10100000352E+00 0. -1.
</event>
<event>
 5   0  0.9145224E-04  0.1207260E+04  0.7818609E-02  0.9106526E-01
        2   -1    0    0  501    0  0.00000000000E+00  0.00000000000E+00  0.10446597944E+04  0.10446597944E+04  0.25500000920E-02 0.  1.
       -2   -1    0    0    0  501  0.00000000000E+00  0.00000000000E+00 -0.34879205953E+03  0.34879205954E+03  0.25500000920E-02 0. -1.
    10030    2    1    2    0    0  0.00000000000E+00  0.00000000000E+00  0.69586773486E+03  0.13934518539E+04  0.12072597752E+04 0.  0.
        5    1    3    3  502    0 -0.20647951282E+03 -0.53348237912E+03  0.12558494154E+03  0.58568840316E+03  0.46999998093E+01 0.  1.
       -5    1    3    3    0  502  0.20647951282E+03  0.53348237912E+03  0.57028279332E+03  0.80776345077E+03  0.46999998093E+01 0. -1.
</event>
<event>
 5   0  0.5003507E-04  0.1204118E+04  0.7818609E-02  0.9109260E-01
       -1   -1    0    0    0  501  0.00000000000E+00  0.00000000000E+00  0.29276413504E+03  0.29276413508E+03  0.50400001928E-02 0. -1.
        1   -1    0    0  501    0  0.00000000000E+00  0.00000000000E+00 -0.12381122332E+04  0.12381122332E+04  0.50400001928E-02 0.  1.
    10030    2    1    2    0    0  0.00000000000E+00  0.00000000000E+00 -0.94534809819E+03  0.15308763683E+04  0.12041176970E+04 0.  0.
        3    1    3    3  502    0 -0.14213667856E+03 -0.86399304826E+02  0.26297140525E+03  0.31116176733E+03  0.10100000352E+00 0. -1.
       -3    1    3    3    0  502  0.14213667856E+03  0.86399304826E+02 -0.12083195034E+04  0.12197146010E+04  0.10100000352E+00 0.  1.
</event>
<event>
 5   0  0.9410666E-04  0.1200595E+04  0.7818609E-02  0.9112336E-01
        2   -1    0    0  501    0  0.00000000000E+00  0.00000000000E+00  0.45295683266E+03  0.45295683267E+03  0.25500000920E-02 0. -1.
       -2   -1    0    0    0  501  0.00000000000E+00  0.00000000000E+00 -0.79556588622E+03  0.79556588622E+03  0.25500000920E-02 0.  1.
    10030    2    1    2    0    0  0.00000000000E+00  0.00000000000E+00 -0.34260905356E+03  0.12485227189E+04  0.12005948592E+04 0.  0.
        2    1    3    3  502    0  0.15340379966E+03  0.39205550507E+03  0.27369957780E+03  0.50214709369E+03  0.25500000920E-02 0. -1.
       -2    1    3    3    0  502 -0.15340379966E+03 -0.39205550507E+03 -0.61630863136E+03  0.74637562520E+03  0.25500000920E-02 0.  1.
</event>
<event>
 5   0  0.9070772E-04  0.1194664E+04  0.7818609E-02  0.9117540E-01
       -2   -1    0    0    0  501  0.00000000000E+00  0.00000000000E+00  0.70418820842E+03  0.70418820843E+03  0.25500000920E-02 0. -1.
        2   -1    0    0  501    0  0.00000000000E+00  0.00000000000E+00 -0.50669022981E+03  0.50669022982E+03  0.25500000920E-02 0.  1.
    10030    2    1    2    0    0  0.00000000000E+00  0.00000000000E+00  0.19749797861E+03  0.12108784382E+04  0.11946636098E+04 0.  0.
        4    1    3    3  502    0 -0.17525009790E+03  0.15715495019E+02  0.67732422488E+03  0.69980661051E+03  0.12699999809E+01 0. -1.
       -4    1    3    3    0  502  0.17525009790E+03 -0.15715495019E+02 -0.47982624627E+03  0.51107182774E+03  0.12699999809E+01 0.  1.
</event>
<event>
 5   0  0.9070772E-04  0.1123669E+04  0.7818609E-02  0.9182425E-01
        2   -1    0    0  501    0  0.00000000000E+00  0.00000000000E+00  0.54786292871E+03  0.54786292871E+03  0.25500000920E-02 0. -1.
       -2   -1    0    0    0  501  0.00000000000E+00  0.00000000000E+00 -0.57616204264E+03  0.57616204264E+03  0.25500000920E-02 0.  1.
    10030    2    1    2    0    0  0.00000000000E+00  0.00000000000E+00 -0.28299113928E+02  0.11240249714E+04  0.11236686773E+04 0.  0.
        4    1    3    3  502    0 -0.53274792753E+03  0.13996993125E+03  0.96539382612E+02  0.55922571582E+03  0.12699999809E+01 0. -1.
       -4    1    3    3    0  502  0.53274792753E+03 -0.13996993125E+03 -0.12483849654E+03  0.56479925554E+03  0.12699999809E+01 0.  1.
</event>
<event>
 5   0  0.5447074E-04  0.1197864E+04  0.7818609E-02  0.9114728E-01
       -1   -1    0    0    0  501  0.00000000000E+00  0.00000000000E+00  0.37094398123E+03  0.37094398127E+03  0.50400001928E-02 0.  1.
        1   -1    0    0  501    0  0.00000000000E+00  0.00000000000E+00 -0.96704460055E+03  0.96704460056E+03  0.50400001928E-02 0. -1.
    10030    2    1    2    0    0  0.00000000000E+00  0.00000000000E+00 -0.59610061932E+03  0.13379885818E+04  0.11978637221E+04 0.  0.
        4    1    3    3  502    0 -0.14153676336E+03  0.58074615929E+03 -0.25597407560E+03  0.65024848881E+03  0.12699999809E+01 0.  1.
       -4    1    3    3    0  502  0.14153676336E+03 -0.58074615929E+03 -0.34012654372E+03  0.68774009303E+03  0.12699999809E+01 0. -1.
</event>
<event>
 5   0  0.5003507E-04  0.1197195E+04  0.7818609E-02  0.9115315E-01
        1   -1    0    0  501    0  0.00000000000E+00  0.00000000000E+00  0.17035198061E+04  0.17035198061E+04  0.50400001928E-02 0. -1.
       -1   -1    0    0    0  501  0.00000000000E+00  0.00000000000E+00 -0.21034028477E+03  0.21034028483E+03  0.50400001928E-02 0.  1.
    10030    2    1    2    0    0  0.00000000000E+00  0.00000000000E+00  0.14931795214E+04  0.19138600910E+04  0.11971947898E+04 0.  0.
        3    1    3    3  502    0  0.20514395670E+03  0.50886708554E+03  0.11292217555E+04  0.12554567045E+04  0.10100000352E+00 0. -1.
       -3    1    3    3    0  502 -0.20514395670E+03 -0.50886708554E+03  0.36395776588E+03  0.65840338643E+03  0.10100000352E+00 0.  1.
</event>
<event>
 5   0  0.5001586E-04  0.1203182E+04  0.7818609E-02  0.9110075E-01
        1   -1    0    0  501    0  0.00000000000E+00  0.00000000000E+00  0.98137964569E+03  0.98137964570E+03  0.50400001928E-02 0.  1.
       -1   -1    0    0    0  501  0.00000000000E+00  0.00000000000E+00 -0.36877880393E+03  0.36877880396E+03  0.50400001928E-02 0. -1.
    10030    2    1    2    0    0  0.00000000000E+00  0.00000000000E+00  0.61260084176E+03  0.13501584497E+04  0.12031824666E+04 0.  0.
        1    1    3    3  502    0  0.12310969181E+03  0.97057624905E+01 -0.35440253038E+03  0.37530168080E+03  0.50400001928E-02 0. -1.
       -1    1    3    3    0  502 -0.12310969181E+03 -0.97057624905E+01  0.96700337214E+03  0.97485676886E+03  0.50400001928E-02 0.  1.
</event>
<event>
 5   0  0.5447074E-04  0.1189734E+04  0.7818609E-02  0.9121890E-01
       -1   -1    0    0    0  501  0.00000000000E+00  0.00000000000E+00  0.41098124076E+03  0.41098124079E+03  0.50400001928E-02 0. -1.
        1   -1    0    0  501    0  0.00000000000E+00  0.00000000000E+00 -0.86102847361E+03  0.86102847362E+03  0.50400001928E-02 0.  1.
    10030    2    1    2    0    0  0.00000000000E+00  0.00000000000E+00 -0.45004723285E+03  0.12720097144E+04  0.11897336684E+04 0.  0.
        4    1    3    3  502    0 -0.72125765654E+02 -0.55090762918E+03  0.21903018114E+01  0.55561475168E+03  0.12699999809E+01 0. -1.
       -4    1    3    3    0  502  0.72125765654E+02  0.55090762918E+03 -0.45223753466E+03  0.71639496273E+03  0.12699999809E+01 0.  1.
</event>
<event>
 5   0  0.5001586E-04  0.1193406E+04  0.7818609E-02  0.9118648E-01
        1   -1    0    0  501    0  0.00000000000E+00  0.00000000000E+00  0.60586903975E+03  0.60586903977E+03  0.50400001928E-02 0.  1.
       -1   -1    0    0    0  501  0.00000000000E+00  0.00000000000E+00 -0.58767547120E+03  0.58767547122E+03  0.50400001928E-02 0. -1.
    10030    2    1    2    0    0  0.00000000000E+00  0.00000000000E+00  0.18193568555E+02  0.11935445110E+04  0.11934058378E+04 0.  0.
        1    1    3    3  502    0  0.88197610482E+02  0.53773027495E+03 -0.23408102505E+03  0.59306542085E+03  0.50400001928E-02 0. -1.
       -1    1    3    3    0  502 -0.88197610482E+02 -0.53773027495E+03  0.25227459360E+03  0.60047909014E+03  0.50400001928E-02 0.  1.
</event>
<event>
 5   0  0.9410666E-04  0.1199020E+04  0.7818609E-02  0.9113715E-01
       -2   -1    0    0    0  501  0.00000000000E+00  0.00000000000E+00  0.35860673151E+03  0.35860673152E+03  0.25500000920E-02 0.  1.
        2   -1    0    0  501    0  0.00000000000E+00  0.00000000000E+00 -0.10022466729E+04  0.10022466729E+04  0.25500000920E-02 0. -1.
    10030    2    1    2    0    0  0.00000000000E+00  0.00000000000E+00 -0.64363994136E+03  0.13608534044E+04  0.11990202726E+04 0.  0.
        2    1    3    3  502    0  0.45575368168E+03 -0.19367999147E+03  0.61707998196E+02  0.49903029418E+03  0.25500000920E-02 0.  1.
       -2    1    3    3    0  502 -0.45575368168E+03  0.19367999147E+03 -0.70534793956E+03  0.86182311022E+03  0.25500000920E-02 0. -1.
</event>
<event>
 5   0  0.5447074E-04  0.1209143E+04  0.7818609E-02  0.9104891E-01
       -1   -1    0    0    0  501  0.00000000000E+00  0.00000000000E+00  0.21426948816E+03  0.21426948822E+03  0.50400001928E-02 0.  1.
        1   -1    0    0  501    0  0.00000000000E+00  0.00000000000E+00 -0.17058278790E+04  0.17058278790E+04  0.50400001928E-02 0. -1.
    10030    2    1    2    0    0  0.00000000000E+00  0.00000000000E+00 -0.14915583908E+04  0.19200973672E+04  0.12091432779E+04 0.  0.
        4    1    3    3  502    0 -0.32311533893E+03  0.11995726435E+03 -0.15345314455E+04  0.15727624225E+04  0.12699999809E+01 0. -1.
       -4    1    3    3    0  502  0.32311533893E+03 -0.11995726435E+03  0.42973054632E+02  0.34733494476E+03  0.12699999809E+01 0.  1.
</event>
<event>
 5   0  0.9070772E-04  0.1202737E+04  0.7818609E-02  0.9110465E-01
        2   -1    0    0  501    0  0.00000000000E+00  0.00000000000E+00  0.48344788435E+03  0.48344788436E+03  0.25500000920E-02 0. -1.
       -2   -1    0    0    0  501  0.00000000000E+00  0.00000000000E+00 -0.74805120687E+03  0.74805120687E+03  0.25500000920E-02 0.  1.
    10030    2    1    2    0    0  0.00000000000E+00  0.00000000000E+00 -0.26460332252E+03  0.12314990912E+04  0.12027365021E+04 0.  0.
        4    1    3    3  502    0  0.43107637910E+03 -0.16034215185E+03  0.26439834820E+03  0.53051347740E+03  0.12699999809E+01 0. -1.
       -4    1    3    3    0  502 -0.43107637910E+03  0.16034215185E+03 -0.52900167072E+03  0.70098561383E+03  0.12699999809E+01 0.  1.
</event>
<event>
 5   0  0.5001586E-04  0.1203613E+04  0.7818609E-02  0.9109700E-01
        1   -1    0    0  501    0  0.00000000000E+00  0.00000000000E+00  0.26195767621E+03  0.26195767626E+03  0.50400001928E-02 0.  1.
       -1   -1    0    0    0  501  0.00000000000E+00  0.00000000000E+00 -0.13825552388E+04  0.13825552388E+04  0.50400001928E-02 0. -1.
    10030    2    1    2    0    0  0.00000000000E+00  0.00000000000E+00 -0.11205975626E+04  0.16445129151E+04  0.12036128242E+04 0.  0.
        1    1    3    3  502    0  0.47014955478E+03  0.18176650504E+03 -0.11109248501E+03  0.51616005896E+03  0.50400001928E-02 0.  1.
       -1    1    3    3    0  502 -0.47014955478E+03 -0.18176650504E+03 -0.10095050776E+04  0.11283528561E+04  0.50400001928E-02 0. -1.
</event>
<event>
 5   0  0.5003507E-04  0.1213406E+04  0.7818609E-02  0.9101203E-01
        1   -1    0    0  501    0  0.00000000000E+00  0.00000000000E+00  0.65179096388E+03  0.65179096389E+03  0.50400001928E-02 0. -1.
       -1   -1    0    0    0  501  0.00000000000E+00  0.00000000000E+00 -0.56473389676E+03  0.56473389679E+03  0.50400001928E-02 0.  1.
    10030    2    1    2    0    0  0.00000000000E+00  0.00000000000E+00  0.87057067112E+02  0.12165248607E+04  0.12134058693E+04 0.  0.
        3    1    3    3  502    0  0.12143101035E+03  0.36893636760E+03 -0.42374771417E+03  0.57482316332E+03  0.10100000352E+00 0.  1.
       -3    1    3    3    0  502 -0.12143101035E+03 -0.36893636760E+03  0.51080478129E+03  0.64170169736E+03  0.10100000352E+00 0. -1.
</event>
<event>
 5   0  0.9410666E-04  0.1191271E+04  0.7818609E-02  0.9120531E-01
        2   -1    0    0  501    0  0.00000000000E+00  0.00000000000E+00  0.14223118650E+04  0.14223118650E+04  0.25500000920E-02 0. -1.
       -2   -1    0    0    0  501  0.00000000000E+00  0.00000000000E+00 -0.24944026312E+03  0.24944026314E+03  0.25500000920E-02 0.  1.
    10030    2    1    2    0    0  0.00000000000E+00  0.00000000000E+00  0.11728716019E+04  0.16717521282E+04  0.11912713308E+04 0.  0.
        2    1    3    3  502    0 -0.97388072468E+02 -0.36330597701E+02  0.14094857844E+04  0.14133133146E+04  0.25500000920E-02 0. -1.
       -2    1    3    3    0  502  0.97388072468E+02  0.36330597701E+02 -0.23661418247E+03  0.25843881353E+03  0.25500000920E-02 0.  1.
</event>
<event>
 5   0  0.9050363E-04  0.1200777E+04  0.7818609E-02  0.9112177E-01
       -2   -1    0    0    0  501  0.00000000000E+00  0.00000000000E+00  0.19495843061E+03  0.19495843062E+03  0.25500000920E-02 0.  1.
        2   -1    0    0  501    0  0.00000000000E+00  0.00000000000E+00 -0.18489384958E+04  0.18489384958E+04  0.25500000920E-02 0. -1.
    10030    2    1    2    0    0  0.00000000000E+00  0.00000000000E+00 -0.16539800652E+04  0.20438969265E+04  0.12007766611E+04 0.  0.
        3    1    3    3  502    0  0.25120825798E+02 -0.15121859025E+03  0.16108766111E+03  0.22236762959E+03  0.10100000352E+00 0.  1.
       -3    1    3    3    0  502 -0.25120825798E+02  0.15121859025E+03 -0.18150677263E+04  0.18215292969E+04  0.10100000352E+00 0. -1.
</event>
<event>
 5   0  0.9145224E-04  0.1196981E+04  0.7818609E-02  0.9115503E-01
        2   -1    0    0  501    0  0.00000000000E+00  0.00000000000E+00  0.10747278497E+04  0.10747278497E+04  0.25500000920E-02 0. -1.
       -2   -1    0    0    0  501  0.00000000000E+00  0.00000000000E+00 -0.33328532663E+03  0.33328532664E+03  0.25500000920E-02 0.  1.
    10030    2    1    2    0    0  0.00000000000E+00  0.00000000000E+00  0.74144252306E+03  0.14080131763E+04  0.11969812403E+04 0.  0.
        5    1    3    3  502    0 -0.46898283934E+03 -0.26815375053E+03  0.67364531448E+03  0.86352269063E+03  0.46999998093E+01 0. -1.
       -5    1    3    3    0  502  0.46898283934E+03  0.26815375053E+03  0.67797208576E+02  0.54449048569E+03  0.46999998093E+01 0.  1.
</event>
<event>
 5   0  0.5447074E-04  0.1198198E+04  0.7818609E-02  0.9114436E-01
       -1   -1    0    0    0  501  0.00000000000E+00  0.00000000000E+00  0.57769432639E+03  0.57769432642E+03  0.50400001928E-02 0. -1.
        1   -1    0    0  501    0  0.00000000000E+00  0.00000000000E+00 -0.62129638653E+03  0.62129638656E+03  0.50400001928E-02 0.  1.
    10030    2    1    2    0    0  0.00000000000E+00  0.00000000000E+00 -0.43602060140E+02  0.11989907130E+04  0.11981976424E+04 0.  0.
        4    1    3    3  502    0 -0.87634570076E+02 -0.53703160861E+03 -0.27263608528E+03  0.60861713286E+03  0.12699999809E+01 0.  1.
       -4    1    3    3    0  502  0.87634570076E+02  0.53703160861E+03  0.22903402514E+03  0.59037358011E+03  0.12699999809E+01 0. -1.
</event>
<event>
 5   0  0.5001586E-04  0.1210831E+04  0.7818609E-02  0.9103429E-01
        1   -1    0    0  501    0  0.00000000000E+00  0.00000000000E+00  0.64319769952E+03  0.64319769954E+03  0.50400001928E-02 0.  1.
       -1   -1    0    0    0  501  0.00000000000E+00  0.00000000000E+00 -0.56985271243E+03  0.56985271246E+03  0.50400001928E-02 0. -1.
    10030    2    1    2    0    0  0.00000000000E+00  0.00000000000E+00  0.73344987082E+02  0.12130504120E+04  0.12108310431E+04 0.  0.
        1    1    3    3  502    0 -0.28968623817E+03 -0.43045783598E+02 -0.49416369260E+03  0.57442911763E+03  0.50400001928E-02 0. -1.
       -1    1    3    3    0  502  0.28968623817E+03  0.43045783598E+02  0.56750867968E+03  0.63862129436E+03  0.50400001928E-02 0.  1.
</event>
<event>
 5   0  0.5003507E-04  0.1199351E+04  0.7818609E-02  0.9113425E-01
       -1   -1    0    0    0  501  0.00000000000E+00  0.00000000000E+00  0.66615957923E+03  0.66615957925E+03  0.50400001928E-02 0. -1.
        1   -1    0    0  501    0  0.00000000000E+00  0.00000000000E+00 -0.53982657263E+03  0.53982657265E+03  0.50400001928E-02 0.  1.
    10030    2    1    2    0    0  0.00000000000E+00  0.00000000000E+00  0.12633300660E+03  0.12059861519E+04  0.11993508953E+04 0.  0.
        3    1    3    3  502    0 -0.14219229601E+03 -0.64803292105E+02 -0.51899463934E+03  0.54200882057E+03  0.10100000352E+00 0.  1.
       -3    1    3    3    0  502  0.14219229601E+03  0.64803292105E+02  0.64532764594E+03  0.66397733134E+03  0.10100000352E+00 0. -1.
</event>
<event>
 5   0  0.9050363E-04  0.1205238E+04  0.7818609E-02  0.9108284E-01
       -2   -1    0    0    0  501  0.00000000000E+00  0.00000000000E+00  0.23776673814E+03  0.23776673815E+03  0.25500000920E-02 0. -1.
        2   -1    0    0  501    0  0.00000000000E+00  0.00000000000E+00 -0.15273367250E+04  0.15273367250E+04  0.25500000920E-02 0.  1.
    10030    2    1    2    0    0  0.00000000000E+00  0.00000000000E+00 -0.12895699868E+04  0.17651034631E+04  0.12052383518E+04 0.  0.
        3    1    3    3  502    0  0.24394421148E+03  0.99159054793E+02  0.14904855684E+03  0.30258350741E+03  0.10100000352E+00 0. -1.
       -3    1    3    3    0  502 -0.24394421148E+03 -0.99159054793E+02 -0.14386185437E+04  0.14625199557E+04  0.10100000352E+00 0.  1.
</event>
<event>
 5   0  0.9410666E-04  0.1204619E+04  0.7818609E-02  0.9108823E-01
        2   -1    0    0  501    0  0.00000000000E+00  0.00000000000E+00  0.46600967339E+03  0.46600967340E+03  0.25500000920E-02 0.  1.
       -2   -1    0    0    0  501  0.00000000000E+00  0.00000000000E+00 -0.77847445672E+03  0.77847445672E+03  0.25500000920E-02 0. -1.
    10030    2    1    2    0    0  0.00000000000E+00  0.00000000000E+00 -0.31246478332E+03  0.12444841301E+04  0.12046188232E+04 0.  0.
        2    1    3    3  502    0  0.22294549507E+03  0.24488369840E+03 -0.67597598290E+03  0.75273916397E+03  0.25500000920E-02 0. -1.
       -2    1    3    3    0  502 -0.22294549507E+03 -0.24488369840E+03  0.36351119957E+03  0.49174496615E+03  0.25500000920E-02 0.  1.
</event>
<event>
 5   0  0.5052959E-04  0.1196477E+04  0.7818609E-02  0.9115945E-01
        1   -1    0    0  501    0  0.00000000000E+00  0.00000000000E+00  0.85576624794E+03  0.85576624796E+03  0.50400001928E-02 0.  1.
       -1   -1    0    0    0  501  0.00000000000E+00  0.00000000000E+00 -0.41820945657E+03  0.41820945660E+03  0.50400001928E-02 0. -1.
    10030    2    1    2    0    0  0.00000000000E+00  0.00000000000E+00  0.43755679137E+03  0.12739757046E+04  0.11964773922E+04 0.  0.
        2    1    3    3  502    0  0.47042212156E+03  0.36841106483E+03  0.25010970740E+03  0.64774883318E+03  0.25500000920E-02 0.  1.
       -2    1    3    3    0  502 -0.47042212156E+03 -0.36841106483E+03  0.18744708398E+03  0.62622687138E+03  0.25500000920E-02 0. -1.
</event>
<event>
 5   0  0.5052959E-04  0.1195002E+04  0.7818609E-02  0.9117242E-01
        1   -1    0    0  501    0  0.00000000000E+00  0.00000000000E+00  0.89698647444E+03  0.89698647445E+03  0.50400001928E-02 0.  1.
       -1   -1    0    0    0  501  0.00000000000E+00  0.00000000000E+00 -0.39800781188E+03  0.39800781192E+03  0.50400001928E-02 0. -1.
    10030    2    1    2    0    0  0.00000000000E+00  0.00000000000E+00  0.49897866255E+03  0.12949942864E+04  0.11950022996E+04 0.  0.
        2    1    3    3  502    0  0.17123694184E+03  0.51766602438E+03  0.51428645745E+03  0.74952702645E+03  0.25500000920E-02 0.  1.
       -2    1    3    3    0  502 -0.17123694184E+03 -0.51766602438E+03 -0.15307794896E+02  0.54546725992E+03  0.25500000920E-02 0. -1.
</event>
<event>
 5   0  0.9298693E-04  0.1221792E+04  0.7818609E-02  0.9093993E-01
        2   -1    0    0  501    0  0.00000000000E+00  0.00000000000E+00  0.11262057038E+04  0.11262057038E+04  0.25500000920E-02 0.  1.
       -2   -1    0    0    0  501  0.00000000000E+00  0.00000000000E+00 -0.33137293946E+03  0.33137293947E+03  0.25500000920E-02 0. -1.
    10030    2    1    2    0    0  0.00000000000E+00  0.00000000000E+00  0.79483276437E+03  0.14575786433E+04  0.12217922811E+04 0.  0.
        1    1    3    3  502    0  0.14113362676E+03  0.59185059386E+03  0.46263092040E+03  0.76435148629E+03  0.50400001928E-02 0.  1.
       -1    1    3    3    0  502 -0.14113362676E+03 -0.59185059386E+03  0.33220184396E+03  0.69322715701E+03  0.50400001928E-02 0. -1.
</event>
<event>
 5   0  0.5003507E-04  0.1204066E+04  0.7818609E-02  0.9109305E-01
       -1   -1    0    0    0  501  0.00000000000E+00  0.00000000000E+00  0.19977836846E+03  0.19977836853E+03  0.50400001928E-02 0. -1.
        1   -1    0    0  501    0  0.00000000000E+00  0.00000000000E+00 -0.18142302154E+04  0.18142302154E+04  0.50400001928E-02 0.  1.
    10030    2    1    2    0    0  0.00000000000E+00  0.00000000000E+00 -0.16144518469E+04  0.20140085839E+04  0.12040663645E+04 0.  0.
        3    1    3    3  502    0 -0.44206220288E+03 -0.38239736648E+03 -0.56600588564E+03  0.81363960688E+03  0.10100000352E+00 0. -1.
       -3    1    3    3    0  502  0.44206220288E+03  0.38239736648E+03 -0.10484459613E+04  0.12003689771E+04  0.10100000352E+00 0.  1.
</event>
<event>
 5   0  0.9298693E-04  0.1181833E+04  0.7818609E-02  0.9128908E-01
        2   -1    0    0  501    0  0.00000000000E+00  0.00000000000E+00  0.17057350712E+04  0.17057350712E+04  0.25500000920E-02 0.  1.
       -2   -1    0    0    0  501  0.00000000000E+00  0.00000000000E+00 -0.20471069627E+03  0.20471069628E+03  0.25500000920E-02 0. -1.
    10030    2    1    2    0    0  0.00000000000E+00  0.00000000000E+00  0.15010243749E+04  0.19104457675E+04  0.11818328377E+04 0.  0.
        1    1    3    3  502    0  0.26124865991E+03  0.49966445905E+03  0.10363503692E+04  0.11798040184E+04  0.50400001928E-02 0.  1.
       -1    1    3    3    0  502 -0.26124865991E+03 -0.49966445905E+03  0.46467400572E+03  0.73064174913E+03  0.50400001928E-02 0. -1.
</event>
<event>
 5   0  0.5052959E-04  0.1214417E+04  0.7818609E-02  0.9100330E-01
       -1   -1    0    0    0  501  0.00000000000E+00  0.00000000000E+00  0.34630870350E+03  0.34630870354E+03  0.50400001928E-02 0. -1.
        1   -1    0    0  501    0  0.00000000000E+00  0.00000000000E+00 -0.10646641547E+04  0.10646641547E+04  0.50400001928E-02 0.  1.
    10030    2    1    2    0    0  0.00000000000E+00  0.00000000000E+00 -0.71835545117E+03  0.14109728582E+04  0.12144174951E+04 0.  0.
        2    1    3    3  502    0 -0.10190284535E+03 -0.23679912123E+02  0.33575864104E+03  0.35167995844E+03  0.25500000920E-02 0. -1.
       -2    1    3    3    0  502  0.10190284535E+03  0.23679912123E+02 -0.10541140922E+04  0.10592928998E+04  0.25500000920E-02 0.  1.
</event>
<event>
 5   0  0.5447074E-04  0.1193529E+04  0.7818609E-02  0.9118539E-01
        1   -1    0    0  501    0  0.00000000000E+00  0.00000000000E+00  0.11618045421E+04  0.11618045421E+04  0.50400001928E-02 0.  1.
       -1   -1    0    0    0  501  0.00000000000E+00  0.00000000000E+00 -0.30653004632E+03  0.30653004636E+03  0.50400001928E-02 0. -1.
    10030    2    1    2    0    0  0.00000000000E+00  0.00000000000E+00  0.85527449580E+03  0.14683345885E+04  0.11935292207E+04 0.  0.
        4    1    3    3  502    0  0.21692222134E+03  0.39793816596E+03  0.90524587374E+03  0.10123644299E+04  0.12699999809E+01 0.  1.
       -4    1    3    3    0  502 -0.21692222134E+03 -0.39793816596E+03 -0.49971377941E+02  0.45597015862E+03  0.12699999809E+01 0. -1.
</event>
<event>
 5   0  0.9070772E-04  0.1202712E+04  0.7818609E-02  0.9110486E-01
       -2   -1    0    0    0  501  0.00000000000E+00  0.00000000000E+00  0.28184808523E+03  0.28184808524E+03  0.25500000920E-02 0.  1.
        2   -1    0    0  501    0  0.00000000000E+00  0.00000000000E+00 -0.12830633439E+04  0.12830633439E+04  0.25500000920E-02 0. -1.
    10030    2    1    2    0    0  0.00000000000E+00  0.00000000000E+00 -0.10012152587E+04  0.15649114291E+04  0.12027118470E+04 0.  0.
        4    1    3    3  502    0  0.51376915921E+03  0.81458464178E+02 -0.10802792111E+03  0.53128699869E+03  0.12699999809E+01 0.  1.
       -4    1    3    3    0  502 -0.51376915921E+03 -0.81458464178E+02 -0.89318733755E+03  0.10336244304E+04  0.12699999809E+01 0. -1.
</event>
<event>
 5   0  0.9410666E-04  0.1194373E+04  0.7818609E-02  0.9117797E-01
        2   -1    0    0  501    0  0.00000000000E+00  0.00000000000E+00  0.89861616871E+03  0.89861616872E+03  0.25500000920E-02 0. -1.
       -2   -1    0    0    0  501  0.00000000000E+00  0.00000000000E+00 -0.39686738826E+03  0.39686738827E+03  0.25500000920E-02 0.  1.
    10030    2    1    2    0    0  0.00000000000E+00  0.00000000000E+00  0.50174878045E+03  0.12954835570E+04  0.11943725582E+04 0.  0.
        2    1    3    3  502    0 -0.13064943536E+03  0.27255856023E+03 -0.30777514049E+03  0.43137336592E+03  0.25500000920E-02 0.  1.
       -2    1    3    3    0  502  0.13064943536E+03 -0.27255856023E+03  0.80952392094E+03  0.86411019106E+03  0.25500000920E-02 0. -1.
</event>
<event>
 5   0  0.5157631E-04  0.1200254E+04  0.7818609E-02  0.9112634E-01
       -1   -1    0    0    0  501  0.00000000000E+00  0.00000000000E+00  0.52936973311E+03  0.52936973314E+03  0.50400001928E-02 0. -1.
        1   -1    0    0  501    0  0.00000000000E+00  0.00000000000E+00 -0.68034223988E+03  0.68034223990E+03  0.50400001928E-02 0.  1.
    10030    2    1    2    0    0  0.00000000000E+00  0.00000000000E+00 -0.15097250676E+03  0.12097119730E+04  0.12002542897E+04 0.  0.
        5    1    3    3  502    0 -0.24294027281E+03 -0.54070798612E+03 -0.16973997144E+03  0.61661888579E+03  0.46999998093E+01 0.  1.
       -5    1    3    3    0  502  0.24294027281E+03  0.54070798612E+03  0.18767464678E+02  0.59309308724E+03  0.46999998093E+01 0. -1.
</event>
<event>
 5   0  0.9145224E-04  0.1202401E+04  0.7818609E-02  0.9110757E-01
       -2   -1    0    0    0  501  0.00000000000E+00  0.00000000000E+00  0.56884359754E+03  0.56884359755E+03  0.25500000920E-02 0.  1.
        2   -1    0    0  501    0  0.00000000000E+00  0.00000000000E+00 -0.63539843681E+03  0.63539843681E+03  0.25500000920E-02 0. -1.
    10030    2    1    2    0    0  0.00000000000E+00  0.00000000000E+00 -0.66554839268E+02  0.12042420344E+04  0.12024014848E+04 0.  0.
        5    1    3    3  502    0 -0.38222567009E+03 -0.74508985273E+02  0.42543260941E+03  0.57676949200E+03  0.46999998093E+01 0.  1.
       -5    1    3    3    0  502  0.38222567009E+03  0.74508985273E+02 -0.49198744867E+03  0.62747254236E+03  0.46999998093E+01 0. -1.
</event>
<event>
 5   0  0.9410666E-04  0.1209266E+04  0.7818609E-02  0.9104784E-01
       -2   -1    0    0    0  501  0.00000000000E+00  0.00000000000E+00  0.32556246447E+03  0.32556246448E+03  0.25500000920E-02 0. -1.
        2   -1    0    0  501    0  0.00000000000E+00  0.00000000000E+00 -0.11229221176E+04  0.11229221176E+04  0.25500000920E-02 0.  1.
    10030    2    1    2    0    0  0.00000000000E+00  0.00000000000E+00 -0.79735965314E+03  0.14484845821E+04  0.12092663760E+04 0.  0.
        2    1    3    3  502    0  0.15746037053E+03  0.58315793918E+03 -0.36666546065E+03  0.70661907018E+03  0.25500000920E-02 0. -1.
       -2    1    3    3    0  502 -0.15746037053E+03 -0.58315793918E+03 -0.43069419250E+03  0.74186551191E+03  0.25500000920E-02 0.  1.
</event>
<event>
 5   0  0.3453625E-04  0.1204754E+04  0.7818609E-02  0.9108705E-01
       -4   -1    0    0    0  501  0.00000000000E+00  0.00000000000E+00  0.28986006505E+03  0.28986284724E+03  0.12699999809E+01 0. -1.
        4   -1    0    0  501    0  0.00000000000E+00  0.00000000000E+00 -0.12518304170E+04  0.12518310612E+04  0.12699999809E+01 0.  1.
    10030    2    1    2    0    0  0.00000000000E+00  0.00000000000E+00 -0.96197035192E+03  0.15416939084E+04  0.12047543938E+04 0.  0.
        1    1    3    3  502    0  0.31278979086E+03 -0.25919742059E+03 -0.10501708746E+04  0.11260016084E+04  0.50400001928E-02 0.  1.
       -1    1    3    3    0  502 -0.31278979086E+03  0.25919742059E+03  0.88200522704E+02  0.41569230007E+03  0.50400001928E-02 0. -1.
</event>
<event>
 5   0  0.5003507E-04  0.1194115E+04  0.7818609E-02  0.9118024E-01
        1   -1    0    0  501    0  0.00000000000E+00  0.00000000000E+00  0.44109664317E+03  0.44109664319E+03  0.50400001928E-02 0.  1.
       -1   -1    0    0    0  501  0.00000000000E+00  0.00000000000E+00 -0.80816158139E+03  0.80816158140E+03  0.50400001928E-02 0. -1.
    10030    2    1    2    0    0  0.00000000000E+00  0.00000000000E+00 -0.36706493822E+03  0.12492582246E+04  0.11941145016E+04 0.  0.
        3    1    3    3  502    0  0.51916303840E+01 -0.56797577307E+03 -0.37602359742E+03  0.68118807083E+03  0.10100000352E+00 0. -1.
       -3    1    3    3    0  502 -0.51916303840E+01  0.56797577307E+03  0.89586591966E+01  0.56807015377E+03  0.10100000352E+00 0.  1.
</event>
<event>
 5   0  0.9298693E-04  0.1196997E+04  0.7818609E-02  0.9115489E-01
        2   -1    0    0  501    0  0.00000000000E+00  0.00000000000E+00  0.50376117952E+03  0.50376117952E+03  0.25500000920E-02 0.  1.
       -2   -1    0    0    0  501  0.00000000000E+00  0.00000000000E+00 -0.71105252508E+03  0.71105252509E+03  0.25500000920E-02 0. -1.
    10030    2    1    2    0    0  0.00000000000E+00  0.00000000000E+00 -0.20729134556E+03  0.12148137046E+04  0.11969973413E+04 0.  0.
        1    1    3    3  502    0 -0.35276100839E+03  0.46435464991E+03  0.33025317097E+02  0.58408581692E+03  0.50400001928E-02 0.  1.
       -1    1    3    3    0  502  0.35276100839E+03 -0.46435464991E+03 -0.24031666266E+03  0.63072788769E+03  0.50400001928E-02 0. -1.
</event>
<event>
 5   0  0.5003507E-04  0.1191505E+04  0.7818609E-02  0.9120324E-01
        1   -1    0    0  501    0  0.00000000000E+00  0.00000000000E+00  0.55872658589E+03  0.55872658591E+03  0.50400001928E-02 0. -1.
       -1   -1    0    0    0  501  0.00000000000E+00  0.00000000000E+00 -0.63523249677E+03  0.63523249679E+03  0.50400001928E-02 0.  1.
    10030    2    1    2    0    0  0.00000000000E+00  0.00000000000E+00 -0.76505910883E+02  0.11939590827E+04  0.11915054078E+04 0.  0.
        3    1    3    3  502    0  0.27681284413E+03 -0.17922217739E+03 -0.53543529561E+03  0.62883774182E+03  0.10100000352E+00 0.  1.
       -3    1    3    3    0  502 -0.27681284413E+03  0.17922217739E+03  0.45892938473E+03  0.56512134088E+03  0.10100000352E+00 0. -1.
</event>
<event>
 5   0  0.9410666E-04  0.1202533E+04  0.7818609E-02  0.9110643E-01
       -2   -1    0    0    0  501  0.00000000000E+00  0.00000000000E+00  0.58214393992E+03  0.58214393992E+03  0.25500000920E-02 0. -1.
        2   -1    0    0  501    0  0.00000000000E+00  0.00000000000E+00 -0.62101691787E+03  0.62101691787E+03  0.25500000920E-02 0.  1.
    10030    2    1    2    0    0  0.00000000000E+00  0.00000000000E+00 -0.38872977949E+02  0.12031608578E+04  0.12025327194E+04 0.  0.
        2    1    3    3  502    0  0.26714688533E+03 -0.20592547185E+02  0.51911014917E+03  0.58418050149E+03  0.25500000920E-02 0. -1.
       -2    1    3    3    0  502 -0.26714688533E+03  0.20592547185E+02 -0.55798312712E+03  0.61898035631E+03  0.25500000920E-02 0.  1.
</event>
<event>
 5   0  0.9050363E-04  0.1200841E+04  0.7818609E-02  0.9112121E-01
        2   -1    0    0  501    0  0.00000000000E+00  0.00000000000E+00  0.15335870662E+04  0.15335870662E+04  0.25500000920E-02 0. -1.
       -2   -1    0    0    0  501  0.00000000000E+00  0.00000000000E+00 -0.23507275730E+03  0.23507275732E+03  0.25500000920E-02 0.  1.
    10030    2    1    2    0    0  0.00000000000E+00  0.00000000000E+00  0.12985143089E+04  0.17686598235E+04  0.12008406059E+04 0.  0.
        3    1    3    3  502    0  0.18346829730E+03  0.20678069780E+03  0.14342823564E+04  0.14606795546E+04  0.10100000352E+00 0. -1.
       -3    1    3    3    0  502 -0.18346829730E+03 -0.20678069780E+03 -0.13576804754E+03  0.30798026890E+03  0.10100000352E+00 0.  1.
</event>
<event>
 5   0  0.9298693E-04  0.1201018E+04  0.7818609E-02  0.9111966E-01
        2   -1    0    0  501    0  0.00000000000E+00  0.00000000000E+00  0.76814596857E+03  0.76814596857E+03  0.25500000920E-02 0. -1.
       -2   -1    0    0    0  501  0.00000000000E+00  0.00000000000E+00 -0.46945619890E+03  0.46945619890E+03  0.25500000920E-02 0.  1.
    10030    2    1    2    0    0  0.00000000000E+00  0.00000000000E+00  0.29868976967E+03  0.12376021675E+04  0.12010177128E+04 0.  0.
        1    1    3    3  502    0 -0.10122374305E+03  0.57343510477E+01 -0.46057304814E+03  0.47160010776E+03  0.50400001928E-02 0.  1.
       -1    1    3    3    0  502  0.10122374305E+03 -0.57343510477E+01  0.75926281782E+03  0.76600205971E+03  0.50400001928E-02 0. -1.
</event>
<event>
 5   0  0.9145224E-04  0.1191591E+04  0.7818609E-02  0.9120249E-01
        2   -1    0    0  501    0  0.00000000000E+00  0.00000000000E+00  0.10921913510E+04  0.10921913510E+04  0.25500000920E-02 0.  1.
       -2   -1    0    0    0  501  0.00000000000E+00  0.00000000000E+00 -0.32500946107E+03  0.32500946108E+03  0.25500000920E-02 0. -1.
    10030    2    1    2    0    0  0.00000000000E+00  0.00000000000E+00  0.76718188993E+03  0.14172008121E+04  0.11915914105E+04 0.  0.
        5    1    3    3  502    0  0.30505266989E+03  0.32721559513E+03  0.85156537698E+03  0.96193183665E+03  0.46999998093E+01 0.  1.
       -5    1    3    3    0  502 -0.30505266989E+03 -0.32721559513E+03 -0.84383487049E+02  0.45526897543E+03  0.46999998093E+01 0. -1.
</event>
<event>
 5   0  0.5447074E-04  0.1203128E+04  0.7818609E-02  0.9110123E-01
       -1   -1    0    0    0  501  0.00000000000E+00  0.00000000000E+00  0.30675762754E+03  0.30675762759E+03  0.50400001928E-02 0. -1.
        1   -1    0    0  501    0  0.00000000000E+00  0.00000000000E+00 -0.11796915374E+04  0.11796915374E+04  0.50400001928E-02 0.  1.
    10030    2    1    2    0    0  0.00000000000E+00  0.00000000000E+00 -0.87293390986E+03  0.14864491650E+04  0.12031282181E+04 0.  0.
        4    1    3    3  502    0 -0.47557128944E+03  0.16808326356E+03 -0.31465131354E+02  0.50538272845E+03  0.12699999809E+01 0. -1.
       -4    1    3    3    0  502  0.47557128944E+03 -0.16808326356E+03 -0.84146877851E+03  0.98106643655E+03  0.12699999809E+01 0.  1.
</event>
<event>
 5   0  0.5157631E-04  0.1199773E+04  0.7818609E-02  0.9113055E-01
        1   -1    0    0  501    0  0.00000000000E+00  0.00000000000E+00  0.13823974279E+04  0.13823974279E+04  0.50400001928E-02 0.  1.
       -1   -1    0    0    0  501  0.00000000000E+00  0.00000000000E+00 -0.26031881885E+03  0.26031881890E+03  0.50400001928E-02 0. -1.
    10030    2    1    2    0    0  0.00000000000E+00  0.00000000000E+00  0.11220786091E+04  0.16427162469E+04  0.11997734214E+04 0.  0.
        5    1    3    3  502    0 -0.45730337537E+03 -0.69572250254E+02  0.38096492891E+02  0.46415526270E+03  0.46999998093E+01 0. -1.
       -5    1    3    3    0  502  0.45730337537E+03  0.69572250254E+02  0.10839821162E+04  0.11785609841E+04  0.46999998093E+01 0.  1.
</event>
<event>
 5   0  0.9070772E-04  0.1192170E+04  0.7818609E-02  0.9119738E-01
       -2   -1    0    0    0  501  0.00000000000E+00  0.00000000000E+00  0.17243001740E+03  0.17243001742E+03  0.25500000920E-02 0.  1.
        2   -1    0    0  501    0  0.00000000000E+00  0.00000000000E+00 -0.20606460611E+04  0.20606460611E+04  0.25500000920E-02 0. -1.
    10030    2    1    2    0    0  0.00000000000E+00  0.00000000000E+00 -0.18882160437E+04  0.22330760786E+04  0.11921698473E+04 0.  0.
        4    1    3    3  502    0 -0.27497021805E+03 -0.32192745094E+02 -0.19329137768E+04  0.19526398222E+04  0.12699999809E+01 0. -1.
       -4    1    3    3    0  502  0.27497021805E+03  0.32192745094E+02  0.44697733077E+02  0.28043625638E+03  0.12699999809E+01 0.  1.
</event>
<event>
 5   0  0.5447074E-04  0.1199872E+04  0.7818609E-02  0.9112968E-01
       -1   -1    0    0    0  501  0.00000000000E+00  0.00000000000E+00  0.47407518307E+03  0.47407518310E+03  0.50400001928E-02 0. -1.
        1   -1    0    0  501    0  0.00000000000E+00  0.00000000000E+00 -0.75921157210E+03  0.75921157212E+03  0.50400001928E-02 0.  1.
    10030    2    1    2    0    0  0.00000000000E+00  0.00000000000E+00 -0.28513638903E+03  0.12332867552E+04  0.11998722683E+04 0.  0.
        4    1    3    3  502    0  0.35673270492E+03 -0.47897454279E+03 -0.20113676557E+03  0.63018445456E+03  0.12699999809E+01 0.  1.
       -4    1    3    3    0  502 -0.35673270492E+03  0.47897454279E+03 -0.83999623459E+02  0.60310230065E+03  0.12699999809E+01 0. -1.
</event>
<event>
 5   0  0.5001586E-04  0.1198041E+04  0.7818609E-02  0.9114573E-01
        1   -1    0    0  501    0  0.00000000000E+00  0.00000000000E+00  0.35354767883E+03  0.35354767887E+03  0.50400001928E-02 0. -1.
       -1   -1    0    0    0  501  0.00000000000E+00  0.00000000000E+00 -0.10149284346E+04  0.10149284346E+04  0.50400001928E-02 0.  1.
    10030    2    1    2    0    0  0.00000000000E+00  0.00000000000E+00 -0.66138075578E+03  0.13684761135E+04  0.11980410548E+04 0.  0.
        1    1    3    3  502    0 -0.38692010762E+03 -0.45533756158E+03 -0.28241543616E+03  0.66090690969E+03  0.50400001928E-02 0.  1.
       -1    1    3    3    0  502  0.38692010762E+03  0.45533756158E+03 -0.37896531962E+03  0.70756920380E+03  0.50400001928E-02 0. -1.
</event>
<event>
 5   0  0.9298693E-04  0.1201404E+04  0.7818609E-02  0.9111629E-01
       -2   -1    0    0    0  501  0.00000000000E+00  0.00000000000E+00  0.30691983520E+03  0.30691983521E+03  0.25500000920E-02 0. -1.
        2   -1    0    0  501    0  0.00000000000E+00  0.00000000000E+00 -0.11756901967E+04  0.11756901967E+04  0.25500000920E-02 0.  1.
    10030    2    1    2    0    0  0.00000000000E+00  0.00000000000E+00 -0.86877036146E+03  0.14826100319E+04  0.12014035815E+04 0.  0.
        1    1    3    3  502    0  0.15806163237E+03  0.28766814227E+03 -0.10552390690E+04  0.11051090138E+04  0.50400001928E-02 0.  1.
       -1    1    3    3    0  502 -0.15806163237E+03 -0.28766814227E+03  0.18646870752E+03  0.37750101804E+03  0.50400001928E-02 0. -1.
</event>
<event>
 5   0  0.5157631E-04  0.1203549E+04  0.7818609E-02  0.9109755E-01
       -1   -1    0    0    0  501  0.00000000000E+00  0.00000000000E+00  0.96306156011E+03  0.96306156012E+03  0.50400001928E-02 0. -1.
        1   -1    0    0  501    0  0.00000000000E+00  0.00000000000E+00 -0.37602253050E+03  0.37602253054E+03  0.50400001928E-02 0.  1.
    10030    2    1    2    0    0  0.00000000000E+00  0.00000000000E+00  0.58703902960E+03  0.13390840907E+04  0.12035494920E+04 0.  0.
        5    1    3    3  502    0  0.43573260849E+03  0.32416948643E+03  0.51789906790E+01  0.54313688328E+03  0.46999998093E+01 0.  1.
       -5    1    3    3    0  502 -0.43573260849E+03 -0.32416948643E+03  0.58186003893E+03  0.79594720738E+03  0.46999998093E+01 0. -1.
</event>
<event>
 5   0  0.9070772E-04  0.1200547E+04  0.7818609E-02  0.9112378E-01
        2   -1    0    0  501    0  0.00000000000E+00  0.00000000000E+00  0.14267964372E+04  0.14267964372E+04  0.25500000920E-02 0. -1.
       -2   -1    0    0    0  501  0.00000000000E+00  0.00000000000E+00 -0.25254359356E+03  0.25254359357E+03  0.25500000920E-02 0.  1.
    10030    2    1    2    0    0  0.00000000000E+00  0.00000000000E+00  0.11742528437E+04  0.16793400308E+04  0.12005470412E+04 0.  0.
        4    1    3    3  502    0  0.56081392190E+03  0.94286380781E+02  0.85591872546E+03  0.10276189245E+04  0.12699999809E+01 0. -1.
       -4    1    3    3    0  502 -0.56081392190E+03 -0.94286380781E+02  0.31833411819E+03  0.65172110623E+03  0.12699999809E+01 0.  1.
</event>
<event>
 5   0  0.9298693E-04  0.1195545E+04  0.7818609E-02  0.9116765E-01
       -2   -1    0    0    0  501  0.00000000000E+00  0.00000000000E+00  0.29244355389E+03  0.29244355390E+03  0.25500000920E-02 0.  1.
        2   -1    0    0  501    0  0.00000000000E+00  0.00000000000E+00 -0.12218830870E+04  0.12218830870E+04  0.25500000920E-02 0. -1.
    10030    2    1    2    0    0  0.00000000000E+00  0.00000000000E+00 -0.92943953311E+03  0.15143266409E+04  0.11955447836E+04 0.  0.
        1    1    3    3  502    0  0.18697970656E+03 -0.79251725083E+02 -0.11768489890E+04  0.11942427683E+04  0.50400001928E-02 0. -1.
       -1    1    3    3    0  502 -0.18697970656E+03  0.79251725083E+02  0.24740945593E+03  0.32008387261E+03  0.50400001928E-02 0.  1.
</event>
<event>
 5   0  0.9050363E-04  0.1197545E+04  0.7818609E-02  0.9115008E-01
        2   -1    0    0  501    0  0.00000000000E+00  0.00000000000E+00  0.11294130160E+04  0.11294130160E+04  0.25500000920E-02 0.  1.
       -2   -1    0    0    0  501  0.00000000000E+00  0.00000000000E+00 -0.31744694634E+03  0.31744694635E+03  0.25500000920E-02 0. -1.
    10030    2    1    2    0    0  0.00000000000E+00  0.00000000000E+00  0.81196606968E+03  0.14468599624E+04  0.11975453446E+04 0.  0.
        3    1    3    3  502    0  0.43087999612E+03  0.39631334964E+03  0.55788288507E+03  0.80867494447E+03  0.10100000352E+00 0. -1.
       -3    1    3    3    0  502 -0.43087999612E+03 -0.39631334964E+03  0.25408318461E+03  0.63818501789E+03  0.10100000352E+00 0.  1.
</event>
<event>
 5   0  0.9410666E-04  0.1202292E+04  0.7818609E-02  0.9110853E-01
       -2   -1    0    0    0  501  0.00000000000E+00  0.00000000000E+00  0.50086928289E+03  0.50086928290E+03  0.25500000920E-02 0. -1.
        2   -1    0    0  501    0  0.00000000000E+00  0.00000000000E+00 -0.72149846548E+03  0.72149846548E+03  0.25500000920E-02 0.  1.
    10030    2    1    2    0    0  0.00000000000E+00  0.00000000000E+00 -0.22062918259E+03  0.12223677484E+04  0.12022918431E+04 0.  0.
        2    1    3    3  502    0 -0.63622169401E+02  0.30765710902E+03  0.41076248268E+03  0.51713295617E+03  0.25500000920E-02 0. -1.
       -2    1    3    3    0  502  0.63622169401E+02 -0.30765710902E+03 -0.63139166527E+03  0.70523479221E+03  0.25500000920E-02 0.  1.
</event>
<event>
 5   0  0.9298693E-04  0.1203688E+04  0.7818609E-02  0.9109635E-01
        2   -1    0    0  501    0  0.00000000000E+00  0.00000000000E+00  0.10100266747E+04  0.10100266747E+04  0.25500000920E-02 0.  1.
       -2   -1    0    0    0  501  0.00000000000E+00  0.00000000000E+00 -0.35862026322E+03  0.35862026323E+03  0.25500000920E-02 0. -1.
    10030    2    1    2    0    0  0.00000000000E+00  0.00000000000E+00  0.65140641144E+03  0.13686469379E+04  0.12036877202E+04 0.  0.
        1    1    3    3  502    0 -0.41661631156E+03 -0.38427994303E+03  0.95537108416E+02  0.57477609970E+03  0.50400001928E-02 0. -1.
       -1    1    3    3    0  502  0.41661631156E+03  0.38427994303E+03  0.55586930303E+03  0.79387083820E+03  0.50400001928E-02 0.  1.
</event>
<event>
 5   0  0.9145224E-04  0.1204166E+04  0.7818609E-02  0.9109218E-01
       -2   -1    0    0    0  501  0.00000000000E+00  0.00000000000E+00  0.10047544648E+04  0.10047544648E+04  0.25500000920E-02 0. -1.
        2   -1    0    0  501    0  0.00000000000E+00  0.00000000000E+00 -0.36078867563E+03  0.36078867564E+03  0.25500000920E-02 0.  1.
    10030    2    1    2    0    0  0.00000000000E+00  0.00000000000E+00  0.64396578915E+03  0.13655431404E+04  0.12041661558E+04 0.  0.
        5    1    3    3  502    0 -0.54119239515E+03 -0.22814480313E+03  0.47218188555E+03  0.75360273540E+03  0.46999998093E+01 0. -1.
       -5    1    3    3    0  502  0.54119239515E+03  0.22814480313E+03  0.17178390361E+03  0.61194040502E+03  0.46999998093E+01 0.  1.
</event>
<event>
 5   0  0.9410666E-04  0.1196279E+04  0.7818609E-02  0.9116120E-01
        2   -1    0    0  501    0  0.00000000000E+00  0.00000000000E+00  0.49459012722E+03  0.49459012723E+03  0.25500000920E-02 0. -1.
       -2   -1    0    0    0  501  0.00000000000E+00  0.00000000000E+00 -0.72336817188E+03  0.72336817189E+03  0.25500000920E-02 0.  1.
    10030    2    1    2    0    0  0.00000000000E+00  0.00000000000E+00 -0.22877804466E+03  0.12179582991E+04  0.11962788240E+04 0.  0.
        2    1    3    3  502    0  0.21702931754E+03 -0.51395609276E+03  0.10520033969E+03  0.56773206835E+03  0.25500000920E-02 0. -1.
       -2    1    3    3    0  502 -0.21702931754E+03  0.51395609276E+03 -0.33397838435E+03  0.65022623077E+03  0.25500000920E-02 0.  1.
</event>
<event>
 5   0  0.5003507E-04  0.1202696E+04  0.7818609E-02  0.9110500E-01
        1   -1    0    0  501    0  0.00000000000E+00  0.00000000000E+00  0.10134317439E+04  0.10134317439E+04  0.50400001928E-02 0. -1.
       -1   -1    0    0    0  501  0.00000000000E+00  0.00000000000E+00 -0.35682641021E+03  0.35682641025E+03  0.50400001928E-02 0.  1.
    10030    2    1    2    0    0  0.00000000000E+00  0.00000000000E+00  0.65660533367E+03  0.13702581541E+04  0.12026956576E+04 0.  0.
        3    1    3    3  502    0 -0.24645678872E+03  0.38999903798E+03 -0.11115543323E+03  0.47454793106E+03  0.10100000352E+00 0.  1.
       -3    1    3    3    0  502  0.24645678872E+03 -0.38999903798E+03  0.76776076690E+03  0.89571022308E+03  0.10100000352E+00 0. -1.
</event>
<event>
 5   0  0.5001586E-04  0.1201062E+04  0.7818609E-02  0.9111928E-01
       -1   -1    0    0    0  501  0.00000000000E+00  0.00000000000E+00  0.19358923180E+03  0.19358923186E+03  0.50400001928E-02 0.  1.
        1   -1    0    0  501    0  0.00000000000E+00  0.00000000000E+00 -0.18628996108E+04  0.18628996108E+04  0.50400001928E-02 0. -1.
    10030    2    1    2    0    0  0.00000000000E+00  0.00000000000E+00 -0.16693103790E+04  0.20564888426E+04  0.12010617047E+04 0.  0.
        1    1    3    3  502    0  0.11781499330E+03 -0.28639148608E+03  0.46329244801E+02  0.31312434414E+03  0.50400001928E-02 0.  1.
       -1    1    3    3    0  502 -0.11781499330E+03  0.28639148608E+03 -0.17156396238E+04  0.17433644985E+04  0.50400001928E-02 0. -1.
</event>
<event>
 5   0  0.9070772E-04  0.1198774E+04  0.7818609E-02  0.9113930E-01
       -2   -1    0    0    0  501  0.00000000000E+00  0.00000000000E+00  0.30446646995E+03  0.30446646996E+03  0.25500000920E-02 0.  1.
        2   -1    0    0  501    0  0.00000000000E+00  0.00000000000E+00 -0.11799812299E+04  0.11799812299E+04  0.25500000920E-02 0. -1.
    10030    2    1    2    0    0  0.00000000000E+00  0.00000000000E+00 -0.87551475994E+03  0.14844476999E+04  0.11987739064E+04 0.  0.
        4    1    3    3  502    0  0.47787515535E+03  0.76471566043E+01 -0.88567467050E+03  0.10064016981E+04  0.12699999809E+01 0. -1.
       -4    1    3    3    0  502 -0.47787515535E+03 -0.76471566043E+01  0.10159910558E+02  0.47804600174E+03  0.12699999809E+01 0.  1.
</event>
<event>
 5   0  0.9145224E-04  0.1183590E+04  0.7818609E-02  0.9127343E-01
       -2   -1    0    0    0  501  0.00000000000E+00  0.00000000000E+00  0.30066108662E+03  0.30066108663E+03  0.25500000920E-02 0. -1.
        2   -1    0    0  501    0  0.00000000000E+00  0.00000000000E+00 -0.11648366015E+04  0.11648366015E+04  0.25500000920E-02 0.  1.
    10030    2    1    2    0    0  0.00000000000E+00  0.00000000000E+00 -0.86417551484E+03  0.14654976881E+04  0.11835895206E+04 0.  0.
        5    1    3    3  502    0 -0.24963493478E+03 -0.52690109991E+03 -0.55748421911E+03  0.80669270129E+03  0.46999998093E+01 0.  1.
       -5    1    3    3    0  502  0.24963493478E+03  0.52690109991E+03 -0.30669129572E+03  0.65880498679E+03  0.46999998093E+01 0. -1.
</event>
<event>
 5   0  0.9145224E-04  0.1197282E+04  0.7818609E-02  0.9115239E-01
       -2   -1    0    0    0  501  0.00000000000E+00  0.00000000000E+00  0.21434837141E+03  0.21434837143E+03  0.25500000920E-02 0. -1.
        2   -1    0    0  501    0  0.00000000000E+00  0.00000000000E+00 -0.16719082621E+04  0.16719082621E+04  0.25500000920E-02 0.  1.
    10030    2    1    2    0    0  0.00000000000E+00  0.00000000000E+00 -0.14575598907E+04  0.18862566335E+04  0.11972816096E+04 0.  0.
        5    1    3    3  502    0  0.90536794598E+02  0.45118658814E+03 -0.12560194518E+03  0.47703688235E+03  0.46999998093E+01 0. -1.
       -5    1    3    3    0  502 -0.90536794598E+02 -0.45118658814E+03 -0.13319579455E+04  0.14092197512E+04  0.46999998093E+01 0.  1.
</event>
<event>
 5   0  0.5447074E-04  0.1200852E+04  0.7818609E-02  0.9112111E-01
       -1   -1    0    0    0  501  0.00000000000E+00  0.00000000000E+00  0.14184886511E+04  0.14184886511E+04  0.50400001928E-02 0. -1.
        1   -1    0    0  501    0  0.00000000000E+00  0.00000000000E+00 -0.25415168802E+03  0.25415168807E+03  0.50400001928E-02 0.  1.
    10030    2    1    2    0    0  0.00000000000E+00  0.00000000000E+00  0.11643369631E+04  0.16726403392E+04  0.12008518396E+04 0.  0.
        4    1    3    3  502    0  0.64409704054E+02  0.47753816688E+03  0.83217890470E+02  0.48899707668E+03  0.12699999809E+01 0.  1.
       -4    1    3    3    0  502 -0.64409704054E+02 -0.47753816688E+03  0.10811190726E+04  0.11836432625E+04  0.12699999809E+01 0. -1.
</event>
<event>
 5   0  0.5157631E-04  0.1196176E+04  0.7818609E-02  0.9116211E-01
       -1   -1    0    0    0  501  0.00000000000E+00  0.00000000000E+00  0.64903344927E+03  0.64903344929E+03  0.50400001928E-02 0.  1.
        1   -1    0    0  501    0  0.00000000000E+00  0.00000000000E+00 -0.55114121047E+03  0.55114121049E+03  0.50400001928E-02 0. -1.
    10030    2    1    2    0    0  0.00000000000E+00  0.00000000000E+00  0.97892238801E+02  0.12001746598E+04  0.11961757077E+04 0.  0.
        5    1    3    3  502    0  0.52599923019E+03  0.18525588399E+03 -0.16785972417E+03  0.58240356259E+03  0.46999998093E+01 0. -1.
       -5    1    3    3    0  502 -0.52599923019E+03 -0.18525588399E+03  0.26575196297E+03  0.61777109720E+03  0.46999998093E+01 0.  1.
</event>
<event>
 5   0  0.9298693E-04  0.1195000E+04  0.7818609E-02  0.9117244E-01
        2   -1    0    0  501    0  0.00000000000E+00  0.00000000000E+00  0.39713180178E+03  0.39713180179E+03  0.25500000920E-02 0.  1.
       -2   -1    0    0    0  501  0.00000000000E+00  0.00000000000E+00 -0.89896179865E+03  0.89896179865E+03  0.25500000920E-02 0. -1.
    10030    2    1    2    0    0  0.00000000000E+00  0.00000000000E+00 -0.50182999686E+03  0.12960936004E+04  0.11950001152E+04 0.  0.
        1    1    3    3  502    0 -0.43942497529E+03  0.40135139618E+03 -0.30860360003E+03  0.67038305028E+03  0.50400001928E-02 0. -1.
       -1    1    3    3    0  502  0.43942497529E+03 -0.40135139618E+03 -0.19322639684E+03  0.62571055016E+03  0.50400001928E-02 0.  1.
</event>
<event>
 5   0  0.9070772E-04  0.1201526E+04  0.7818609E-02  0.9111522E-01
       -2   -1    0    0    0  501  0.00000000000E+00  0.00000000000E+00  0.44358852820E+03  0.44358852820E+03  0.25500000920E-02 0. -1.
        2   -1    0    0  501    0  0.00000000000E+00  0.00000000000E+00 -0.81362861992E+03  0.81362861993E+03  0.25500000920E-02 0.  1.
    10030    2    1    2    0    0  0.00000000000E+00  0.00000000000E+00 -0.37004009173E+03  0.12572171481E+04  0.12015262328E+04 0.  0.
        4    1    3    3  502    0 -0.22169911026E+03  0.49925013913E+03  0.76595765901E+02  0.55160649123E+03  0.12699999809E+01 0. -1.
       -4    1    3    3    0  502  0.22169911026E+03 -0.49925013913E+03 -0.44663585763E+03  0.70561065690E+03  0.12699999809E+01 0.  1.
</event>
<event>
 5   0  0.9070772E-04  0.1173048E+04  0.7818609E-02  0.9136780E-01
        2   -1    0    0  501    0  0.00000000000E+00  0.00000000000E+00  0.42156044417E+03  0.42156044417E+03  0.25500000920E-02 0.  1.
       -2   -1    0    0    0  501  0.00000000000E+00  0.00000000000E+00 -0.81604081041E+03  0.81604081041E+03  0.25500000920E-02 0. -1.
    10030    2    1    2    0    0  0.00000000000E+00  0.00000000000E+00 -0.39448036624E+03  0.12376012546E+04  0.11730482113E+04 0.  0.
        4    1    3    3  502    0 -0.35776839499E+03  0.29423036868E+03 -0.57681531768E+03  0.73978865760E+03  0.12699999809E+01 0.  1.
       -4    1    3    3    0  502  0.35776839499E+03 -0.29423036868E+03  0.18233495144E+03  0.49781259699E+03  0.12699999809E+01 0. -1.
</event>
<event>
 5   0  0.9410666E-04  0.1209058E+04  0.7818609E-02  0.9104965E-01
        2   -1    0    0  501    0  0.00000000000E+00  0.00000000000E+00  0.70202267995E+03  0.70202267996E+03  0.25500000920E-02 0. -1.
       -2   -1    0    0    0  501  0.00000000000E+00  0.00000000000E+00 -0.52057463774E+03  0.52057463775E+03  0.25500000920E-02 0.  1.
    10030    2    1    2    0    0  0.00000000000E+00  0.00000000000E+00  0.18144804221E+03  0.12225973177E+04  0.12090578188E+04 0.  0.
        2    1    3    3  502    0  0.39130039380E+03 -0.17030852254E+02  0.55636869626E+03  0.68040588938E+03  0.25500000920E-02 0. -1.
       -2    1    3    3    0  502 -0.39130039380E+03  0.17030852254E+02 -0.37492065405E+03  0.54219142833E+03  0.25500000920E-02 0.  1.
</event>
<event>
 5   0  0.5052959E-04  0.1201986E+04  0.7818609E-02  0.9111120E-01
        1   -1    0    0  501    0  0.00000000000E+00  0.00000000000E+00  0.16372592447E+04  0.16372592448E+04  0.50400001928E-02 0. -1.
       -1   -1    0    0    0  501  0.00000000000E+00  0.00000000000E+00 -0.22060801480E+03  0.22060801486E+03  0.50400001928E-02 0.  1.
    10030    2    1    2    0    0  0.00000000000E+00  0.00000000000E+00  0.14166512299E+04  0.18578672596E+04  0.12019858764E+04 0.  0.
        2    1    3    3  502    0 -0.58813216840E+03  0.87176493395E+02  0.57275289573E+03  0.82555742870E+03  0.25500000920E-02 0. -1.
       -2    1    3    3    0  502  0.58813216840E+03 -0.87176493395E+02  0.84389833421E+03  0.10323098309E+04  0.25500000920E-02 0.  1.
</event>
<event>
 5   0  0.5003507E-04  0.1199439E+04  0.7818609E-02  0.9113348E-01
        1   -1    0    0  501    0  0.00000000000E+00  0.00000000000E+00  0.22001714851E+03  0.22001714857E+03  0.50400001928E-02 0.  1.
       -1   -1    0    0    0  501  0.00000000000E+00  0.00000000000E+00 -0.16347066885E+04  0.16347066885E+04  0.50400001928E-02 0. -1.
    10030    2    1    2    0    0  0.00000000000E+00  0.00000000000E+00 -0.14146895400E+04  0.18547238371E+04  0.11994390427E+04 0.  0.
        3    1    3    3  502    0  0.51893020833E+03  0.23416769346E+03 -0.99886075682E+03  0.11497155698E+04  0.10100000352E+00 0. -1.
       -3    1    3    3    0  502 -0.51893020833E+03 -0.23416769346E+03 -0.41582878316E+03  0.70500826724E+03  0.10100000352E+00 0.  1.
</event>
<event>
 5   0  0.9145224E-04  0.1216350E+04  0.7818609E-02  0.9098665E-01
        2   -1    0    0  501    0  0.00000000000E+00  0.00000000000E+00  0.13554327189E+04  0.13554327189E+04  0.25500000920E-02 0.  1.
       -2   -1    0    0    0  501  0.00000000000E+00  0.00000000000E+00 -0.27288454127E+03  0.27288454128E+03  0.25500000920E-02 0. -1.
    10030    2    1    2    0    0  0.00000000000E+00  0.00000000000E+00  0.10825481776E+04  0.16283172602E+04  0.12163496795E+04 0.  0.
        5    1    3    3  502    0 -0.33329276948E+03  0.34387484548E+01  0.12222441524E+04  0.12668854539E+04  0.46999998093E+01 0.  1.
       -5    1    3    3    0  502  0.33329276948E+03 -0.34387484548E+01 -0.13969597483E+03  0.36143180624E+03  0.46999998093E+01 0. -1.
</event>
<event>
 5   0  0.9298693E-04  0.1236559E+04  0.7818609E-02  0.9081445E-01
        2   -1    0    0  501    0  0.00000000000E+00  0.00000000000E+00  0.14662949172E+04  0.14662949172E+04  0.25500000920E-02 0.  1.
       -2   -1    0    0    0  501  0.00000000000E+00  0.00000000000E+00 -0.26070434954E+03  0.26070434956E+03  0.25500000920E-02 0. -1.
    10030    2    1    2    0    0  0.00000000000E+00  0.00000000000E+00  0.12055905677E+04  0.17269992668E+04  0.12365588747E+04 0.  0.
        1    1    3    3  502    0  0.28291210624E+03 -0.40705990908E+03  0.11188494274E+04  0.12237487776E+04  0.50400001928E-02 0.  1.
       -1    1    3    3    0  502 -0.28291210624E+03  0.40705990908E+03  0.86741140297E+02  0.50325048920E+03  0.50400001928E-02 0. -1.
</event>
<event>
 5   0  0.5447074E-04  0.1203728E+04  0.7818609E-02  0.9109600E-01
       -1   -1    0    0    0  501  0.00000000000E+00  0.00000000000E+00  0.39996659037E+03  0.39996659040E+03  0.50400001928E-02 0.  1.
        1   -1    0    0  501    0  0.00000000000E+00  0.00000000000E+00 -0.90567558710E+03  0.90567558712E+03  0.50400001928E-02 0. -1.
    10030    2    1    2    0    0  0.00000000000E+00  0.00000000000E+00 -0.50570899673E+03  0.13056421775E+04  0.12037275050E+04 0.  0.
        4    1    3    3  502    0  0.67930833895E+02 -0.27625769244E+03 -0.82814216337E+03  0.87564488605E+03  0.12699999809E+01 0. -1.
       -4    1    3    3    0  502 -0.67930833895E+02  0.27625769244E+03  0.32243316663E+03  0.42999729147E+03  0.12699999809E+01 0.  1.
</event>
<event>
 5   0  0.5003507E-04  0.1211252E+04  0.7818609E-02  0.9103064E-01
       -1   -1    0    0    0  501  0.00000000000E+00  0.00000000000E+00  0.27241622512E+03  0.27241622517E+03  0.50400001928E-02 0.  1.
        1   -1    0    0  501    0  0.00000000000E+00  0.00000000000E+00 -0.13464058891E+04  0.13464058891E+04  0.50400001928E-02 0. -1.
    10030    2    1    2    0    0  0.00000000000E+00  0.00000000000E+00 -0.10739896639E+04  0.16188221142E+04  0.12112519306E+04 0.  0.
        3    1    3    3  502    0  0.20272692296E+03 -0.40916072991E+03 -0.10686950236E+04  0.11621616806E+04  0.10100000352E+00 0. -1.
       -3    1    3    3    0  502 -0.20272692296E+03  0.40916072991E+03 -0.52946402956E+01  0.45666043359E+03  0.10100000352E+00 0.  1.
</event>
<event>
 5   0  0.9145224E-04  0.1213057E+04  0.7818609E-02  0.9101504E-01
       -2   -1    0    0    0  501  0.00000000000E+00  0.00000000000E+00  0.35833696455E+03  0.35833696456E+03  0.25500000920E-02 0.  1.
        2   -1    0    0  501    0  0.00000000000E+00  0.00000000000E+00 -0.10266219339E+04  0.10266219339E+04  0.25500000920E-02 0. -1.
    10030    2    1    2    0    0  0.00000000000E+00  0.00000000000E+00 -0.66828496939E+03  0.13849588985E+04  0.12130566146E+04 0.  0.
        5    1    3    3  502    0  0.52706181717E+03  0.12077953270E+03 -0.20488655488E+02  0.54113189672E+03  0.46999998093E+01 0.  1.
       -5    1    3    3    0  502 -0.52706181717E+03 -0.12077953270E+03 -0.64779631390E+03  0.84382700179E+03  0.46999998093E+01 0. -1.
</event>
<event>
 5   0  0.3453625E-04  0.1201256E+04  0.7818609E-02  0.9111758E-01
        4   -1    0    0  501    0  0.00000000000E+00  0.00000000000E+00  0.36554108670E+03  0.36554329287E+03  0.12699999809E+01 0. -1.
       -4   -1    0    0    0  501  0.00000000000E+00  0.00000000000E+00 -0.98689902423E+03  0.98689984138E+03  0.12699999809E+01 0.  1.
    10030    2    1    2    0    0  0.00000000000E+00  0.00000000000E+00 -0.62135793753E+03  0.13524431343E+04  0.12012563194E+04 0.  0.
        4    1    3    3  502    0  0.10279170327E+03 -0.24685823036E+03 -0.91618447945E+03  0.95441119725E+03  0.12699999809E+01 0.  1.
       -4    1    3    3    0  502 -0.10279170327E+03  0.24685823036E+03  0.29482654192E+03  0.39803193700E+03  0.12699999809E+01 0. -1.
</event>
<event>
 5   0  0.9410666E-04  0.1200205E+04  0.7818609E-02  0.9112677E-01
        2   -1    0    0  501    0  0.00000000000E+00  0.00000000000E+00  0.53714441558E+03  0.53714441559E+03  0.25500000920E-02 0. -1.
       -2   -1    0    0    0  501  0.00000000000E+00  0.00000000000E+00 -0.67044007465E+03  0.67044007466E+03  0.25500000920E-02 0.  1.
    10030    2    1    2    0    0  0.00000000000E+00  0.00000000000E+00 -0.13329565907E+03  0.12075844902E+04  0.12002052193E+04 0.  0.
        2    1    3    3  502    0 -0.27181731322E+03  0.53461097796E+03 -0.45793780483E+02  0.60149033231E+03  0.25500000920E-02 0. -1.
       -2    1    3    3    0  502  0.27181731322E+03 -0.53461097796E+03 -0.87501878585E+02  0.60609415794E+03  0.25500000920E-02 0.  1.
</event>
<event>
 5   0  0.9070772E-04  0.1199021E+04  0.7818609E-02  0.9113714E-01
        2   -1    0    0  501    0  0.00000000000E+00  0.00000000000E+00  0.10855159199E+04  0.10855159199E+04  0.25500000920E-02 0.  1.
       -2   -1    0    0    0  501  0.00000000000E+00  0.00000000000E+00 -0.33109838922E+03  0.33109838923E+03  0.25500000920E-02 0. -1.
    10030    2    1    2    0    0  0.00000000000E+00  0.00000000000E+00  0.75441753067E+03  0.14166143091E+04  0.11990205546E+04 0.  0.
        4    1    3    3  502    0  0.44914770726E+03  0.34719269413E+03  0.14953449096E+03  0.58705928719E+03  0.12699999809E+01 0. -1.
       -4    1    3    3    0  502 -0.44914770726E+03 -0.34719269413E+03  0.60488303970E+03  0.82955502193E+03  0.12699999809E+01 0.  1.
</event>
<event>
 5   0  0.5001586E-04  0.1207361E+04  0.7818609E-02  0.9106438E-01
       -1   -1    0    0    0  501  0.00000000000E+00  0.00000000000E+00  0.14187355021E+04  0.14187355021E+04  0.50400001928E-02 0. -1.
        1   -1    0    0  501    0  0.00000000000E+00  0.00000000000E+00 -0.25686968911E+03  0.25686968916E+03  0.50400001928E-02 0.  1.
    10030    2    1    2    0    0  0.00000000000E+00  0.00000000000E+00  0.11618658130E+04  0.16756051912E+04  0.12073610022E+04 0.  0.
        1    1    3    3  502    0 -0.42077830762E+03  0.68991065177E+02 -0.12134369654E+02  0.42656933105E+03  0.50400001928E-02 0.  1.
       -1    1    3    3    0  502  0.42077830762E+03 -0.68991065177E+02  0.11740001826E+04  0.12490358602E+04  0.50400001928E-02 0. -1.
</event>
<event>
 5   0  0.5001586E-04  0.1194549E+04  0.7818609E-02  0.9117641E-01
        1   -1    0    0  501    0  0.00000000000E+00  0.00000000000E+00  0.82935209840E+03  0.82935209841E+03  0.50400001928E-02 0. -1.
       -1   -1    0    0    0  501  0.00000000000E+00  0.00000000000E+00 -0.43013914600E+03  0.43013914603E+03  0.50400001928E-02 0.  1.
    10030    2    1    2    0    0  0.00000000000E+00  0.00000000000E+00  0.39921295240E+03  0.12594912444E+04  0.11945489582E+04 0.  0.
        1    1    3    3  502    0  0.11527874448E+03  0.16977054205E+03  0.79101586084E+03  0.81720090431E+03  0.50400001928E-02 0. -1.
       -1    1    3    3    0  502 -0.11527874448E+03 -0.16977054205E+03 -0.39180290845E+03  0.44229034013E+03  0.50400001928E-02 0.  1.
</event>
<event>
 5   0  0.5003507E-04  0.1205055E+04  0.7818609E-02  0.9108444E-01
        1   -1    0    0  501    0  0.00000000000E+00  0.00000000000E+00  0.12073399407E+04  0.12073399408E+04  0.50400001928E-02 0. -1.
       -1   -1    0    0    0  501  0.00000000000E+00  0.00000000000E+00 -0.30069351422E+03  0.30069351426E+03  0.50400001928E-02 0.  1.
    10030    2    1    2    0    0  0.00000000000E+00  0.00000000000E+00  0.90664642653E+03  0.15080334550E+04  0.12050548364E+04 0.  0.
        3    1    3    3  502    0  0.20541614563E+03  0.51436424813E+03  0.15646173822E+03  0.57554031863E+03  0.10100000352E+00 0.  1.
       -3    1    3    3    0  502 -0.20541614563E+03 -0.51436424813E+03  0.75018468831E+03  0.93249313639E+03  0.10100000352E+00 0. -1.
</event>
<event>
 5   0  0.9298693E-04  0.1240763E+04  0.7818609E-02  0.9077906E-01
        2   -1    0    0  501    0  0.00000000000E+00  0.00000000000E+00  0.30815006345E+03  0.30815006346E+03  0.25500000920E-02 0.  1.
       -2   -1    0    0    0  501  0.00000000000E+00  0.00000000000E+00 -0.12489806261E+04  0.12489806261E+04  0.25500000920E-02 0. -1.
    10030    2    1    2    0    0  0.00000000000E+00  0.00000000000E+00 -0.94083056265E+03  0.15571306896E+04  0.12407634089E+04 0.  0.
        1    1    3    3  502    0  0.42887081204E+03  0.35094214703E+03 -0.12040714581E+03  0.56708768702E+03  0.50400001928E-02 0.  1.
       -1    1    3    3    0  502 -0.42887081204E+03 -0.35094214703E+03 -0.82042341684E+03  0.99004300255E+03  0.50400001928E-02 0. -1.
</event>
<event>
 5   0  0.3453625E-04  0.1197800E+04  0.7818609E-02  0.9114784E-01
       -3   -1    0    0    0  501  0.00000000000E+00  0.00000000000E+00  0.79987593687E+03  0.79987594325E+03  0.10100000352E+00 0.  1.
        3   -1    0    0  501    0  0.00000000000E+00  0.00000000000E+00 -0.44842139537E+03  0.44842140675E+03  0.10100000352E+00 0. -1.
    10030    2    1    2    0    0  0.00000000000E+00  0.00000000000E+00  0.35145454150E+03  0.12482973500E+04  0.11978004756E+04 0.  0.
        3    1    3    3  502    0  0.57672209009E+03 -0.31412936227E+02  0.10663316766E+02  0.57767539180E+03  0.10100000352E+00 0. -1.
       -3    1    3    3    0  502 -0.57672209009E+03  0.31412936227E+02  0.34079122473E+03  0.67062195820E+03  0.10100000352E+00 0.  1.
</event>
<event>
 5   0  0.9070772E-04  0.1208011E+04  0.7818609E-02  0.9105873E-01
       -2   -1    0    0    0  501  0.00000000000E+00  0.00000000000E+00  0.57720095923E+03  0.57720095923E+03  0.25500000920E-02 0. -1.
        2   -1    0    0  501    0  0.00000000000E+00  0.00000000000E+00 -0.63205509336E+03  0.63205509337E+03  0.25500000920E-02 0.  1.
    10030    2    1    2    0    0  0.00000000000E+00  0.00000000000E+00 -0.54854134136E+02  0.12092560526E+04  0.12080112685E+04 0.  0.
        4    1    3    3  502    0  0.12954022117E+03 -0.34625223635E+03 -0.50556966654E+03  0.62631747597E+03  0.12699999809E+01 0.  1.
       -4    1    3    3    0  502 -0.12954022117E+03  0.34625223635E+03  0.45071553240E+03  0.58293857663E+03  0.12699999809E+01 0. -1.
</event>
<event>
 5   0  0.5447074E-04  0.1193836E+04  0.7818609E-02  0.9118269E-01
       -1   -1    0    0    0  501  0.00000000000E+00  0.00000000000E+00  0.70538422076E+03  0.70538422077E+03  0.50400001928E-02 0. -1.
        1   -1    0    0  501    0  0.00000000000E+00  0.00000000000E+00 -0.50513047878E+03  0.50513047880E+03  0.50400001928E-02 0.  1.
    10030    2    1    2    0    0  0.00000000000E+00  0.00000000000E+00  0.20025374198E+03  0.12105146996E+04  0.11938359505E+04 0.  0.
        4    1    3    3  502    0  0.51628595393E+03  0.18564494786E+03  0.33855928514E+03  0.64470088827E+03  0.12699999809E+01 0. -1.
       -4    1    3    3    0  502 -0.51628595393E+03 -0.18564494786E+03 -0.13830554316E+03  0.56581381130E+03  0.12699999809E+01 0.  1.
</event>
<event>
 5   0  0.5157631E-04  0.1163273E+04  0.7818609E-02  0.9145625E-01
       -1   -1    0    0    0  501  0.00000000000E+00  0.00000000000E+00  0.50297595350E+03  0.50297595353E+03  0.50400001928E-02 0.  1.
        1   -1    0    0  501    0  0.00000000000E+00  0.00000000000E+00 -0.67259926043E+03  0.67259926044E+03  0.50400001928E-02 0. -1.
    10030    2    1    2    0    0  0.00000000000E+00  0.00000000000E+00 -0.16962330692E+03  0.11755752140E+04  0.11632734062E+04 0.  0.
        5    1    3    3  502    0  0.50832877106E+03 -0.27002718940E+03 -0.46438699933E+00  0.57561717153E+03  0.46999998093E+01 0. -1.
       -5    1    3    3    0  502 -0.50832877106E+03  0.27002718940E+03 -0.16915891992E+03  0.59995804244E+03  0.46999998093E+01 0.  1.
</event>
<event>
 5   0  0.9298693E-04  0.1198277E+04  0.7818609E-02  0.9114366E-01
       -2   -1    0    0    0  501  0.00000000000E+00  0.00000000000E+00  0.90365842155E+03  0.90365842156E+03  0.25500000920E-02 0.  1.
        2   -1    0    0  501    0  0.00000000000E+00  0.00000000000E+00 -0.39723763697E+03  0.39723763697E+03  0.25500000920E-02 0. -1.
    10030    2    1    2    0    0  0.00000000000E+00  0.00000000000E+00  0.50642078459E+03  0.13008960585E+04  0.11982773235E+04 0.  0.
        1    1    3    3  502    0  0.52273947960E+03  0.27780922228E+03  0.35349312637E+03  0.68948670614E+03  0.50400001928E-02 0.  1.
       -1    1    3    3    0  502 -0.52273947960E+03 -0.27780922228E+03  0.15292765822E+03  0.61140935239E+03  0.50400001928E-02 0. -1.
</event>
<event>
 5   0  0.5003507E-04  0.1210872E+04  0.7818609E-02  0.9103393E-01
        1   -1    0    0  501    0  0.00000000000E+00  0.00000000000E+00  0.84870498750E+03  0.84870498751E+03  0.50400001928E-02 0. -1.
       -1   -1    0    0    0  501  0.00000000000E+00  0.00000000000E+00 -0.43189655112E+03  0.43189655115E+03  0.50400001928E-02 0.  1.
    10030    2    1    2    0    0  0.00000000000E+00  0.00000000000E+00  0.41680843637E+03  0.12806015387E+04  0.12108720115E+04 0.  0.
        3    1    3    3  502    0 -0.47628205459E+03  0.84739392375E+02 -0.17660275508E+03  0.51498922653E+03  0.10100000352E+00 0.  1.
       -3    1    3    3    0  502  0.47628205459E+03 -0.84739392375E+02  0.59341119146E+03  0.76561231213E+03  0.10100000352E+00 0. -1.
</event>
<event>
 5   0  0.9410666E-04  0.1189377E+04  0.7818609E-02  0.9122206E-01
        2   -1    0    0  501    0  0.00000000000E+00  0.00000000000E+00  0.17746907592E+04  0.17746907592E+04  0.25500000920E-02 0. -1.
       -2   -1    0    0    0  501  0.00000000000E+00  0.00000000000E+00 -0.19927661652E+03  0.19927661654E+03  0.25500000920E-02 0.  1.
    10030    2    1    2    0    0  0.00000000000E+00  0.00000000000E+00  0.15754141426E+04  0.19739673757E+04  0.11893769291E+04 0.  0.
        2    1    3    3  502    0 -0.46484631871E+03 -0.21438758390E+03  0.12900409351E+04  0.13878939983E+04  0.25500000920E-02 0. -1.
       -2    1    3    3    0  502  0.46484631871E+03  0.21438758390E+03  0.28537320752E+03  0.58607337743E+03  0.25500000920E-02 0.  1.
</event>
<event>
 5   0  0.9410666E-04  0.1200918E+04  0.7818609E-02  0.9112053E-01
        2   -1    0    0  501    0  0.00000000000E+00  0.00000000000E+00  0.19712480440E+04  0.19712480440E+04  0.25500000920E-02 0.  1.
       -2   -1    0    0    0  501  0.00000000000E+00  0.00000000000E+00 -0.18290507254E+03  0.18290507256E+03  0.25500000920E-02 0. -1.
    10030    2    1    2    0    0  0.00000000000E+00  0.00000000000E+00  0.17883429714E+04  0.21541531165E+04  0.12009184260E+04 0.  0.
        2    1    3    3  502    0 -0.16928750689E+03 -0.53644013389E+03  0.51737628064E+03  0.76426729160E+03  0.25500000920E-02 0.  1.
       -2    1    3    3    0  502  0.16928750689E+03  0.53644013389E+03  0.12709666908E+04  0.13898858249E+04  0.25500000920E-02 0. -1.
</event>
<event>
 5   0  0.9070772E-04  0.1202148E+04  0.7818609E-02  0.9110978E-01
        2   -1    0    0  501    0  0.00000000000E+00  0.00000000000E+00  0.11355592973E+04  0.11355592973E+04  0.25500000920E-02 0. -1.
       -2   -1    0    0    0  501  0.00000000000E+00  0.00000000000E+00 -0.31816051690E+03  0.31816051691E+03  0.25500000920E-02 0.  1.
    10030    2    1    2    0    0  0.00000000000E+00  0.00000000000E+00  0.81739878044E+03  0.14537198143E+04  0.12021482987E+04 0.  0.
        4    1    3    3  502    0 -0.29976757196E+03 -0.23865431093E+01 -0.22130760092E+03  0.37261905468E+03  0.12699999809E+01 0.  1.
       -4    1    3    3    0  502  0.29976757196E+03  0.23865431093E+01  0.10387063814E+04  0.10811007596E+04  0.12699999809E+01 0. -1.
</event>
<event>
 5   0  0.9145224E-04  0.1195121E+04  0.7818609E-02  0.9117137E-01
       -2   -1    0    0    0  501  0.00000000000E+00  0.00000000000E+00  0.17058092235E+03  0.17058092237E+03  0.25500000920E-02 0.  1.
        2   -1    0    0  501    0  0.00000000000E+00  0.00000000000E+00 -0.20933103977E+04  0.20933103977E+04  0.25500000920E-02 0. -1.
    10030    2    1    2    0    0  0.00000000000E+00  0.00000000000E+00 -0.19227294753E+04  0.22638913200E+04  0.11951214473E+04 0.  0.
        5    1    3    3  502    0 -0.13902591760E+02  0.59102889685E+03 -0.79678824329E+03  0.99217036522E+03  0.46999998093E+01 0. -1.
       -5    1    3    3    0  502  0.13902591760E+02 -0.59102889685E+03 -0.11259412320E+04  0.12717209548E+04  0.46999998093E+01 0.  1.
</event>
<event>
 5   0  0.9298693E-04  0.1195882E+04  0.7818609E-02  0.9116469E-01
        2   -1    0    0  501    0  0.00000000000E+00  0.00000000000E+00  0.13514123350E+04  0.13514123350E+04  0.25500000920E-02 0. -1.
       -2   -1    0    0    0  501  0.00000000000E+00  0.00000000000E+00 -0.26456287133E+03  0.26456287134E+03  0.25500000920E-02 0.  1.
    10030    2    1    2    0    0  0.00000000000E+00  0.00000000000E+00  0.10868494637E+04  0.16159752064E+04  0.11958821476E+04 0.  0.
        1    1    3    3  502    0  0.19847711979E+03  0.15535213584E+03 -0.18927235070E+03  0.31520069155E+03  0.50400001928E-02 0.  1.
       -1    1    3    3    0  502 -0.19847711979E+03 -0.15535213584E+03  0.12761218144E+04  0.13007745148E+04  0.50400001928E-02 0. -1.
</event>
<event>
 5   0  0.9145224E-04  0.1202166E+04  0.7818609E-02  0.9110963E-01
        2   -1    0    0  501    0  0.00000000000E+00  0.00000000000E+00  0.17649878545E+04  0.17649878545E+04  0.25500000920E-02 0.  1.
       -2   -1    0    0    0  501  0.00000000000E+00  0.00000000000E+00 -0.20470426844E+03  0.20470426846E+03  0.25500000920E-02 0. -1.
    10030    2    1    2    0    0  0.00000000000E+00  0.00000000000E+00  0.15602835860E+04  0.19696921229E+04  0.12021656252E+04 0.  0.
        5    1    3    3  502    0  0.41327901857E+03  0.18935104074E+03  0.14244208740E+04  0.14952091092E+04  0.46999998093E+01 0.  1.
       -5    1    3    3    0  502 -0.41327901857E+03 -0.18935104074E+03  0.13586271199E+03  0.47448301374E+03  0.46999998093E+01 0. -1.
</event>
<event>
 5   0  0.5447074E-04  0.1186387E+04  0.7818609E-02  0.9124856E-01
        1   -1    0    0  501    0  0.00000000000E+00  0.00000000000E+00  0.17573503716E+04  0.17573503716E+04  0.50400001928E-02 0.  1.
       -1   -1    0    0    0  501  0.00000000000E+00  0.00000000000E+00 -0.20023241867E+03  0.20023241873E+03  0.50400001928E-02 0. -1.
    10030    2    1    2    0    0  0.00000000000E+00  0.00000000000E+00  0.15571179529E+04  0.19575827903E+04  0.11863869780E+04 0.  0.
        4    1    3    3  502    0 -0.28430674021E+03 -0.28774636980E+02  0.16362905306E+04  0.16610558738E+04  0.12699999809E+01 0.  1.
       -4    1    3    3    0  502  0.28430674021E+03  0.28774636980E+02 -0.79172577737E+02  0.29652691653E+03  0.12699999809E+01 0. -1.
</event>
<event>
 5   0  0.5157631E-04  0.1200959E+04  0.7818609E-02  0.9112018E-01
        1   -1    0    0  501    0  0.00000000000E+00  0.00000000000E+00  0.21583270794E+04  0.21583270794E+04  0.50400001928E-02 0.  1.
       -1   -1    0    0    0  501  0.00000000000E+00  0.00000000000E+00 -0.16706242733E+03  0.16706242741E+03  0.50400001928E-02 0. -1.
    10030    2    1    2    0    0  0.00000000000E+00  0.00000000000E+00  0.19912646520E+04  0.23253895068E+04  0.12009585521E+04 0.  0.
        5    1    3    3  502    0 -0.51898318140E+03  0.29928927370E+03  0.91732289353E+03  0.10956372543E+04  0.46999998093E+01 0. -1.
       -5    1    3    3    0  502  0.51898318140E+03 -0.29928927370E+03  0.10739417585E+04  0.12297522525E+04  0.46999998093E+01 0.  1.
</event>
<event>
 5   0  0.9070772E-04  0.1192598E+04  0.7818609E-02  0.9119361E-01
        2   -1    0    0  501    0  0.00000000000E+00  0.00000000000E+00  0.66477835055E+03  0.66477835055E+03  0.25500000920E-02 0. -1.
       -2   -1    0    0    0  501  0.00000000000E+00  0.00000000000E+00 -0.53487339117E+03  0.53487339118E+03  0.25500000920E-02 0.  1.
    10030    2    1    2    0    0  0.00000000000E+00  0.00000000000E+00  0.12990495937E+03  0.11996517417E+04  0.11925975864E+04 0.  0.
        4    1    3    3  502    0 -0.16500972250E+03 -0.29862411412E+03 -0.42698628295E+03  0.54655600700E+03  0.12699999809E+01 0.  1.
       -4    1    3    3    0  502  0.16500972250E+03  0.29862411412E+03  0.55689124232E+03  0.65309573474E+03  0.12699999809E+01 0. -1.
</event>
<event>
 5   0  0.9410666E-04  0.1200973E+04  0.7818609E-02  0.9112005E-01
        2   -1    0    0  501    0  0.00000000000E+00  0.00000000000E+00  0.42563534723E+03  0.42563534724E+03  0.25500000920E-02 0.  1.
       -2   -1    0    0    0  501  0.00000000000E+00  0.00000000000E+00 -0.84716687614E+03  0.84716687615E+03  0.25500000920E-02 0. -1.
    10030    2    1    2    0    0  0.00000000000E+00  0.00000000000E+00 -0.42153152891E+03  0.12728022234E+04  0.12009732179E+04 0.  0.
        2    1    3    3  502    0  0.18789782235E+03 -0.39504803588E+02 -0.81375698786E+03  0.83610206103E+03  0.25500000920E-02 0. -1.
       -2    1    3    3    0  502 -0.18789782235E+03  0.39504803588E+02  0.39222545896E+03  0.43670016236E+03  0.25500000920E-02 0.  1.
</event>
<event>
 5   0  0.5157631E-04  0.1255301E+04  0.7818609E-02  0.9065783E-01
        1   -1    0    0  501    0  0.00000000000E+00  0.00000000000E+00  0.13558556998E+04  0.13558556998E+04  0.50400001928E-02 0.  1.
       -1   -1    0    0    0  501  0.00000000000E+00  0.00000000000E+00 -0.29055072552E+03  0.29055072556E+03  0.50400001928E-02 0. -1.
    10030    2    1    2    0    0  0.00000000000E+00  0.00000000000E+00  0.10653049743E+04  0.16464064254E+04  0.12553005334E+04 0.  0.
        5    1    3    3  502    0 -0.49690462785E+03  0.20744554579E+03  0.10973698733E+03  0.54955633017E+03  0.46999998093E+01 0. -1.
       -5    1    3    3    0  502  0.49690462785E+03 -0.20744554579E+03  0.95556798693E+03  0.10968500952E+04  0.46999998093E+01 0.  1.
</event>
<event>
 5   0  0.5052959E-04  0.1203519E+04  0.7818609E-02  0.9109782E-01
       -1   -1    0    0    0  501  0.00000000000E+00  0.00000000000E+00  0.22141454000E+03  0.22141454006E+03  0.50400001928E-02 0.  1.
        1   -1    0    0  501    0  0.00000000000E+00  0.00000000000E+00 -0.16354580794E+04  0.16354580794E+04  0.50400001928E-02 0. -1.
    10030    2    1    2    0    0  0.00000000000E+00  0.00000000000E+00 -0.14140435394E+04  0.18568726195E+04  0.12035185057E+04 0.  0.
        2    1    3    3  502    0  0.33269737803E+03 -0.32623495432E+03 -0.12945239176E+04  0.13758302817E+04  0.25500000920E-02 0. -1.
       -2    1    3    3    0  502 -0.33269737803E+03  0.32623495432E+03 -0.11951962184E+03  0.48104233783E+03  0.25500000920E-02 0.  1.
</event>
<event>
 5   0  0.9145224E-04  0.1202018E+04  0.7818609E-02  0.9111092E-01
       -2   -1    0    0    0  501  0.00000000000E+00  0.00000000000E+00  0.78312607291E+03  0.78312607291E+03  0.25500000920E-02 0.  1.
        2   -1    0    0  501    0  0.00000000000E+00  0.00000000000E+00 -0.46124322200E+03  0.46124322201E+03  0.25500000920E-02 0. -1.
    10030    2    1    2    0    0  0.00000000000E+00  0.00000000000E+00  0.32188285091E+03  0.12443692949E+04  0.12020176257E+04 0.  0.
        5    1    3    3  502    0  0.49005861923E+03 -0.32826307175E+03  0.28021998838E+03  0.65303861022E+03  0.46999998093E+01 0.  1.
       -5    1    3    3    0  502 -0.49005861923E+03  0.32826307175E+03  0.41662862527E+02  0.59133068470E+03  0.46999998093E+01 0. -1.
</event>
<event>
 5   0  0.5052959E-04  0.1202028E+04  0.7818609E-02  0.9111084E-01
       -1   -1    0    0    0  501  0.00000000000E+00  0.00000000000E+00  0.81304198640E+03  0.81304198642E+03  0.50400001928E-02 0.  1.
        1   -1    0    0  501    0  0.00000000000E+00  0.00000000000E+00 -0.44427920598E+03  0.44427920601E+03  0.50400001928E-02 0. -1.
    10030    2    1    2    0    0  0.00000000000E+00  0.00000000000E+00  0.36876278043E+03  0.12573211924E+04  0.12020277005E+04 0.  0.
        2    1    3    3  502    0 -0.33298527735E+03 -0.29277867619E+03  0.60877796607E+03  0.75313289674E+03  0.25500000920E-02 0.  1.
       -2    1    3    3    0  502  0.33298527735E+03  0.29277867619E+03 -0.24001518565E+03  0.50418829569E+03  0.25500000920E-02 0. -1.
</event>
<event>
 5   0  0.5003507E-04  0.1187478E+04  0.7818609E-02  0.9123888E-01
        1   -1    0    0  501    0  0.00000000000E+00  0.00000000000E+00  0.19766953063E+04  0.19766953063E+04  0.50400001928E-02 0.  1.
       -1   -1    0    0    0  501  0.00000000000E+00  0.00000000000E+00 -0.17834107348E+03  0.17834107355E+03  0.50400001928E-02 0. -1.
    10030    2    1    2    0    0  0.00000000000E+00  0.00000000000E+00  0.17983542328E+04  0.21550363798E+04  0.11874779374E+04 0.  0.
        3    1    3    3  502    0  0.42694085498E+03 -0.40356445499E+03  0.74323943521E+03  0.94738990455E+03  0.10100000352E+00 0. -1.
       -3    1    3    3    0  502 -0.42694085498E+03  0.40356445499E+03  0.10551147976E+04  0.12076464753E+04  0.10100000352E+00 0.  1.
</event>
<event>
 5   0  0.5001586E-04  0.1196463E+04  0.7818609E-02  0.9115958E-01
        1   -1    0    0  501    0  0.00000000000E+00  0.00000000000E+00  0.54290926232E+03  0.54290926235E+03  0.50400001928E-02 0.  1.
       -1   -1    0    0    0  501  0.00000000000E+00  0.00000000000E+00 -0.65919116320E+03  0.65919116322E+03  0.50400001928E-02 0. -1.
    10030    2    1    2    0    0  0.00000000000E+00  0.00000000000E+00 -0.11628190088E+03  0.12021004256E+04  0.11964631013E+04 0.  0.
        1    1    3    3  502    0  0.43507928368E+03 -0.17113819419E+03 -0.43312691242E+03  0.63732345546E+03  0.50400001928E-02 0. -1.
       -1    1    3    3    0  502 -0.43507928368E+03  0.17113819419E+03  0.31684501154E+03  0.56477697010E+03  0.50400001928E-02 0.  1.
</event>
<event>
 5   0  0.9298693E-04  0.1197892E+04  0.7818609E-02  0.9114704E-01
       -2   -1    0    0    0  501  0.00000000000E+00  0.00000000000E+00  0.84682686432E+03  0.84682686433E+03  0.25500000920E-02 0. -1.
        2   -1    0    0  501    0  0.00000000000E+00  0.00000000000E+00 -0.42362408858E+03  0.42362408859E+03  0.25500000920E-02 0.  1.
    10030    2    1    2    0    0  0.00000000000E+00  0.00000000000E+00  0.42320277574E+03  0.12704509529E+04  0.11978919126E+04 0.  0.
        1    1    3    3  502    0 -0.38951766551E+03  0.14685842044E+03 -0.24511612012E+03  0.48308727965E+03  0.50400001928E-02 0.  1.
       -1    1    3    3    0  502  0.38951766551E+03 -0.14685842044E+03  0.66831889586E+03  0.78736367327E+03  0.50400001928E-02 0. -1.
</event>
<event>
 5   0  0.3453625E-04  0.1204553E+04  0.7818609E-02  0.9108881E-01
       -3   -1    0    0    0  501  0.00000000000E+00  0.00000000000E+00  0.85729356150E+03  0.85729356745E+03  0.10100000352E+00 0. -1.
        3   -1    0    0  501    0  0.00000000000E+00  0.00000000000E+00 -0.42311857857E+03  0.42311859062E+03  0.10100000352E+00 0.  1.
    10030    2    1    2    0    0  0.00000000000E+00  0.00000000000E+00  0.43417498294E+03  0.12804121581E+04  0.12045527713E+04 0.  0.
        3    1    3    3  502    0 -0.27362062231E+03  0.39083779180E+03 -0.17364074106E+03  0.50771403527E+03  0.10100000352E+00 0.  1.
       -3    1    3    3    0  502  0.27362062231E+03 -0.39083779180E+03  0.60781572400E+03  0.77269812281E+03  0.10100000352E+00 0. -1.
</event>
<event>
 5   0  0.9050363E-04  0.1199588E+04  0.7818609E-02  0.9113218E-01
        2   -1    0    0  501    0  0.00000000000E+00  0.00000000000E+00  0.37241352725E+03  0.37241352726E+03  0.25500000920E-02 0.  1.
       -2   -1    0    0    0  501  0.00000000000E+00  0.00000000000E+00 -0.96600316396E+03  0.96600316397E+03  0.25500000920E-02 0. -1.
    10030    2    1    2    0    0  0.00000000000E+00  0.00000000000E+00 -0.59358963671E+03  0.13384166912E+04  0.11995876719E+04 0.  0.
        3    1    3    3  502    0 -0.71345270484E+02 -0.45420540885E+03 -0.72654658079E+03  0.85980384118E+03  0.10100000352E+00 0. -1.
       -3    1    3    3    0  502  0.71345270484E+02  0.45420540885E+03  0.13295694407E+03  0.47861285005E+03  0.10100000352E+00 0.  1.
</event>
<event>
 5   0  0.9145224E-04  0.1201165E+04  0.7818609E-02  0.9111838E-01
        2   -1    0    0  501    0  0.00000000000E+00  0.00000000000E+00  0.13496578160E+04  0.13496578160E+04  0.25500000920E-02 0.  1.
       -2   -1    0    0    0  501  0.00000000000E+00  0.00000000000E+00 -0.26725232623E+03  0.26725232624E+03  0.25500000920E-02 0. -1.
    10030    2    1    2    0    0  0.00000000000E+00  0.00000000000E+00  0.10824054898E+04  0.16169101422E+04  0.12011647530E+04 0.  0.
        5    1    3    3  502    0 -0.24882104507E+03 -0.51252307873E+03  0.28549236421E+03  0.63727529272E+03  0.46999998093E+01 0. -1.
       -5    1    3    3    0  502  0.24882104507E+03  0.51252307873E+03  0.79691312557E+03  0.97963484952E+03  0.46999998093E+01 0.  1.
</event>
<event>
 5   0  0.9070772E-04  0.1202121E+04  0.7818609E-02  0.9111002E-01
        2   -1    0    0  501    0  0.00000000000E+00  0.00000000000E+00  0.38364303046E+03  0.38364303047E+03  0.25500000920E-02 0.  1.
       -2   -1    0    0    0  501  0.00000000000E+00  0.00000000000E+00 -0.94169279024E+03  0.94169279025E+03  0.25500000920E-02 0. -1.
    10030    2    1    2    0    0  0.00000000000E+00  0.00000000000E+00 -0.55804975979E+03  0.13253358207E+04  0.12021212515E+04 0.  0.
        4    1    3    3  502    0  0.92905389885E+02  0.42687327169E+03  0.17610779966E+03  0.47102841905E+03  0.12699999809E+01 0.  1.
       -4    1    3    3    0  502 -0.92905389885E+02 -0.42687327169E+03 -0.73415755945E+03  0.85430740167E+03  0.12699999809E+01 0. -1.
</event>
<event>
 5   0  0.9298693E-04  0.1200354E+04  0.7818609E-02  0.9112546E-01
        2   -1    0    0  501    0  0.00000000000E+00  0.00000000000E+00  0.28025992414E+03  0.28025992416E+03  0.25500000920E-02 0.  1.
       -2   -1    0    0    0  501  0.00000000000E+00  0.00000000000E+00 -0.12852808155E+04  0.12852808155E+04  0.25500000920E-02 0. -1.
    10030    2    1    2    0    0  0.00000000000E+00  0.00000000000E+00 -0.10050208913E+04  0.15655407396E+04  0.12003544541E+04 0.  0.
        1    1    3    3  502    0 -0.81752611026E+02  0.32017192254E+03  0.15093343682E+03  0.36328288119E+03  0.50400001928E-02 0.  1.
       -1    1    3    3    0  502  0.81752611026E+02 -0.32017192254E+03 -0.11559543282E+04  0.12022578585E+04  0.50400001928E-02 0. -1.
</event>
<event>
 5   0  0.5052959E-04  0.1190195E+04  0.7818609E-02  0.9121482E-01
        1   -1    0    0  501    0  0.00000000000E+00  0.00000000000E+00  0.54662878543E+03  0.54662878545E+03  0.50400001928E-02 0.  1.
       -1   -1    0    0    0  501  0.00000000000E+00  0.00000000000E+00 -0.64786384840E+03  0.64786384842E+03  0.50400001928E-02 0. -1.
    10030    2    1    2    0    0  0.00000000000E+00  0.00000000000E+00 -0.10123506297E+03  0.11944926339E+04  0.11901949901E+04 0.  0.
        2    1    3    3  502    0 -0.27115604247E+03 -0.39714817888E+03 -0.40243826289E+03  0.62706365769E+03  0.25500000920E-02 0. -1.
       -2    1    3    3    0  502  0.27115604247E+03  0.39714817888E+03  0.30120319992E+03  0.56742897617E+03  0.25500000920E-02 0.  1.
</event>
<event>
 5   0  0.5003507E-04  0.1192358E+04  0.7818609E-02  0.9119572E-01
        1   -1    0    0  501    0  0.00000000000E+00  0.00000000000E+00  0.47044667065E+03  0.47044667067E+03  0.50400001928E-02 0.  1.
       -1   -1    0    0    0  501  0.00000000000E+00  0.00000000000E+00 -0.75551530602E+03  0.75551530604E+03  0.50400001928E-02 0. -1.
    10030    2    1    2    0    0  0.00000000000E+00  0.00000000000E+00 -0.28506863538E+03  0.12259619767E+04  0.11923584367E+04 0.  0.
        3    1    3    3  502    0  0.18498365315E+03 -0.43309453767E+03  0.23333607029E+03  0.52558116633E+03  0.10100000352E+00 0.  1.
       -3    1    3    3    0  502 -0.18498365315E+03  0.43309453767E+03 -0.51840470567E+03  0.70038081039E+03  0.10100000352E+00 0. -1.
</event>
<event>
 5   0  0.9145224E-04  0.1196346E+04  0.7818609E-02  0.9116061E-01
        2   -1    0    0  501    0  0.00000000000E+00  0.00000000000E+00  0.60933603463E+03  0.60933603464E+03  0.25500000920E-02 0.  1.
       -2   -1    0    0    0  501  0.00000000000E+00  0.00000000000E+00 -0.58721474297E+03  0.58721474298E+03  0.25500000920E-02 0. -1.
    10030    2    1    2    0    0  0.00000000000E+00  0.00000000000E+00  0.22121291660E+02  0.11965507776E+04  0.11963462759E+04 0.  0.
        5    1    3    3  502    0  0.36658621311E+03  0.37956542354E+03 -0.27064979994E+03  0.59306725301E+03  0.46999998093E+01 0. -1.
       -5    1    3    3    0  502 -0.36658621311E+03 -0.37956542354E+03  0.29277109160E+03  0.60348352460E+03  0.46999998093E+01 0.  1.
</event>
<event>
 5   0  0.9050363E-04  0.1204019E+04  0.7818609E-02  0.9109346E-01
       -2   -1    0    0    0  501  0.00000000000E+00  0.00000000000E+00  0.42634232787E+03  0.42634232788E+03  0.25500000920E-02 0. -1.
        2   -1    0    0  501    0  0.00000000000E+00  0.00000000000E+00 -0.85005701101E+03  0.85005701102E+03  0.25500000920E-02 0.  1.
    10030    2    1    2    0    0  0.00000000000E+00  0.00000000000E+00 -0.42371468315E+03  0.12763993389E+04  0.12040187455E+04 0.  0.
        3    1    3    3  502    0 -0.34848508409E+03 -0.27060689212E+03  0.22233138413E+03  0.49406598594E+03  0.10100000352E+00 0. -1.
       -3    1    3    3    0  502  0.34848508409E+03  0.27060689212E+03 -0.64604606727E+03  0.78233335295E+03  0.10100000352E+00 0.  1.
</event>
<event>
 5   0  0.5052959E-04  0.1192097E+04  0.7818609E-02  0.9119802E-01
        1   -1    0    0  501    0  0.00000000000E+00  0.00000000000E+00  0.60860340802E+03  0.60860340804E+03  0.50400001928E-02 0.  1.
       -1   -1    0    0    0  501  0.00000000000E+00  0.00000000000E+00 -0.58375248245E+03  0.58375248247E+03  0.50400001928E-02 0. -1.
    10030    2    1    2    0    0  0.00000000000E+00  0.00000000000E+00  0.24850925565E+02  0.11923558905E+04  0.11920968925E+04 0.  0.
        2    1    3    3  502    0 -0.59603250428E+03  0.42544862161E+01  0.13376180283E+02  0.59619775999E+03  0.25500000920E-02 0.  1.
       -2    1    3    3    0  502  0.59603250428E+03 -0.42544862161E+01  0.11474745283E+02  0.59615813053E+03  0.25500000920E-02 0. -1.
</event>
<event>
 5   0  0.5001586E-04  0.1203691E+04  0.7818609E-02  0.9109632E-01
       -1   -1    0    0    0  501  0.00000000000E+00  0.00000000000E+00  0.25729743800E+03  0.25729743805E+03  0.50400001928E-02 0. -1.
        1   -1    0    0  501    0  0.00000000000E+00  0.00000000000E+00 -0.14077783685E+04  0.14077783685E+04  0.50400001928E-02 0.  1.
    10030    2    1    2    0    0  0.00000000000E+00  0.00000000000E+00 -0.11504809305E+04  0.16650758065E+04  0.12036906040E+04 0.  0.
        1    1    3    3  502    0 -0.28685341867E+03  0.52546617125E+03 -0.66071715839E+03  0.89159786022E+03  0.50400001928E-02 0.  1.
       -1    1    3    3    0  502  0.28685341867E+03 -0.52546617125E+03 -0.48976377207E+03  0.77347794629E+03  0.50400001928E-02 0. -1.
</event>
<event>
 5   0  0.9145224E-04  0.1207636E+04  0.7818609E-02  0.9106199E-01
       -2   -1    0    0    0  501  0.00000000000E+00  0.00000000000E+00  0.57185128552E+03  0.57185128553E+03  0.25500000920E-02 0. -1.
        2   -1    0    0  501    0  0.00000000000E+00  0.00000000000E+00 -0.63757196247E+03  0.63757196248E+03  0.25500000920E-02 0.  1.
    10030    2    1    2    0    0  0.00000000000E+00  0.00000000000E+00 -0.65720676952E+02  0.12094232480E+04  0.12076362803E+04 0.  0.
        5    1    3    3  502    0 -0.38724490072E+03 -0.41047095507E+03 -0.24795533216E+03  0.61639999581E+03  0.46999998093E+01 0.  1.
       -5    1    3    3    0  502  0.38724490072E+03  0.41047095507E+03  0.18223465521E+03  0.59302325220E+03  0.46999998093E+01 0. -1.
</event>
<event>
 5   0  0.5447074E-04  0.1195883E+04  0.7818609E-02  0.9116468E-01
       -1   -1    0    0    0  501  0.00000000000E+00  0.00000000000E+00  0.70767957384E+03  0.70767957385E+03  0.50400001928E-02 0.  1.
        1   -1    0    0  501    0  0.00000000000E+00  0.00000000000E+00 -0.50521993918E+03  0.50521993921E+03  0.50400001928E-02 0. -1.
    10030    2    1    2    0    0  0.00000000000E+00  0.00000000000E+00  0.20245963466E+03  0.12128995131E+04  0.11958826552E+04 0.  0.
        4    1    3    3  502    0 -0.47391609700E+03  0.13857097823E+03  0.44327312462E+03  0.66354431571E+03  0.12699999809E+01 0.  1.
       -4    1    3    3    0  502  0.47391609700E+03 -0.13857097823E+03 -0.24081348996E+03  0.54935519735E+03  0.12699999809E+01 0. -1.
</event>
<event>
 5   0  0.5001586E-04  0.1204092E+04  0.7818609E-02  0.9109282E-01
       -1   -1    0    0    0  501  0.00000000000E+00  0.00000000000E+00  0.15419172088E+03  0.15419172097E+03  0.50400001928E-02 0. -1.
        1   -1    0    0  501    0  0.00000000000E+00  0.00000000000E+00 -0.23507070492E+04  0.23507070492E+04  0.50400001928E-02 0.  1.
    10030    2    1    2    0    0  0.00000000000E+00  0.00000000000E+00 -0.21965153283E+04  0.25048987702E+04  0.12040922977E+04 0.  0.
        1    1    3    3  502    0  0.15915714301E+03 -0.30318066208E+03 -0.68109865486E+02  0.34912528387E+03  0.50400001928E-02 0. -1.
       -1    1    3    3    0  502 -0.15915714301E+03  0.30318066208E+03 -0.21284054629E+04  0.21557734863E+04  0.50400001928E-02 0.  1.
</event>
<event>
 5   0  0.9070772E-04  0.1196301E+04  0.7818609E-02  0.9116101E-01
        2   -1    0    0  501    0  0.00000000000E+00  0.00000000000E+00  0.57115127618E+03  0.57115127619E+03  0.25500000920E-02 0.  1.
       -2   -1    0    0    0  501  0.00000000000E+00  0.00000000000E+00 -0.62642593222E+03  0.62642593222E+03  0.25500000920E-02 0. -1.
    10030    2    1    2    0    0  0.00000000000E+00  0.00000000000E+00 -0.55274656036E+02  0.11975772084E+04  0.11963009164E+04 0.  0.
        4    1    3    3  502    0  0.34988445900E+03 -0.36239697893E+03 -0.35052081581E+03  0.61369142099E+03  0.12699999809E+01 0. -1.
       -4    1    3    3    0  502 -0.34988445900E+03  0.36239697893E+03  0.29524615977E+03  0.58388578742E+03  0.12699999809E+01 0.  1.
</event>
<event>
 5   0  0.5003507E-04  0.1201544E+04  0.7818609E-02  0.9111506E-01
        1   -1    0    0  501    0  0.00000000000E+00  0.00000000000E+00  0.13043650879E+04  0.13043650879E+04  0.50400001928E-02 0. -1.
       -1   -1    0    0    0  501  0.00000000000E+00  0.00000000000E+00 -0.27670686886E+03  0.27670686890E+03  0.50400001928E-02 0.  1.
    10030    2    1    2    0    0  0.00000000000E+00  0.00000000000E+00  0.10276582191E+04  0.15810719568E+04  0.12015436394E+04 0.  0.
        3    1    3    3  502    0 -0.55447412500E+03 -0.15750642025E+02  0.21021677651E+03  0.59319536524E+03  0.10100000352E+00 0.  1.
       -3    1    3    3    0  502  0.55447412500E+03  0.15750642025E+02  0.81744144255E+03  0.98787659159E+03  0.10100000352E+00 0. -1.
</event>
<event>
 5   0  0.5001586E-04  0.1208200E+04  0.7818609E-02  0.9105709E-01
        1   -1    0    0  501    0  0.00000000000E+00  0.00000000000E+00  0.11300010687E+04  0.11300010687E+04  0.50400001928E-02 0. -1.
       -1   -1    0    0    0  501  0.00000000000E+00  0.00000000000E+00 -0.32295277693E+03  0.32295277697E+03  0.50400001928E-02 0.  1.
    10030    2    1    2    0    0  0.00000000000E+00  0.00000000000E+00  0.80704829177E+03  0.14529538457E+04  0.12082002866E+04 0.  0.
        1    1    3    3  502    0  0.36244626966E+02 -0.53495394447E+03  0.73819418239E+03  0.91237056431E+03  0.50400001928E-02 0. -1.
       -1    1    3    3    0  502 -0.36244626966E+02  0.53495394447E+03  0.68854109378E+02  0.54058328136E+03  0.50400001928E-02 0.  1.
</event>
<event>
 5   0  0.5001586E-04  0.1202213E+04  0.7818609E-02  0.9110922E-01
        1   -1    0    0  501    0  0.00000000000E+00  0.00000000000E+00  0.63543473684E+03  0.63543473686E+03  0.50400001928E-02 0. -1.
       -1   -1    0    0    0  501  0.00000000000E+00  0.00000000000E+00 -0.56863251632E+03  0.56863251634E+03  0.50400001928E-02 0.  1.
    10030    2    1    2    0    0  0.00000000000E+00  0.00000000000E+00  0.66802220522E+02  0.12040672532E+04  0.12022127156E+04 0.  0.
        1    1    3    3  502    0  0.15526028814E+03 -0.19125236615E+02  0.61469053715E+03  0.63428383886E+03  0.50400001928E-02 0. -1.
       -1    1    3    3    0  502 -0.15526028814E+03  0.19125236615E+02 -0.54788831663E+03  0.56978341435E+03  0.50400001928E-02 0.  1.
</event>
<event>
 5   0  0.5157631E-04  0.1202471E+04  0.7818609E-02  0.9110696E-01
        1   -1    0    0  501    0  0.00000000000E+00  0.00000000000E+00  0.12888160456E+04  0.12888160456E+04  0.50400001928E-02 0. -1.
       -1   -1    0    0    0  501  0.00000000000E+00  0.00000000000E+00 -0.28047765577E+03  0.28047765582E+03  0.50400001928E-02 0.  1.
    10030    2    1    2    0    0  0.00000000000E+00  0.00000000000E+00  0.10083383898E+04  0.15692937014E+04  0.12024709614E+04 0.  0.
        5    1    3    3  502    0  0.44029149080E+03 -0.39658133551E+03  0.37153618064E+03  0.69942446058E+03  0.46999998093E+01 0.  1.
       -5    1    3    3    0  502 -0.44029149080E+03  0.39658133551E+03  0.63680220921E+03  0.86986924086E+03  0.46999998093E+01 0. -1.
</event>
<event>
 5   0  0.5157631E-04  0.1203151E+04  0.7818609E-02  0.9110103E-01
        1   -1    0    0  501    0  0.00000000000E+00  0.00000000000E+00  0.36848420365E+03  0.36848420368E+03  0.50400001928E-02 0.  1.
       -1   -1    0    0    0  501  0.00000000000E+00  0.00000000000E+00 -0.98211207758E+03  0.98211207759E+03  0.50400001928E-02 0. -1.
    10030    2    1    2    0    0  0.00000000000E+00  0.00000000000E+00 -0.61362787393E+03  0.13505962813E+04  0.12031505090E+04 0.  0.
        5    1    3    3  502    0 -0.52945806167E+03 -0.17427323176E+02 -0.62677240700E+03  0.82066758851E+03  0.46999998093E+01 0. -1.
       -5    1    3    3    0  502  0.52945806167E+03  0.17427323176E+02  0.13144533065E+02  0.52992869276E+03  0.46999998093E+01 0.  1.
</event>
<event>
 5   0  0.5052959E-04  0.1206795E+04  0.7818609E-02  0.9106930E-01
        1   -1    0    0  501    0  0.00000000000E+00  0.00000000000E+00  0.88905936419E+03  0.88905936421E+03  0.50400001928E-02 0. -1.
       -1   -1    0    0    0  501  0.00000000000E+00  0.00000000000E+00 -0.40952080485E+03  0.40952080488E+03  0.50400001928E-02 0.  1.
    10030    2    1    2    0    0  0.00000000000E+00  0.00000000000E+00  0.47953855934E+03  0.12985801691E+04  0.12067946079E+04 0.  0.
        2    1    3    3  502    0  0.52178175447E+03  0.15830550816E+03 -0.38285832704E+02  0.54661013364E+03  0.25500000920E-02 0.  1.
       -2    1    3    3    0  502 -0.52178175447E+03 -0.15830550816E+03  0.51782439205E+03  0.75197003545E+03  0.25500000920E-02 0. -1.
</event>
<event>
 5   0  0.5052959E-04  0.1200420E+04  0.7818609E-02  0.9112489E-01
        1   -1    0    0  501    0  0.00000000000E+00  0.00000000000E+00  0.26528900187E+04  0.26528900187E+04  0.50400001928E-02 0.  1.
       -1   -1    0    0    0  501  0.00000000000E+00  0.00000000000E+00 -0.13579601421E+03  0.13579601431E+03  0.50400001928E-02 0. -1.
    10030    2    1    2    0    0  0.00000000000E+00  0.00000000000E+00  0.25170940044E+04  0.27886860330E+04  0.12004197446E+04 0.  0.
        2    1    3    3  502    0  0.20581255353E+03 -0.13386336318E+03  0.25309013246E+04  0.25427818864E+04  0.25500000920E-02 0.  1.
       -2    1    3    3    0  502 -0.20581255353E+03  0.13386336318E+03 -0.13807320127E+02  0.24590414655E+03  0.25500000920E-02 0. -1.
</event>
<event>
 5   0  0.5052959E-04  0.1243436E+04  0.7818609E-02  0.9075664E-01
        1   -1    0    0  501    0  0.00000000000E+00  0.00000000000E+00  0.17417077443E+04  0.17417077443E+04  0.50400001928E-02 0. -1.
       -1   -1    0    0    0  501  0.00000000000E+00  0.00000000000E+00 -0.22192775817E+03  0.22192775823E+03  0.50400001928E-02 0.  1.
    10030    2    1    2    0    0  0.00000000000E+00  0.00000000000E+00  0.15197799861E+04  0.19636355025E+04  0.12434360380E+04 0.  0.
        2    1    3    3  502    0 -0.27488559696E+03 -0.27352642860E+03  0.15273142723E+04  0.15757752648E+04  0.25500000920E-02 0. -1.
       -2    1    3    3    0  502  0.27488559696E+03  0.27352642860E+03 -0.75342862232E+01  0.38786023776E+03  0.25500000920E-02 0.  1.
</event>
<event>
 5   0  0.9145224E-04  0.1234304E+04  0.7818609E-02  0.9083349E-01
       -2   -1    0    0    0  501  0.00000000000E+00  0.00000000000E+00  0.21483332279E+03  0.21483332280E+03  0.25500000920E-02 0. -1.
        2   -1    0    0  501    0  0.00000000000E+00  0.00000000000E+00 -0.17728934476E+04  0.17728934476E+04  0.25500000920E-02 0.  1.
    10030    2    1    2    0    0  0.00000000000E+00  0.00000000000E+00 -0.15580601248E+04  0.19877267704E+04  0.12343039987E+04 0.  0.
        5    1    3    3  502    0 -0.27637388371E+03  0.20993663730E+03  0.42746708287E+02  0.34972172702E+03  0.46999998093E+01 0. -1.
       -5    1    3    3    0  502  0.27637388371E+03 -0.20993663730E+03 -0.16008068331E+04  0.16380050433E+04  0.46999998093E+01 0.  1.
</event>
<event>
 5   0  0.5001586E-04  0.1198436E+04  0.7818609E-02  0.9114226E-01
        1   -1    0    0  501    0  0.00000000000E+00  0.00000000000E+00  0.78708100596E+03  0.78708100598E+03  0.50400001928E-02 0.  1.
       -1   -1    0    0    0  501  0.00000000000E+00  0.00000000000E+00 -0.45619498113E+03  0.45619498116E+03  0.50400001928E-02 0. -1.
    10030    2    1    2    0    0  0.00000000000E+00  0.00000000000E+00  0.33088602483E+03  0.12432759871E+04  0.11984363224E+04 0.  0.
        1    1    3    3  502    0  0.55508246699E+03  0.26310048322E+02  0.39800372438E+03  0.68353180501E+03  0.50400001928E-02 0.  1.
       -1    1    3    3    0  502 -0.55508246699E+03 -0.26310048322E+02 -0.67117699557E+02  0.55974418213E+03  0.50400001928E-02 0. -1.
</event>
<event>
 5   0  0.3453625E-04  0.1201137E+04  0.7818609E-02  0.9111862E-01
       -3   -1    0    0    0  501  0.00000000000E+00  0.00000000000E+00  0.34562248058E+03  0.34562249534E+03  0.10100000352E+00 0.  1.
        3   -1    0    0  501    0  0.00000000000E+00  0.00000000000E+00 -0.10435742111E+04  0.10435742160E+04  0.10100000352E+00 0. -1.
    10030    2    1    2    0    0  0.00000000000E+00  0.00000000000E+00 -0.69795173051E+03  0.13891967113E+04  0.12011373296E+04 0.  0.
        4    1    3    3  502    0  0.68070978409E+02 -0.10882290871E+03 -0.10275224751E+04  0.10355096008E+04  0.12699999809E+01 0. -1.
       -4    1    3    3    0  502 -0.68070978409E+02  0.10882290871E+03  0.32957074460E+03  0.35368711053E+03  0.12699999809E+01 0.  1.
</event>
<event>
 5   0  0.9145224E-04  0.1171476E+04  0.7818609E-02  0.9138197E-01
       -2   -1    0    0    0  501  0.00000000000E+00  0.00000000000E+00  0.41967432597E+03  0.41967432598E+03  0.25500000920E-02 0. -1.
        2   -1    0    0  501    0  0.00000000000E+00  0.00000000000E+00 -0.81751193197E+03  0.81751193198E+03  0.25500000920E-02 0.  1.
    10030    2    1    2    0    0  0.00000000000E+00  0.00000000000E+00 -0.39783760600E+03  0.12371862580E+04  0.11714755978E+04 0.  0.
        5    1    3    3  502    0  0.39357752912E+03  0.75350096148E+02  0.25222639995E+03  0.47351996288E+03  0.46999998093E+01 0. -1.
       -5    1    3    3    0  502 -0.39357752912E+03 -0.75350096148E+02 -0.65006400595E+03  0.76366629508E+03  0.46999998093E+01 0.  1.
</event>
<event>
 5   0  0.5447074E-04  0.1198206E+04  0.7818609E-02  0.9114428E-01
       -1   -1    0    0    0  501  0.00000000000E+00  0.00000000000E+00  0.94158828160E+03  0.94158828161E+03  0.50400001928E-02 0.  1.
        1   -1    0    0  501    0  0.00000000000E+00  0.00000000000E+00 -0.38119036908E+03  0.38119036911E+03  0.50400001928E-02 0. -1.
    10030    2    1    2    0    0  0.00000000000E+00  0.00000000000E+00  0.56039791252E+03  0.13227786507E+04  0.11982059666E+04 0.  0.
        4    1    3    3  502    0 -0.13536334253E+03 -0.36328431446E+03  0.78443963522E+03  0.87501193239E+03  0.12699999809E+01 0.  1.
       -4    1    3    3    0  502  0.13536334253E+03  0.36328431446E+03 -0.22404172270E+03  0.44776671833E+03  0.12699999809E+01 0. -1.
</event>
<event>
 5   0  0.9070772E-04  0.1228640E+04  0.7818609E-02  0.9088151E-01
       -2   -1    0    0    0  501  0.00000000000E+00  0.00000000000E+00  0.26505006733E+03  0.26505006734E+03  0.25500000920E-02 0. -1.
        2   -1    0    0  501    0  0.00000000000E+00  0.00000000000E+00 -0.14238415130E+04  0.14238415130E+04  0.25500000920E-02 0.  1.
    10030    2    1    2    0    0  0.00000000000E+00  0.00000000000E+00 -0.11587914456E+04  0.16888915803E+04  0.12286403687E+04 0.  0.
        4    1    3    3  502    0 -0.29148703105E+03 -0.16691022634E+03 -0.12864330359E+04  0.13295620639E+04  0.12699999809E+01 0.  1.
       -4    1    3    3    0  502  0.29148703105E+03  0.16691022634E+03  0.12764159026E+03  0.35932951644E+03  0.12699999809E+01 0. -1.
</event>
<event>
 5   0  0.9298693E-04  0.1189807E+04  0.7818609E-02  0.9121825E-01
       -2   -1    0    0    0  501  0.00000000000E+00  0.00000000000E+00  0.44959311579E+03  0.44959311580E+03  0.25500000920E-02 0.  1.
        2   -1    0    0  501    0  0.00000000000E+00  0.00000000000E+00 -0.78717889487E+03  0.78717889487E+03  0.25500000920E-02 0. -1.
    10030    2    1    2    0    0  0.00000000000E+00  0.00000000000E+00 -0.33758577908E+03  0.12367720107E+04  0.11898070634E+04 0.  0.
        1    1    3    3  502    0 -0.16165248280E+03  0.55970522161E+03 -0.29399975113E+03  0.65256211504E+03  0.50400001928E-02 0.  1.
       -1    1    3    3    0  502  0.16165248280E+03 -0.55970522161E+03 -0.43586027951E+02  0.58420989563E+03  0.50400001928E-02 0. -1.
</event>
<event>
 5   0  0.5003507E-04  0.1202770E+04  0.7818609E-02  0.9110435E-01
       -1   -1    0    0    0  501  0.00000000000E+00  0.00000000000E+00  0.15609384744E+03  0.15609384752E+03  0.50400001928E-02 0. -1.
        1   -1    0    0  501    0  0.00000000000E+00  0.00000000000E+00 -0.23169644728E+04  0.23169644728E+04  0.50400001928E-02 0.  1.
    10030    2    1    2    0    0  0.00000000000E+00  0.00000000000E+00 -0.21608706254E+04  0.24730583203E+04  0.12027699681E+04 0.  0.
        3    1    3    3  502    0 -0.23463679680E+02 -0.20500043742E+03  0.81032371577E+02  0.22167990222E+03  0.10100000352E+00 0. -1.
       -3    1    3    3    0  502  0.23463679680E+02  0.20500043742E+03 -0.22419029969E+04  0.22513784181E+04  0.10100000352E+00 0.  1.
</event>
<event>
 5   0  0.9050363E-04  0.1196219E+04  0.7818609E-02  0.9116173E-01
        2   -1    0    0  501    0  0.00000000000E+00  0.00000000000E+00  0.11558557937E+04  0.11558557937E+04  0.25500000920E-02 0.  1.
       -2   -1    0    0    0  501  0.00000000000E+00  0.00000000000E+00 -0.30949780024E+03  0.30949780025E+03  0.25500000920E-02 0. -1.
    10030    2    1    2    0    0  0.00000000000E+00  0.00000000000E+00  0.84635799350E+03  0.14653535940E+04  0.11962187518E+04 0.  0.
        3    1    3    3  502    0 -0.32613522545E+03 -0.44904373707E+03  0.15000296275E+03  0.57489595764E+03  0.10100000352E+00 0. -1.
       -3    1    3    3    0  502  0.32613522545E+03  0.44904373707E+03  0.69635503075E+03  0.89045763635E+03  0.10100000352E+00 0.  1.
</event>
<event>
 5   0  0.5447074E-04  0.1197554E+04  0.7818609E-02  0.9115000E-01
       -1   -1    0    0    0  501  0.00000000000E+00  0.00000000000E+00  0.70180824177E+03  0.70180824179E+03  0.50400001928E-02 0.  1.
        1   -1    0    0  501    0  0.00000000000E+00  0.00000000000E+00 -0.51087133559E+03  0.51087133562E+03  0.50400001928E-02 0. -1.
    10030    2    1    2    0    0  0.00000000000E+00  0.00000000000E+00  0.19093690618E+03  0.12126795774E+04  0.11975536962E+04 0.  0.
        4    1    3    3  502    0 -0.24349762369E+03  0.47946935357E+03  0.36213882201E+03  0.64832714972E+03  0.12699999809E+01 0.  1.
       -4    1    3    3    0  502  0.24349762369E+03 -0.47946935357E+03 -0.17120191583E+03  0.56435242769E+03  0.12699999809E+01 0. -1.
</event>
<event>
 5   0  0.9410666E-04  0.1201968E+04  0.7818609E-02  0.9111136E-01
        2   -1    0    0  501    0  0.00000000000E+00  0.00000000000E+00  0.20870315943E+04  0.20870315943E+04  0.25500000920E-02 0.  1.
       -2   -1    0    0    0  501  0.00000000000E+00  0.00000000000E+00 -0.17306000012E+03  0.17306000014E+03  0.25500000920E-02 0. -1.
    10030    2    1    2    0    0  0.00000000000E+00  0.00000000000E+00  0.19139715942E+04  0.22600915945E+04  0.12019678664E+04 0.  0.
        2    1    3    3  502    0 -0.32293756988E+03  0.10838715543E+03  0.18879755779E+04  0.19184598595E+04  0.25500000920E-02 0.  1.
       -2    1    3    3    0  502  0.32293756988E+03 -0.10838715543E+03  0.25996016282E+02  0.34163173501E+03  0.25500000920E-02 0. -1.
</event>
<event>
 5   0  0.5447074E-04  0.1197964E+04  0.7818609E-02  0.9114640E-01
       -1   -1    0    0    0  501  0.00000000000E+00  0.00000000000E+00  0.61776619585E+03  0.61776619587E+03  0.50400001928E-02 0. -1.
        1   -1    0    0  501    0  0.00000000000E+00  0.00000000000E+00 -0.58076905199E+03  0.58076905201E+03  0.50400001928E-02 0.  1.
    10030    2    1    2    0    0  0.00000000000E+00  0.00000000000E+00  0.36997143862E+02  0.11985352479E+04  0.11979640862E+04 0.  0.
        4    1    3    3  502    0 -0.25092153285E+03  0.35549668241E+03  0.43032374762E+03  0.61198010386E+03  0.12699999809E+01 0. -1.
       -4    1    3    3    0  502  0.25092153285E+03 -0.35549668241E+03 -0.39332660375E+03  0.58655514402E+03  0.12699999809E+01 0.  1.
</event>
<event>
 5   0  0.5447074E-04  0.1183654E+04  0.7818609E-02  0.9127285E-01
        1   -1    0    0  501    0  0.00000000000E+00  0.00000000000E+00  0.86182777335E+03  0.86182777337E+03  0.50400001928E-02 0.  1.
       -1   -1    0    0    0  501  0.00000000000E+00  0.00000000000E+00 -0.40641459439E+03  0.40641459443E+03  0.50400001928E-02 0. -1.
    10030    2    1    2    0    0  0.00000000000E+00  0.00000000000E+00  0.45541317896E+03  0.12682423678E+04  0.11836543160E+04 0.  0.
        4    1    3    3  502    0 -0.16877833381E+03  0.24971096745E+03 -0.31802088239E+03  0.43815589436E+03  0.12699999809E+01 0. -1.
       -4    1    3    3    0  502  0.16877833381E+03 -0.24971096745E+03  0.77343406135E+03  0.83008647343E+03  0.12699999809E+01 0.  1.
</event>
<event>
 5   0  0.5052959E-04  0.1198718E+04  0.7818609E-02  0.9113979E-01
        1   -1    0    0  501    0  0.00000000000E+00  0.00000000000E+00  0.62009334050E+03  0.62009334052E+03  0.50400001928E-02 0. -1.
       -1   -1    0    0    0  501  0.00000000000E+00  0.00000000000E+00 -0.57931812960E+03  0.57931812962E+03  0.50400001928E-02 0.  1.
    10030    2    1    2    0    0  0.00000000000E+00  0.00000000000E+00  0.40775210898E+02  0.11994114701E+04  0.11987181724E+04 0.  0.
        2    1    3    3  502    0 -0.19029232905E+03 -0.30777662446E+03  0.49846484199E+03  0.61595845620E+03  0.25500000920E-02 0. -1.
       -2    1    3    3    0  502  0.19029232905E+03  0.30777662446E+03 -0.45768963110E+03  0.58345301394E+03  0.25500000920E-02 0.  1.
</event>
<event>
 5   0  0.9410666E-04  0.1200459E+04  0.7818609E-02  0.9112455E-01
       -2   -1    0    0    0  501  0.00000000000E+00  0.00000000000E+00  0.45613529938E+03  0.45613529939E+03  0.25500000920E-02 0. -1.
        2   -1    0    0  501    0  0.00000000000E+00  0.00000000000E+00 -0.78984289774E+03  0.78984289774E+03  0.25500000920E-02 0.  1.
    10030    2    1    2    0    0  0.00000000000E+00  0.00000000000E+00 -0.33370759836E+03  0.12459781971E+04  0.12004586234E+04 0.  0.
        2    1    3    3  502    0 -0.54877239826E+03  0.16074970979E+03  0.22501940862E+02  0.57227436745E+03  0.25500000920E-02 0.  1.
       -2    1    3    3    0  502  0.54877239826E+03 -0.16074970979E+03 -0.35620953922E+03  0.67370382968E+03  0.25500000920E-02 0. -1.
</event>
<event>
 5   0  0.9298693E-04  0.1205271E+04  0.7818609E-02  0.9108256E-01
       -2   -1    0    0    0  501  0.00000000000E+00  0.00000000000E+00  0.23463844159E+03  0.23463844161E+03  0.25500000920E-02 0. -1.
        2   -1    0    0  501    0  0.00000000000E+00  0.00000000000E+00 -0.15477824239E+04  0.15477824239E+04  0.25500000920E-02 0.  1.
    10030    2    1    2    0    0  0.00000000000E+00  0.00000000000E+00 -0.13131439823E+04  0.17824208655E+04  0.12052705188E+04 0.  0.
        1    1    3    3  502    0  0.46367646268E+03 -0.38241510911E+03 -0.72157568957E+03  0.93909991668E+03  0.50400001928E-02 0.  1.
       -1    1    3    3    0  502 -0.46367646268E+03  0.38241510911E+03 -0.59156829271E+03  0.84332094880E+03  0.50400001928E-02 0. -1.
</event>
<event>
 5   0  0.3453625E-04  0.1196412E+04  0.7818609E-02  0.9116003E-01
       -4   -1    0    0    0  501  0.00000000000E+00  0.00000000000E+00  0.69223731585E+03  0.69223848084E+03  0.12699999809E+01 0.  1.
        4   -1    0    0  501    0  0.00000000000E+00  0.00000000000E+00 -0.51694488634E+03  0.51694644637E+03  0.12699999809E+01 0. -1.
    10030    2    1    2    0    0  0.00000000000E+00  0.00000000000E+00  0.17529242951E+03  0.12091849272E+04  0.11964116149E+04 0.  0.
        1    1    3    3  502    0 -0.42725798205E+03 -0.26502560989E+03 -0.23994738904E+03  0.55710206126E+03  0.50400001928E-02 0. -1.
       -1    1    3    3    0  502  0.42725798205E+03  0.26502560989E+03  0.41523981855E+03  0.65208286595E+03  0.50400001928E-02 0.  1.
</event>
<event>
 5   0  0.9298693E-04  0.1199396E+04  0.7818609E-02  0.9113385E-01
        2   -1    0    0  501    0  0.00000000000E+00  0.00000000000E+00  0.56018756573E+03  0.56018756573E+03  0.25500000920E-02 0.  1.
       -2   -1    0    0    0  501  0.00000000000E+00  0.00000000000E+00 -0.64199506185E+03  0.64199506185E+03  0.25500000920E-02 0. -1.
    10030    2    1    2    0    0  0.00000000000E+00  0.00000000000E+00 -0.81807496119E+02  0.12021826276E+04  0.11993959328E+04 0.  0.
        1    1    3    3  502    0 -0.57551144986E+03 -0.16849074665E+03 -0.46841214612E+02  0.60149535330E+03  0.50400001928E-02 0.  1.
       -1    1    3    3    0  502  0.57551144986E+03  0.16849074665E+03 -0.34966281507E+02  0.60068727429E+03  0.50400001928E-02 0. -1.
</event>
<event>
 5   0  0.5001586E-04  0.1198322E+04  0.7818609E-02  0.9114326E-01
        1   -1    0    0  501    0  0.00000000000E+00  0.00000000000E+00  0.19075428035E+04  0.19075428035E+04  0.50400001928E-02 0.  1.
       -1   -1    0    0    0  501  0.00000000000E+00  0.00000000000E+00 -0.18819705584E+03  0.18819705591E+03  0.50400001928E-02 0. -1.
    10030    2    1    2    0    0  0.00000000000E+00  0.00000000000E+00  0.17193457476E+04  0.20957398594E+04  0.11983220595E+04 0.  0.
        1    1    3    3  502    0  0.96779977431E+02 -0.14026289173E+02 -0.17414594766E+03  0.19972459020E+03  0.50400001928E-02 0. -1.
       -1    1    3    3    0  502 -0.96779977431E+02  0.14026289173E+02  0.18934916953E+04  0.18960152692E+04  0.50400001928E-02 0.  1.
</event>
<event>
 5   0  0.9145224E-04  0.1211001E+04  0.7818609E-02  0.9103282E-01
       -2   -1    0    0    0  501  0.00000000000E+00  0.00000000000E+00  0.61814485509E+03  0.61814485509E+03  0.25500000920E-02 0.  1.
        2   -1    0    0  501    0  0.00000000000E+00  0.00000000000E+00 -0.59311446415E+03  0.59311446416E+03  0.25500000920E-02 0. -1.
    10030    2    1    2    0    0  0.00000000000E+00  0.00000000000E+00  0.25030390932E+02  0.12112593192E+04  0.12110006680E+04 0.  0.
        5    1    3    3  502    0  0.12124424381E+03  0.40049365773E+03 -0.42520051740E+03  0.59658436665E+03  0.46999998093E+01 0. -1.
       -5    1    3    3    0  502 -0.12124424381E+03 -0.40049365773E+03  0.45023090833E+03  0.61467495260E+03  0.46999998093E+01 0.  1.
</event>
<event>
 5   0  0.3453625E-04  0.1213756E+04  0.7818609E-02  0.9100900E-01
        3   -1    0    0  501    0  0.00000000000E+00  0.00000000000E+00  0.70367286251E+03  0.70367286976E+03  0.10100000352E+00 0.  1.
       -3   -1    0    0    0  501  0.00000000000E+00  0.00000000000E+00 -0.52339824047E+03  0.52339825022E+03  0.10100000352E+00 0. -1.
    10030    2    1    2    0    0  0.00000000000E+00  0.00000000000E+00  0.18027462203E+03  0.12270711200E+04  0.12137563982E+04 0.  0.
        1    1    3    3  502    0 -0.42930559951E+03 -0.87254962005E+02  0.51472589802E+03  0.67591380832E+03  0.50400001928E-02 0.  1.
       -1    1    3    3    0  502  0.42930559951E+03  0.87254962005E+02 -0.33445127598E+03  0.55115731166E+03  0.50400001928E-02 0. -1.
</event>
<event>
 5   0  0.9070772E-04  0.1198889E+04  0.7818609E-02  0.9113830E-01
        2   -1    0    0  501    0  0.00000000000E+00  0.00000000000E+00  0.98168645661E+03  0.98168645661E+03  0.25500000920E-02 0. -1.
       -2   -1    0    0    0  501  0.00000000000E+00  0.00000000000E+00 -0.36603698400E+03  0.36603698401E+03  0.25500000920E-02 0.  1.
    10030    2    1    2    0    0  0.00000000000E+00  0.00000000000E+00  0.61564947261E+03  0.13477234406E+04  0.11988887351E+04 0.  0.
        4    1    3    3  502    0 -0.11300911142E+03 -0.76292141699E+01 -0.35389668958E+03  0.37158275521E+03  0.12699999809E+01 0.  1.
       -4    1    3    3    0  502  0.11300911142E+03  0.76292141699E+01  0.96954616219E+03  0.97614068540E+03  0.12699999809E+01 0. -1.
</event>
<event>
 5   0  0.9070772E-04  0.1201737E+04  0.7818609E-02  0.9111338E-01
       -2   -1    0    0    0  501  0.00000000000E+00  0.00000000000E+00  0.32736479306E+03  0.32736479307E+03  0.25500000920E-02 0. -1.
        2   -1    0    0  501    0  0.00000000000E+00  0.00000000000E+00 -0.11028764147E+04  0.11028764147E+04  0.25500000920E-02 0.  1.
    10030    2    1    2    0    0  0.00000000000E+00  0.00000000000E+00 -0.77551162162E+03  0.14302412077E+04  0.12017369251E+04 0.  0.
        4    1    3    3  502    0 -0.17050130072E+03 -0.14005286030E+03 -0.10529135793E+04  0.10757853483E+04  0.12699999809E+01 0.  1.
       -4    1    3    3    0  502  0.17050130072E+03  0.14005286030E+03  0.27740195772E+03  0.35445585941E+03  0.12699999809E+01 0. -1.
</event>
<event>
 5   0  0.5052959E-04  0.1199102E+04  0.7818609E-02  0.9113643E-01
        1   -1    0    0  501    0  0.00000000000E+00  0.00000000000E+00  0.11594240498E+04  0.11594240498E+04  0.50400001928E-02 0.  1.
       -1   -1    0    0    0  501  0.00000000000E+00  0.00000000000E+00 -0.31003428247E+03  0.31003428251E+03  0.50400001928E-02 0. -1.
    10030    2    1    2    0    0  0.00000000000E+00  0.00000000000E+00  0.84938976728E+03  0.14694583323E+04  0.11991016694E+04 0.  0.
        2    1    3    3  502    0  0.53946824762E+03  0.24795659724E+03  0.52687802123E+03  0.79379399945E+03  0.25500000920E-02 0.  1.
       -2    1    3    3    0  502 -0.53946824762E+03 -0.24795659724E+03  0.32251174604E+03  0.67566433282E+03  0.25500000920E-02 0. -1.
</event>
<event>
 5   0  0.5003507E-04  0.1200732E+04  0.7818609E-02  0.9112216E-01
        1   -1    0    0  501    0  0.00000000000E+00  0.00000000000E+00  0.84734857982E+03  0.84734857984E+03  0.50400001928E-02 0. -1.
       -1   -1    0    0    0  501  0.00000000000E+00  0.00000000000E+00 -0.42537319018E+03  0.42537319021E+03  0.50400001928E-02 0.  1.
    10030    2    1    2    0    0  0.00000000000E+00  0.00000000000E+00  0.42197538964E+03  0.12727217700E+04  0.12007320577E+04 0.  0.
        3    1    3    3  502    0 -0.46439847934E+02  0.47936616929E+03  0.59093497570E+03  0.76233374545E+03  0.10100000352E+00 0. -1.
       -3    1    3    3    0  502  0.46439847934E+02 -0.47936616929E+03 -0.16895958607E+03  0.51038802460E+03  0.10100000352E+00 0.  1.
</event>
<event>
 5   0  0.5157631E-04  0.1197886E+04  0.7818609E-02  0.9114709E-01
        1   -1    0    0  501    0  0.00000000000E+00  0.00000000000E+00  0.72950599487E+03  0.72950599489E+03  0.50400001928E-02 0. -1.
       -1   -1    0    0    0  501  0.00000000000E+00  0.00000000000E+00 -0.49174714870E+03  0.49174714873E+03  0.50400001928E-02 0.  1.
    10030    2    1    2    0    0  0.00000000000E+00  0.00000000000E+00  0.23775884617E+03  0.12212531436E+04  0.11978856255E+04 0.  0.
        5    1    3    3  502    0  0.48414910800E+03 -0.32959854457E+03  0.24652093781E+03  0.63547637418E+03  0.46999998093E+01 0. -1.
       -5    1    3    3    0  502 -0.48414910800E+03  0.32959854457E+03 -0.87620916454E+01  0.58577676943E+03  0.46999998093E+01 0.  1.
</event>
<event>
 5   0  0.9070772E-04  0.1191527E+04  0.7818609E-02  0.9120305E-01
        2   -1    0    0  501    0  0.00000000000E+00  0.00000000000E+00  0.68238908255E+03  0.68238908255E+03  0.25500000920E-02 0.  1.
       -2   -1    0    0    0  501  0.00000000000E+00  0.00000000000E+00 -0.52013458550E+03  0.52013458551E+03  0.25500000920E-02 0. -1.
    10030    2    1    2    0    0  0.00000000000E+00  0.00000000000E+00  0.16225449705E+03  0.12025236681E+04  0.11915270246E+04 0.  0.
        4    1    3    3  502    0 -0.28353067941E+03  0.50320055246E+03 -0.66275851870E+02  0.58137298149E+03  0.12699999809E+01 0. -1.
       -4    1    3    3    0  502  0.28353067941E+03 -0.50320055246E+03  0.22853034892E+03  0.62115068658E+03  0.12699999809E+01 0.  1.
</event>
<event>
 5   0  0.9145224E-04  0.1199164E+04  0.7818609E-02  0.9113589E-01
       -2   -1    0    0    0  501  0.00000000000E+00  0.00000000000E+00  0.24639906077E+03  0.24639906078E+03  0.25500000920E-02 0. -1.
        2   -1    0    0  501    0  0.00000000000E+00  0.00000000000E+00 -0.14590083209E+04  0.14590083209E+04  0.25500000920E-02 0.  1.
    10030    2    1    2    0    0  0.00000000000E+00  0.00000000000E+00 -0.12126092601E+04  0.17054073817E+04  0.11991635083E+04 0.  0.
        5    1    3    3  502    0  0.30932241540E+03 -0.76665884548E+01 -0.13366618250E+04  0.13720153270E+04  0.46999998093E+01 0.  1.
       -5    1    3    3    0  502 -0.30932241540E+03  0.76665884548E+01  0.12405256487E+03  0.33339205464E+03  0.46999998093E+01 0. -1.
</event>
<event>
 5   0  0.9298693E-04  0.1204607E+04  0.7818609E-02  0.9108833E-01
       -2   -1    0    0    0  501  0.00000000000E+00  0.00000000000E+00  0.60198944853E+03  0.60198944853E+03  0.25500000920E-02 0. -1.
        2   -1    0    0  501    0  0.00000000000E+00  0.00000000000E+00 -0.60261789104E+03  0.60261789104E+03  0.25500000920E-02 0.  1.
    10030    2    1    2    0    0  0.00000000000E+00  0.00000000000E+00 -0.62844251074E+00  0.12046073396E+04  0.12046071756E+04 0.  0.
        1    1    3    3  502    0  0.50517162791E+03  0.14560879745E+03 -0.29420083178E+03  0.60245699015E+03  0.50400001928E-02 0.  1.
       -1    1    3    3    0  502 -0.50517162791E+03 -0.14560879745E+03  0.29357238927E+03  0.60215034942E+03  0.50400001928E-02 0. -1.
</event>
<event>
 5   0  0.9298693E-04  0.1200267E+04  0.7818609E-02  0.9112623E-01
        2   -1    0    0  501    0  0.00000000000E+00  0.00000000000E+00  0.17779831280E+04  0.17779831280E+04  0.25500000920E-02 0.  1.
       -2   -1    0    0    0  501  0.00000000000E+00  0.00000000000E+00 -0.20256675410E+03  0.20256675412E+03  0.25500000920E-02 0. -1.
    10030    2    1    2    0    0  0.00000000000E+00  0.00000000000E+00  0.15754163739E+04  0.19805498821E+04  0.12002670888E+04 0.  0.
        1    1    3    3  502    0  0.36053281967E+03 -0.36632565877E+03  0.27649448252E+03  0.58363310497E+03  0.50400001928E-02 0. -1.
       -1    1    3    3    0  502 -0.36053281967E+03  0.36632565877E+03  0.12989218914E+04  0.13969167771E+04  0.50400001928E-02 0.  1.
</event>
<event>
 5   0  0.5157631E-04  0.1199736E+04  0.7818609E-02  0.9113088E-01
       -1   -1    0    0    0  501  0.00000000000E+00  0.00000000000E+00  0.27059174993E+03  0.27059174997E+03  0.50400001928E-02 0.  1.
        1   -1    0    0  501    0  0.00000000000E+00  0.00000000000E+00 -0.13298313817E+04  0.13298313817E+04  0.50400001928E-02 0. -1.
    10030    2    1    2    0    0  0.00000000000E+00  0.00000000000E+00 -0.10592396317E+04  0.16004231317E+04  0.11997356387E+04 0.  0.
        5    1    3    3  502    0 -0.76952290080E+02  0.12675670875E+03 -0.13049712933E+04  0.13133777387E+04  0.46999998093E+01 0. -1.
       -5    1    3    3    0  502  0.76952290080E+02 -0.12675670875E+03  0.24573166153E+03  0.28704539299E+03  0.46999998093E+01 0.  1.
</event>
<event>
 5   0  0.3453625E-04  0.1181165E+04  0.7818609E-02  0.9129505E-01
       -3   -1    0    0    0  501  0.00000000000E+00  0.00000000000E+00  0.10829286478E+04  0.10829286525E+04  0.10100000352E+00 0. -1.
        3   -1    0    0  501    0  0.00000000000E+00  0.00000000000E+00 -0.32207800670E+03  0.32207802254E+03  0.10100000352E+00 0.  1.
    10030    2    1    2    0    0  0.00000000000E+00  0.00000000000E+00  0.76085064114E+03  0.14050066751E+04  0.11811647044E+04 0.  0.
        2    1    3    3  502    0 -0.20995097078E+03 -0.14089949007E+03  0.10152885650E+04  0.10462996448E+04  0.25500000920E-02 0. -1.
       -2    1    3    3    0  502  0.20995097078E+03  0.14089949007E+03 -0.25443792390E+03  0.35870703027E+03  0.25500000920E-02 0.  1.
</event>
<event>
 5   0  0.9070772E-04  0.1201060E+04  0.7818609E-02  0.9111929E-01
       -2   -1    0    0    0  501  0.00000000000E+00  0.00000000000E+00  0.49863484993E+03  0.49863484994E+03  0.25500000920E-02 0.  1.
        2   -1    0    0  501    0  0.00000000000E+00  0.00000000000E+00 -0.72324728721E+03  0.72324728722E+03  0.25500000920E-02 0. -1.
    10030    2    1    2    0    0  0.00000000000E+00  0.00000000000E+00 -0.22461243728E+03  0.12218821372E+04  0.12010600360E+04 0.  0.
        4    1    3    3  502    0  0.41901341349E+03 -0.25723253607E+03  0.23848146251E+03  0.54645753646E+03  0.12699999809E+01 0.  1.
       -4    1    3    3    0  502 -0.41901341349E+03  0.25723253607E+03 -0.46309389979E+03  0.67542460069E+03  0.12699999809E+01 0. -1.
</event>
<event>
 5   0  0.5447074E-04  0.1187626E+04  0.7818609E-02  0.9123757E-01
        1   -1    0    0  501    0  0.00000000000E+00  0.00000000000E+00  0.14469679100E+04  0.14469679100E+04  0.50400001928E-02 0. -1.
       -1   -1    0    0    0  501  0.00000000000E+00  0.00000000000E+00 -0.24369150249E+03  0.24369150254E+03  0.50400001928E-02 0.  1.
    10030    2    1    2    0    0  0.00000000000E+00  0.00000000000E+00  0.12032764075E+04  0.16906594126E+04  0.11876258402E+04 0.  0.
        4    1    3    3  502    0  0.33133733211E+03 -0.16611419643E+03  0.12620757307E+04  0.13153764164E+04  0.12699999809E+01 0. -1.
       -4    1    3    3    0  502 -0.33133733211E+03  0.16611419643E+03 -0.58799323172E+02  0.37528299617E+03  0.12699999809E+01 0.  1.
</event>
<event>
 5   0  0.9070772E-04  0.1193791E+04  0.7818609E-02  0.9118308E-01
       -2   -1    0    0    0  501  0.00000000000E+00  0.00000000000E+00  0.24401489865E+03  0.24401489866E+03  0.25500000920E-02 0. -1.
        2   -1    0    0  501    0  0.00000000000E+00  0.00000000000E+00 -0.14600927995E+04  0.14600927995E+04  0.25500000920E-02 0.  1.
    10030    2    1    2    0    0  0.00000000000E+00  0.00000000000E+00 -0.12160779009E+04  0.17041076982E+04  0.11937912657E+04 0.  0.
        4    1    3    3  502    0 -0.11284930268E+03  0.18559577302E+03  0.18559377596E+03  0.28570512535E+03  0.12699999809E+01 0. -1.
       -4    1    3    3    0  502  0.11284930268E+03 -0.18559577302E+03 -0.14016716769E+04  0.14184025729E+04  0.12699999809E+01 0.  1.
</event>
<event>
 5   0  0.5003507E-04  0.1200725E+04  0.7818609E-02  0.9112222E-01
        1   -1    0    0  501    0  0.00000000000E+00  0.00000000000E+00  0.43785819895E+03  0.43785819897E+03  0.50400001928E-02 0.  1.
       -1   -1    0    0    0  501  0.00000000000E+00  0.00000000000E+00 -0.82317768415E+03  0.82317768417E+03  0.50400001928E-02 0. -1.
    10030    2    1    2    0    0  0.00000000000E+00  0.00000000000E+00 -0.38531948521E+03  0.12610358831E+04  0.12007249447E+04 0.  0.
        3    1    3    3  502    0 -0.38750235932E+03 -0.63445466791E+02  0.28430102917E+03  0.48477880639E+03  0.10100000352E+00 0.  1.
       -3    1    3    3    0  502  0.38750235932E+03  0.63445466791E+02 -0.66962051438E+03  0.77625707676E+03  0.10100000352E+00 0. -1.
</event>
<event>
 5   0  0.5447074E-04  0.1200957E+04  0.7818609E-02  0.9112020E-01
       -1   -1    0    0    0  501  0.00000000000E+00  0.00000000000E+00  0.37594814853E+03  0.37594814856E+03  0.50400001928E-02 0. -1.
        1   -1    0    0  501    0  0.00000000000E+00  0.00000000000E+00 -0.95910625979E+03  0.95910625981E+03  0.50400001928E-02 0.  1.
    10030    2    1    2    0    0  0.00000000000E+00  0.00000000000E+00 -0.58315811127E+03  0.13350544084E+04  0.12009566564E+04 0.  0.
        4    1    3    3  502    0 -0.24044471218E+03  0.31982198578E+03 -0.78931546573E+03  0.88494083392E+03  0.12699999809E+01 0.  1.
       -4    1    3    3    0  502  0.24044471218E+03 -0.31982198578E+03  0.20615735446E+03  0.45011357445E+03  0.12699999809E+01 0. -1.
</event>
<event>
 5   0  0.5052959E-04  0.1199350E+04  0.7818609E-02  0.9113426E-01
        1   -1    0    0  501    0  0.00000000000E+00  0.00000000000E+00  0.10755212872E+04  0.10755212872E+04  0.50400001928E-02 0.  1.
       -1   -1    0    0    0  501  0.00000000000E+00  0.00000000000E+00 -0.33435869352E+03  0.33435869355E+03  0.50400001928E-02 0. -1.
    10030    2    1    2    0    0  0.00000000000E+00  0.00000000000E+00  0.74116259371E+03  0.14098799808E+04  0.11993496446E+04 0.  0.
        2    1    3    3  502    0 -0.38607349247E+03 -0.25784531939E+03 -0.75616627558E+02  0.47037732161E+03  0.25500000920E-02 0. -1.
       -2    1    3    3    0  502  0.38607349247E+03  0.25784531939E+03  0.81677922127E+03  0.93950265918E+03  0.25500000920E-02 0.  1.
</event>
<event>
 5   0  0.9298693E-04  0.1201991E+04  0.7818609E-02  0.9111116E-01
        2   -1    0    0  501    0  0.00000000000E+00  0.00000000000E+00  0.21659657693E+04  0.21659657693E+04  0.25500000920E-02 0.  1.
       -2   -1    0    0    0  501  0.00000000000E+00  0.00000000000E+00 -0.16675951153E+03  0.16675951155E+03  0.25500000920E-02 0. -1.
    10030    2    1    2    0    0  0.00000000000E+00  0.00000000000E+00  0.19992062578E+04  0.23327252809E+04  0.12019906717E+04 0.  0.
        1    1    3    3  502    0  0.40052328849E+03  0.40546808564E+03  0.13697267564E+04  0.14835682190E+04  0.50400001928E-02 0.  1.
       -1    1    3    3    0  502 -0.40052328849E+03 -0.40546808564E+03  0.62947950141E+03  0.84915706192E+03  0.50400001928E-02 0. -1.
</event>
<event>
 5   0  0.5001586E-04  0.1199585E+04  0.7818609E-02  0.9113220E-01
       -1   -1    0    0    0  501  0.00000000000E+00  0.00000000000E+00  0.11553240800E+04  0.11553240800E+04  0.50400001928E-02 0. -1.
        1   -1    0    0  501    0  0.00000000000E+00  0.00000000000E+00 -0.31138542543E+03  0.31138542547E+03  0.50400001928E-02 0.  1.
    10030    2    1    2    0    0  0.00000000000E+00  0.00000000000E+00  0.84393865460E+03  0.14667095055E+04  0.11995850619E+04 0.  0.
        1    1    3    3  502    0  0.47606486305E+03 -0.26262051753E+03  0.73163307573E+03  0.91153400791E+03  0.50400001928E-02 0. -1.
       -1    1    3    3    0  502 -0.47606486305E+03  0.26262051753E+03  0.11230557887E+03  0.55517549759E+03  0.50400001928E-02 0.  1.
</event>
<event>
 5   0  0.9050363E-04  0.1201741E+04  0.7818609E-02  0.9111334E-01
       -2   -1    0    0    0  501  0.00000000000E+00  0.00000000000E+00  0.79763342098E+03  0.79763342099E+03  0.25500000920E-02 0. -1.
        2   -1    0    0  501    0  0.00000000000E+00  0.00000000000E+00 -0.45264554443E+03  0.45264554444E+03  0.25500000920E-02 0.  1.
    10030    2    1    2    0    0  0.00000000000E+00  0.00000000000E+00  0.34498787656E+03  0.12502789654E+04  0.12017407609E+04 0.  0.
        3    1    3    3  502    0  0.13758468624E+03 -0.50327426398E+03 -0.13758881358E+03  0.53957874541E+03  0.10100000352E+00 0. -1.
       -3    1    3    3    0  502 -0.13758468624E+03  0.50327426398E+03  0.48257669013E+03  0.71070022002E+03  0.10100000352E+00 0.  1.
</event>
<event>
 5   0  0.9410666E-04  0.1200696E+04  0.7818609E-02  0.9112248E-01
        2   -1    0    0  501    0  0.00000000000E+00  0.00000000000E+00  0.15264056800E+04  0.15264056800E+04  0.25500000920E-02 0. -1.
       -2   -1    0    0    0  501  0.00000000000E+00  0.00000000000E+00 -0.23612176365E+03  0.23612176367E+03  0.25500000920E-02 0.  1.
    10030    2    1    2    0    0  0.00000000000E+00  0.00000000000E+00  0.12902839164E+04  0.17625274437E+04  0.12006958003E+04 0.  0.
        2    1    3    3  502    0 -0.15297832330E+03 -0.57972719562E+03  0.60033757033E+03  0.84846401638E+03  0.25500000920E-02 0. -1.
       -2    1    3    3    0  502  0.15297832330E+03  0.57972719562E+03  0.68994634607E+03  0.91406342734E+03  0.25500000920E-02 0.  1.
</event>
<event>
 5   0  0.9070772E-04  0.1188986E+04  0.7818609E-02  0.9122552E-01
       -2   -1    0    0    0  501  0.00000000000E+00  0.00000000000E+00  0.26200437440E+03  0.26200437441E+03  0.25500000920E-02 0.  1.
        2   -1    0    0  501    0  0.00000000000E+00  0.00000000000E+00 -0.13489168620E+04  0.13489168620E+04  0.25500000920E-02 0. -1.
    10030    2    1    2    0    0  0.00000000000E+00  0.00000000000E+00 -0.10869124876E+04  0.16109212364E+04  0.11889863221E+04 0.  0.
        4    1    3    3  502    0  0.29255099570E+03 -0.30375838884E+03 -0.11111534309E+04  0.11884943432E+04  0.12699999809E+01 0. -1.
       -4    1    3    3    0  502 -0.29255099570E+03  0.30375838884E+03  0.24240943311E+02  0.42242689321E+03  0.12699999809E+01 0.  1.
</event>
<event>
 5   0  0.5447074E-04  0.1200099E+04  0.7818609E-02  0.9112770E-01
       -1   -1    0    0    0  501  0.00000000000E+00  0.00000000000E+00  0.42492587713E+03  0.42492587716E+03  0.50400001928E-02 0.  1.
        1   -1    0    0  501    0  0.00000000000E+00  0.00000000000E+00 -0.84734664030E+03  0.84734664032E+03  0.50400001928E-02 0. -1.
    10030    2    1    2    0    0  0.00000000000E+00  0.00000000000E+00 -0.42242076317E+03  0.12722725175E+04  0.12000991866E+04 0.  0.
        4    1    3    3  502    0  0.23946865664E+03 -0.34521361273E+03 -0.66539103964E+03  0.78693362138E+03  0.12699999809E+01 0. -1.
       -4    1    3    3    0  502 -0.23946865664E+03  0.34521361273E+03  0.24297027646E+03  0.48533889610E+03  0.12699999809E+01 0.  1.
</event>
<event>
 5   0  0.5001586E-04  0.1200316E+04  0.7818609E-02  0.9112580E-01
       -1   -1    0    0    0  501  0.00000000000E+00  0.00000000000E+00  0.19337598284E+03  0.19337598291E+03  0.50400001928E-02 0. -1.
        1   -1    0    0  501    0  0.00000000000E+00  0.00000000000E+00 -0.18626374145E+04  0.18626374145E+04  0.50400001928E-02 0.  1.
    10030    2    1    2    0    0  0.00000000000E+00  0.00000000000E+00 -0.16692614317E+04  0.20560133974E+04  0.12003155265E+04 0.  0.
        1    1    3    3  502    0 -0.15829250511E+03  0.56456189572E+03 -0.10540061777E+04  0.12061159455E+04  0.50400001928E-02 0.  1.
       -1    1    3    3    0  502  0.15829250511E+03 -0.56456189572E+03 -0.61525525394E+03  0.84989745193E+03  0.50400001928E-02 0. -1.
</event>
<event>
 5   0  0.9070772E-04  0.1185106E+04  0.7818609E-02  0.9125994E-01
       -2   -1    0    0    0  501  0.00000000000E+00  0.00000000000E+00  0.94731495859E+03  0.94731495859E+03  0.25500000920E-02 0. -1.
        2   -1    0    0  501    0  0.00000000000E+00  0.00000000000E+00 -0.37064664901E+03  0.37064664902E+03  0.25500000920E-02 0.  1.
    10030    2    1    2    0    0  0.00000000000E+00  0.00000000000E+00  0.57666830958E+03  0.13179616076E+04  0.11851060965E+04 0.  0.
        4    1    3    3  502    0 -0.32724762930E+03  0.34417277474E+02 -0.25969968497E+03  0.41919100557E+03  0.12699999809E+01 0.  1.
       -4    1    3    3    0  502  0.32724762930E+03 -0.34417277474E+02  0.83636799456E+03  0.89877060204E+03  0.12699999809E+01 0. -1.
</event>
<event>
 5   0  0.9145224E-04  0.1192964E+04  0.7818609E-02  0.9119038E-01
       -2   -1    0    0    0  501  0.00000000000E+00  0.00000000000E+00  0.25200099088E+03  0.25200099089E+03  0.25500000920E-02 0. -1.
        2   -1    0    0  501    0  0.00000000000E+00  0.00000000000E+00 -0.14118622529E+04  0.14118622529E+04  0.25500000920E-02 0.  1.
    10030    2    1    2    0    0  0.00000000000E+00  0.00000000000E+00 -0.11598612620E+04  0.16638632438E+04  0.11929638498E+04 0.  0.
        5    1    3    3  502    0  0.28595361117E+03  0.23378011674E+03  0.73282926586E+02  0.37658344102E+03  0.46999998093E+01 0. -1.
       -5    1    3    3    0  502 -0.28595361117E+03 -0.23378011674E+03 -0.12331441886E+04  0.12872798027E+04  0.46999998093E+01 0.  1.
</event>
<event>
 5   0  0.5052959E-04  0.1203578E+04  0.7818609E-02  0.9109730E-01
        1   -1    0    0  501    0  0.00000000000E+00  0.00000000000E+00  0.18254967208E+04  0.18254967208E+04  0.50400001928E-02 0.  1.
       -1   -1    0    0    0  501  0.00000000000E+00  0.00000000000E+00 -0.19838436783E+03  0.19838436789E+03  0.50400001928E-02 0. -1.
    10030    2    1    2    0    0  0.00000000000E+00  0.00000000000E+00  0.16271123530E+04  0.20238810887E+04  0.12035780207E+04 0.  0.
        2    1    3    3  502    0 -0.99558373465E+02  0.35663208018E+01 -0.18442211589E+03  0.20960941107E+03  0.25500000920E-02 0. -1.
       -2    1    3    3    0  502  0.99558373465E+02 -0.35663208018E+01  0.18115344689E+04  0.18142716776E+04  0.25500000920E-02 0.  1.
</event>
<event>
 5   0  0.3453625E-04  0.1206141E+04  0.7818609E-02  0.9107498E-01
        3   -1    0    0  501    0  0.00000000000E+00  0.00000000000E+00  0.87998727808E+03  0.87998728387E+03  0.10100000352E+00 0.  1.
       -3   -1    0    0    0  501  0.00000000000E+00  0.00000000000E+00 -0.41329491898E+03  0.41329493132E+03  0.10100000352E+00 0. -1.
    10030    2    1    2    0    0  0.00000000000E+00  0.00000000000E+00  0.46669235909E+03  0.12932822152E+04  0.12061414221E+04 0.  0.
        5    1    3    3  502    0  0.57300070583E+03 -0.16872936885E+03  0.14445443864E+03  0.61456373440E+03  0.46999998093E+01 0.  1.
       -5    1    3    3    0  502 -0.57300070583E+03  0.16872936885E+03  0.32223792045E+03  0.67871848080E+03  0.46999998093E+01 0. -1.
</event>
<event>
 5   0  0.5003507E-04  0.1203244E+04  0.7818609E-02  0.9110022E-01
       -1   -1    0    0    0  501  0.00000000000E+00  0.00000000000E+00  0.44563328235E+03  0.44563328238E+03  0.50400001928E-02 0. -1.
        1   -1    0    0  501    0  0.00000000000E+00  0.00000000000E+00 -0.81221318716E+03  0.81221318718E+03  0.50400001928E-02 0.  1.
    10030    2    1    2    0    0  0.00000000000E+00  0.00000000000E+00 -0.36657990481E+03  0.12578464696E+04  0.12032443286E+04 0.  0.
        3    1    3    3  502    0 -0.52678918564E+03  0.22398322130E+03  0.10243259316E+02  0.57252097262E+03  0.10100000352E+00 0. -1.
       -3    1    3    3    0  502  0.52678918564E+03 -0.22398322130E+03 -0.37682316412E+03  0.68532549694E+03  0.10100000352E+00 0.  1.
</event>
<event>
 5   0  0.9410666E-04  0.1243241E+04  0.7818609E-02  0.9075827E-01
       -2   -1    0    0    0  501  0.00000000000E+00  0.00000000000E+00  0.42760780129E+03  0.42760780130E+03  0.25500000920E-02 0. -1.
        2   -1    0    0  501    0  0.00000000000E+00  0.00000000000E+00 -0.90366026925E+03  0.90366026926E+03  0.25500000920E-02 0.  1.
    10030    2    1    2    0    0  0.00000000000E+00  0.00000000000E+00 -0.47605246796E+03  0.13312680706E+04  0.12432412169E+04 0.  0.
        2    1    3    3  502    0  0.41004424262E+03  0.15705481789E+03 -0.70919192015E+03  0.83411970145E+03  0.25500000920E-02 0.  1.
       -2    1    3    3    0  502 -0.41004424262E+03 -0.15705481789E+03  0.23313945219E+03  0.49714836910E+03  0.25500000920E-02 0. -1.
</event>
<event>
 5   0  0.9070772E-04  0.1190754E+04  0.7818609E-02  0.9120988E-01
        2   -1    0    0  501    0  0.00000000000E+00  0.00000000000E+00  0.50570523241E+03  0.50570523242E+03  0.25500000920E-02 0.  1.
       -2   -1    0    0    0  501  0.00000000000E+00  0.00000000000E+00 -0.70094985234E+03  0.70094985234E+03  0.25500000920E-02 0. -1.
    10030    2    1    2    0    0  0.00000000000E+00  0.00000000000E+00 -0.19524461993E+03  0.12066550848E+04  0.11907543962E+04 0.  0.
        4    1    3    3  502    0  0.45487378839E+03  0.38561141739E+01  0.29162594880E+03  0.54034464918E+03  0.12699999809E+01 0.  1.
       -4    1    3    3    0  502 -0.45487378839E+03 -0.38561141739E+01 -0.48687056872E+03  0.66631043558E+03  0.12699999809E+01 0. -1.
</event>
<event>
 5   0  0.5001586E-04  0.1205057E+04  0.7818609E-02  0.9108442E-01
       -1   -1    0    0    0  501  0.00000000000E+00  0.00000000000E+00  0.33262651140E+03  0.33262651144E+03  0.50400001928E-02 0. -1.
        1   -1    0    0  501    0  0.00000000000E+00  0.00000000000E+00 -0.10914357185E+04  0.10914357185E+04  0.50400001928E-02 0.  1.
    10030    2    1    2    0    0  0.00000000000E+00  0.00000000000E+00 -0.75880920707E+03  0.14240622299E+04  0.12050567713E+04 0.  0.
        1    1    3    3  502    0  0.60216809279E+03  0.16095386134E+02 -0.36377247229E+03  0.70370155964E+03  0.50400001928E-02 0. -1.
       -1    1    3    3    0  502 -0.60216809279E+03 -0.16095386134E+02 -0.39503673478E+03  0.72036067027E+03  0.50400001928E-02 0.  1.
</event>
<event>
 5   0  0.5001586E-04  0.1206461E+04  0.7818609E-02  0.9107220E-01
       -1   -1    0    0    0  501  0.00000000000E+00  0.00000000000E+00  0.66050582339E+03  0.66050582341E+03  0.50400001928E-02 0. -1.
        1   -1    0    0  501    0  0.00000000000E+00  0.00000000000E+00 -0.55092204601E+03  0.55092204603E+03  0.50400001928E-02 0.  1.
    10030    2    1    2    0    0  0.00000000000E+00  0.00000000000E+00  0.10958377738E+03  0.12114278694E+04  0.12064613042E+04 0.  0.
        1    1    3    3  502    0  0.29019000440E+03 -0.36445709493E+03 -0.32999316283E+03  0.57090691031E+03  0.50400001928E-02 0.  1.
       -1    1    3    3    0  502 -0.29019000440E+03  0.36445709493E+03  0.43957694021E+03  0.64052095913E+03  0.50400001928E-02 0. -1.
</event>
<event>
 5   0  0.9050363E-04  0.1201557E+04  0.7818609E-02  0.9111495E-01
       -2   -1    0    0    0  501  0.00000000000E+00  0.00000000000E+00  0.41002352975E+03  0.41002352976E+03  0.25500000920E-02 0. -1.
        2   -1    0    0  501    0  0.00000000000E+00  0.00000000000E+00 -0.88027784875E+03  0.88027784875E+03  0.25500000920E-02 0.  1.
    10030    2    1    2    0    0  0.00000000000E+00  0.00000000000E+00 -0.47025431899E+03  0.12903013785E+04  0.12015567081E+04 0.  0.
        3    1    3    3  502    0 -0.14600565335E+03  0.19429297273E+03  0.35487670954E+03  0.43012195856E+03  0.10100000352E+00 0. -1.
       -3    1    3    3    0  502  0.14600565335E+03 -0.19429297273E+03 -0.82513102853E+03  0.86017941995E+03  0.10100000352E+00 0.  1.
</event>
<event>
 5   0  0.5447074E-04  0.1202647E+04  0.7818609E-02  0.9110543E-01
       -1   -1    0    0    0  501  0.00000000000E+00  0.00000000000E+00  0.35714254717E+03  0.35714254720E+03  0.50400001928E-02 0.  1.
        1   -1    0    0  501    0  0.00000000000E+00  0.00000000000E+00 -0.10124531723E+04  0.10124531723E+04  0.50400001928E-02 0. -1.
    10030    2    1    2    0    0  0.00000000000E+00  0.00000000000E+00 -0.65531062516E+03  0.13695957195E+04  0.12026472548E+04 0.  0.
        4    1    3    3  502    0 -0.33921912073E+03  0.48691495122E+03 -0.43825970544E+03  0.73771875664E+03  0.12699999809E+01 0. -1.
       -4    1    3    3    0  502  0.33921912073E+03 -0.48691495122E+03 -0.21705091973E+03  0.63187696290E+03  0.12699999809E+01 0.  1.
</event>
<event>
 5   0  0.5001586E-04  0.1201462E+04  0.7818609E-02  0.9111578E-01
        1   -1    0    0  501    0  0.00000000000E+00  0.00000000000E+00  0.67181065941E+03  0.67181065943E+03  0.50400001928E-02 0.  1.
       -1   -1    0    0    0  501  0.00000000000E+00  0.00000000000E+00 -0.53717136434E+03  0.53717136437E+03  0.50400001928E-02 0. -1.
    10030    2    1    2    0    0  0.00000000000E+00  0.00000000000E+00  0.13463929507E+03  0.12089820238E+04  0.12014615242E+04 0.  0.
        1    1    3    3  502    0  0.19803407009E+03  0.53845075225E+03  0.24656590499E+03  0.62445292140E+03  0.50400001928E-02 0. -1.
       -1    1    3    3    0  502 -0.19803407009E+03 -0.53845075225E+03 -0.11192660992E+03  0.58452910240E+03  0.50400001928E-02 0.  1.
</event>
<event>
 5   0  0.5001586E-04  0.1199551E+04  0.7818609E-02  0.9113250E-01
        1   -1    0    0  501    0  0.00000000000E+00  0.00000000000E+00  0.93130936567E+03  0.93130936568E+03  0.50400001928E-02 0.  1.
       -1   -1    0    0    0  501  0.00000000000E+00  0.00000000000E+00 -0.38626313594E+03  0.38626313597E+03  0.50400001928E-02 0. -1.
    10030    2    1    2    0    0  0.00000000000E+00  0.00000000000E+00  0.54504622973E+03  0.13175725017E+04  0.11995507095E+04 0.  0.
        1    1    3    3  502    0 -0.51015133953E+03  0.24371076051E+03  0.49242350946E+03  0.74975345061E+03  0.50400001928E-02 0.  1.
       -1    1    3    3    0  502  0.51015133953E+03 -0.24371076051E+03  0.52622720263E+02  0.56781905104E+03  0.50400001928E-02 0. -1.
</event>
<event>
 5   0  0.5003507E-04  0.1200774E+04  0.7818609E-02  0.9112180E-01
       -1   -1    0    0    0  501  0.00000000000E+00  0.00000000000E+00  0.49685357786E+03  0.49685357789E+03  0.50400001928E-02 0.  1.
        1   -1    0    0  501    0  0.00000000000E+00  0.00000000000E+00 -0.72549416162E+03  0.72549416164E+03  0.50400001928E-02 0. -1.
    10030    2    1    2    0    0  0.00000000000E+00  0.00000000000E+00 -0.22864058376E+03  0.12223477395E+04  0.12007737005E+04 0.  0.
        3    1    3    3  502    0 -0.30022335830E+03  0.28697812009E+02  0.41414736643E+03  0.51232380444E+03  0.10100000352E+00 0.  1.
       -3    1    3    3    0  502  0.30022335830E+03 -0.28697812009E+02 -0.64278795019E+03  0.71002393508E+03  0.10100000352E+00 0. -1.
</event>
<event>
 5   0  0.3453625E-04  0.1186855E+04  0.7818609E-02  0.9124441E-01
       -4   -1    0    0    0  501  0.00000000000E+00  0.00000000000E+00  0.69879420626E+03  0.69879536032E+03  0.12699999809E+01 0. -1.
        4   -1    0    0  501    0  0.00000000000E+00  0.00000000000E+00 -0.50394565240E+03  0.50394725267E+03  0.12699999809E+01 0.  1.
    10030    2    1    2    0    0  0.00000000000E+00  0.00000000000E+00  0.19484855386E+03  0.12027426130E+04  0.11868545969E+04 0.  0.
        4    1    3    3  502    0  0.11702268306E+03  0.26166351203E+03  0.62398786713E+03  0.68667646901E+03  0.12699999809E+01 0. -1.
       -4    1    3    3    0  502 -0.11702268306E+03 -0.26166351203E+03 -0.42913931326E+03  0.51606614398E+03  0.12699999809E+01 0.  1.
</event>
<event>
 5   0  0.5447074E-04  0.1203092E+04  0.7818609E-02  0.9110154E-01
        1   -1    0    0  501    0  0.00000000000E+00  0.00000000000E+00  0.81416752711E+03  0.81416752713E+03  0.50400001928E-02 0.  1.
       -1   -1    0    0    0  501  0.00000000000E+00  0.00000000000E+00 -0.44445123265E+03  0.44445123268E+03  0.50400001928E-02 0. -1.
    10030    2    1    2    0    0  0.00000000000E+00  0.00000000000E+00  0.36971629446E+03  0.12586187598E+04  0.12030922841E+04 0.  0.
        4    1    3    3  502    0 -0.98093599121E+02 -0.38017391911E+03  0.66163500238E+03  0.76936145747E+03  0.12699999809E+01 0.  1.
       -4    1    3    3    0  502  0.98093599121E+02  0.38017391911E+03 -0.29191870792E+03  0.48925730234E+03  0.12699999809E+01 0. -1.
</event>
<event>
 5   0  0.5001586E-04  0.1276693E+04  0.7818609E-02  0.9048255E-01
        1   -1    0    0  501    0  0.00000000000E+00  0.00000000000E+00  0.83160514781E+03  0.83160514782E+03  0.50400001928E-02 0. -1.
       -1   -1    0    0    0  501  0.00000000000E+00  0.00000000000E+00 -0.48999987032E+03  0.48999987034E+03  0.50400001928E-02 0.  1.
    10030    2    1    2    0    0  0.00000000000E+00  0.00000000000E+00  0.34160527749E+03  0.13216050182E+04  0.12766932515E+04 0.  0.
        1    1    3    3  502    0  0.38025709037E+03 -0.80544036181E+02  0.69497870926E+03  0.79629027552E+03  0.50400001928E-02 0. -1.
       -1    1    3    3    0  502 -0.38025709037E+03  0.80544036181E+02 -0.35337343177E+03  0.52531474265E+03  0.50400001928E-02 0.  1.
</event>
<event>
 5   0  0.5001586E-04  0.1205000E+04  0.7818609E-02  0.9108491E-01
       -1   -1    0    0    0  501  0.00000000000E+00  0.00000000000E+00  0.72939808295E+03  0.72939808296E+03  0.50400001928E-02 0. -1.
        1   -1    0    0  501    0  0.00000000000E+00  0.00000000000E+00 -0.49767951980E+03  0.49767951982E+03  0.50400001928E-02 0.  1.
    10030    2    1    2    0    0  0.00000000000E+00  0.00000000000E+00  0.23171856315E+03  0.12270776028E+04  0.12050003945E+04 0.  0.
        1    1    3    3  502    0 -0.16482896245E+03  0.32144896740E+03 -0.37516641677E+03  0.52081461750E+03  0.50400001928E-02 0.  1.
       -1    1    3    3    0  502  0.16482896245E+03 -0.32144896740E+03  0.60688497992E+03  0.70626298529E+03  0.50400001928E-02 0. -1.
</event>
<event>
 5   0  0.9145224E-04  0.1204058E+04  0.7818609E-02  0.9109312E-01
       -2   -1    0    0    0  501  0.00000000000E+00  0.00000000000E+00  0.34832250893E+03  0.34832250894E+03  0.25500000920E-02 0.  1.
        2   -1    0    0  501    0  0.00000000000E+00  0.00000000000E+00 -0.10405267983E+04  0.10405267983E+04  0.25500000920E-02 0. -1.
    10030    2    1    2    0    0  0.00000000000E+00  0.00000000000E+00 -0.69220428941E+03  0.13888493073E+04  0.12040579803E+04 0.  0.
        5    1    3    3  502    0  0.15845572296E+03 -0.56914873184E+03 -0.47951832864E+03  0.76091945211E+03  0.46999998093E+01 0.  1.
       -5    1    3    3    0  502 -0.15845572296E+03  0.56914873184E+03 -0.21268596077E+03  0.62792985516E+03  0.46999998093E+01 0. -1.
</event>
<event>
 5   0  0.9070772E-04  0.1202997E+04  0.7818609E-02  0.9110238E-01
        2   -1    0    0  501    0  0.00000000000E+00  0.00000000000E+00  0.58723853072E+03  0.58723853073E+03  0.25500000920E-02 0.  1.
       -2   -1    0    0    0  501  0.00000000000E+00  0.00000000000E+00 -0.61610451277E+03  0.61610451278E+03  0.25500000920E-02 0. -1.
    10030    2    1    2    0    0  0.00000000000E+00  0.00000000000E+00 -0.28865982051E+02  0.12033430435E+04  0.12029967728E+04 0.  0.
        4    1    3    3  502    0  0.11596584293E+03  0.51446644360E+03  0.27491640771E+03  0.59473056290E+03  0.12699999809E+01 0.  1.
       -4    1    3    3    0  502 -0.11596584293E+03 -0.51446644360E+03 -0.30378238976E+03  0.60861248060E+03  0.12699999809E+01 0. -1.
</event>
<event>
 5   0  0.5157631E-04  0.1201085E+04  0.7818609E-02  0.9111908E-01
        1   -1    0    0  501    0  0.00000000000E+00  0.00000000000E+00  0.95471013090E+03  0.95471013092E+03  0.50400001928E-02 0. -1.
       -1   -1    0    0    0  501  0.00000000000E+00  0.00000000000E+00 -0.37775969531E+03  0.37775969534E+03  0.50400001928E-02 0.  1.
    10030    2    1    2    0    0  0.00000000000E+00  0.00000000000E+00  0.57695043560E+03  0.13324698263E+04  0.12010845236E+04 0.  0.
        5    1    3    3  502    0 -0.32503583344E+03 -0.18654318502E+03 -0.23208980008E+03  0.44083377615E+03  0.46999998093E+01 0.  1.
       -5    1    3    3    0  502  0.32503583344E+03  0.18654318502E+03  0.80904023568E+03  0.89163605010E+03  0.46999998093E+01 0. -1.
</event>
<event>
 5   0  0.9070772E-04  0.1197240E+04  0.7818609E-02  0.9115276E-01
       -2   -1    0    0    0  501  0.00000000000E+00  0.00000000000E+00  0.13059450333E+04  0.13059450333E+04  0.25500000920E-02 0.  1.
        2   -1    0    0  501    0  0.00000000000E+00  0.00000000000E+00 -0.27439584219E+03  0.27439584220E+03  0.25500000920E-02 0. -1.
    10030    2    1    2    0    0  0.00000000000E+00  0.00000000000E+00  0.10315491911E+04  0.15803408755E+04  0.11972399714E+04 0.  0.
        4    1    3    3  502    0  0.59262241013E+03 -0.45385097234E+02  0.42166457417E+03  0.72874121198E+03  0.12699999809E+01 0. -1.
       -4    1    3    3    0  502 -0.59262241013E+03  0.45385097234E+02  0.60988461695E+03  0.85159966353E+03  0.12699999809E+01 0.  1.
</event>
<event>
 5   0  0.5003507E-04  0.1199184E+04  0.7818609E-02  0.9113571E-01
       -1   -1    0    0    0  501  0.00000000000E+00  0.00000000000E+00  0.24911876337E+03  0.24911876342E+03  0.50400001928E-02 0.  1.
        1   -1    0    0  501    0  0.00000000000E+00  0.00000000000E+00 -0.14431280668E+04  0.14431280668E+04  0.50400001928E-02 0. -1.
    10030    2    1    2    0    0  0.00000000000E+00  0.00000000000E+00 -0.11940093035E+04  0.16922468303E+04  0.11991835213E+04 0.  0.
        3    1    3    3  502    0  0.48100358847E+03  0.34210828052E+03 -0.44827726746E+03  0.74118489356E+03  0.10100000352E+00 0.  1.
       -3    1    3    3    0  502 -0.48100358847E+03 -0.34210828052E+03 -0.74573203600E+03  0.95106193669E+03  0.10100000352E+00 0. -1.
</event>
<event>
 5   0  0.9410666E-04  0.1200971E+04  0.7818609E-02  0.9112007E-01
        2   -1    0    0  501    0  0.00000000000E+00  0.00000000000E+00  0.26742786889E+03  0.26742786890E+03  0.25500000920E-02 0. -1.
       -2   -1    0    0    0  501  0.00000000000E+00  0.00000000000E+00 -0.13483377549E+04  0.13483377549E+04  0.25500000920E-02 0.  1.
    10030    2    1    2    0    0  0.00000000000E+00  0.00000000000E+00 -0.10809098860E+04  0.16157656238E+04  0.12009714274E+04 0.  0.
        2    1    3    3  502    0 -0.65153750189E+02 -0.24666691404E+03  0.19088562681E+03  0.31863286110E+03  0.25500000920E-02 0. -1.
       -2    1    3    3    0  502  0.65153750189E+02  0.24666691404E+03 -0.12717955128E+04  0.12971327627E+04  0.25500000920E-02 0.  1.
</event>
<event>
 5   0  0.9298693E-04  0.1205881E+04  0.7818609E-02  0.9107725E-01
       -2   -1    0    0    0  501  0.00000000000E+00  0.00000000000E+00  0.29882932276E+03  0.29882932277E+03  0.25500000920E-02 0. -1.
        2   -1    0    0  501    0  0.00000000000E+00  0.00000000000E+00 -0.12165372885E+04  0.12165372885E+04  0.25500000920E-02 0.  1.
    10030    2    1    2    0    0  0.00000000000E+00  0.00000000000E+00 -0.91770796576E+03  0.15153666113E+04  0.12058806144E+04 0.  0.
        1    1    3    3  502    0  0.49851378869E+03 -0.64787392175E+02 -0.87719413265E+03  0.10110306376E+04  0.50400001928E-02 0.  1.
       -1    1    3    3    0  502 -0.49851378869E+03  0.64787392175E+02 -0.40513833106E+02  0.50433597373E+03  0.50400001928E-02 0. -1.
</event>
<event>
 5   0  0.5447074E-04  0.1208758E+04  0.7818609E-02  0.9105225E-01
        1   -1    0    0  501    0  0.00000000000E+00  0.00000000000E+00  0.22981208642E+03  0.22981208648E+03  0.50400001928E-02 0. -1.
       -1   -1    0    0    0  501  0.00000000000E+00  0.00000000000E+00 -0.15894452463E+04  0.15894452463E+04  0.50400001928E-02 0.  1.
    10030    2    1    2    0    0  0.00000000000E+00  0.00000000000E+00 -0.13596331599E+04  0.18192573328E+04  0.12087575909E+04 0.  0.
        4    1    3    3  502    0 -0.21867345079E+03 -0.54798332094E+03 -0.48261118759E+03  0.76224600320E+03  0.12699999809E+01 0.  1.
       -4    1    3    3    0  502  0.21867345079E+03  0.54798332094E+03 -0.87702197231E+03  0.10570113296E+04  0.12699999809E+01 0. -1.
</event>
<event>
 5   0  0.9298693E-04  0.1205943E+04  0.7818609E-02  0.9107670E-01
       -2   -1    0    0    0  501  0.00000000000E+00  0.00000000000E+00  0.64830338802E+03  0.64830338802E+03  0.25500000920E-02 0.  1.
        2   -1    0    0  501    0  0.00000000000E+00  0.00000000000E+00 -0.56080964981E+03  0.56080964982E+03  0.25500000920E-02 0. -1.
    10030    2    1    2    0    0  0.00000000000E+00  0.00000000000E+00  0.87493738205E+02  0.12091130378E+04  0.12059432756E+04 0.  0.
        1    1    3    3  502    0  0.20358242183E+03  0.42900931968E+03  0.41631474743E+03  0.63151624509E+03  0.50400001928E-02 0.  1.
       -1    1    3    3    0  502 -0.20358242183E+03 -0.42900931968E+03 -0.32882100923E+03  0.57759679275E+03  0.50400001928E-02 0. -1.
</event>
<event>
 5   0  0.5052959E-04  0.1200654E+04  0.7818609E-02  0.9112285E-01
        1   -1    0    0  501    0  0.00000000000E+00  0.00000000000E+00  0.74065022995E+03  0.74065022996E+03  0.50400001928E-02 0. -1.
       -1   -1    0    0    0  501  0.00000000000E+00  0.00000000000E+00 -0.48658911259E+03  0.48658911261E+03  0.50400001928E-02 0.  1.
    10030    2    1    2    0    0  0.00000000000E+00  0.00000000000E+00  0.25406111736E+03  0.12272393426E+04  0.12006537189E+04 0.  0.
        2    1    3    3  502    0 -0.18289811581E+03  0.18439146467E+03 -0.42619360114E+03  0.49909209438E+03  0.25500000920E-02 0.  1.
       -2    1    3    3    0  502  0.18289811581E+03 -0.18439146467E+03  0.68025471850E+03  0.72814724820E+03  0.25500000920E-02 0. -1.
</event>
<event>
 5   0  0.9070772E-04  0.1198613E+04  0.7818609E-02  0.9114071E-01
       -2   -1    0    0    0  501  0.00000000000E+00  0.00000000000E+00  0.35548027532E+03  0.35548027533E+03  0.25500000920E-02 0.  1.
        2   -1    0    0  501    0  0.00000000000E+00  0.00000000000E+00 -0.10103753168E+04  0.10103753168E+04  0.25500000920E-02 0. -1.
    10030    2    1    2    0    0  0.00000000000E+00  0.00000000000E+00 -0.65489504153E+03  0.13658555922E+04  0.11986133585E+04 0.  0.
        4    1    3    3  502    0  0.41581669172E+03  0.13347067014E+03  0.14024434365E+03  0.45868074924E+03  0.12699999809E+01 0. -1.
       -4    1    3    3    0  502 -0.41581669172E+03 -0.13347067014E+03 -0.79513938518E+03  0.90717484294E+03  0.12699999809E+01 0.  1.
</event>
<event>
 5   0  0.9050363E-04  0.1197912E+04  0.7818609E-02  0.9114686E-01
       -2   -1    0    0    0  501  0.00000000000E+00  0.00000000000E+00  0.29006479469E+03  0.29006479470E+03  0.25500000920E-02 0. -1.
        2   -1    0    0  501    0  0.00000000000E+00  0.00000000000E+00 -0.12367861319E+04  0.12367861319E+04  0.25500000920E-02 0.  1.
    10030    2    1    2    0    0  0.00000000000E+00  0.00000000000E+00 -0.94672133719E+03  0.15268509266E+04  0.11979117087E+04 0.  0.
        3    1    3    3  502    0  0.62878947759E+02 -0.70870875891E+02  0.28045322473E+03  0.29602443241E+03  0.10100000352E+00 0. -1.
       -3    1    3    3    0  502 -0.62878947759E+02  0.70870875891E+02 -0.12271745619E+04  0.12308264942E+04  0.10100000352E+00 0.  1.
</event>
<event>
 5   0  0.5052959E-04  0.1202399E+04  0.7818609E-02  0.9110760E-01
        1   -1    0    0  501    0  0.00000000000E+00  0.00000000000E+00  0.72588475281E+03  0.72588475283E+03  0.50400001928E-02 0. -1.
       -1   -1    0    0    0  501  0.00000000000E+00  0.00000000000E+00 -0.49793117302E+03  0.49793117304E+03  0.50400001928E-02 0.  1.
    10030    2    1    2    0    0  0.00000000000E+00  0.00000000000E+00  0.22795357980E+03  0.12238159259E+04  0.12023986801E+04 0.  0.
        2    1    3    3  502    0  0.23626301363E+03  0.47562296907E+02 -0.44661343930E+03  0.50748985001E+03  0.25500000920E-02 0.  1.
       -2    1    3    3    0  502 -0.23626301363E+03 -0.47562296907E+02  0.67456701910E+03  0.71632607586E+03  0.25500000920E-02 0. -1.
</event>
<event>
 5   0  0.5447074E-04  0.1201671E+04  0.7818609E-02  0.9111395E-01
       -1   -1    0    0    0  501  0.00000000000E+00  0.00000000000E+00  0.24954732241E+03  0.24954732246E+03  0.50400001928E-02 0.  1.
        1   -1    0    0  501    0  0.00000000000E+00  0.00000000000E+00 -0.14466322346E+04  0.14466322346E+04  0.50400001928E-02 0. -1.
    10030    2    1    2    0    0  0.00000000000E+00  0.00000000000E+00 -0.11970849122E+04  0.16961795571E+04  0.12016708380E+04 0.  0.
        4    1    3    3  502    0  0.45665473210E+03 -0.31452444771E+03 -0.27192809113E+03  0.61758049856E+03  0.12699999809E+01 0.  1.
       -4    1    3    3    0  502 -0.45665473210E+03  0.31452444771E+03 -0.92515682108E+03  0.10785990585E+04  0.12699999809E+01 0. -1.
</event>
<event>
 5   0  0.5003507E-04  0.1190768E+04  0.7818609E-02  0.9120976E-01
       -1   -1    0    0    0  501  0.00000000000E+00  0.00000000000E+00  0.37497172217E+03  0.37497172221E+03  0.50400001928E-02 0.  1.
        1   -1    0    0  501    0  0.00000000000E+00  0.00000000000E+00 -0.94535676296E+03  0.94535676297E+03  0.50400001928E-02 0. -1.
    10030    2    1    2    0    0  0.00000000000E+00  0.00000000000E+00 -0.57038504079E+03  0.13203284852E+04  0.11907679094E+04 0.  0.
        3    1    3    3  502    0  0.61100639751E+02  0.34089777702E+03  0.25179102793E+03  0.42818607462E+03  0.10100000352E+00 0.  1.
       -3    1    3    3    0  502 -0.61100639751E+02 -0.34089777702E+03 -0.82217606871E+03  0.89214241056E+03  0.10100000352E+00 0. -1.
</event>
<event>
 5   0  0.5003507E-04  0.1192457E+04  0.7818609E-02  0.9119485E-01
       -1   -1    0    0    0  501  0.00000000000E+00  0.00000000000E+00  0.58413936551E+03  0.58413936553E+03  0.50400001928E-02 0.  1.
        1   -1    0    0  501    0  0.00000000000E+00  0.00000000000E+00 -0.60856769438E+03  0.60856769440E+03  0.50400001928E-02 0. -1.
    10030    2    1    2    0    0  0.00000000000E+00  0.00000000000E+00 -0.24428328871E+02  0.11927070599E+04  0.11924568703E+04 0.  0.
        3    1    3    3  502    0  0.29136672591E+03 -0.10736980006E+03 -0.52130572233E+03  0.60678044569E+03  0.10100000352E+00 0. -1.
       -3    1    3    3    0  502 -0.29136672591E+03  0.10736980006E+03  0.49687739346E+03  0.58592661424E+03  0.10100000352E+00 0.  1.
</event>
<event>
 5   0  0.9050363E-04  0.1176770E+04  0.7818609E-02  0.9133436E-01
        2   -1    0    0  501    0  0.00000000000E+00  0.00000000000E+00  0.15370454446E+04  0.15370454446E+04  0.25500000920E-02 0.  1.
       -2   -1    0    0    0  501  0.00000000000E+00  0.00000000000E+00 -0.22523539873E+03  0.22523539875E+03  0.25500000920E-02 0. -1.
    10030    2    1    2    0    0  0.00000000000E+00  0.00000000000E+00  0.13118100458E+04  0.17622808433E+04  0.11767702301E+04 0.  0.
        3    1    3    3  502    0  0.35706173477E+03  0.39754271243E+02 -0.41904531743E+02  0.36170358652E+03  0.10100000352E+00 0. -1.
       -3    1    3    3    0  502 -0.35706173477E+03 -0.39754271243E+02  0.13537145776E+04  0.14005772568E+04  0.10100000352E+00 0.  1.
</event>
<event>
 5   0  0.9145224E-04  0.1191744E+04  0.7818609E-02  0.9120114E-01
        2   -1    0    0  501    0  0.00000000000E+00  0.00000000000E+00  0.83887962261E+03  0.83887962261E+03  0.25500000920E-02 0.  1.
       -2   -1    0    0    0  501  0.00000000000E+00  0.00000000000E+00 -0.42325899602E+03  0.42325899603E+03  0.25500000920E-02 0. -1.
    10030    2    1    2    0    0  0.00000000000E+00  0.00000000000E+00  0.41562062658E+03  0.12621386186E+04  0.11917438430E+04 0.  0.
        5    1    3    3  502    0  0.31690127071E+03 -0.33690748651E+03 -0.19002217350E+03  0.50006358222E+03  0.46999998093E+01 0. -1.
       -5    1    3    3    0  502 -0.31690127071E+03  0.33690748651E+03  0.60564280008E+03  0.76207503642E+03  0.46999998093E+01 0.  1.
</event>
<event>
 5   0  0.9410666E-04  0.1201980E+04  0.7818609E-02  0.9111125E-01
       -2   -1    0    0    0  501  0.00000000000E+00  0.00000000000E+00  0.39563440939E+03  0.39563440940E+03  0.25500000920E-02 0. -1.
        2   -1    0    0  501    0  0.00000000000E+00  0.00000000000E+00 -0.91293652795E+03  0.91293652796E+03  0.25500000920E-02 0.  1.
    10030    2    1    2    0    0  0.00000000000E+00  0.00000000000E+00 -0.51730211856E+03  0.13085709374E+04  0.12019802063E+04 0.  0.
        2    1    3    3  502    0  0.33355831982E+03 -0.32956196797E+03 -0.66790884024E+03  0.81607258398E+03  0.25500000920E-02 0.  1.
       -2    1    3    3    0  502 -0.33355831982E+03  0.32956196797E+03  0.15060672168E+03  0.49249835337E+03  0.25500000920E-02 0. -1.
</event>
<event>
 5   0  0.5001586E-04  0.1241520E+04  0.7818609E-02  0.9077271E-01
        1   -1    0    0  501    0  0.00000000000E+00  0.00000000000E+00  0.12589111342E+04  0.12589111342E+04  0.50400001928E-02 0.  1.
       -1   -1    0    0    0  501  0.00000000000E+00  0.00000000000E+00 -0.30609232039E+03  0.30609232043E+03  0.50400001928E-02 0. -1.
    10030    2    1    2    0    0  0.00000000000E+00  0.00000000000E+00  0.95281881379E+03  0.15650034546E+04  0.12415200848E+04 0.  0.
        1    1    3    3  502    0  0.59857863789E+03 -0.16194562293E+03  0.44030690975E+03  0.76052149563E+03  0.50400001928E-02 0.  1.
       -1    1    3    3    0  502 -0.59857863789E+03  0.16194562293E+03  0.51251190404E+03  0.80448195898E+03  0.50400001928E-02 0. -1.
</event>
<event>
 5   0  0.9410666E-04  0.1199231E+04  0.7818609E-02  0.9113530E-01
       -2   -1    0    0    0  501  0.00000000000E+00  0.00000000000E+00  0.26070326504E+03  0.26070326506E+03  0.25500000920E-02 0.  1.
        2   -1    0    0  501    0  0.00000000000E+00  0.00000000000E+00 -0.13791112415E+04  0.13791112415E+04  0.25500000920E-02 0. -1.
    10030    2    1    2    0    0  0.00000000000E+00  0.00000000000E+00 -0.11184079765E+04  0.16398145066E+04  0.11992310929E+04 0.  0.
        2    1    3    3  502    0  0.16885536498E+03  0.39946352056E+02 -0.13440311930E+04  0.13551854829E+04  0.25500000920E-02 0. -1.
       -2    1    3    3    0  502 -0.16885536498E+03 -0.39946352056E+02  0.22562321647E+03  0.28462902372E+03  0.25500000920E-02 0.  1.
</event>
<event>
 5   0  0.5001586E-04  0.1203456E+04  0.7818609E-02  0.9109837E-01
       -1   -1    0    0    0  501  0.00000000000E+00  0.00000000000E+00  0.35864705617E+03  0.35864705621E+03  0.50400001928E-02 0. -1.
        1   -1    0    0  501    0  0.00000000000E+00  0.00000000000E+00 -0.10095626918E+04  0.10095626919E+04  0.50400001928E-02 0.  1.
    10030    2    1    2    0    0  0.00000000000E+00  0.00000000000E+00 -0.65091563567E+03  0.13682097481E+04  0.12034561687E+04 0.  0.
        1    1    3    3  502    0  0.41118844112E+02 -0.59827104600E+03 -0.26909594801E+03  0.65729113266E+03  0.50400001928E-02 0.  1.
       -1    1    3    3    0  502 -0.41118844112E+02  0.59827104600E+03 -0.38181968766E+03  0.71091861540E+03  0.50400001928E-02 0. -1.
</event>
<event>
 5   0  0.5157631E-04  0.1199093E+04  0.7818609E-02  0.9113651E-01
       -1   -1    0    0    0  501  0.00000000000E+00  0.00000000000E+00  0.33243285006E+03  0.33243285010E+03  0.50400001928E-02 0. -1.
        1   -1    0    0  501    0  0.00000000000E+00  0.00000000000E+00 -0.10812891868E+04  0.10812891868E+04  0.50400001928E-02 0.  1.
    10030    2    1    2    0    0  0.00000000000E+00  0.00000000000E+00 -0.74885633675E+03  0.14137220369E+04  0.11990930675E+04 0.  0.
        5    1    3    3  502    0 -0.49888487635E+01 -0.44586649805E+03  0.98070197799E+02  0.45657603572E+03  0.46999998093E+01 0. -1.
       -5    1    3    3    0  502  0.49888487635E+01  0.44586649805E+03 -0.84692653455E+03  0.95714600120E+03  0.46999998093E+01 0.  1.
</event>
<event>
 5   0  0.9070772E-04  0.1198699E+04  0.7818609E-02  0.9113996E-01
       -2   -1    0    0    0  501  0.00000000000E+00  0.00000000000E+00  0.31695862982E+03  0.31695862983E+03  0.25500000920E-02 0.  1.
        2   -1    0    0  501    0  0.00000000000E+00  0.00000000000E+00 -0.11333336346E+04  0.11333336346E+04  0.25500000920E-02 0. -1.
    10030    2    1    2    0    0  0.00000000000E+00  0.00000000000E+00 -0.81637500480E+03  0.14502922645E+04  0.11986990881E+04 0.  0.
        4    1    3    3  502    0 -0.22376215633E+03 -0.81730274794E+02  0.25721700023E+03  0.35058741924E+03  0.12699999809E+01 0.  1.
       -4    1    3    3    0  502  0.22376215633E+03  0.81730274794E+02 -0.10735920050E+04  0.10997048452E+04  0.12699999809E+01 0. -1.
</event>
<event>
 5   0  0.5003507E-04  0.1200867E+04  0.7818609E-02  0.9112098E-01
        1   -1    0    0  501    0  0.00000000000E+00  0.00000000000E+00  0.64324009568E+03  0.64324009570E+03  0.50400001928E-02 0. -1.
       -1   -1    0    0    0  501  0.00000000000E+00  0.00000000000E+00 -0.56047584614E+03  0.56047584616E+03  0.50400001928E-02 0.  1.
    10030    2    1    2    0    0  0.00000000000E+00  0.00000000000E+00  0.82764249544E+02  0.12037159419E+04  0.12008672482E+04 0.  0.
        3    1    3    3  502    0 -0.43486462751E+03 -0.39217311569E+03  0.17441292735E+03  0.61100480879E+03  0.10100000352E+00 0.  1.
       -3    1    3    3    0  502  0.43486462751E+03  0.39217311569E+03 -0.91648677807E+02  0.59271113308E+03  0.10100000352E+00 0. -1.
</event>
<event>
 5   0  0.3453625E-04  0.1197954E+04  0.7818609E-02  0.9114650E-01
        3   -1    0    0  501    0  0.00000000000E+00  0.00000000000E+00  0.20168037749E+03  0.20168040278E+03  0.10100000352E+00 0. -1.
       -3   -1    0    0    0  501  0.00000000000E+00  0.00000000000E+00 -0.17789196103E+04  0.17789196131E+04  0.10100000352E+00 0.  1.
    10030    2    1    2    0    0  0.00000000000E+00  0.00000000000E+00 -0.15772392328E+04  0.19806000159E+04  0.11979535991E+04 0.  0.
        4    1    3    3  502    0 -0.31489767393E+03 -0.50206744398E+03 -0.64506301680E+03  0.87597954993E+03  0.12699999809E+01 0.  1.
       -4    1    3    3    0  502  0.31489767393E+03  0.50206744398E+03 -0.93217621598E+03  0.11046204660E+04  0.12699999809E+01 0. -1.
</event>
<event>
 5   0  0.5001586E-04  0.1214927E+04  0.7818609E-02  0.9099891E-01
       -1   -1    0    0    0  501  0.00000000000E+00  0.00000000000E+00  0.58610727962E+03  0.58610727964E+03  0.50400001928E-02 0. -1.
        1   -1    0    0  501    0  0.00000000000E+00  0.00000000000E+00 -0.62959758204E+03  0.62959758206E+03  0.50400001928E-02 0.  1.
    10030    2    1    2    0    0  0.00000000000E+00  0.00000000000E+00 -0.43490302420E+02  0.12157048617E+04  0.12149267074E+04 0.  0.
        1    1    3    3  502    0 -0.33802183643E+03 -0.10491421741E+03 -0.51576772885E+03  0.62552546317E+03  0.50400001928E-02 0.  1.
       -1    1    3    3    0  502  0.33802183643E+03  0.10491421741E+03  0.47227742643E+03  0.59017939854E+03  0.50400001928E-02 0. -1.
</event>
<event>
 5   0  0.5052959E-04  0.1198603E+04  0.7818609E-02  0.9114081E-01
       -1   -1    0    0    0  501  0.00000000000E+00  0.00000000000E+00  0.26709890925E+03  0.26709890930E+03  0.50400001928E-02 0. -1.
        1   -1    0    0  501    0  0.00000000000E+00  0.00000000000E+00 -0.13446780401E+04  0.13446780401E+04  0.50400001928E-02 0.  1.
    10030    2    1    2    0    0  0.00000000000E+00  0.00000000000E+00 -0.10775791309E+04  0.16117769494E+04  0.11986025828E+04 0.  0.
        2    1    3    3  502    0  0.32674731258E+03 -0.33325322607E+03 -0.10443383516E+04  0.11438811615E+04  0.25500000920E-02 0.  1.
       -2    1    3    3    0  502 -0.32674731258E+03  0.33325322607E+03 -0.33240779266E+02  0.46789578795E+03  0.25500000920E-02 0. -1.
</event>
<event>
 5   0  0.5447074E-04  0.1200517E+04  0.7818609E-02  0.9112404E-01
        1   -1    0    0  501    0  0.00000000000E+00  0.00000000000E+00  0.20272204901E+04  0.20272204901E+04  0.50400001928E-02 0. -1.
       -1   -1    0    0    0  501  0.00000000000E+00  0.00000000000E+00 -0.17773624189E+03  0.17773624196E+03  0.50400001928E-02 0.  1.
    10030    2    1    2    0    0  0.00000000000E+00  0.00000000000E+00  0.18494842482E+04  0.22049567321E+04  0.12005174742E+04 0.  0.
        4    1    3    3  502    0 -0.49273586383E+03 -0.13233396907E+03  0.15055720940E+04  0.15896697311E+04  0.12699999809E+01 0. -1.
       -4    1    3    3    0  502  0.49273586383E+03  0.13233396907E+03  0.34391215426E+03  0.61528700102E+03  0.12699999809E+01 0.  1.
</event>
<event>
 5   0  0.5157631E-04  0.1195737E+04  0.7818609E-02  0.9116596E-01
        1   -1    0    0  501    0  0.00000000000E+00  0.00000000000E+00  0.13162881369E+04  0.13162881369E+04  0.50400001928E-02 0.  1.
       -1   -1    0    0    0  501  0.00000000000E+00  0.00000000000E+00 -0.27155655964E+03  0.27155655968E+03  0.50400001928E-02 0. -1.
    10030    2    1    2    0    0  0.00000000000E+00  0.00000000000E+00  0.10447315773E+04  0.15878446966E+04  0.11957368908E+04 0.  0.
        5    1    3    3  502    0 -0.52614346406E+03  0.24530930677E+03  0.71212844950E+03  0.91877778562E+03  0.46999998093E+01 0.  1.
       -5    1    3    3    0  502  0.52614346406E+03 -0.24530930677E+03  0.33260312778E+03  0.66906691098E+03  0.46999998093E+01 0. -1.
</event>
<event>
 5   0  0.9298693E-04  0.1195575E+04  0.7818609E-02  0.9116738E-01
       -2   -1    0    0    0  501  0.00000000000E+00  0.00000000000E+00  0.23394890797E+03  0.23394890798E+03  0.25500000920E-02 0.  1.
        2   -1    0    0  501    0  0.00000000000E+00  0.00000000000E+00 -0.15274702854E+04  0.15274702854E+04  0.25500000920E-02 0. -1.
    10030    2    1    2    0    0  0.00000000000E+00  0.00000000000E+00 -0.12935213775E+04  0.17614191934E+04  0.11955751842E+04 0.  0.
        1    1    3    3  502    0  0.94889049911E+02 -0.77663549674E+02 -0.15087431834E+04  0.15137177915E+04  0.50400001928E-02 0. -1.
       -1    1    3    3    0  502 -0.94889049911E+02  0.77663549674E+02  0.21522180594E+03  0.24770140193E+03  0.50400001928E-02 0.  1.
</event>
<event>
 5   0  0.5052959E-04  0.1201303E+04  0.7818609E-02  0.9111717E-01
        1   -1    0    0  501    0  0.00000000000E+00  0.00000000000E+00  0.45535910381E+03  0.45535910384E+03  0.50400001928E-02 0.  1.
       -1   -1    0    0    0  501  0.00000000000E+00  0.00000000000E+00 -0.79230296132E+03  0.79230296134E+03  0.50400001928E-02 0. -1.
    10030    2    1    2    0    0  0.00000000000E+00  0.00000000000E+00 -0.33694385751E+03  0.12476620652E+04  0.12013032364E+04 0.  0.
        2    1    3    3  502    0 -0.66664690516E+01 -0.58336206683E+03 -0.20034775484E+02  0.58374406640E+03  0.25500000920E-02 0.  1.
       -2    1    3    3    0  502  0.66664690516E+01  0.58336206683E+03 -0.31690908202E+03  0.66391799878E+03  0.25500000920E-02 0. -1.
</event>
<event>
 5   0  0.9050363E-04  0.1197719E+04  0.7818609E-02  0.9114856E-01
       -2   -1    0    0    0  501  0.00000000000E+00  0.00000000000E+00  0.38376564956E+03  0.38376564957E+03  0.25500000920E-02 0.  1.
        2   -1    0    0  501    0  0.00000000000E+00  0.00000000000E+00 -0.93450895560E+03  0.93450895560E+03  0.25500000920E-02 0. -1.
    10030    2    1    2    0    0  0.00000000000E+00  0.00000000000E+00 -0.55074330603E+03  0.13182746052E+04  0.11977185586E+04 0.  0.
        3    1    3    3  502    0  0.48935773223E+03  0.17063402752E+03  0.54908159210E+02  0.52115437021E+03  0.10100000352E+00 0.  1.
       -3    1    3    3    0  502 -0.48935773223E+03 -0.17063402752E+03 -0.60565146524E+03  0.79712023496E+03  0.10100000352E+00 0. -1.
</event>
<event>
 5   0  0.5447074E-04  0.1201275E+04  0.7818609E-02  0.9111741E-01
       -1   -1    0    0    0  501  0.00000000000E+00  0.00000000000E+00  0.64509506986E+03  0.64509506988E+03  0.50400001928E-02 0. -1.
        1   -1    0    0  501    0  0.00000000000E+00  0.00000000000E+00 -0.55924384443E+03  0.55924384445E+03  0.50400001928E-02 0.  1.
    10030    2    1    2    0    0  0.00000000000E+00  0.00000000000E+00  0.85851225432E+02  0.12043389143E+04  0.12012750675E+04 0.  0.
        4    1    3    3  502    0  0.22768534899E+03  0.55420669052E+03  0.85201397745E+02  0.60518308390E+03  0.12699999809E+01 0. -1.
       -4    1    3    3    0  502 -0.22768534899E+03 -0.55420669052E+03  0.64982768765E+00  0.59915583043E+03  0.12699999809E+01 0.  1.
</event>
<event>
 5   0  0.9298693E-04  0.1196684E+04  0.7818609E-02  0.9115764E-01
        2   -1    0    0  501    0  0.00000000000E+00  0.00000000000E+00  0.80144384128E+03  0.80144384128E+03  0.25500000920E-02 0.  1.
       -2   -1    0    0    0  501  0.00000000000E+00  0.00000000000E+00 -0.44671008360E+03  0.44671008360E+03  0.25500000920E-02 0. -1.
    10030    2    1    2    0    0  0.00000000000E+00  0.00000000000E+00  0.35473375768E+03  0.12481539249E+04  0.11966838268E+04 0.  0.
        1    1    3    3  502    0 -0.54583958519E+03  0.20016373624E+03  0.32489545233E+03  0.66600557733E+03  0.50400001928E-02 0.  1.
       -1    1    3    3    0  502  0.54583958519E+03 -0.20016373624E+03  0.29838305353E+02  0.58214834755E+03  0.50400001928E-02 0. -1.
</event>
<event>
 5   0  0.5003507E-04  0.1194277E+04  0.7818609E-02  0.9117880E-01
       -1   -1    0    0    0  501  0.00000000000E+00  0.00000000000E+00  0.85754920307E+03  0.85754920308E+03  0.50400001928E-02 0.  1.
        1   -1    0    0  501    0  0.00000000000E+00  0.00000000000E+00 -0.41580666254E+03  0.41580666257E+03  0.50400001928E-02 0. -1.
    10030    2    1    2    0    0  0.00000000000E+00  0.00000000000E+00  0.44174254053E+03  0.12733558657E+04  0.11942774755E+04 0.  0.
        3    1    3    3  502    0  0.19826746394E+03  0.38977000236E+03 -0.21267833772E+03  0.48627433362E+03  0.10100000352E+00 0. -1.
       -3    1    3    3    0  502 -0.19826746394E+03 -0.38977000236E+03  0.65442087824E+03  0.78708153204E+03  0.10100000352E+00 0.  1.
</event>
<event>
 5   0  0.9070772E-04  0.1180890E+04  0.7818609E-02  0.9129750E-01
        2   -1    0    0  501    0  0.00000000000E+00  0.00000000000E+00  0.38308292449E+03  0.38308292449E+03  0.25500000920E-02 0. -1.
       -2   -1    0    0    0  501  0.00000000000E+00  0.00000000000E+00 -0.91005120076E+03  0.91005120076E+03  0.25500000920E-02 0.  1.
    10030    2    1    2    0    0  0.00000000000E+00  0.00000000000E+00 -0.52696827627E+03  0.12931341253E+04  0.11808896230E+04 0.  0.
        4    1    3    3  502    0 -0.18798609398E+03 -0.51476554639E+03 -0.50414910841E+03  0.74464103815E+03  0.12699999809E+01 0.  1.
       -4    1    3    3    0  502  0.18798609398E+03  0.51476554639E+03 -0.22819167860E+02  0.54849308711E+03  0.12699999809E+01 0. -1.
</event>
<event>
 5   0  0.3453625E-04  0.1202092E+04  0.7818609E-02  0.9111027E-01
        3   -1    0    0  501    0  0.00000000000E+00  0.00000000000E+00  0.10813458374E+04  0.10813458421E+04  0.10100000352E+00 0. -1.
       -3   -1    0    0    0  501  0.00000000000E+00  0.00000000000E+00 -0.33408041432E+03  0.33408042959E+03  0.10100000352E+00 0.  1.
    10030    2    1    2    0    0  0.00000000000E+00  0.00000000000E+00  0.74726542303E+03  0.14154262717E+04  0.12020923084E+04 0.  0.
        3    1    3    3  502    0 -0.39343898478E+03  0.44460048946E+03  0.48404287770E+03  0.76600349061E+03  0.10100000352E+00 0.  1.
       -3    1    3    3    0  502  0.39343898478E+03 -0.44460048946E+03  0.26322254533E+03  0.64942278105E+03  0.10100000352E+00 0. -1.
</event>
<event>
 5   0  0.9070772E-04  0.1196793E+04  0.7818609E-02  0.9115668E-01
        2   -1    0    0  501    0  0.00000000000E+00  0.00000000000E+00  0.10081363216E+04  0.10081363216E+04  0.25500000920E-02 0.  1.
       -2   -1    0    0    0  501  0.00000000000E+00  0.00000000000E+00 -0.35518864977E+03  0.35518864978E+03  0.25500000920E-02 0. -1.
    10030    2    1    2    0    0  0.00000000000E+00  0.00000000000E+00  0.65294767181E+03  0.13633249714E+04  0.11967933470E+04 0.  0.
        4    1    3    3  502    0  0.49640077206E+02  0.28788161623E+03 -0.26843751563E+03  0.39673703498E+03  0.12699999809E+01 0. -1.
       -4    1    3    3    0  502 -0.49640077206E+02 -0.28788161623E+03  0.92138518744E+03  0.96658793638E+03  0.12699999809E+01 0.  1.
</event>
<event>
 5   0  0.9145224E-04  0.1203972E+04  0.7818609E-02  0.9109387E-01
        2   -1    0    0  501    0  0.00000000000E+00  0.00000000000E+00  0.32398480095E+03  0.32398480096E+03  0.25500000920E-02 0.  1.
       -2   -1    0    0    0  501  0.00000000000E+00  0.00000000000E+00 -0.11185319616E+04  0.11185319616E+04  0.25500000920E-02 0. -1.
    10030    2    1    2    0    0  0.00000000000E+00  0.00000000000E+00 -0.79454716064E+03  0.14425167625E+04  0.12039723501E+04 0.  0.
        5    1    3    3  502    0 -0.53746975392E+03 -0.27105531008E+03 -0.40270462265E+03  0.72424983300E+03  0.46999998093E+01 0.  1.
       -5    1    3    3    0  502  0.53746975392E+03  0.27105531008E+03 -0.39184253799E+03  0.71826692955E+03  0.46999998093E+01 0. -1.
</event>
<event>
 5   0  0.9410666E-04  0.1187166E+04  0.7818609E-02  0.9124164E-01
        2   -1    0    0  501    0  0.00000000000E+00  0.00000000000E+00  0.91047426561E+03  0.91047426561E+03  0.25500000920E-02 0. -1.
       -2   -1    0    0    0  501  0.00000000000E+00  0.00000000000E+00 -0.38698627728E+03  0.38698627729E+03  0.25500000920E-02 0.  1.
    10030    2    1    2    0    0  0.00000000000E+00  0.00000000000E+00  0.52348798833E+03  0.12974605429E+04  0.11871664527E+04 0.  0.
        2    1    3    3  502    0  0.31687047161E+03  0.36417854105E+03  0.63924453939E+03  0.80104087704E+03  0.25500000920E-02 0. -1.
       -2    1    3    3    0  502 -0.31687047161E+03 -0.36417854105E+03 -0.11575655106E+03  0.49641966587E+03  0.25500000920E-02 0.  1.
</event>
<event>
 5   0  0.9050363E-04  0.1203381E+04  0.7818609E-02  0.9109902E-01
       -2   -1    0    0    0  501  0.00000000000E+00  0.00000000000E+00  0.40653819830E+03  0.40653819831E+03  0.25500000920E-02 0. -1.
        2   -1    0    0  501    0  0.00000000000E+00  0.00000000000E+00 -0.89052323556E+03  0.89052323556E+03  0.25500000920E-02 0.  1.
    10030    2    1    2    0    0  0.00000000000E+00  0.00000000000E+00 -0.48398503726E+03  0.12970614339E+04  0.12033814221E+04 0.  0.
        3    1    3    3  502    0  0.53274034069E+03 -0.27263139106E+03 -0.17475388786E+03  0.62344131842E+03  0.10100000352E+00 0. -1.
       -3    1    3    3    0  502 -0.53274034069E+03  0.27263139106E+03 -0.30923114939E+03  0.67362011545E+03  0.10100000352E+00 0.  1.
</event>
<event>
 5   0  0.9050363E-04  0.1200997E+04  0.7818609E-02  0.9111984E-01
       -2   -1    0    0    0  501  0.00000000000E+00  0.00000000000E+00  0.31788521151E+03  0.31788521152E+03  0.25500000920E-02 0.  1.
        2   -1    0    0  501    0  0.00000000000E+00  0.00000000000E+00 -0.11343675999E+04  0.11343675999E+04  0.25500000920E-02 0. -1.
    10030    2    1    2    0    0  0.00000000000E+00  0.00000000000E+00 -0.81648238837E+03  0.14522528114E+04  0.12009973929E+04 0.  0.
        3    1    3    3  502    0 -0.11594408628E+03  0.58819254352E+03 -0.44986975242E+03  0.74953072235E+03  0.10100000352E+00 0. -1.
       -3    1    3    3    0  502  0.11594408628E+03 -0.58819254352E+03 -0.36661263595E+03  0.70272208905E+03  0.10100000352E+00 0.  1.
</event>
<event>
 5   0  0.9410666E-04  0.1190484E+04  0.7818609E-02  0.9121227E-01
       -2   -1    0    0    0  501  0.00000000000E+00  0.00000000000E+00  0.28034953639E+03  0.28034953640E+03  0.25500000920E-02 0.  1.
        2   -1    0    0  501    0  0.00000000000E+00  0.00000000000E+00 -0.12638262242E+04  0.12638262242E+04  0.25500000920E-02 0. -1.
    10030    2    1    2    0    0  0.00000000000E+00  0.00000000000E+00 -0.98347668778E+03  0.15441757606E+04  0.11904840966E+04 0.  0.
        2    1    3    3  502    0  0.27873800875E+03 -0.43063966946E+03 -0.88338427304E+03  0.10215249269E+04  0.25500000920E-02 0. -1.
       -2    1    3    3    0  502 -0.27873800875E+03  0.43063966946E+03 -0.10009241474E+03  0.52265083366E+03  0.25500000920E-02 0.  1.
</event>
<event>
 5   0  0.3453625E-04  0.1200629E+04  0.7818609E-02  0.9112306E-01
        3   -1    0    0  501    0  0.00000000000E+00  0.00000000000E+00  0.22864323817E+03  0.22864326048E+03  0.10100000352E+00 0.  1.
       -3   -1    0    0    0  501  0.00000000000E+00  0.00000000000E+00 -0.15761574878E+04  0.15761574911E+04  0.10100000352E+00 0. -1.
    10030    2    1    2    0    0  0.00000000000E+00  0.00000000000E+00 -0.13475142497E+04  0.18048007515E+04  0.12006294598E+04 0.  0.
        1    1    3    3  502    0  0.51313247283E+03  0.27591866769E+02 -0.20724879068E+03  0.55409232719E+03  0.50400001928E-02 0.  1.
       -1    1    3    3    0  502 -0.51313247283E+03 -0.27591866769E+02 -0.11402654590E+04  0.12507084244E+04  0.50400001928E-02 0. -1.
</event>
<event>
 5   0  0.3453625E-04  0.1200227E+04  0.7818609E-02  0.9112658E-01
       -4   -1    0    0    0  501  0.00000000000E+00  0.00000000000E+00  0.29430931641E+03  0.29431205654E+03  0.12699999809E+01 0.  1.
        4   -1    0    0  501    0  0.00000000000E+00  0.00000000000E+00 -0.12236566884E+04  0.12236573475E+04  0.12699999809E+01 0. -1.
    10030    2    1    2    0    0  0.00000000000E+00  0.00000000000E+00 -0.92934737203E+03  0.15179694040E+04  0.12002268843E+04 0.  0.
        1    1    3    3  502    0  0.16063608207E+03 -0.57700552413E+03 -0.51194193626E+03  0.78792377288E+03  0.50400001928E-02 0. -1.
       -1    1    3    3    0  502 -0.16063608207E+03  0.57700552413E+03 -0.41740543577E+03  0.73004563116E+03  0.50400001928E-02 0.  1.
</event>
<event>
 5   0  0.9050363E-04  0.1194815E+04  0.7818609E-02  0.9117407E-01
       -2   -1    0    0    0  501  0.00000000000E+00  0.00000000000E+00  0.13061420975E+04  0.13061420975E+04  0.25500000920E-02 0. -1.
        2   -1    0    0  501    0  0.00000000000E+00  0.00000000000E+00 -0.27324426378E+03  0.27324426379E+03  0.25500000920E-02 0.  1.
    10030    2    1    2    0    0  0.00000000000E+00  0.00000000000E+00  0.10328978337E+04  0.15793863613E+04  0.11948151921E+04 0.  0.
        3    1    3    3  502    0 -0.50987269053E+03  0.16121932818E+03  0.16439040237E+03  0.55945155905E+03  0.10100000352E+00 0.  1.
       -3    1    3    3    0  502  0.50987269053E+03 -0.16121932818E+03  0.86850743135E+03  0.10199348022E+04  0.10100000352E+00 0. -1.
</event>
<event>
 5   0  0.5447074E-04  0.1201309E+04  0.7818609E-02  0.9111711E-01
       -1   -1    0    0    0  501  0.00000000000E+00  0.00000000000E+00  0.27286425815E+03  0.27286425819E+03  0.50400001928E-02 0.  1.
        1   -1    0    0  501    0  0.00000000000E+00  0.00000000000E+00 -0.13222175505E+04  0.13222175505E+04  0.50400001928E-02 0. -1.
    10030    2    1    2    0    0  0.00000000000E+00  0.00000000000E+00 -0.10493532923E+04  0.15950818087E+04  0.12013091377E+04 0.  0.
        4    1    3    3  502    0  0.12480532920E+03  0.55935890756E+03 -0.76340339262E+03  0.95459159353E+03  0.12699999809E+01 0. -1.
       -4    1    3    3    0  502 -0.12480532920E+03 -0.55935890756E+03 -0.28594989969E+03  0.64049021514E+03  0.12699999809E+01 0.  1.
</event>
<event>
 5   0  0.9298693E-04  0.1198976E+04  0.7818609E-02  0.9113753E-01
       -2   -1    0    0    0  501  0.00000000000E+00  0.00000000000E+00  0.36123792768E+03  0.36123792769E+03  0.25500000920E-02 0.  1.
        2   -1    0    0  501    0  0.00000000000E+00  0.00000000000E+00 -0.99487325706E+03  0.99487325706E+03  0.25500000920E-02 0. -1.
    10030    2    1    2    0    0  0.00000000000E+00  0.00000000000E+00 -0.63363532938E+03  0.13561111847E+04  0.11989761527E+04 0.  0.
        1    1    3    3  502    0 -0.38631552469E+03  0.31465964278E+03  0.60243070068E+02  0.50187608324E+03  0.50400001928E-02 0.  1.
       -1    1    3    3    0  502  0.38631552469E+03 -0.31465964278E+03 -0.69387839944E+03  0.85423510151E+03  0.50400001928E-02 0. -1.
</event>
<event>
 5   0  0.9410666E-04  0.1205330E+04  0.7818609E-02  0.9108204E-01
       -2   -1    0    0    0  501  0.00000000000E+00  0.00000000000E+00  0.26267152344E+03  0.26267152345E+03  0.25500000920E-02 0.  1.
        2   -1    0    0  501    0  0.00000000000E+00  0.00000000000E+00 -0.13827357810E+04  0.13827357810E+04  0.25500000920E-02 0. -1.
    10030    2    1    2    0    0  0.00000000000E+00  0.00000000000E+00 -0.11200642576E+04  0.16454073045E+04  0.12053303516E+04 0.  0.
        2    1    3    3  502    0  0.22812593959E+03 -0.41272947604E+03 -0.10722996230E+04  0.11714151895E+04  0.25500000920E-02 0. -1.
       -2    1    3    3    0  502 -0.22812593959E+03  0.41272947604E+03 -0.47764634551E+02  0.47399211495E+03  0.25500000920E-02 0.  1.
</event>
<event>
 5   0  0.5052959E-04  0.1198127E+04  0.7818609E-02  0.9114498E-01
       -1   -1    0    0    0  501  0.00000000000E+00  0.00000000000E+00  0.60307133992E+03  0.60307133994E+03  0.50400001928E-02 0. -1.
        1   -1    0    0  501    0  0.00000000000E+00  0.00000000000E+00 -0.59508211611E+03  0.59508211613E+03  0.50400001928E-02 0.  1.
    10030    2    1    2    0    0  0.00000000000E+00  0.00000000000E+00  0.79892238066E+01  0.11981534561E+04  0.11981268199E+04 0.  0.
        2    1    3    3  502    0 -0.38634934053E+03  0.41641108303E+03 -0.18630666581E+03  0.59780780919E+03  0.25500000920E-02 0.  1.
       -2    1    3    3    0  502  0.38634934053E+03 -0.41641108303E+03  0.19429588962E+03  0.60034564688E+03  0.25500000920E-02 0. -1.
</event>
<event>
 5   0  0.9145224E-04  0.1220747E+04  0.7818609E-02  0.9094888E-01
        2   -1    0    0  501    0  0.00000000000E+00  0.00000000000E+00  0.11514842535E+04  0.11514842535E+04  0.25500000920E-02 0. -1.
       -2   -1    0    0    0  501  0.00000000000E+00  0.00000000000E+00 -0.32354394213E+03  0.32354394214E+03  0.25500000920E-02 0.  1.
    10030    2    1    2    0    0  0.00000000000E+00  0.00000000000E+00  0.82794031138E+03  0.14750281957E+04  0.12207469102E+04 0.  0.
        5    1    3    3  502    0  0.63409084565E+02 -0.60545167015E+02 -0.31587414040E+03  0.32784903817E+03  0.46999998093E+01 0.  1.
       -5    1    3    3    0  502 -0.63409084565E+02  0.60545167015E+02  0.11438144518E+04  0.11471791575E+04  0.46999998093E+01 0. -1.
</event>
<event>
 5   0  0.5003507E-04  0.1199928E+04  0.7818609E-02  0.9112919E-01
       -1   -1    0    0    0  501  0.00000000000E+00  0.00000000000E+00  0.37392411881E+03  0.37392411884E+03  0.50400001928E-02 0. -1.
        1   -1    0    0  501    0  0.00000000000E+00  0.00000000000E+00 -0.96264721224E+03  0.96264721225E+03  0.50400001928E-02 0.  1.
    10030    2    1    2    0    0  0.00000000000E+00  0.00000000000E+00 -0.58872309343E+03  0.13365713311E+04  0.11999283488E+04 0.  0.
        3    1    3    3  502    0 -0.85907815575E+02  0.43136782376E+03 -0.74887022876E+03  0.86848430146E+03  0.10100000352E+00 0.  1.
       -3    1    3    3    0  502  0.85907815575E+02 -0.43136782376E+03  0.16014713533E+03  0.46808702963E+03  0.10100000352E+00 0. -1.
</event>
<event>
 5   0  0.5003507E-04  0.1194358E+04  0.7818609E-02  0.9117809E-01
       -1   -1    0    0    0  501  0.00000000000E+00  0.00000000000E+00  0.34173544445E+03  0.34173544449E+03  0.50400001928E-02 0. -1.
        1   -1    0    0  501    0  0.00000000000E+00  0.00000000000E+00 -0.10435641936E+04  0.10435641936E+04  0.50400001928E-02 0.  1.
    10030    2    1    2    0    0  0.00000000000E+00  0.00000000000E+00 -0.70182874919E+03  0.13852996381E+04  0.11943581934E+04 0.  0.
        3    1    3    3  502    0  0.31210713643E+03 -0.37557828072E+03 -0.74960077276E+03  0.89463469544E+03  0.10100000352E+00 0.  1.
       -3    1    3    3    0  502 -0.31210713643E+03  0.37557828072E+03  0.47772023573E+02  0.49066494270E+03  0.10100000352E+00 0. -1.
</event>
<event>
 5   0  0.5447074E-04  0.1199622E+04  0.7818609E-02  0.9113187E-01
        1   -1    0    0  501    0  0.00000000000E+00  0.00000000000E+00  0.23321346329E+04  0.23321346329E+04  0.50400001928E-02 0.  1.
       -1   -1    0    0    0  501  0.00000000000E+00  0.00000000000E+00 -0.15426786523E+03  0.15426786531E+03  0.50400001928E-02 0. -1.
    10030    2    1    2    0    0  0.00000000000E+00  0.00000000000E+00  0.21778667677E+04  0.24864024982E+04  0.11996223261E+04 0.  0.
        4    1    3    3  502    0  0.72496807130E+02  0.42800735685E+03  0.23103036889E+03  0.49175474457E+03  0.12699999809E+01 0. -1.
       -4    1    3    3    0  502 -0.72496807130E+02 -0.42800735685E+03  0.19468363988E+04  0.19946477536E+04  0.12699999809E+01 0.  1.
</event>
<event>
 5   0  0.9070772E-04  0.1199634E+04  0.7818609E-02  0.9113177E-01
        2   -1    0    0  501    0  0.00000000000E+00  0.00000000000E+00  0.67513620061E+03  0.67513620062E+03  0.25500000920E-02 0.  1.
       -2   -1    0    0    0  501  0.00000000000E+00  0.00000000000E+00 -0.53290030454E+03  0.53290030454E+03  0.25500000920E-02 0. -1.
    10030    2    1    2    0    0  0.00000000000E+00  0.00000000000E+00  0.14223589608E+03  0.12080365052E+04  0.11996337556E+04 0.  0.
        4    1    3    3  502    0 -0.10124603128E+03 -0.21729344819E+03  0.62479776804E+03  0.66920928365E+03  0.12699999809E+01 0.  1.
       -4    1    3    3    0  502  0.10124603128E+03  0.21729344819E+03 -0.48256187196E+03  0.53882722152E+03  0.12699999809E+01 0. -1.
</event>
<event>
 5   0  0.9410666E-04  0.1205884E+04  0.7818609E-02  0.9107722E-01
        2   -1    0    0  501    0  0.00000000000E+00  0.00000000000E+00  0.12558331740E+04  0.12558331740E+04  0.25500000920E-02 0. -1.
       -2   -1    0    0    0  501  0.00000000000E+00  0.00000000000E+00 -0.28948015159E+03  0.28948015160E+03  0.25500000920E-02 0.  1.
    10030    2    1    2    0    0  0.00000000000E+00  0.00000000000E+00  0.96635302245E+03  0.15453133256E+04  0.12058835393E+04 0.  0.
        2    1    3    3  502    0 -0.18716857440E+03  0.10195203263E+01  0.12176609736E+04  0.12319624026E+04  0.25500000920E-02 0. -1.
       -2    1    3    3    0  502  0.18716857440E+03 -0.10195203263E+01 -0.25130795117E+03  0.31335092308E+03  0.25500000920E-02 0.  1.
</event>
<event>
 5   0  0.9070772E-04  0.1203059E+04  0.7818609E-02  0.9110183E-01
        2   -1    0    0  501    0  0.00000000000E+00  0.00000000000E+00  0.97191936165E+03  0.97191936165E+03  0.25500000920E-02 0.  1.
       -2   -1    0    0    0  501  0.00000000000E+00  0.00000000000E+00 -0.37229187060E+03  0.37229187061E+03  0.25500000920E-02 0. -1.
    10030    2    1    2    0    0  0.00000000000E+00  0.00000000000E+00  0.59962749105E+03  0.13442112323E+04  0.12030588967E+04 0.  0.
        4    1    3    3  502    0 -0.32503143583E+03 -0.43982131538E+03  0.19928488078E+02  0.54725403725E+03  0.12699999809E+01 0. -1.
       -4    1    3    3    0  502  0.32503143583E+03  0.43982131538E+03  0.57969900297E+03  0.79695719502E+03  0.12699999809E+01 0.  1.
</event>
<event>
 5   0  0.9298693E-04  0.1198553E+04  0.7818609E-02  0.9114124E-01
        2   -1    0    0  501    0  0.00000000000E+00  0.00000000000E+00  0.42285656608E+03  0.42285656608E+03  0.25500000920E-02 0. -1.
       -2   -1    0    0    0  501  0.00000000000E+00  0.00000000000E+00 -0.84930005817E+03  0.84930005817E+03  0.25500000920E-02 0.  1.
    10030    2    1    2    0    0  0.00000000000E+00  0.00000000000E+00 -0.42644349209E+03  0.12721566243E+04  0.11985526374E+04 0.  0.
        1    1    3    3  502    0  0.25173544661E+03  0.36670467714E+03 -0.63949287074E+03  0.77896995261E+03  0.50400001928E-02 0.  1.
       -1    1    3    3    0  502 -0.25173544661E+03 -0.36670467714E+03  0.21304937865E+03  0.49318667164E+03  0.50400001928E-02 0. -1.
</event>
<event>
 5   0  0.9050363E-04  0.1200160E+04  0.7818609E-02  0.9112716E-01
       -2   -1    0    0    0  501  0.00000000000E+00  0.00000000000E+00  0.20168862751E+03  0.20168862753E+03  0.25500000920E-02 0.  1.
        2   -1    0    0  501    0  0.00000000000E+00  0.00000000000E+00 -0.17854067852E+04  0.17854067852E+04  0.25500000920E-02 0. -1.
    10030    2    1    2    0    0  0.00000000000E+00  0.00000000000E+00 -0.15837181577E+04  0.19870954128E+04  0.12001603961E+04 0.  0.
        3    1    3    3  502    0 -0.45486158613E+03  0.83757280477E+02 -0.14248918810E+04  0.14980758416E+04  0.10100000352E+00 0. -1.
       -3    1    3    3    0  502  0.45486158613E+03 -0.83757280477E+02 -0.15882627674E+03  0.48901957114E+03  0.10100000352E+00 0.  1.
</event>
<event>
 5   0  0.5001586E-04  0.1194467E+04  0.7818609E-02  0.9117713E-01
        1   -1    0    0  501    0  0.00000000000E+00  0.00000000000E+00  0.17772171388E+04  0.17772171388E+04  0.50400001928E-02 0.  1.
       -1   -1    0    0    0  501  0.00000000000E+00  0.00000000000E+00 -0.20070019207E+03  0.20070019213E+03  0.50400001928E-02 0. -1.
    10030    2    1    2    0    0  0.00000000000E+00  0.00000000000E+00  0.15765169467E+04  0.19779173309E+04  0.11944669458E+04 0.  0.
        1    1    3    3  502    0  0.10911195327E+03  0.11336559872E+03  0.17422789008E+04  0.17493692993E+04  0.50400001928E-02 0.  1.
       -1    1    3    3    0  502 -0.10911195327E+03 -0.11336559872E+03 -0.16576195405E+03  0.22854803161E+03  0.50400001928E-02 0. -1.
</event>
<event>
 5   0  0.9410666E-04  0.1193243E+04  0.7818609E-02  0.9118791E-01
       -2   -1    0    0    0  501  0.00000000000E+00  0.00000000000E+00  0.11969661467E+04  0.11969661468E+04  0.25500000920E-02 0.  1.
        2   -1    0    0  501    0  0.00000000000E+00  0.00000000000E+00 -0.29738289757E+03  0.29738289758E+03  0.25500000920E-02 0. -1.
    10030    2    1    2    0    0  0.00000000000E+00  0.00000000000E+00  0.89958324918E+03  0.14943490443E+04  0.11932430784E+04 0.  0.
        2    1    3    3  502    0 -0.39174590661E+03  0.32437353193E+03  0.84038241515E+03  0.98230628995E+03  0.25500000920E-02 0.  1.
       -2    1    3    3    0  502  0.39174590661E+03 -0.32437353193E+03  0.59200834022E+02  0.51204275439E+03  0.25500000920E-02 0. -1.
</event>
<event>
 5   0  0.5052959E-04  0.1201804E+04  0.7818609E-02  0.9111279E-01
        1   -1    0    0  501    0  0.00000000000E+00  0.00000000000E+00  0.52583509709E+03  0.52583509711E+03  0.50400001928E-02 0.  1.
       -1   -1    0    0    0  501  0.00000000000E+00  0.00000000000E+00 -0.68668505418E+03  0.68668505420E+03  0.50400001928E-02 0. -1.
    10030    2    1    2    0    0  0.00000000000E+00  0.00000000000E+00 -0.16084995709E+03  0.12125201513E+04  0.12018038145E+04 0.  0.
        2    1    3    3  502    0 -0.27831586758E+03 -0.48537777692E+03  0.14069082801E+03  0.57692739367E+03  0.25500000920E-02 0.  1.
       -2    1    3    3    0  502  0.27831586758E+03  0.48537777692E+03 -0.30154078510E+03  0.63559275764E+03  0.25500000920E-02 0. -1.
</event>
<event>
 5   0  0.9070772E-04  0.1202473E+04  0.7818609E-02  0.9110694E-01
        2   -1    0    0  501    0  0.00000000000E+00  0.00000000000E+00  0.79993657692E+03  0.79993657692E+03  0.25500000920E-02 0. -1.
       -2   -1    0    0    0  501  0.00000000000E+00  0.00000000000E+00 -0.45189280260E+03  0.45189280261E+03  0.25500000920E-02 0.  1.
    10030    2    1    2    0    0  0.00000000000E+00  0.00000000000E+00  0.34804377432E+03  0.12518293795E+04  0.12024734203E+04 0.  0.
        4    1    3    3  502    0 -0.28234220113E+03 -0.29389043879E+03  0.63420075023E+03  0.75385735590E+03  0.12699999809E+01 0. -1.
       -4    1    3    3    0  502  0.28234220113E+03  0.29389043879E+03 -0.28615697591E+03  0.49797202363E+03  0.12699999809E+01 0.  1.
</event>
<event>
 5   0  0.9070772E-04  0.1201648E+04  0.7818609E-02  0.9111415E-01
       -2   -1    0    0    0  501  0.00000000000E+00  0.00000000000E+00  0.36755429905E+03  0.36755429905E+03  0.25500000920E-02 0.  1.
        2   -1    0    0  501    0  0.00000000000E+00  0.00000000000E+00 -0.98213989297E+03  0.98213989298E+03  0.25500000920E-02 0. -1.
    10030    2    1    2    0    0  0.00000000000E+00  0.00000000000E+00 -0.61458559393E+03  0.13496941920E+04  0.12016484343E+04 0.  0.
        4    1    3    3  502    0 -0.23224638603E+03  0.27283136450E+03  0.23442705242E+03  0.42817402197E+03  0.12699999809E+01 0.  1.
       -4    1    3    3    0  502  0.23224638603E+03 -0.27283136450E+03 -0.84901264634E+03  0.92152017006E+03  0.12699999809E+01 0. -1.
</event>
<event>
 5   0  0.5001586E-04  0.1202067E+04  0.7818609E-02  0.9111050E-01
       -1   -1    0    0    0  501  0.00000000000E+00  0.00000000000E+00  0.23357058221E+03  0.23357058227E+03  0.50400001928E-02 0.  1.
        1   -1    0    0  501    0  0.00000000000E+00  0.00000000000E+00 -0.15466030734E+04  0.15466030734E+04  0.50400001928E-02 0. -1.
    10030    2    1    2    0    0  0.00000000000E+00  0.00000000000E+00 -0.13130324912E+04  0.17801736557E+04  0.12020665212E+04 0.  0.
        1    1    3    3  502    0  0.72601497940E+02  0.43732437076E+03 -0.12575565614E+04  0.13334061976E+04  0.50400001928E-02 0. -1.
       -1    1    3    3    0  502 -0.72601497940E+02 -0.43732437076E+03 -0.55475929818E+02  0.44676745806E+03  0.50400001928E-02 0.  1.
</event>
<event>
 5   0  0.5003507E-04  0.1193451E+04  0.7818609E-02  0.9118608E-01
        1   -1    0    0  501    0  0.00000000000E+00  0.00000000000E+00  0.67475939495E+03  0.67475939496E+03  0.50400001928E-02 0. -1.
       -1   -1    0    0    0  501  0.00000000000E+00  0.00000000000E+00 -0.52771598822E+03  0.52771598824E+03  0.50400001928E-02 0.  1.
    10030    2    1    2    0    0  0.00000000000E+00  0.00000000000E+00  0.14704340673E+03  0.12024753832E+04  0.11934509976E+04 0.  0.
        3    1    3    3  502    0 -0.51504598909E+02 -0.24818735136E+03 -0.47077760156E+03  0.53467863751E+03  0.10100000352E+00 0.  1.
       -3    1    3    3    0  502  0.51504598909E+02  0.24818735136E+03  0.61782100829E+03  0.66779674570E+03  0.10100000352E+00 0. -1.
</event>
<event>
 5   0  0.9050363E-04  0.1211948E+04  0.7818609E-02  0.9102463E-01
       -2   -1    0    0    0  501  0.00000000000E+00  0.00000000000E+00  0.32174310563E+03  0.32174310564E+03  0.25500000920E-02 0.  1.
        2   -1    0    0  501    0  0.00000000000E+00  0.00000000000E+00 -0.11412962871E+04  0.11412962871E+04  0.25500000920E-02 0. -1.
    10030    2    1    2    0    0  0.00000000000E+00  0.00000000000E+00 -0.81955318152E+03  0.14630393928E+04  0.12119475432E+04 0.  0.
        3    1    3    3  502    0  0.17046734404E+02 -0.57497516803E+03 -0.17972344473E+03  0.60265044743E+03  0.10100000352E+00 0.  1.
       -3    1    3    3    0  502 -0.17046734404E+02  0.57497516803E+03 -0.63982973678E+03  0.86038894535E+03  0.10100000352E+00 0. -1.
</event>
<event>
 5   0  0.5157631E-04  0.1190545E+04  0.7818609E-02  0.9121173E-01
        1   -1    0    0  501    0  0.00000000000E+00  0.00000000000E+00  0.67431217700E+03  0.67431217702E+03  0.50400001928E-02 0. -1.
       -1   -1    0    0    0  501  0.00000000000E+00  0.00000000000E+00 -0.52549779978E+03  0.52549779981E+03  0.50400001928E-02 0.  1.
    10030    2    1    2    0    0  0.00000000000E+00  0.00000000000E+00  0.14881437722E+03  0.11998099768E+04  0.11905453631E+04 0.  0.
        5    1    3    3  502    0 -0.15393965329E+03  0.22580422308E+03 -0.45852029510E+03  0.53380512833E+03  0.46999998093E+01 0.  1.
       -5    1    3    3    0  502  0.15393965329E+03 -0.22580422308E+03  0.60733467232E+03  0.66600484850E+03  0.46999998093E+01 0. -1.
</event>
<event>
 5   0  0.5447074E-04  0.1218798E+04  0.7818609E-02  0.9096560E-01
       -1   -1    0    0    0  501  0.00000000000E+00  0.00000000000E+00  0.12147572209E+04  0.12147572209E+04  0.50400001928E-02 0.  1.
        1   -1    0    0  501    0  0.00000000000E+00  0.00000000000E+00 -0.30571326169E+03  0.30571326173E+03  0.50400001928E-02 0. -1.
    10030    2    1    2    0    0  0.00000000000E+00  0.00000000000E+00  0.90904395921E+03  0.15204704826E+04  0.12187984119E+04 0.  0.
        4    1    3    3  502    0 -0.57872763175E+03 -0.13819353457E+03  0.29023471428E+03  0.66201278464E+03  0.12699999809E+01 0.  1.
       -4    1    3    3    0  502  0.57872763175E+03  0.13819353457E+03  0.61880924494E+03  0.85845769801E+03  0.12699999809E+01 0. -1.
</event>
<event>
 5   0  0.9070772E-04  0.1212057E+04  0.7818609E-02  0.9102368E-01
        2   -1    0    0  501    0  0.00000000000E+00  0.00000000000E+00  0.65229217118E+03  0.65229217119E+03  0.25500000920E-02 0.  1.
       -2   -1    0    0    0  501  0.00000000000E+00  0.00000000000E+00 -0.56304588656E+03  0.56304588656E+03  0.25500000920E-02 0. -1.
    10030    2    1    2    0    0  0.00000000000E+00  0.00000000000E+00  0.89246284625E+02  0.12153380577E+04  0.12120568037E+04 0.  0.
        4    1    3    3  502    0  0.85007851638E+02 -0.13894198602E+03  0.62993073051E+03  0.65065009680E+03  0.12699999809E+01 0.  1.
       -4    1    3    3    0  502 -0.85007851638E+02  0.13894198602E+03 -0.54068444589E+03  0.56468796095E+03  0.12699999809E+01 0. -1.
</event>
<event>
 5   0  0.9298693E-04  0.1200576E+04  0.7818609E-02  0.9112353E-01
       -2   -1    0    0    0  501  0.00000000000E+00  0.00000000000E+00  0.19848459732E+03  0.19848459734E+03  0.25500000920E-02 0. -1.
        2   -1    0    0  501    0  0.00000000000E+00  0.00000000000E+00 -0.18154840653E+04  0.18154840653E+04  0.25500000920E-02 0.  1.
    10030    2    1    2    0    0  0.00000000000E+00  0.00000000000E+00 -0.16169994680E+04  0.20139686627E+04  0.12005759013E+04 0.  0.
        1    1    3    3  502    0  0.25876349696E+03  0.24015260802E+03  0.59336976206E+01  0.35308218773E+03  0.50400001928E-02 0. -1.
       -1    1    3    3    0  502 -0.25876349696E+03 -0.24015260802E+03 -0.16229331656E+04  0.16608864750E+04  0.50400001928E-02 0.  1.
</event>
<event>
 5   0  0.5052959E-04  0.1126398E+04  0.7818609E-02  0.9179838E-01
        1   -1    0    0  501    0  0.00000000000E+00  0.00000000000E+00  0.43978999058E+03  0.43978999061E+03  0.50400001928E-02 0. -1.
       -1   -1    0    0    0  501  0.00000000000E+00  0.00000000000E+00 -0.72123780881E+03  0.72123780882E+03  0.50400001928E-02 0.  1.
    10030    2    1    2    0    0  0.00000000000E+00  0.00000000000E+00 -0.28144781822E+03  0.11610277994E+04  0.11263980987E+04 0.  0.
        2    1    3    3  502    0 -0.81193293255E+02  0.26963552099E+02 -0.71450089977E+03  0.71960469689E+03  0.25500000920E-02 0.  1.
       -2    1    3    3    0  502  0.81193293255E+02 -0.26963552099E+02  0.43305308155E+03  0.44142310254E+03  0.25500000920E-02 0. -1.
</event>
<event>
 5   0  0.9410666E-04  0.1195182E+04  0.7818609E-02  0.9117084E-01
        2   -1    0    0  501    0  0.00000000000E+00  0.00000000000E+00  0.84105191390E+03  0.84105191391E+03  0.25500000920E-02 0. -1.
       -2   -1    0    0    0  501  0.00000000000E+00  0.00000000000E+00 -0.42460520959E+03  0.42460520960E+03  0.25500000920E-02 0.  1.
    10030    2    1    2    0    0  0.00000000000E+00  0.00000000000E+00  0.41644670431E+03  0.12656571235E+04  0.11951820350E+04 0.  0.
        2    1    3    3  502    0  0.40830457911E+03  0.28472108367E+03  0.55838146784E+03  0.74804317285E+03  0.25500000920E-02 0. -1.
       -2    1    3    3    0  502 -0.40830457911E+03 -0.28472108367E+03 -0.14193476353E+03  0.51761395066E+03  0.25500000920E-02 0.  1.
</event>
<event>
 5   0  0.9298693E-04  0.1200735E+04  0.7818609E-02  0.9112213E-01
       -2   -1    0    0    0  501  0.00000000000E+00  0.00000000000E+00  0.27316537243E+03  0.27316537244E+03  0.25500000920E-02 0. -1.
        2   -1    0    0  501    0  0.00000000000E+00  0.00000000000E+00 -0.13194989336E+04  0.13194989336E+04  0.25500000920E-02 0.  1.
    10030    2    1    2    0    0  0.00000000000E+00  0.00000000000E+00 -0.10463335612E+04  0.15926643060E+04  0.12007354707E+04 0.  0.
        1    1    3    3  502    0  0.39789013967E+02  0.51088905692E+03 -0.10825219170E+03  0.52374548317E+03  0.50400001928E-02 0. -1.
       -1    1    3    3    0  502 -0.39789013967E+02 -0.51088905692E+03 -0.93808136947E+03  0.10689188229E+04  0.50400001928E-02 0.  1.
</event>
<event>
 5   0  0.9050363E-04  0.1188338E+04  0.7818609E-02  0.9123126E-01
       -2   -1    0    0    0  501  0.00000000000E+00  0.00000000000E+00  0.19667536562E+03  0.19667536564E+03  0.25500000920E-02 0.  1.
        2   -1    0    0  501    0  0.00000000000E+00  0.00000000000E+00 -0.17950242576E+04  0.17950242576E+04  0.25500000920E-02 0. -1.
    10030    2    1    2    0    0  0.00000000000E+00  0.00000000000E+00 -0.15983488920E+04  0.19916996233E+04  0.11883384235E+04 0.  0.
        3    1    3    3  502    0  0.95428697633E+01  0.16422423418E+03 -0.17560969443E+04  0.17637848944E+04  0.10100000352E+00 0. -1.
       -3    1    3    3    0  502 -0.95428697633E+01 -0.16422423418E+03  0.15774805230E+03  0.22791472893E+03  0.10100000352E+00 0.  1.
</event>
<event>
 5   0  0.9410666E-04  0.1199834E+04  0.7818609E-02  0.9113002E-01
        2   -1    0    0  501    0  0.00000000000E+00  0.00000000000E+00  0.61695466616E+03  0.61695466617E+03  0.25500000920E-02 0. -1.
       -2   -1    0    0    0  501  0.00000000000E+00  0.00000000000E+00 -0.58335020688E+03  0.58335020688E+03  0.25500000920E-02 0.  1.
    10030    2    1    2    0    0  0.00000000000E+00  0.00000000000E+00  0.33604459286E+02  0.12003048731E+04  0.11998343755E+04 0.  0.
        2    1    3    3  502    0  0.26382080355E+03  0.89528814508E+02  0.54831444728E+03  0.61503297320E+03  0.25500000920E-02 0. -1.
       -2    1    3    3    0  502 -0.26382080355E+03 -0.89528814508E+02 -0.51470998800E+03  0.58527189986E+03  0.25500000920E-02 0.  1.
</event>
<event>
 5   0  0.5157631E-04  0.1221249E+04  0.7818609E-02  0.9094458E-01
       -1   -1    0    0    0  501  0.00000000000E+00  0.00000000000E+00  0.37327928391E+03  0.37327928394E+03  0.50400001928E-02 0.  1.
        1   -1    0    0  501    0  0.00000000000E+00  0.00000000000E+00 -0.99888363308E+03  0.99888363309E+03  0.50400001928E-02 0. -1.
    10030    2    1    2    0    0  0.00000000000E+00  0.00000000000E+00 -0.62560434917E+03  0.13721629170E+04  0.12212494705E+04 0.  0.
        5    1    3    3  502    0 -0.15654866046E+03  0.47738223895E+03  0.77126529809E+02  0.50830293797E+03  0.46999998093E+01 0.  1.
       -5    1    3    3    0  502  0.15654866046E+03 -0.47738223895E+03 -0.70273087898E+03  0.86385997906E+03  0.46999998093E+01 0. -1.
</event>
<event>
 5   0  0.9070772E-04  0.1166080E+04  0.7818609E-02  0.9143076E-01
       -2   -1    0    0    0  501  0.00000000000E+00  0.00000000000E+00  0.66920687792E+03  0.66920687793E+03  0.25500000920E-02 0.  1.
        2   -1    0    0  501    0  0.00000000000E+00  0.00000000000E+00 -0.50796805214E+03  0.50796805215E+03  0.25500000920E-02 0. -1.
    10030    2    1    2    0    0  0.00000000000E+00  0.00000000000E+00  0.16123882578E+03  0.11771749301E+04  0.11660801246E+04 0.  0.
        4    1    3    3  502    0  0.38964274181E+03 -0.38511021832E+03 -0.12078509064E+03  0.56100088905E+03  0.12699999809E+01 0. -1.
       -4    1    3    3    0  502 -0.38964274181E+03  0.38511021832E+03  0.28202391642E+03  0.61617404102E+03  0.12699999809E+01 0.  1.
</event>
<event>
 5   0  0.5003507E-04  0.1201620E+04  0.7818609E-02  0.9111439E-01
        1   -1    0    0  501    0  0.00000000000E+00  0.00000000000E+00  0.72156474079E+03  0.72156474081E+03  0.50400001928E-02 0. -1.
       -1   -1    0    0    0  501  0.00000000000E+00  0.00000000000E+00 -0.50026394433E+03  0.50026394435E+03  0.50400001928E-02 0.  1.
    10030    2    1    2    0    0  0.00000000000E+00  0.00000000000E+00  0.22130079646E+03  0.12218286852E+04  0.12016202784E+04 0.  0.
        3    1    3    3  502    0  0.34009511647E+03 -0.36325298782E+03 -0.23169473569E+03  0.54890789952E+03  0.10100000352E+00 0.  1.
       -3    1    3    3    0  502 -0.34009511647E+03  0.36325298782E+03  0.45299553215E+03  0.67292078565E+03  0.10100000352E+00 0. -1.
</event>
<event>
 5   0  0.5001586E-04  0.1201447E+04  0.7818609E-02  0.9111591E-01
       -1   -1    0    0    0  501  0.00000000000E+00  0.00000000000E+00  0.71723497784E+03  0.71723497786E+03  0.50400001928E-02 0.  1.
        1   -1    0    0  501    0  0.00000000000E+00  0.00000000000E+00 -0.50313870051E+03  0.50313870054E+03  0.50400001928E-02 0. -1.
    10030    2    1    2    0    0  0.00000000000E+00  0.00000000000E+00  0.21409627733E+03  0.12203736784E+04  0.12014469189E+04 0.  0.
        1    1    3    3  502    0  0.17667233594E+03 -0.41093858431E+03  0.51434500007E+03  0.68164097111E+03  0.50400001928E-02 0.  1.
       -1    1    3    3    0  502 -0.17667233594E+03  0.41093858431E+03 -0.30024872275E+03  0.53873270729E+03  0.50400001928E-02 0. -1.
</event>
<event>
 5   0  0.9050363E-04  0.1190411E+04  0.7818609E-02  0.9121291E-01
       -2   -1    0    0    0  501  0.00000000000E+00  0.00000000000E+00  0.91238994697E+03  0.91238994698E+03  0.25500000920E-02 0. -1.
        2   -1    0    0  501    0  0.00000000000E+00  0.00000000000E+00 -0.38828741024E+03  0.38828741025E+03  0.25500000920E-02 0.  1.
    10030    2    1    2    0    0  0.00000000000E+00  0.00000000000E+00  0.52410253674E+03  0.13006773572E+04  0.11904109033E+04 0.  0.
        3    1    3    3  502    0  0.44876576708E+03  0.13246178548E+03  0.66400311371E+03  0.81230350457E+03  0.10100000352E+00 0. -1.
       -3    1    3    3    0  502 -0.44876576708E+03 -0.13246178548E+03 -0.13990057698E+03  0.48837385265E+03  0.10100000352E+00 0.  1.
</event>
<event>
 5   0  0.3453625E-04  0.1187025E+04  0.7818609E-02  0.9124290E-01
        3   -1    0    0  501    0  0.00000000000E+00  0.00000000000E+00  0.69165712786E+03  0.69165713523E+03  0.10100000352E+00 0. -1.
       -3   -1    0    0    0  501  0.00000000000E+00  0.00000000000E+00 -0.50929455031E+03  0.50929456033E+03  0.10100000352E+00 0.  1.
    10030    2    1    2    0    0  0.00000000000E+00  0.00000000000E+00  0.18236257755E+03  0.12009516956E+04  0.11870252168E+04 0.  0.
        4    1    3    3  502    0  0.13342360671E+02 -0.48548535191E+03  0.43633112993E+03  0.65288629435E+03  0.12699999809E+01 0. -1.
       -4    1    3    3    0  502 -0.13342360671E+02  0.48548535191E+03 -0.25396855238E+03  0.54806540121E+03  0.12699999809E+01 0.  1.
</event>
<event>
 5   0  0.5003507E-04  0.1246663E+04  0.7818609E-02  0.9072965E-01
        1   -1    0    0  501    0  0.00000000000E+00  0.00000000000E+00  0.83420593801E+03  0.83420593803E+03  0.50400001928E-02 0. -1.
       -1   -1    0    0    0  501  0.00000000000E+00  0.00000000000E+00 -0.46576322816E+03  0.46576322819E+03  0.50400001928E-02 0.  1.
    10030    2    1    2    0    0  0.00000000000E+00  0.00000000000E+00  0.36844270985E+03  0.12999691662E+04  0.12466634681E+04 0.  0.
        3    1    3    3  502    0 -0.26556875988E+03 -0.19104723291E+03  0.73748972800E+03  0.80679422440E+03  0.10100000352E+00 0. -1.
       -3    1    3    3    0  502  0.26556875988E+03  0.19104723291E+03 -0.36904701815E+03  0.49317494181E+03  0.10100000352E+00 0.  1.
</event>
<event>
 5   0  0.5447074E-04  0.1200139E+04  0.7818609E-02  0.9112735E-01
       -1   -1    0    0    0  501  0.00000000000E+00  0.00000000000E+00  0.57102704449E+03  0.57102704451E+03  0.50400001928E-02 0. -1.
        1   -1    0    0  501    0  0.00000000000E+00  0.00000000000E+00 -0.63058947129E+03  0.63058947131E+03  0.50400001928E-02 0.  1.
    10030    2    1    2    0    0  0.00000000000E+00  0.00000000000E+00 -0.59562426796E+02  0.12016165158E+04  0.12001393954E+04 0.  0.
        4    1    3    3  502    0 -0.45565603252E+03  0.28094734466E+03 -0.30127579124E+03  0.61426585915E+03  0.12699999809E+01 0.  1.
       -4    1    3    3    0  502  0.45565603252E+03 -0.28094734466E+03  0.24171336444E+03  0.58735065667E+03  0.12699999809E+01 0. -1.
</event>
<event>
 5   0  0.5157631E-04  0.1206133E+04  0.7818609E-02  0.9107506E-01
        1   -1    0    0  501    0  0.00000000000E+00  0.00000000000E+00  0.16159705609E+04  0.16159705609E+04  0.50400001928E-02 0.  1.
       -1   -1    0    0    0  501  0.00000000000E+00  0.00000000000E+00 -0.22505914509E+03  0.22505914514E+03  0.50400001928E-02 0. -1.
    10030    2    1    2    0    0  0.00000000000E+00  0.00000000000E+00  0.13909114158E+04  0.18410297060E+04  0.12061325847E+04 0.  0.
        5    1    3    3  502    0  0.53414046938E+03  0.27374121591E+03  0.60610552096E+03  0.85301013291E+03  0.46999998093E+01 0. -1.
       -5    1    3    3    0  502 -0.53414046938E+03 -0.27374121591E+03  0.78480589484E+03  0.98801957313E+03  0.46999998093E+01 0.  1.
</event>
<event>
 5   0  0.5447074E-04  0.1200813E+04  0.7818609E-02  0.9112145E-01
        1   -1    0    0  501    0  0.00000000000E+00  0.00000000000E+00  0.11100543794E+04  0.11100543794E+04  0.50400001928E-02 0.  1.
       -1   -1    0    0    0  501  0.00000000000E+00  0.00000000000E+00 -0.32474824582E+03  0.32474824586E+03  0.50400001928E-02 0. -1.
    10030    2    1    2    0    0  0.00000000000E+00  0.00000000000E+00  0.78530613358E+03  0.14348026253E+04  0.12008134118E+04 0.  0.
        4    1    3    3  502    0  0.36907254315E+03  0.68597938883E+02  0.95253899697E+03  0.10238419668E+04  0.12699999809E+01 0.  1.
       -4    1    3    3    0  502 -0.36907254315E+03 -0.68597938883E+02 -0.16723286338E+03  0.41096065848E+03  0.12699999809E+01 0. -1.
</event>
<event>
 5   0  0.9050363E-04  0.1204268E+04  0.7818609E-02  0.9109129E-01
       -2   -1    0    0    0  501  0.00000000000E+00  0.00000000000E+00  0.15556719188E+04  0.15556719188E+04  0.25500000920E-02 0.  1.
        2   -1    0    0  501    0  0.00000000000E+00  0.00000000000E+00 -0.23306011047E+03  0.23306011049E+03  0.25500000920E-02 0. -1.
    10030    2    1    2    0    0  0.00000000000E+00  0.00000000000E+00  0.13226118083E+04  0.17887320293E+04  0.12042675272E+04 0.  0.
        3    1    3    3  502    0  0.43439968457E+03 -0.25639426905E+03  0.11497144599E+04  0.12555016753E+04  0.10100000352E+00 0.  1.
       -3    1    3    3    0  502 -0.43439968457E+03  0.25639426905E+03  0.17289734846E+03  0.53323035403E+03  0.10100000352E+00 0. -1.
</event>
<event>
 5   0  0.5001586E-04  0.1181943E+04  0.7818609E-02  0.9128810E-01
        1   -1    0    0  501    0  0.00000000000E+00  0.00000000000E+00  0.62103363098E+03  0.62103363100E+03  0.50400001928E-02 0.  1.
       -1   -1    0    0    0  501  0.00000000000E+00  0.00000000000E+00 -0.56236478624E+03  0.56236478626E+03  0.50400001928E-02 0. -1.
    10030    2    1    2    0    0  0.00000000000E+00  0.00000000000E+00  0.58668844747E+02  0.11833984173E+04  0.11819432223E+04 0.  0.
        1    1    3    3  502    0  0.39100985725E+03  0.42073465317E+03  0.16857788779E+03  0.59860242325E+03  0.50400001928E-02 0.  1.
       -1    1    3    3    0  502 -0.39100985725E+03 -0.42073465317E+03 -0.10990904305E+03  0.58479599401E+03  0.50400001928E-02 0. -1.
</event>
<event>
 5   0  0.9050363E-04  0.1198491E+04  0.7818609E-02  0.9114178E-01
        2   -1    0    0  501    0  0.00000000000E+00  0.00000000000E+00  0.15493287581E+04  0.15493287582E+04  0.25500000920E-02 0. -1.
       -2   -1    0    0    0  501  0.00000000000E+00  0.00000000000E+00 -0.23177467010E+03  0.23177467012E+03  0.25500000920E-02 0.  1.
    10030    2    1    2    0    0  0.00000000000E+00  0.00000000000E+00  0.13175540880E+04  0.17811034283E+04  0.11984909876E+04 0.  0.
        3    1    3    3  502    0  0.38314865680E+03 -0.45066483743E+03  0.80127017408E+03  0.99595963321E+03  0.10100000352E+00 0. -1.
       -3    1    3    3    0  502 -0.38314865680E+03  0.45066483743E+03  0.51628391396E+03  0.78514379506E+03  0.10100000352E+00 0.  1.
</event>
<event>
 5   0  0.9070772E-04  0.1199124E+04  0.7818609E-02  0.9113624E-01
       -2   -1    0    0    0  501  0.00000000000E+00  0.00000000000E+00  0.22405116261E+03  0.22405116263E+03  0.25500000920E-02 0. -1.
        2   -1    0    0  501    0  0.00000000000E+00  0.00000000000E+00 -0.16044295907E+04  0.16044295907E+04  0.25500000920E-02 0.  1.
    10030    2    1    2    0    0  0.00000000000E+00  0.00000000000E+00 -0.13803784281E+04  0.18284807534E+04  0.11991235385E+04 0.  0.
        4    1    3    3  502    0 -0.19429325969E+03 -0.16614635957E+03 -0.15171547845E+04  0.15385430564E+04  0.12699999809E+01 0.  1.
       -4    1    3    3    0  502  0.19429325969E+03  0.16614635957E+03  0.13677635633E+03  0.28993769695E+03  0.12699999809E+01 0. -1.
</event>
<event>
 5   0  0.5447074E-04  0.1199298E+04  0.7818609E-02  0.9113471E-01
       -1   -1    0    0    0  501  0.00000000000E+00  0.00000000000E+00  0.34467934215E+03  0.34467934218E+03  0.50400001928E-02 0. -1.
        1   -1    0    0  501    0  0.00000000000E+00  0.00000000000E+00 -0.10432273340E+04  0.10432273341E+04  0.50400001928E-02 0.  1.
    10030    2    1    2    0    0  0.00000000000E+00  0.00000000000E+00 -0.69854799190E+03  0.13879066762E+04  0.11992979801E+04 0.  0.
        4    1    3    3  502    0  0.99702500473E+02  0.11558294796E+03 -0.10203657976E+04  0.10317208829E+04  0.12699999809E+01 0.  1.
       -4    1    3    3    0  502 -0.99702500473E+02 -0.11558294796E+03  0.32181780565E+03  0.35618579336E+03  0.12699999809E+01 0. -1.
</event>
<event>
 5   0  0.5001586E-04  0.1203316E+04  0.7818609E-02  0.9109959E-01
       -1   -1    0    0    0  501  0.00000000000E+00  0.00000000000E+00  0.25299460763E+03  0.25299460768E+03  0.50400001928E-02 0. -1.
        1   -1    0    0  501    0  0.00000000000E+00  0.00000000000E+00 -0.14308301636E+04  0.14308301636E+04  0.50400001928E-02 0.  1.
    10030    2    1    2    0    0  0.00000000000E+00  0.00000000000E+00 -0.11778355559E+04  0.16838247713E+04  0.12033159450E+04 0.  0.
        1    1    3    3  502    0  0.52786455824E+03 -0.16247243694E+02 -0.99227020957E+03  0.11240574423E+04  0.50400001928E-02 0.  1.
       -1    1    3    3    0  502 -0.52786455824E+03  0.16247243694E+02 -0.18556534637E+03  0.55976732896E+03  0.50400001928E-02 0. -1.
</event>
<event>
 5   0  0.9410666E-04  0.1228773E+04  0.7818609E-02  0.9088038E-01
       -2   -1    0    0    0  501  0.00000000000E+00  0.00000000000E+00  0.76816064424E+03  0.76816064425E+03  0.25500000920E-02 0.  1.
        2   -1    0    0  501    0  0.00000000000E+00  0.00000000000E+00 -0.49139531998E+03  0.49139531999E+03  0.25500000920E-02 0. -1.
    10030    2    1    2    0    0  0.00000000000E+00  0.00000000000E+00  0.27676532427E+03  0.12595559642E+04  0.12287726325E+04 0.  0.
        2    1    3    3  502    0  0.30877791985E+03 -0.10426308127E+02  0.68274037273E+03  0.74939103828E+03  0.25500000920E-02 0.  1.
       -2    1    3    3    0  502 -0.30877791985E+03  0.10426308127E+02 -0.40597504847E+03  0.51016492595E+03  0.25500000920E-02 0. -1.
</event>
<event>
 5   0  0.9050363E-04  0.1201296E+04  0.7818609E-02  0.9111723E-01
       -2   -1    0    0    0  501  0.00000000000E+00  0.00000000000E+00  0.19601305750E+03  0.19601305752E+03  0.25500000920E-02 0. -1.
        2   -1    0    0  501    0  0.00000000000E+00  0.00000000000E+00 -0.18405821864E+04  0.18405821864E+04  0.25500000920E-02 0.  1.
    10030    2    1    2    0    0  0.00000000000E+00  0.00000000000E+00 -0.16445691289E+04  0.20365952440E+04  0.12012962032E+04 0.  0.
        3    1    3    3  502    0 -0.54173304213E+03  0.72978425903E+02 -0.40022672566E+03  0.67748208959E+03  0.10100000352E+00 0. -1.
       -3    1    3    3    0  502  0.54173304213E+03 -0.72978425903E+02 -0.12443424033E+04  0.13591131544E+04  0.10100000352E+00 0.  1.
</event>
<event>
 5   0  0.5447074E-04  0.1204683E+04  0.7818609E-02  0.9108767E-01
        1   -1    0    0  501    0  0.00000000000E+00  0.00000000000E+00  0.79723195879E+03  0.79723195880E+03  0.50400001928E-02 0.  1.
       -1   -1    0    0    0  501  0.00000000000E+00  0.00000000000E+00 -0.45509391614E+03  0.45509391617E+03  0.50400001928E-02 0. -1.
    10030    2    1    2    0    0  0.00000000000E+00  0.00000000000E+00  0.34213804264E+03  0.12523258750E+04  0.12046832185E+04 0.  0.
        4    1    3    3  502    0  0.58354374403E+03 -0.12686585606E+03  0.89244289386E+02  0.60380824996E+03  0.12699999809E+01 0. -1.
       -4    1    3    3    0  502 -0.58354374403E+03  0.12686585606E+03  0.25289375326E+03  0.64851762502E+03  0.12699999809E+01 0.  1.
</event>
<event>
 5   0  0.5052959E-04  0.1190286E+04  0.7818609E-02  0.9121402E-01
       -1   -1    0    0    0  501  0.00000000000E+00  0.00000000000E+00  0.11539935407E+04  0.11539935407E+04  0.50400001928E-02 0.  1.
        1   -1    0    0  501    0  0.00000000000E+00  0.00000000000E+00 -0.30692992254E+03  0.30692992259E+03  0.50400001928E-02 0. -1.
    10030    2    1    2    0    0  0.00000000000E+00  0.00000000000E+00  0.84706361817E+03  0.14609234633E+04  0.11902859289E+04 0.  0.
        2    1    3    3  502    0 -0.23227185254E+03 -0.12346383587E+01 -0.24900011857E+03  0.34051842369E+03  0.25500000920E-02 0. -1.
       -2    1    3    3    0  502  0.23227185254E+03  0.12346383587E+01  0.10960637367E+04  0.11204050396E+04  0.25500000920E-02 0.  1.
</event>
<event>
 5   0  0.5001586E-04  0.1197184E+04  0.7818609E-02  0.9115325E-01
       -1   -1    0    0    0  501  0.00000000000E+00  0.00000000000E+00  0.25601470929E+03  0.25601470934E+03  0.50400001928E-02 0.  1.
        1   -1    0    0  501    0  0.00000000000E+00  0.00000000000E+00 -0.13995783305E+04  0.13995783305E+04  0.50400001928E-02 0. -1.
    10030    2    1    2    0    0  0.00000000000E+00  0.00000000000E+00 -0.11435636212E+04  0.16555930398E+04  0.11971844293E+04 0.  0.
        1    1    3    3  502    0  0.23035371940E+03  0.18364866463E+03 -0.12923844044E+04  0.13255365392E+04  0.50400001928E-02 0. -1.
       -1    1    3    3    0  502 -0.23035371940E+03 -0.18364866463E+03  0.14882078320E+03  0.33005650062E+03  0.50400001928E-02 0.  1.
</event>
<event>
 5   0  0.9410666E-04  0.1201708E+04  0.7818609E-02  0.9111363E-01
        2   -1    0    0  501    0  0.00000000000E+00  0.00000000000E+00  0.88349913813E+03  0.88349913813E+03  0.25500000920E-02 0.  1.
       -2   -1    0    0    0  501  0.00000000000E+00  0.00000000000E+00 -0.40863148347E+03  0.40863148348E+03  0.25500000920E-02 0. -1.
    10030    2    1    2    0    0  0.00000000000E+00  0.00000000000E+00  0.47486765466E+03  0.12921306216E+04  0.12017080568E+04 0.  0.
        2    1    3    3  502    0 -0.19735009783E+03 -0.18899569689E+03  0.81282469165E+03  0.85752575117E+03  0.25500000920E-02 0.  1.
       -2    1    3    3    0  502  0.19735009783E+03  0.18899569689E+03 -0.33795703699E+03  0.43460487045E+03  0.25500000920E-02 0. -1.
</event>
<event>
 5   0  0.5157631E-04  0.1200427E+04  0.7818609E-02  0.9112483E-01
        1   -1    0    0  501    0  0.00000000000E+00  0.00000000000E+00  0.53011091398E+03  0.53011091400E+03  0.50400001928E-02 0. -1.
       -1   -1    0    0    0  501  0.00000000000E+00  0.00000000000E+00 -0.67958695300E+03  0.67958695302E+03  0.50400001928E-02 0.  1.
    10030    2    1    2    0    0  0.00000000000E+00  0.00000000000E+00 -0.14947603902E+03  0.12096978670E+04  0.12004273586E+04 0.  0.
        5    1    3    3  502    0 -0.37839243605E+03  0.46553985762E+03 -0.56538198736E+02  0.60260007684E+03  0.46999998093E+01 0. -1.
       -5    1    3    3    0  502  0.37839243605E+03 -0.46553985762E+03 -0.92937840283E+02  0.60709779018E+03  0.46999998093E+01 0.  1.
</event>
<event>
 5   0  0.5003507E-04  0.1210151E+04  0.7818609E-02  0.9104018E-01
       -1   -1    0    0    0  501  0.00000000000E+00  0.00000000000E+00  0.21479419700E+03  0.21479419706E+03  0.50400001928E-02 0.  1.
        1   -1    0    0  501    0  0.00000000000E+00  0.00000000000E+00 -0.17044976225E+04  0.17044976225E+04  0.50400001928E-02 0. -1.
    10030    2    1    2    0    0  0.00000000000E+00  0.00000000000E+00 -0.14897034255E+04  0.19192918196E+04  0.12101507314E+04 0.  0.
        3    1    3    3  502    0 -0.90880652189E+01 -0.16742197687E+03 -0.16669179678E+04  0.16753292908E+04  0.10100000352E+00 0. -1.
       -3    1    3    3    0  502  0.90880652189E+01  0.16742197687E+03  0.17721454223E+03  0.24396252877E+03  0.10100000352E+00 0.  1.
</event>
<event>
 5   0  0.9050363E-04  0.1197323E+04  0.7818609E-02  0.9115203E-01
        2   -1    0    0  501    0  0.00000000000E+00  0.00000000000E+00  0.96145760244E+03  0.96145760244E+03  0.25500000920E-02 0.  1.
       -2   -1    0    0    0  501  0.00000000000E+00  0.00000000000E+00 -0.37276290818E+03  0.37276290818E+03  0.25500000920E-02 0. -1.
    10030    2    1    2    0    0  0.00000000000E+00  0.00000000000E+00  0.58869469427E+03  0.13342205106E+04  0.11973232345E+04 0.  0.
        3    1    3    3  502    0  0.18139414821E+03  0.20444129861E+02 -0.34099421743E+03  0.38678012613E+03  0.10100000352E+00 0. -1.
       -3    1    3    3    0  502 -0.18139414821E+03 -0.20444129861E+02  0.92968891169E+03  0.94744038450E+03  0.10100000352E+00 0.  1.
</event>
<event>
 5   0  0.9050363E-04  0.1156020E+04  0.7818609E-02  0.9152248E-01
       -2   -1    0    0    0  501  0.00000000000E+00  0.00000000000E+00  0.53929853080E+03  0.53929853081E+03  0.25500000920E-02 0. -1.
        2   -1    0    0  501    0  0.00000000000E+00  0.00000000000E+00 -0.61949987516E+03  0.61949987517E+03  0.25500000920E-02 0.  1.
    10030    2    1    2    0    0  0.00000000000E+00  0.00000000000E+00 -0.80201344362E+02  0.11587984060E+04  0.11560196755E+04 0.  0.
        3    1    3    3  502    0  0.42157541142E+03 -0.24260358674E+03  0.27292070583E+03  0.55773474850E+03  0.10100000352E+00 0. -1.
       -3    1    3    3    0  502 -0.42157541142E+03  0.24260358674E+03 -0.35312205019E+03  0.60106365748E+03  0.10100000352E+00 0.  1.
</event>
<event>
 5   0  0.5001586E-04  0.1199226E+04  0.7818609E-02  0.9113534E-01
       -1   -1    0    0    0  501  0.00000000000E+00  0.00000000000E+00  0.56199340289E+03  0.56199340291E+03  0.50400001928E-02 0. -1.
        1   -1    0    0  501    0  0.00000000000E+00  0.00000000000E+00 -0.63975112094E+03  0.63975112096E+03  0.50400001928E-02 0.  1.
    10030    2    1    2    0    0  0.00000000000E+00  0.00000000000E+00 -0.77757718055E+02  0.12017445239E+04  0.11992262664E+04 0.  0.
        1    1    3    3  502    0  0.24110261492E+03 -0.29396782370E+03 -0.50352088693E+03  0.63093647532E+03  0.50400001928E-02 0.  1.
       -1    1    3    3    0  502 -0.24110261492E+03  0.29396782370E+03  0.42576316887E+03  0.57080804855E+03  0.50400001928E-02 0. -1.
</event>
<event>
 5   0  0.9298693E-04  0.1199258E+04  0.7818609E-02  0.9113506E-01
        2   -1    0    0  501    0  0.00000000000E+00  0.00000000000E+00  0.40356175208E+03  0.40356175209E+03  0.25500000920E-02 0.  1.
       -2   -1    0    0    0  501  0.00000000000E+00  0.00000000000E+00 -0.89095388499E+03  0.89095388500E+03  0.25500000920E-02 0. -1.
    10030    2    1    2    0    0  0.00000000000E+00  0.00000000000E+00 -0.48739213291E+03  0.12945156371E+04  0.11992579553E+04 0.  0.
        1    1    3    3  502    0  0.52344532354E+03  0.29222872346E+03 -0.22994540609E+03  0.64208062061E+03  0.50400001928E-02 0. -1.
       -1    1    3    3    0  502 -0.52344532354E+03 -0.29222872346E+03 -0.25744672682E+03  0.65243501648E+03  0.50400001928E-02 0.  1.
</event>
<event>
 5   0  0.5052959E-04  0.1169574E+04  0.7818609E-02  0.9139913E-01
        1   -1    0    0  501    0  0.00000000000E+00  0.00000000000E+00  0.77101114658E+03  0.77101114659E+03  0.50400001928E-02 0.  1.
       -1   -1    0    0    0  501  0.00000000000E+00  0.00000000000E+00 -0.44354217158E+03  0.44354217161E+03  0.50400001928E-02 0. -1.
    10030    2    1    2    0    0  0.00000000000E+00  0.00000000000E+00  0.32746897499E+03  0.12145533182E+04  0.11695742102E+04 0.  0.
        2    1    3    3  502    0  0.44265057933E+03 -0.20262625684E+03  0.50019961948E+03  0.69799469531E+03  0.25500000920E-02 0.  1.
       -2    1    3    3    0  502 -0.44265057933E+03  0.20262625684E+03 -0.17273064448E+03  0.51655862290E+03  0.25500000920E-02 0. -1.
</event>
<event>
 5   0  0.5001586E-04  0.1199457E+04  0.7818609E-02  0.9113332E-01
       -1   -1    0    0    0  501  0.00000000000E+00  0.00000000000E+00  0.80372858783E+03  0.80372858785E+03  0.50400001928E-02 0.  1.
        1   -1    0    0  501    0  0.00000000000E+00  0.00000000000E+00 -0.44750697827E+03  0.44750697830E+03  0.50400001928E-02 0. -1.
    10030    2    1    2    0    0  0.00000000000E+00  0.00000000000E+00  0.35622160957E+03  0.12512355661E+04  0.11994567966E+04 0.  0.
        1    1    3    3  502    0  0.38426767977E+03  0.90069463458E+02 -0.29293493159E+03  0.49151300302E+03  0.50400001928E-02 0. -1.
       -1    1    3    3    0  502 -0.38426767977E+03 -0.90069463458E+02  0.64915654116E+03  0.75972256312E+03  0.50400001928E-02 0.  1.
</event>
<event>
 5   0  0.3453625E-04  0.1192356E+04  0.7818609E-02  0.9119574E-01
       -4   -1    0    0    0  501  0.00000000000E+00  0.00000000000E+00  0.10398106116E+04  0.10398113872E+04  0.12699999809E+01 0. -1.
        4   -1    0    0  501    0  0.00000000000E+00  0.00000000000E+00 -0.34181790238E+03  0.34182026167E+03  0.12699999809E+01 0.  1.
    10030    2    1    2    0    0  0.00000000000E+00  0.00000000000E+00  0.69799270920E+03  0.13816316488E+04  0.11923557317E+04 0.  0.
        3    1    3    3  502    0 -0.41652061306E+03  0.38118194822E+03  0.57079448056E+03  0.80286701762E+03  0.10100000352E+00 0. -1.
       -3    1    3    3    0  502  0.41652061306E+03 -0.38118194822E+03  0.12719822864E+03  0.57876463120E+03  0.10100000352E+00 0.  1.
</event>
<event>
 5   0  0.9050363E-04  0.1203764E+04  0.7818609E-02  0.9109569E-01
        2   -1    0    0  501    0  0.00000000000E+00  0.00000000000E+00  0.82437631960E+03  0.82437631960E+03  0.25500000920E-02 0.  1.
       -2   -1    0    0    0  501  0.00000000000E+00  0.00000000000E+00 -0.43943736835E+03  0.43943736836E+03  0.25500000920E-02 0. -1.
    10030    2    1    2    0    0  0.00000000000E+00  0.00000000000E+00  0.38493895125E+03  0.12638136880E+04  0.12037636984E+04 0.  0.
        3    1    3    3  502    0 -0.34475448271E+03  0.13394332977E+03  0.69098840115E+03  0.78374833311E+03  0.10100000352E+00 0.  1.
       -3    1    3    3    0  502  0.34475448271E+03 -0.13394332977E+03 -0.30604944990E+03  0.48006535485E+03  0.10100000352E+00 0. -1.
</event>
<event>
 5   0  0.5052959E-04  0.1199479E+04  0.7818609E-02  0.9113312E-01
       -1   -1    0    0    0  501  0.00000000000E+00  0.00000000000E+00  0.18625938786E+04  0.18625938786E+04  0.50400001928E-02 0. -1.
        1   -1    0    0  501    0  0.00000000000E+00  0.00000000000E+00 -0.19311120984E+03  0.19311120990E+03  0.50400001928E-02 0.  1.
    10030    2    1    2    0    0  0.00000000000E+00  0.00000000000E+00  0.16694826687E+04  0.20557050885E+04  0.11994794828E+04 0.  0.
        2    1    3    3  502    0 -0.34374719981E+03  0.48470456842E+03  0.97383750075E+03  0.11408155565E+04  0.25500000920E-02 0. -1.
       -2    1    3    3    0  502  0.34374719981E+03 -0.48470456842E+03  0.69564516798E+03  0.91488953200E+03  0.25500000920E-02 0.  1.
</event>
<event>
 5   0  0.5052959E-04  0.1202258E+04  0.7818609E-02  0.9110883E-01
       -1   -1    0    0    0  501  0.00000000000E+00  0.00000000000E+00  0.16076050497E+03  0.16076050505E+03  0.50400001928E-02 0.  1.
        1   -1    0    0  501    0  0.00000000000E+00  0.00000000000E+00 -0.22477895221E+04  0.22477895221E+04  0.50400001928E-02 0. -1.
    10030    2    1    2    0    0  0.00000000000E+00  0.00000000000E+00 -0.20870290171E+04  0.24085500271E+04  0.12022575078E+04 0.  0.
        2    1    3    3  502    0  0.30434898511E+03  0.18527286557E+03 -0.73589157844E+02  0.36382647459E+03  0.25500000920E-02 0.  1.
       -2    1    3    3    0  502 -0.30434898511E+03 -0.18527286557E+03 -0.20134398592E+04  0.20447235525E+04  0.25500000920E-02 0. -1.
</event>
<event>
 5   0  0.9410666E-04  0.1198032E+04  0.7818609E-02  0.9114581E-01
        2   -1    0    0  501    0  0.00000000000E+00  0.00000000000E+00  0.59489947634E+03  0.59489947635E+03  0.25500000920E-02 0. -1.
       -2   -1    0    0    0  501  0.00000000000E+00  0.00000000000E+00 -0.60316100588E+03  0.60316100588E+03  0.25500000920E-02 0.  1.
    10030    2    1    2    0    0  0.00000000000E+00  0.00000000000E+00 -0.82615295350E+01  0.11980604822E+04  0.11980319972E+04 0.  0.
        2    1    3    3  502    0  0.26232651885E+03  0.36676018365E+03 -0.39846479317E+03  0.60174947129E+03  0.25500000920E-02 0.  1.
       -2    1    3    3    0  502 -0.26232651885E+03 -0.36676018365E+03  0.39020326363E+03  0.59631101093E+03  0.25500000920E-02 0. -1.
</event>
<event>
 5   0  0.3453625E-04  0.1204006E+04  0.7818609E-02  0.9109357E-01
       -3   -1    0    0    0  501  0.00000000000E+00  0.00000000000E+00  0.48913482337E+03  0.48913483380E+03  0.10100000352E+00 0.  1.
        3   -1    0    0  501    0  0.00000000000E+00  0.00000000000E+00 -0.74091556526E+03  0.74091557215E+03  0.10100000352E+00 0. -1.
    10030    2    1    2    0    0  0.00000000000E+00  0.00000000000E+00 -0.25178074189E+03  0.12300504059E+04  0.12040060046E+04 0.  0.
        5    1    3    3  502    0  0.52698704982E+03 -0.21203245978E+03 -0.32948080967E+03  0.65669841527E+03  0.46999998093E+01 0.  1.
       -5    1    3    3    0  502 -0.52698704982E+03  0.21203245978E+03  0.77700067777E+02  0.57335199068E+03  0.46999998093E+01 0. -1.
</event>
<event>
 5   0  0.5003507E-04  0.1194037E+04  0.7818609E-02  0.9118092E-01
       -1   -1    0    0    0  501  0.00000000000E+00  0.00000000000E+00  0.24908967586E+03  0.24908967591E+03  0.50400001928E-02 0.  1.
        1   -1    0    0  501    0  0.00000000000E+00  0.00000000000E+00 -0.14309355057E+04  0.14309355057E+04  0.50400001928E-02 0. -1.
    10030    2    1    2    0    0  0.00000000000E+00  0.00000000000E+00 -0.11818458298E+04  0.16800251816E+04  0.11940372881E+04 0.  0.
        3    1    3    3  502    0 -0.28480599774E+03  0.76376237478E+02  0.13948246510E+03  0.32619496359E+03  0.10100000352E+00 0.  1.
       -3    1    3    3    0  502  0.28480599774E+03 -0.76376237478E+02 -0.13213282949E+04  0.13538302180E+04  0.10100000352E+00 0. -1.
</event>
<event>
 5   0  0.9145224E-04  0.1200273E+04  0.7818609E-02  0.9112618E-01
       -2   -1    0    0    0  501  0.00000000000E+00  0.00000000000E+00  0.19151196881E+03  0.19151196883E+03  0.25500000920E-02 0.  1.
        2   -1    0    0  501    0  0.00000000000E+00  0.00000000000E+00 -0.18806323465E+04  0.18806323465E+04  0.25500000920E-02 0. -1.
    10030    2    1    2    0    0  0.00000000000E+00  0.00000000000E+00 -0.16891203777E+04  0.20721443153E+04  0.12002726412E+04 0.  0.
        5    1    3    3  502    0  0.49030766898E+03 -0.91883285389E+02 -0.26861317248E+03  0.56658562885E+03  0.46999998093E+01 0.  1.
       -5    1    3    3    0  502 -0.49030766898E+03  0.91883285389E+02 -0.14205072052E+04  0.15055586865E+04  0.46999998093E+01 0. -1.
</event>
<event>
 5   0  0.5003507E-04  0.1206391E+04  0.7818609E-02  0.9107281E-01
       -1   -1    0    0    0  501  0.00000000000E+00  0.00000000000E+00  0.44990847382E+03  0.44990847384E+03  0.50400001928E-02 0. -1.
        1   -1    0    0  501    0  0.00000000000E+00  0.00000000000E+00 -0.80870786172E+03  0.80870786174E+03  0.50400001928E-02 0.  1.
    10030    2    1    2    0    0  0.00000000000E+00  0.00000000000E+00 -0.35879938791E+03  0.12586163356E+04  0.12063905170E+04 0.  0.
        3    1    3    3  502    0 -0.23841462448E+03 -0.25765282157E+03 -0.69116342716E+03  0.77519894406E+03  0.10100000352E+00 0.  1.
       -3    1    3    3    0  502  0.23841462448E+03  0.25765282157E+03  0.33236403926E+03  0.48341739152E+03  0.10100000352E+00 0. -1.
</event>
<event>
 5   0  0.9410666E-04  0.1203828E+04  0.7818609E-02  0.9109512E-01
        2   -1    0    0  501    0  0.00000000000E+00  0.00000000000E+00  0.16835751956E+04  0.16835751956E+04  0.25500000920E-02 0. -1.
       -2   -1    0    0    0  501  0.00000000000E+00  0.00000000000E+00 -0.21519714382E+03  0.21519714383E+03  0.25500000920E-02 0.  1.
    10030    2    1    2    0    0  0.00000000000E+00  0.00000000000E+00  0.14683780518E+04  0.18987723394E+04  0.12038281829E+04 0.  0.
        2    1    3    3  502    0  0.16383224377E+03  0.21293788867E+03 -0.11537281577E+03  0.29239431450E+03  0.25500000920E-02 0.  1.
       -2    1    3    3    0  502 -0.16383224377E+03 -0.21293788867E+03  0.15837508675E+04  0.16063780249E+04  0.25500000920E-02 0. -1.
</event>
<event>
 5   0  0.9070772E-04  0.1191100E+04  0.7818609E-02  0.9120682E-01
        2   -1    0    0  501    0  0.00000000000E+00  0.00000000000E+00  0.81561562982E+03  0.81561562982E+03  0.25500000920E-02 0. -1.
       -2   -1    0    0    0  501  0.00000000000E+00  0.00000000000E+00 -0.43486182201E+03  0.43486182201E+03  0.25500000920E-02 0.  1.
    10030    2    1    2    0    0  0.00000000000E+00  0.00000000000E+00  0.38075380781E+03  0.12504774518E+04  0.11911004976E+04 0.  0.
        4    1    3    3  502    0 -0.15352049143E+03  0.19204779184E+02  0.79414694009E+03  0.80907869839E+03  0.12699999809E+01 0. -1.
       -4    1    3    3    0  502  0.15352049143E+03 -0.19204779184E+02 -0.41339313228E+03  0.44139875345E+03  0.12699999809E+01 0.  1.
</event>
<event>
 5   0  0.5001586E-04  0.1185926E+04  0.7818609E-02  0.9125265E-01
        1   -1    0    0  501    0  0.00000000000E+00  0.00000000000E+00  0.44914119491E+03  0.44914119493E+03  0.50400001928E-02 0.  1.
       -1   -1    0    0    0  501  0.00000000000E+00  0.00000000000E+00 -0.78283929055E+03  0.78283929056E+03  0.50400001928E-02 0. -1.
    10030    2    1    2    0    0  0.00000000000E+00  0.00000000000E+00 -0.33369809564E+03  0.12319804855E+04  0.11859264301E+04 0.  0.
        1    1    3    3  502    0 -0.31750769559E+03  0.50041801753E+03 -0.18699399781E+03  0.62144676704E+03  0.50400001928E-02 0. -1.
       -1    1    3    3    0  502  0.31750769559E+03 -0.50041801753E+03 -0.14670409783E+03  0.61053371845E+03  0.50400001928E-02 0.  1.
</event>
<event>
 5   0  0.9050363E-04  0.1207840E+04  0.7818609E-02  0.9106022E-01
       -2   -1    0    0    0  501  0.00000000000E+00  0.00000000000E+00  0.32944759450E+03  0.32944759451E+03  0.25500000920E-02 0. -1.
        2   -1    0    0  501    0  0.00000000000E+00  0.00000000000E+00 -0.11070631059E+04  0.11070631059E+04  0.25500000920E-02 0.  1.
    10030    2    1    2    0    0  0.00000000000E+00  0.00000000000E+00 -0.77761551136E+03  0.14365107004E+04  0.12078398523E+04 0.  0.
        3    1    3    3  502    0 -0.18959247694E+03 -0.87979898680E+02 -0.10626755257E+04  0.10830351116E+04  0.10100000352E+00 0.  1.
       -3    1    3    3    0  502  0.18959247694E+03  0.87979898680E+02  0.28506001432E+03  0.35347558876E+03  0.10100000352E+00 0. -1.
</event>
<event>
 5   0  0.9410666E-04  0.1199015E+04  0.7818609E-02  0.9113719E-01
       -2   -1    0    0    0  501  0.00000000000E+00  0.00000000000E+00  0.36597904486E+03  0.36597904487E+03  0.25500000920E-02 0.  1.
        2   -1    0    0  501    0  0.00000000000E+00  0.00000000000E+00 -0.98204926686E+03  0.98204926686E+03  0.25500000920E-02 0. -1.
    10030    2    1    2    0    0  0.00000000000E+00  0.00000000000E+00 -0.61607022200E+03  0.13480283117E+04  0.11990153505E+04 0.  0.
        2    1    3    3  502    0 -0.46993299953E+03  0.14181017436E+03  0.78923358022E+02  0.49716802597E+03  0.25500000920E-02 0.  1.
       -2    1    3    3    0  502  0.46993299953E+03 -0.14181017436E+03 -0.69499358002E+03  0.85086028576E+03  0.25500000920E-02 0. -1.
</event>
<event>
 5   0  0.5003507E-04  0.1201302E+04  0.7818609E-02  0.9111717E-01
        1   -1    0    0  501    0  0.00000000000E+00  0.00000000000E+00  0.70178317482E+03  0.70178317483E+03  0.50400001928E-02 0. -1.
       -1   -1    0    0    0  501  0.00000000000E+00  0.00000000000E+00 -0.51409301379E+03  0.51409301382E+03  0.50400001928E-02 0.  1.
    10030    2    1    2    0    0  0.00000000000E+00  0.00000000000E+00  0.18769016102E+03  0.12158761887E+04  0.12013023390E+04 0.  0.
        3    1    3    3  502    0  0.82995169813E+02 -0.55493224179E+03  0.31079056248E+03  0.64142713936E+03  0.10100000352E+00 0.  1.
       -3    1    3    3    0  502 -0.82995169813E+02  0.55493224179E+03 -0.12310040145E+03  0.57444904929E+03  0.10100000352E+00 0. -1.
</event>
<event>
 5   0  0.5003507E-04  0.1202170E+04  0.7818609E-02  0.9110959E-01
        1   -1    0    0  501    0  0.00000000000E+00  0.00000000000E+00  0.96057664224E+03  0.96057664225E+03  0.50400001928E-02 0. -1.
       -1   -1    0    0    0  501  0.00000000000E+00  0.00000000000E+00 -0.37613158831E+03  0.37613158834E+03  0.50400001928E-02 0.  1.
    10030    2    1    2    0    0  0.00000000000E+00  0.00000000000E+00  0.58444505393E+03  0.13367082306E+04  0.12021700681E+04 0.  0.
        3    1    3    3  502    0 -0.50235120623E+03  0.90954213445E+02  0.64502283232E+03  0.82260796724E+03  0.10100000352E+00 0. -1.
       -3    1    3    3    0  502  0.50235120623E+03 -0.90954213445E+02 -0.60577778389E+02  0.51410026336E+03  0.10100000352E+00 0.  1.
</event>
<event>
 5   0  0.5447074E-04  0.1199585E+04  0.7818609E-02  0.9113220E-01
        1   -1    0    0  501    0  0.00000000000E+00  0.00000000000E+00  0.33506124357E+03  0.33506124361E+03  0.50400001928E-02 0. -1.
       -1   -1    0    0    0  501  0.00000000000E+00  0.00000000000E+00 -0.10736872134E+04  0.10736872134E+04  0.50400001928E-02 0.  1.
    10030    2    1    2    0    0  0.00000000000E+00  0.00000000000E+00 -0.73862596987E+03  0.14087484571E+04  0.11995848832E+04 0.  0.
        4    1    3    3  502    0  0.28983172455E+03  0.34021135459E+01 -0.98597713089E+03  0.10276996246E+04  0.12699999809E+01 0.  1.
       -4    1    3    3    0  502 -0.28983172455E+03 -0.34021135459E+01  0.24735116102E+03  0.38104883242E+03  0.12699999809E+01 0. -1.
</event>
<event>
 5   0  0.9050363E-04  0.1199549E+04  0.7818609E-02  0.9113251E-01
        2   -1    0    0  501    0  0.00000000000E+00  0.00000000000E+00  0.18173090242E+04  0.18173090242E+04  0.25500000920E-02 0.  1.
       -2   -1    0    0    0  501  0.00000000000E+00  0.00000000000E+00 -0.19794621676E+03  0.19794621678E+03  0.25500000920E-02 0. -1.
    10030    2    1    2    0    0  0.00000000000E+00  0.00000000000E+00  0.16193628074E+04  0.20152552410E+04  0.11995489920E+04 0.  0.
        3    1    3    3  502    0  0.20429551207E+03 -0.25257480665E+03 -0.37348555703E+02  0.32699482262E+03  0.10100000352E+00 0. -1.
       -3    1    3    3    0  502 -0.20429551207E+03  0.25257480665E+03  0.16567113631E+04  0.16882604184E+04  0.10100000352E+00 0.  1.
</event>
<event>
 5   0  0.9410666E-04  0.1196492E+04  0.7818609E-02  0.9115933E-01
        2   -1    0    0  501    0  0.00000000000E+00  0.00000000000E+00  0.13920965289E+04  0.13920965289E+04  0.25500000920E-02 0. -1.
       -2   -1    0    0    0  501  0.00000000000E+00  0.00000000000E+00 -0.25709291383E+03  0.25709291385E+03  0.25500000920E-02 0.  1.
    10030    2    1    2    0    0  0.00000000000E+00  0.00000000000E+00  0.11350036150E+04  0.16491894427E+04  0.11964917935E+04 0.  0.
        2    1    3    3  502    0 -0.11879189941E+03 -0.49850052186E+03  0.14203027304E+03  0.53177710004E+03  0.25500000920E-02 0. -1.
       -2    1    3    3    0  502  0.11879189941E+03  0.49850052186E+03  0.99297334198E+03  0.11174123427E+04  0.25500000920E-02 0.  1.
</event>
<event>
 5   0  0.9070772E-04  0.1200277E+04  0.7818609E-02  0.9112614E-01
       -2   -1    0    0    0  501  0.00000000000E+00  0.00000000000E+00  0.10370334335E+04  0.10370334335E+04  0.25500000920E-02 0.  1.
        2   -1    0    0  501    0  0.00000000000E+00  0.00000000000E+00 -0.34730456784E+03  0.34730456785E+03  0.25500000920E-02 0. -1.
    10030    2    1    2    0    0  0.00000000000E+00  0.00000000000E+00  0.68972886563E+03  0.13843380013E+04  0.12002773820E+04 0.  0.
        4    1    3    3  502    0 -0.47622726737E+03 -0.97239631194E+02 -0.61135304581E+02  0.48988477668E+03  0.12699999809E+01 0. -1.
       -4    1    3    3    0  502  0.47622726737E+03  0.97239631194E+02  0.75086417021E+03  0.89445322463E+03  0.12699999809E+01 0.  1.
</event>
<event>
 5   0  0.5052959E-04  0.1181308E+04  0.7818609E-02  0.9129377E-01
        1   -1    0    0  501    0  0.00000000000E+00  0.00000000000E+00  0.88892672100E+03  0.88892672102E+03  0.50400001928E-02 0. -1.
       -1   -1    0    0    0  501  0.00000000000E+00  0.00000000000E+00 -0.39246428742E+03  0.39246428745E+03  0.50400001928E-02 0.  1.
    10030    2    1    2    0    0  0.00000000000E+00  0.00000000000E+00  0.49646243358E+03  0.12813910085E+04  0.11813077366E+04 0.  0.
        2    1    3    3  502    0  0.17393779095E+03  0.16829545241E+03  0.83266843039E+03  0.86712999567E+03  0.25500000920E-02 0. -1.
       -2    1    3    3    0  502 -0.17393779095E+03 -0.16829545241E+03 -0.33620599681E+03  0.41426101279E+03  0.25500000920E-02 0.  1.
</event>
<event>
 5   0  0.3453625E-04  0.1202331E+04  0.7818609E-02  0.9110818E-01
        3   -1    0    0  501    0  0.00000000000E+00  0.00000000000E+00  0.79044323440E+03  0.79044324085E+03  0.10100000352E+00 0. -1.
       -3   -1    0    0    0  501  0.00000000000E+00  0.00000000000E+00 -0.45721213320E+03  0.45721214436E+03  0.10100000352E+00 0.  1.
    10030    2    1    2    0    0  0.00000000000E+00  0.00000000000E+00  0.33323110120E+03  0.12476553852E+04  0.12023314823E+04 0.  0.
        1    1    3    3  502    0 -0.47694115520E+03  0.31959619113E+03  0.35162164102E+03  0.67324020184E+03  0.50400001928E-02 0. -1.
       -1    1    3    3    0  502  0.47694115520E+03 -0.31959619113E+03 -0.18390539821E+02  0.57441518337E+03  0.50400001928E-02 0.  1.
</event>
<event>
 5   0  0.9050363E-04  0.1195390E+04  0.7818609E-02  0.9116902E-01
       -2   -1    0    0    0  501  0.00000000000E+00  0.00000000000E+00  0.15127585490E+03  0.15127585492E+03  0.25500000920E-02 0.  1.
        2   -1    0    0  501    0  0.00000000000E+00  0.00000000000E+00 -0.23615078206E+04  0.23615078206E+04  0.25500000920E-02 0. -1.
    10030    2    1    2    0    0  0.00000000000E+00  0.00000000000E+00 -0.22102319657E+04  0.25127836756E+04  0.11953896678E+04 0.  0.
        3    1    3    3  502    0 -0.30476362563E+03 -0.15965191105E+00 -0.21859076971E+04  0.22070508294E+04  0.10100000352E+00 0. -1.
       -3    1    3    3    0  502  0.30476362563E+03  0.15965191105E+00 -0.24324268639E+02  0.30573284619E+03  0.10100000352E+00 0.  1.
</event>
<event>
 5   0  0.9410666E-04  0.1188773E+04  0.7818609E-02  0.9122740E-01
        2   -1    0    0  501    0  0.00000000000E+00  0.00000000000E+00  0.52305896923E+03  0.52305896924E+03  0.25500000920E-02 0. -1.
       -2   -1    0    0    0  501  0.00000000000E+00  0.00000000000E+00 -0.67544104714E+03  0.67544104714E+03  0.25500000920E-02 0.  1.
    10030    2    1    2    0    0  0.00000000000E+00  0.00000000000E+00 -0.15238207791E+03  0.11985000164E+04  0.11887733138E+04 0.  0.
        2    1    3    3  502    0 -0.50057156988E+03 -0.80274571063E+02 -0.38901940295E+03  0.63902425557E+03  0.25500000920E-02 0.  1.
       -2    1    3    3    0  502  0.50057156988E+03  0.80274571063E+02  0.23663732504E+03  0.55947576081E+03  0.25500000920E-02 0. -1.
</event>
<event>
 5   0  0.5001586E-04  0.1198808E+04  0.7818609E-02  0.9113901E-01
        1   -1    0    0  501    0  0.00000000000E+00  0.00000000000E+00  0.40849904474E+03  0.40849904477E+03  0.50400001928E-02 0.  1.
       -1   -1    0    0    0  501  0.00000000000E+00  0.00000000000E+00 -0.87952468269E+03  0.87952468271E+03  0.50400001928E-02 0. -1.
    10030    2    1    2    0    0  0.00000000000E+00  0.00000000000E+00 -0.47102563795E+03  0.12880237275E+04  0.11988077289E+04 0.  0.
        1    1    3    3  502    0 -0.34069442720E+03  0.43047552449E+03  0.23025739199E+02  0.54946524422E+03  0.50400001928E-02 0. -1.
       -1    1    3    3    0  502  0.34069442720E+03 -0.43047552449E+03 -0.49405137715E+03  0.73855848326E+03  0.50400001928E-02 0.  1.
</event>
<event>
 5   0  0.5003507E-04  0.1194696E+04  0.7818609E-02  0.9117512E-01
        1   -1    0    0  501    0  0.00000000000E+00  0.00000000000E+00  0.45329659150E+03  0.45329659153E+03  0.50400001928E-02 0. -1.
       -1   -1    0    0    0  501  0.00000000000E+00  0.00000000000E+00 -0.78717720449E+03  0.78717720450E+03  0.50400001928E-02 0.  1.
    10030    2    1    2    0    0  0.00000000000E+00  0.00000000000E+00 -0.33388061298E+03  0.12404737960E+04  0.11946961852E+04 0.  0.
        3    1    3    3  502    0 -0.34485134223E+03  0.27003420156E+03  0.25480551545E+03  0.50672159926E+03  0.10100000352E+00 0. -1.
       -3    1    3    3    0  502  0.34485134223E+03 -0.27003420156E+03 -0.58868612844E+03  0.73375219677E+03  0.10100000352E+00 0.  1.
</event>
<event>
 5   0  0.5447074E-04  0.1199047E+04  0.7818609E-02  0.9113691E-01
       -1   -1    0    0    0  501  0.00000000000E+00  0.00000000000E+00  0.56915445497E+03  0.56915445499E+03  0.50400001928E-02 0. -1.
        1   -1    0    0  501    0  0.00000000000E+00  0.00000000000E+00 -0.63151265309E+03  0.63151265311E+03  0.50400001928E-02 0.  1.
    10030    2    1    2    0    0  0.00000000000E+00  0.00000000000E+00 -0.62358198117E+02  0.12006671081E+04  0.11990466878E+04 0.  0.
        4    1    3    3  502    0  0.52882777473E+03 -0.17152490013E+03  0.19350555236E+03  0.58866426627E+03  0.12699999809E+01 0. -1.
       -4    1    3    3    0  502 -0.52882777473E+03  0.17152490013E+03 -0.25586375048E+03  0.61200284183E+03  0.12699999809E+01 0.  1.
</event>
<event>
 5   0  0.3453625E-04  0.1197498E+04  0.7818609E-02  0.9115049E-01
        3   -1    0    0  501    0  0.00000000000E+00  0.00000000000E+00  0.29336862476E+03  0.29336864215E+03  0.10100000352E+00 0.  1.
       -3   -1    0    0    0  501  0.00000000000E+00  0.00000000000E+00 -0.12220135483E+04  0.12220135525E+04  0.10100000352E+00 0. -1.
    10030    2    1    2    0    0  0.00000000000E+00  0.00000000000E+00 -0.92864492356E+03  0.15153821946E+04  0.11974981427E+04 0.  0.
        5    1    3    3  502    0  0.58517534505E+03 -0.91114027305E+02 -0.35294493450E+03  0.68943757311E+03  0.46999998093E+01 0. -1.
       -5    1    3    3    0  502 -0.58517534505E+03  0.91114027305E+02 -0.57569998906E+03  0.82594462153E+03  0.46999998093E+01 0.  1.
</event>
<event>
 5   0  0.5003507E-04  0.1202168E+04  0.7818609E-02  0.9110961E-01
       -1   -1    0    0    0  501  0.00000000000E+00  0.00000000000E+00  0.35331971041E+03  0.35331971044E+03  0.50400001928E-02 0.  1.
        1   -1    0    0  501    0  0.00000000000E+00  0.00000000000E+00 -0.10225924963E+04  0.10225924963E+04  0.50400001928E-02 0. -1.
    10030    2    1    2    0    0  0.00000000000E+00  0.00000000000E+00 -0.66927278591E+03  0.13759122068E+04  0.12021681824E+04 0.  0.
        3    1    3    3  502    0 -0.58556782764E+03 -0.46504733452E+01 -0.48984843517E+03  0.76345452210E+03  0.10100000352E+00 0. -1.
       -3    1    3    3    0  502  0.58556782764E+03  0.46504733452E+01 -0.17942435074E+03  0.61245768467E+03  0.10100000352E+00 0.  1.
</event>
<event>
 5   0  0.9050363E-04  0.1204277E+04  0.7818609E-02  0.9109121E-01
       -2   -1    0    0    0  501  0.00000000000E+00  0.00000000000E+00  0.25463936214E+03  0.25463936215E+03  0.25500000920E-02 0. -1.
        2   -1    0    0  501    0  0.00000000000E+00  0.00000000000E+00 -0.14238591697E+04  0.14238591697E+04  0.25500000920E-02 0.  1.
    10030    2    1    2    0    0  0.00000000000E+00  0.00000000000E+00 -0.11692198076E+04  0.16784985319E+04  0.12042766971E+04 0.  0.
        3    1    3    3  502    0  0.19739526243E+03 -0.51335473426E+03 -0.24299805521E+03  0.60128698460E+03  0.10100000352E+00 0.  1.
       -3    1    3    3    0  502 -0.19739526243E+03  0.51335473426E+03 -0.92622175236E+03  0.10772115473E+04  0.10100000352E+00 0. -1.
</event>
<event>
 5   0  0.5052959E-04  0.1204690E+04  0.7818609E-02  0.9108761E-01
       -1   -1    0    0    0  501  0.00000000000E+00  0.00000000000E+00  0.63377106321E+03  0.63377106323E+03  0.50400001928E-02 0. -1.
        1   -1    0    0  501    0  0.00000000000E+00  0.00000000000E+00 -0.57247739322E+03  0.57247739324E+03  0.50400001928E-02 0.  1.
    10030    2    1    2    0    0  0.00000000000E+00  0.00000000000E+00  0.61293669993E+02  0.12062484565E+04  0.12046901779E+04 0.  0.
        2    1    3    3  502    0  0.54632783524E+03  0.31460931954E+01  0.28461956944E+03  0.61602946421E+03  0.25500000920E-02 0. -1.
       -2    1    3    3    0  502 -0.54632783524E+03 -0.31460931954E+01 -0.22332589945E+03  0.59021899226E+03  0.25500000920E-02 0.  1.
</event>
<event>
 5   0  0.9298693E-04  0.1198400E+04  0.7818609E-02  0.9114258E-01
        2   -1    0    0  501    0  0.00000000000E+00  0.00000000000E+00  0.14840639201E+04  0.14840639201E+04  0.25500000920E-02 0.  1.
       -2   -1    0    0    0  501  0.00000000000E+00  0.00000000000E+00 -0.24193067469E+03  0.24193067470E+03  0.25500000920E-02 0. -1.
    10030    2    1    2    0    0  0.00000000000E+00  0.00000000000E+00  0.12421332454E+04  0.17259945948E+04  0.11983999090E+04 0.  0.
        1    1    3    3  502    0 -0.14636002978E+03  0.23634024784E+02 -0.21509794756E+03  0.26124117691E+03  0.50400001928E-02 0. -1.
       -1    1    3    3    0  502  0.14636002978E+03 -0.23634024784E+02  0.14572311930E+04  0.14647534179E+04  0.50400001928E-02 0.  1.
</event>
<event>
 5   0  0.5052959E-04  0.1207195E+04  0.7818609E-02  0.9106582E-01
       -1   -1    0    0    0  501  0.00000000000E+00  0.00000000000E+00  0.25698787741E+03  0.25698787746E+03  0.50400001928E-02 0.  1.
        1   -1    0    0  501    0  0.00000000000E+00  0.00000000000E+00 -0.14176936700E+04  0.14176936700E+04  0.50400001928E-02 0. -1.
    10030    2    1    2    0    0  0.00000000000E+00  0.00000000000E+00 -0.11607057925E+04  0.16746815474E+04  0.12071952404E+04 0.  0.
        2    1    3    3  502    0 -0.41151670819E+02 -0.34211706519E+02  0.25369032900E+03  0.25927337678E+03  0.25500000920E-02 0.  1.
       -2    1    3    3    0  502  0.41151670819E+02  0.34211706519E+02 -0.14143961215E+04  0.14154081706E+04  0.25500000920E-02 0. -1.
</event>
<event>
 5   0  0.5003507E-04  0.1202671E+04  0.7818609E-02  0.9110522E-01
        1   -1    0    0  501    0  0.00000000000E+00  0.00000000000E+00  0.53498983377E+03  0.53498983379E+03  0.50400001928E-02 0. -1.
       -1   -1    0    0    0  501  0.00000000000E+00  0.00000000000E+00 -0.67590838382E+03  0.67590838384E+03  0.50400001928E-02 0.  1.
    10030    2    1    2    0    0  0.00000000000E+00  0.00000000000E+00 -0.14091855006E+03  0.12108982176E+04  0.12026705516E+04 0.  0.
        3    1    3    3  502    0 -0.51251252644E+03 -0.24494687418E+03  0.12821281848E+03  0.58232859964E+03  0.10100000352E+00 0. -1.
       -3    1    3    3    0  502  0.51251252644E+03  0.24494687418E+03 -0.26913136854E+03  0.62856961799E+03  0.10100000352E+00 0.  1.
</event>
<event>
 5   0  0.9298693E-04  0.1204537E+04  0.7818609E-02  0.9108894E-01
        2   -1    0    0  501    0  0.00000000000E+00  0.00000000000E+00  0.11006824640E+04  0.11006824640E+04  0.25500000920E-02 0.  1.
       -2   -1    0    0    0  501  0.00000000000E+00  0.00000000000E+00 -0.32954785841E+03  0.32954785842E+03  0.25500000920E-02 0. -1.
    10030    2    1    2    0    0  0.00000000000E+00  0.00000000000E+00  0.77113460555E+03  0.14302303224E+04  0.12045373366E+04 0.  0.
        1    1    3    3  502    0  0.57441021128E+03  0.57661032927E+02  0.58935131940E+03  0.82498900795E+03  0.50400001928E-02 0. -1.
       -1    1    3    3    0  502 -0.57441021128E+03 -0.57661032927E+02  0.18178328615E+03  0.60524131442E+03  0.50400001928E-02 0.  1.
</event>
<event>
 5   0  0.5447074E-04  0.1200795E+04  0.7818609E-02  0.9112161E-01
       -1   -1    0    0    0  501  0.00000000000E+00  0.00000000000E+00  0.30589681037E+03  0.30589681042E+03  0.50400001928E-02 0. -1.
        1   -1    0    0  501    0  0.00000000000E+00  0.00000000000E+00 -0.11784270001E+04  0.11784270002E+04  0.50400001928E-02 0.  1.
    10030    2    1    2    0    0  0.00000000000E+00  0.00000000000E+00 -0.87253018977E+03  0.14843238106E+04  0.12007948378E+04 0.  0.
        4    1    3    3  502    0 -0.30132818228E+03 -0.51818666792E+03 -0.47835397831E+03  0.76690301715E+03  0.12699999809E+01 0. -1.
       -4    1    3    3    0  502  0.30132818228E+03  0.51818666792E+03 -0.39417621146E+03  0.71742079342E+03  0.12699999809E+01 0.  1.
</event>
<event>
 5   0  0.9410666E-04  0.1201582E+04  0.7818609E-02  0.9111473E-01
       -2   -1    0    0    0  501  0.00000000000E+00  0.00000000000E+00  0.30230281279E+03  0.30230281280E+03  0.25500000920E-02 0.  1.
        2   -1    0    0  501    0  0.00000000000E+00  0.00000000000E+00 -0.11940000848E+04  0.11940000848E+04  0.25500000920E-02 0. -1.
    10030    2    1    2    0    0  0.00000000000E+00  0.00000000000E+00 -0.89169727198E+03  0.14963028976E+04  0.12015815979E+04 0.  0.
        2    1    3    3  502    0  0.42062512233E+03 -0.83273783737E+02 -0.96988658359E+03  0.10604433043E+04  0.25500000920E-02 0. -1.
       -2    1    3    3    0  502 -0.42062512233E+03  0.83273783737E+02  0.78189311609E+02  0.43585959328E+03  0.25500000920E-02 0.  1.
</event>
<event>
 5   0  0.5157631E-04  0.1192720E+04  0.7818609E-02  0.9119253E-01
       -1   -1    0    0    0  501  0.00000000000E+00  0.00000000000E+00  0.30193910826E+03  0.30193910830E+03  0.50400001928E-02 0. -1.
        1   -1    0    0  501    0  0.00000000000E+00  0.00000000000E+00 -0.11778703880E+04  0.11778703880E+04  0.50400001928E-02 0.  1.
    10030    2    1    2    0    0  0.00000000000E+00  0.00000000000E+00 -0.87593127969E+03  0.14798094963E+04  0.11927198072E+04 0.  0.
        5    1    3    3  502    0 -0.31744150481E+03  0.35458189216E+02  0.18683164942E+03  0.37007370534E+03  0.46999998093E+01 0. -1.
       -5    1    3    3    0  502  0.31744150481E+03 -0.35458189216E+02 -0.10627629291E+04  0.11097357909E+04  0.46999998093E+01 0.  1.
</event>
<event>
 5   0  0.9050363E-04  0.1197547E+04  0.7818609E-02  0.9115006E-01
       -2   -1    0    0    0  501  0.00000000000E+00  0.00000000000E+00  0.26258659799E+03  0.26258659800E+03  0.25500000920E-02 0.  1.
        2   -1    0    0  501    0  0.00000000000E+00  0.00000000000E+00 -0.13653777121E+04  0.13653777121E+04  0.25500000920E-02 0. -1.
    10030    2    1    2    0    0  0.00000000000E+00  0.00000000000E+00 -0.11027911141E+04  0.16279643101E+04  0.11975473075E+04 0.  0.
        3    1    3    3  502    0  0.16600417659E+03 -0.24888749194E+03 -0.12564952821E+04  0.12916202129E+04  0.10100000352E+00 0. -1.
       -3    1    3    3    0  502 -0.16600417659E+03  0.24888749194E+03  0.15370416795E+03  0.33634409722E+03  0.10100000352E+00 0.  1.
</event>
<event>
 5   0  0.5052959E-04  0.1202018E+04  0.7818609E-02  0.9111092E-01
        1   -1    0    0  501    0  0.00000000000E+00  0.00000000000E+00  0.11311971360E+04  0.11311971360E+04  0.50400001928E-02 0.  1.
       -1   -1    0    0    0  501  0.00000000000E+00  0.00000000000E+00 -0.31931833686E+03  0.31931833690E+03  0.50400001928E-02 0. -1.
    10030    2    1    2    0    0  0.00000000000E+00  0.00000000000E+00  0.81187879913E+03  0.14505154729E+04  0.12020182830E+04 0.  0.
        2    1    3    3  502    0 -0.11974075486E+03  0.13870158064E+03  0.10966674730E+04  0.11118702816E+04  0.25500000920E-02 0.  1.
       -2    1    3    3    0  502  0.11974075486E+03 -0.13870158064E+03 -0.28478867382E+03  0.33864519130E+03  0.25500000920E-02 0. -1.
</event>
<event>
 5   0  0.9410666E-04  0.1203976E+04  0.7818609E-02  0.9109383E-01
       -2   -1    0    0    0  501  0.00000000000E+00  0.00000000000E+00  0.41112483606E+03  0.41112483607E+03  0.25500000920E-02 0.  1.
        2   -1    0    0  501    0  0.00000000000E+00  0.00000000000E+00 -0.88145865757E+03  0.88145865757E+03  0.25500000920E-02 0. -1.
    10030    2    1    2    0    0  0.00000000000E+00  0.00000000000E+00 -0.47033382151E+03  0.12925834936E+04  0.12039759899E+04 0.  0.
        2    1    3    3  502    0  0.16271409795E+03  0.45233195542E+03  0.15386820537E+03  0.50473309798E+03  0.25500000920E-02 0.  1.
       -2    1    3    3    0  502 -0.16271409795E+03 -0.45233195542E+03 -0.62420202688E+03  0.78785039566E+03  0.25500000920E-02 0. -1.
</event>
<event>
 5   0  0.9050363E-04  0.1206638E+04  0.7818609E-02  0.9107066E-01
        2   -1    0    0  501    0  0.00000000000E+00  0.00000000000E+00  0.38620050619E+03  0.38620050620E+03  0.25500000920E-02 0. -1.
       -2   -1    0    0    0  501  0.00000000000E+00  0.00000000000E+00 -0.94249997163E+03  0.94249997163E+03  0.25500000920E-02 0.  1.
    10030    2    1    2    0    0  0.00000000000E+00  0.00000000000E+00 -0.55629946544E+03  0.13287004778E+04  0.12066382492E+04 0.  0.
        3    1    3    3  502    0 -0.12475925545E+03  0.45474978758E+02 -0.92620876050E+03  0.93567917779E+03  0.10100000352E+00 0.  1.
       -3    1    3    3    0  502  0.12475925545E+03 -0.45474978758E+02  0.36990929506E+03  0.39302130004E+03  0.10100000352E+00 0. -1.
</event>
<event>
 5   0  0.5003507E-04  0.1202292E+04  0.7818609E-02  0.9110853E-01
       -1   -1    0    0    0  501  0.00000000000E+00  0.00000000000E+00  0.60516883017E+03  0.60516883019E+03  0.50400001928E-02 0. -1.
        1   -1    0    0  501    0  0.00000000000E+00  0.00000000000E+00 -0.59714969121E+03  0.59714969123E+03  0.50400001928E-02 0.  1.
    10030    2    1    2    0    0  0.00000000000E+00  0.00000000000E+00  0.80191389664E+01  0.12023185214E+04  0.12022917784E+04 0.  0.
        3    1    3    3  502    0 -0.69987387676E+02  0.13101642580E+03 -0.57850903685E+03  0.59727401934E+03  0.10100000352E+00 0.  1.
       -3    1    3    3    0  502  0.69987387676E+02 -0.13101642580E+03  0.58652817582E+03  0.60504450208E+03  0.10100000352E+00 0. -1.
</event>
<event>
 5   0  0.5447074E-04  0.1196320E+04  0.7818609E-02  0.9116084E-01
        1   -1    0    0  501    0  0.00000000000E+00  0.00000000000E+00  0.19077360174E+03  0.19077360181E+03  0.50400001928E-02 0.  1.
       -1   -1    0    0    0  501  0.00000000000E+00  0.00000000000E+00 -0.18754978740E+04  0.18754978740E+04  0.50400001928E-02 0. -1.
    10030    2    1    2    0    0  0.00000000000E+00  0.00000000000E+00 -0.16847242723E+04  0.20662714758E+04  0.11963201654E+04 0.  0.
        4    1    3    3  502    0  0.26629541013E+02 -0.25743111425E+03 -0.17737864760E+04  0.17925679865E+04  0.12699999809E+01 0. -1.
       -4    1    3    3    0  502 -0.26629541013E+02  0.25743111425E+03  0.89062203697E+02  0.27370348932E+03  0.12699999809E+01 0.  1.
</event>
<event>
 5   0  0.9410666E-04  0.1197015E+04  0.7818609E-02  0.9115473E-01
        2   -1    0    0  501    0  0.00000000000E+00  0.00000000000E+00  0.11579418399E+04  0.11579418399E+04  0.25500000920E-02 0.  1.
       -2   -1    0    0    0  501  0.00000000000E+00  0.00000000000E+00 -0.30935164353E+03  0.30935164354E+03  0.25500000920E-02 0. -1.
    10030    2    1    2    0    0  0.00000000000E+00  0.00000000000E+00  0.84859019636E+03  0.14672934834E+04  0.11970149728E+04 0.  0.
        2    1    3    3  502    0 -0.34092139624E+03  0.36993827070E+03  0.82174251818E+03  0.96350531329E+03  0.25500000920E-02 0.  1.
       -2    1    3    3    0  502  0.34092139624E+03 -0.36993827070E+03  0.26847678176E+02  0.50378817014E+03  0.25500000920E-02 0. -1.
</event>
<event>
 5   0  0.9070772E-04  0.1196544E+04  0.7818609E-02  0.9115887E-01
        2   -1    0    0  501    0  0.00000000000E+00  0.00000000000E+00  0.22589591382E+04  0.22589591382E+04  0.25500000920E-02 0.  1.
       -2   -1    0    0    0  501  0.00000000000E+00  0.00000000000E+00 -0.15844873330E+03  0.15844873332E+03  0.25500000920E-02 0. -1.
    10030    2    1    2    0    0  0.00000000000E+00  0.00000000000E+00  0.21005104049E+04  0.24174078715E+04  0.11965437126E+04 0.  0.
        4    1    3    3  502    0  0.28273095079E+03  0.12107620519E+03  0.20870018902E+04  0.21095437280E+04  0.12699999809E+01 0.  1.
       -4    1    3    3    0  502 -0.28273095079E+03 -0.12107620519E+03  0.13508514778E+02  0.30786414353E+03  0.12699999809E+01 0. -1.
</event>
<event>
 5   0  0.9050363E-04  0.1199152E+04  0.7818609E-02  0.9113599E-01
       -2   -1    0    0    0  501  0.00000000000E+00  0.00000000000E+00  0.46651621752E+03  0.46651621753E+03  0.25500000920E-02 0. -1.
        2   -1    0    0  501    0  0.00000000000E+00  0.00000000000E+00 -0.77058755511E+03  0.77058755512E+03  0.25500000920E-02 0.  1.
    10030    2    1    2    0    0  0.00000000000E+00  0.00000000000E+00 -0.30407133760E+03  0.12371037726E+04  0.11991523531E+04 0.  0.
        3    1    3    3  502    0  0.55965450417E+03  0.86148201617E+02  0.51324487923E+02  0.56856740140E+03  0.10100000352E+00 0. -1.
       -3    1    3    3    0  502 -0.55965450417E+03 -0.86148201617E+02 -0.35539582552E+03  0.66853637124E+03  0.10100000352E+00 0.  1.
</event>
<event>
 5   0  0.9145224E-04  0.1201824E+04  0.7818609E-02  0.9111262E-01
        2   -1    0    0  501    0  0.00000000000E+00  0.00000000000E+00  0.13143915384E+04  0.13143915384E+04  0.25500000920E-02 0. -1.
       -2   -1    0    0    0  501  0.00000000000E+00  0.00000000000E+00 -0.27472415500E+03  0.27472415501E+03  0.25500000920E-02 0.  1.
    10030    2    1    2    0    0  0.00000000000E+00  0.00000000000E+00  0.10396673834E+04  0.15891156934E+04  0.12018237886E+04 0.  0.
        5    1    3    3  502    0  0.39520003320E+03  0.29751051101E+02 -0.77387126901E+02  0.40383047024E+03  0.46999998093E+01 0.  1.
       -5    1    3    3    0  502 -0.39520003320E+03 -0.29751051101E+02  0.11170545103E+04  0.11852852232E+04  0.46999998093E+01 0. -1.
</event>
<event>
 5   0  0.5447074E-04  0.1199112E+04  0.7818609E-02  0.9113634E-01
        1   -1    0    0  501    0  0.00000000000E+00  0.00000000000E+00  0.80004882918E+03  0.80004882920E+03  0.50400001928E-02 0. -1.
       -1   -1    0    0    0  501  0.00000000000E+00  0.00000000000E+00 -0.44930659819E+03  0.44930659822E+03  0.50400001928E-02 0.  1.
    10030    2    1    2    0    0  0.00000000000E+00  0.00000000000E+00  0.35074223099E+03  0.12493554274E+04  0.11991117010E+04 0.  0.
        4    1    3    3  502    0 -0.51369340688E+03 -0.30895508010E+03  0.18731655044E+03  0.62803125779E+03  0.12699999809E+01 0. -1.
       -4    1    3    3    0  502  0.51369340688E+03  0.30895508010E+03  0.16342568055E+03  0.62132416963E+03  0.12699999809E+01 0.  1.
</event>
<event>
 5   0  0.5157631E-04  0.1198635E+04  0.7818609E-02  0.9114052E-01
        1   -1    0    0  501    0  0.00000000000E+00  0.00000000000E+00  0.17755713919E+04  0.17755713919E+04  0.50400001928E-02 0.  1.
       -1   -1    0    0    0  501  0.00000000000E+00  0.00000000000E+00 -0.20229050892E+03  0.20229050898E+03  0.50400001928E-02 0. -1.
    10030    2    1    2    0    0  0.00000000000E+00  0.00000000000E+00  0.15732808830E+04  0.19778619009E+04  0.11986346242E+04 0.  0.
        5    1    3    3  502    0 -0.43907067136E+02  0.59696772574E+03  0.73822610243E+03  0.95041999370E+03  0.46999998093E+01 0.  1.
       -5    1    3    3    0  502  0.43907067136E+02 -0.59696772574E+03  0.83505478055E+03  0.10274419072E+04  0.46999998093E+01 0. -1.
</event>
<event>
 5   0  0.5001586E-04  0.1202364E+04  0.7818609E-02  0.9110790E-01
        1   -1    0    0  501    0  0.00000000000E+00  0.00000000000E+00  0.15033375067E+04  0.15033375067E+04  0.50400001928E-02 0.  1.
       -1   -1    0    0    0  501  0.00000000000E+00  0.00000000000E+00 -0.24041142842E+03  0.24041142848E+03  0.50400001928E-02 0. -1.
    10030    2    1    2    0    0  0.00000000000E+00  0.00000000000E+00  0.12629260783E+04  0.17437489352E+04  0.12023635348E+04 0.  0.
        1    1    3    3  502    0  0.37790789208E+03 -0.33870499432E+03  0.10988995544E+04  0.12104196292E+04  0.50400001928E-02 0.  1.
       -1    1    3    3    0  502 -0.37790789208E+03  0.33870499432E+03  0.16402652390E+03  0.53332930600E+03  0.50400001928E-02 0. -1.
</event>
<event>
 5   0  0.9070772E-04  0.1198270E+04  0.7818609E-02  0.9114372E-01
        2   -1    0    0  501    0  0.00000000000E+00  0.00000000000E+00  0.16415525497E+04  0.16415525497E+04  0.25500000920E-02 0.  1.
       -2   -1    0    0    0  501  0.00000000000E+00  0.00000000000E+00 -0.21867288200E+03  0.21867288202E+03  0.25500000920E-02 0. -1.
    10030    2    1    2    0    0  0.00000000000E+00  0.00000000000E+00  0.14228796677E+04  0.18602254317E+04  0.11982704653E+04 0.  0.
        4    1    3    3  502    0  0.22473372835E+03 -0.52310276135E+03  0.10011228449E+04  0.11516901975E+04  0.12699999809E+01 0.  1.
       -4    1    3    3    0  502 -0.22473372835E+03  0.52310276135E+03  0.42175682274E+03  0.70853523414E+03  0.12699999809E+01 0. -1.
</event>
<event>
 5   0  0.9070772E-04  0.1207099E+04  0.7818609E-02  0.9106666E-01
       -2   -1    0    0    0  501  0.00000000000E+00  0.00000000000E+00  0.44478190348E+03  0.44478190348E+03  0.25500000920E-02 0.  1.
        2   -1    0    0  501    0  0.00000000000E+00  0.00000000000E+00 -0.81898998233E+03  0.81898998233E+03  0.25500000920E-02 0. -1.
    10030    2    1    2    0    0  0.00000000000E+00  0.00000000000E+00 -0.37420807885E+03  0.12637718858E+04  0.12070988746E+04 0.  0.
        4    1    3    3  502    0 -0.54792680058E+02  0.11805243546E+03  0.42991427155E+03  0.44918427075E+03  0.12699999809E+01 0.  1.
       -4    1    3    3    0  502  0.54792680058E+02 -0.11805243546E+03 -0.80412235040E+03  0.81458761507E+03  0.12699999809E+01 0. -1.
</event>
<event>
 5   0  0.3453625E-04  0.1205409E+04  0.7818609E-02  0.9108135E-01
        3   -1    0    0  501    0  0.00000000000E+00  0.00000000000E+00  0.68715103111E+03  0.68715103853E+03  0.10100000352E+00 0.  1.
       -3   -1    0    0    0  501  0.00000000000E+00  0.00000000000E+00 -0.52863575333E+03  0.52863576298E+03  0.10100000352E+00 0. -1.
    10030    2    1    2    0    0  0.00000000000E+00  0.00000000000E+00  0.15851527778E+03  0.12157868015E+04  0.12054088325E+04 0.  0.
        2    1    3    3  502    0  0.22935920626E+03 -0.51005361967E+03  0.30589709301E+03  0.63744283819E+03  0.25500000920E-02 0.  1.
       -2    1    3    3    0  502 -0.22935920626E+03  0.51005361967E+03 -0.14738181523E+03  0.57834396332E+03  0.25500000920E-02 0. -1.
</event>
<event>
 5   0  0.9410666E-04  0.1199538E+04  0.7818609E-02  0.9113261E-01
        2   -1    0    0  501    0  0.00000000000E+00  0.00000000000E+00  0.10928003705E+04  0.10928003705E+04  0.25500000920E-02 0.  1.
       -2   -1    0    0    0  501  0.00000000000E+00  0.00000000000E+00 -0.32917533132E+03  0.32917533133E+03  0.25500000920E-02 0. -1.
    10030    2    1    2    0    0  0.00000000000E+00  0.00000000000E+00  0.76362503919E+03  0.14219757018E+04  0.11995381178E+04 0.  0.
        2    1    3    3  502    0 -0.43793490439E+03  0.26910131799E+03  0.74818786722E+03  0.90773761875E+03  0.25500000920E-02 0.  1.
       -2    1    3    3    0  502  0.43793490439E+03 -0.26910131799E+03  0.15437171964E+02  0.51423808310E+03  0.25500000920E-02 0. -1.
</event>
<event>
 5   0  0.5052959E-04  0.1203442E+04  0.7818609E-02  0.9109849E-01
        1   -1    0    0  501    0  0.00000000000E+00  0.00000000000E+00  0.12619893868E+04  0.12619893868E+04  0.50400001928E-02 0. -1.
       -1   -1    0    0    0  501  0.00000000000E+00  0.00000000000E+00 -0.28690277886E+03  0.28690277891E+03  0.50400001928E-02 0.  1.
    10030    2    1    2    0    0  0.00000000000E+00  0.00000000000E+00  0.97508660792E+03  0.15488921657E+04  0.12034421665E+04 0.  0.
        2    1    3    3  502    0 -0.51547192730E+03 -0.61050600872E+02  0.95827340010E+02  0.52784596503E+03  0.25500000920E-02 0.  1.
       -2    1    3    3    0  502  0.51547192730E+03  0.61050600872E+02  0.87925926791E+03  0.10210462007E+04  0.25500000920E-02 0. -1.
</event>
<event>
 5   0  0.5003507E-04  0.1189541E+04  0.7818609E-02  0.9122061E-01
       -1   -1    0    0    0  501  0.00000000000E+00  0.00000000000E+00  0.24951526358E+03  0.24951526363E+03  0.50400001928E-02 0.  1.
        1   -1    0    0  501    0  0.00000000000E+00  0.00000000000E+00 -0.14177564083E+04  0.14177564083E+04  0.50400001928E-02 0. -1.
    10030    2    1    2    0    0  0.00000000000E+00  0.00000000000E+00 -0.11682411447E+04  0.16672716720E+04  0.11895408593E+04 0.  0.
        3    1    3    3  502    0 -0.11335069966E+03  0.35872293152E+03 -0.12298068017E+04  0.12860619357E+04  0.10100000352E+00 0. -1.
       -3    1    3    3    0  502  0.11335069966E+03 -0.35872293152E+03  0.61565656962E+02  0.38120973627E+03  0.10100000352E+00 0.  1.
</event>
<event>
 5   0  0.9145224E-04  0.1208826E+04  0.7818609E-02  0.9105166E-01
       -2   -1    0    0    0  501  0.00000000000E+00  0.00000000000E+00  0.40893771687E+03  0.40893771687E+03  0.25500000920E-02 0.  1.
        2   -1    0    0  501    0  0.00000000000E+00  0.00000000000E+00 -0.89332678555E+03  0.89332678555E+03  0.25500000920E-02 0. -1.
    10030    2    1    2    0    0  0.00000000000E+00  0.00000000000E+00 -0.48438906869E+03  0.13022645024E+04  0.12088259033E+04 0.  0.
        5    1    3    3  502    0 -0.29219146537E+03  0.49306030913E+03 -0.44888008942E+03  0.72801081417E+03  0.46999998093E+01 0.  1.
       -5    1    3    3    0  502  0.29219146537E+03 -0.49306030913E+03 -0.35508979268E+02  0.57425368826E+03  0.46999998093E+01 0. -1.
</event>
<event>
 5   0  0.9298693E-04  0.1201580E+04  0.7818609E-02  0.9111475E-01
        2   -1    0    0  501    0  0.00000000000E+00  0.00000000000E+00  0.79261280954E+03  0.79261280954E+03  0.25500000920E-02 0.  1.
       -2   -1    0    0    0  501  0.00000000000E+00  0.00000000000E+00 -0.45539073067E+03  0.45539073067E+03  0.25500000920E-02 0. -1.
    10030    2    1    2    0    0  0.00000000000E+00  0.00000000000E+00  0.33722207887E+03  0.12480035402E+04  0.12015798375E+04 0.  0.
        1    1    3    3  502    0  0.51213892037E+03 -0.28175884494E+03  0.24415630453E+02  0.58503883930E+03  0.50400001928E-02 0. -1.
       -1    1    3    3    0  502 -0.51213892037E+03  0.28175884494E+03  0.31280644842E+03  0.66296470091E+03  0.50400001928E-02 0.  1.
</event>
<event>
 5   0  0.5447074E-04  0.1203062E+04  0.7818609E-02  0.9110180E-01
        1   -1    0    0  501    0  0.00000000000E+00  0.00000000000E+00  0.11242497369E+04  0.11242497369E+04  0.50400001928E-02 0.  1.
       -1   -1    0    0    0  501  0.00000000000E+00  0.00000000000E+00 -0.32184996223E+03  0.32184996227E+03  0.50400001928E-02 0. -1.
    10030    2    1    2    0    0  0.00000000000E+00  0.00000000000E+00  0.80239977467E+03  0.14460996992E+04  0.12030623182E+04 0.  0.
        4    1    3    3  502    0  0.19065487705E+03 -0.66619034475E+02  0.10822780445E+04  0.11009608333E+04  0.12699999809E+01 0.  1.
       -4    1    3    3    0  502 -0.19065487705E+03  0.66619034475E+02 -0.27987826986E+03  0.34513886587E+03  0.12699999809E+01 0. -1.
</event>
<event>
 5   0  0.5447074E-04  0.1197920E+04  0.7818609E-02  0.9114679E-01
       -1   -1    0    0    0  501  0.00000000000E+00  0.00000000000E+00  0.16028532829E+03  0.16028532837E+03  0.50400001928E-02 0. -1.
        1   -1    0    0  501    0  0.00000000000E+00  0.00000000000E+00 -0.22382170413E+04  0.22382170413E+04  0.50400001928E-02 0.  1.
    10030    2    1    2    0    0  0.00000000000E+00  0.00000000000E+00 -0.20779317130E+04  0.23985023697E+04  0.11979204537E+04 0.  0.
        4    1    3    3  502    0  0.49738143065E+03 -0.65245452707E+02 -0.38369620746E+03  0.63156127904E+03  0.12699999809E+01 0. -1.
       -4    1    3    3    0  502 -0.49738143065E+03  0.65245452707E+02 -0.16942355055E+04  0.17669410906E+04  0.12699999809E+01 0.  1.
</event>
<event>
 5   0  0.5157631E-04  0.1201947E+04  0.7818609E-02  0.9111154E-01
       -1   -1    0    0    0  501  0.00000000000E+00  0.00000000000E+00  0.30955622615E+03  0.30955622619E+03  0.50400001928E-02 0. -1.
        1   -1    0    0  501    0  0.00000000000E+00  0.00000000000E+00 -0.11667324871E+04  0.11667324871E+04  0.50400001928E-02 0.  1.
    10030    2    1    2    0    0  0.00000000000E+00  0.00000000000E+00 -0.85717626097E+03  0.14762887133E+04  0.12019472629E+04 0.  0.
        5    1    3    3  502    0  0.44735408190E+03 -0.33724498676E+03 -0.69567861804E+03  0.89322487946E+03  0.46999998093E+01 0.  1.
       -5    1    3    3    0  502 -0.44735408190E+03  0.33724498676E+03 -0.16149764293E+03  0.58306383386E+03  0.46999998093E+01 0. -1.
</event>
<event>
 5   0  0.9070772E-04  0.1197998E+04  0.7818609E-02  0.9114610E-01
        2   -1    0    0  501    0  0.00000000000E+00  0.00000000000E+00  0.76063510711E+03  0.76063510712E+03  0.25500000920E-02 0. -1.
       -2   -1    0    0    0  501  0.00000000000E+00  0.00000000000E+00 -0.47171111365E+03  0.47171111366E+03  0.25500000920E-02 0.  1.
    10030    2    1    2    0    0  0.00000000000E+00  0.00000000000E+00  0.28892399346E+03  0.12323462208E+04  0.11979983864E+04 0.  0.
        4    1    3    3  502    0 -0.27557267437E+03 -0.45663658493E+03  0.42493505169E+03  0.68193011417E+03  0.12699999809E+01 0. -1.
       -4    1    3    3    0  502  0.27557267437E+03  0.45663658493E+03 -0.13601105823E+03  0.55041610661E+03  0.12699999809E+01 0.  1.
</event>
<event>
 5   0  0.5157631E-04  0.1200705E+04  0.7818609E-02  0.9112240E-01
       -1   -1    0    0    0  501  0.00000000000E+00  0.00000000000E+00  0.25523388962E+03  0.25523388967E+03  0.50400001928E-02 0.  1.
        1   -1    0    0  501    0  0.00000000000E+00  0.00000000000E+00 -0.14121285065E+04  0.14121285065E+04  0.50400001928E-02 0. -1.
    10030    2    1    2    0    0  0.00000000000E+00  0.00000000000E+00 -0.11568946169E+04  0.16673623962E+04  0.12007048787E+04 0.  0.
        5    1    3    3  502    0 -0.15317436628E+03 -0.44526378971E+03 -0.61318586994E+02  0.47487291776E+03  0.46999998093E+01 0.  1.
       -5    1    3    3    0  502  0.15317436628E+03  0.44526378971E+03 -0.10955760299E+04  0.11924894784E+04  0.46999998093E+01 0. -1.
</event>
<event>
 5   0  0.9050363E-04  0.1203132E+04  0.7818609E-02  0.9110119E-01
        2   -1    0    0  501    0  0.00000000000E+00  0.00000000000E+00  0.19840612902E+04  0.19840612902E+04  0.25500000920E-02 0. -1.
       -2   -1    0    0    0  501  0.00000000000E+00  0.00000000000E+00 -0.18239443760E+03  0.18239443762E+03  0.25500000920E-02 0.  1.
    10030    2    1    2    0    0  0.00000000000E+00  0.00000000000E+00  0.18016668526E+04  0.21664557278E+04  0.12031321510E+04 0.  0.
        3    1    3    3  502    0 -0.54135425347E+03 -0.44109992644E+02  0.13664810469E+04  0.14704695103E+04  0.10100000352E+00 0. -1.
       -3    1    3    3    0  502  0.54135425347E+03  0.44109992644E+02  0.43518580572E+03  0.69598621747E+03  0.10100000352E+00 0.  1.
</event>
<event>
 5   0  0.9050363E-04  0.1199016E+04  0.7818609E-02  0.9113718E-01
       -2   -1    0    0    0  501  0.00000000000E+00  0.00000000000E+00  0.41988083573E+03  0.41988083574E+03  0.25500000920E-02 0.  1.
        2   -1    0    0  501    0  0.00000000000E+00  0.00000000000E+00 -0.85598117795E+03  0.85598117795E+03  0.25500000920E-02 0. -1.
    10030    2    1    2    0    0  0.00000000000E+00  0.00000000000E+00 -0.43610034222E+03  0.12758620137E+04  0.11990164175E+04 0.  0.
        3    1    3    3  502    0  0.28084833565E+03 -0.26780367658E+03  0.26820018077E+03  0.47172655638E+03  0.10100000352E+00 0.  1.
       -3    1    3    3    0  502 -0.28084833565E+03  0.26780367658E+03 -0.70430052299E+03  0.80413545731E+03  0.10100000352E+00 0. -1.
</event>
<event>
 5   0  0.3453625E-04  0.1200920E+04  0.7818609E-02  0.9112051E-01
       -3   -1    0    0    0  501  0.00000000000E+00  0.00000000000E+00  0.37361836841E+03  0.37361838206E+03  0.10100000352E+00 0. -1.
        3   -1    0    0  501    0  0.00000000000E+00  0.00000000000E+00 -0.96502883573E+03  0.96502884101E+03  0.10100000352E+00 0.  1.
    10030    2    1    2    0    0  0.00000000000E+00  0.00000000000E+00 -0.59141046731E+03  0.13386472231E+04  0.12009204999E+04 0.  0.
        4    1    3    3  502    0 -0.26582022858E+03 -0.18745197484E+03 -0.85831971646E+03  0.91788506108E+03  0.12699999809E+01 0.  1.
       -4    1    3    3    0  502  0.26582022858E+03  0.18745197484E+03  0.26690924914E+03  0.42076216200E+03  0.12699999809E+01 0. -1.
</event>
<event>
 5   0  0.5157631E-04  0.1199824E+04  0.7818609E-02  0.9113011E-01
        1   -1    0    0  501    0  0.00000000000E+00  0.00000000000E+00  0.51855125479E+03  0.51855125481E+03  0.50400001928E-02 0.  1.
       -1   -1    0    0    0  501  0.00000000000E+00  0.00000000000E+00 -0.69403805826E+03  0.69403805828E+03  0.50400001928E-02 0. -1.
    10030    2    1    2    0    0  0.00000000000E+00  0.00000000000E+00 -0.17548680347E+03  0.12125893131E+04  0.11998238304E+04 0.  0.
        5    1    3    3  502    0 -0.52556839274E+02  0.34661399492E+03 -0.57971697655E+03  0.67749342855E+03  0.46999998093E+01 0. -1.
       -5    1    3    3    0  502  0.52556839274E+02 -0.34661399492E+03  0.40423017308E+03  0.53509588454E+03  0.46999998093E+01 0.  1.
</event>
<event>
 5   0  0.9050363E-04  0.1189204E+04  0.7818609E-02  0.9122359E-01
       -2   -1    0    0    0  501  0.00000000000E+00  0.00000000000E+00  0.87462351412E+03  0.87462351412E+03  0.25500000920E-02 0.  1.
        2   -1    0    0  501    0  0.00000000000E+00  0.00000000000E+00 -0.40423293413E+03  0.40423293414E+03  0.25500000920E-02 0. -1.
    10030    2    1    2    0    0  0.00000000000E+00  0.00000000000E+00  0.47039057999E+03  0.12788564483E+04  0.11892041530E+04 0.  0.
        3    1    3    3  502    0  0.23647869340E+03 -0.23167128022E+02  0.82134883158E+03  0.85502795369E+03  0.10100000352E+00 0.  1.
       -3    1    3    3    0  502 -0.23647869340E+03  0.23167128022E+02 -0.35095825159E+03  0.42382849457E+03  0.10100000352E+00 0. -1.
</event>
<event>
 5   0  0.3453625E-04  0.1201265E+04  0.7818609E-02  0.9111750E-01
       -3   -1    0    0    0  501  0.00000000000E+00  0.00000000000E+00  0.51669949223E+03  0.51669950210E+03  0.10100000352E+00 0.  1.
        3   -1    0    0  501    0  0.00000000000E+00  0.00000000000E+00 -0.69819973293E+03  0.69819974023E+03  0.10100000352E+00 0. -1.
    10030    2    1    2    0    0  0.00000000000E+00  0.00000000000E+00 -0.18150024070E+03  0.12148992423E+04  0.12012650963E+04 0.  0.
        1    1    3    3  502    0 -0.13921555660E+03  0.39757856073E+03 -0.52375641979E+03  0.67213872857E+03  0.50400001928E-02 0. -1.
       -1    1    3    3    0  502  0.13921555660E+03 -0.39757856073E+03  0.34225617909E+03  0.54276051376E+03  0.50400001928E-02 0.  1.
</event>
<event>
 5   0  0.9410666E-04  0.1143060E+04  0.7818609E-02  0.9164210E-01
        2   -1    0    0  501    0  0.00000000000E+00  0.00000000000E+00  0.16305579464E+04  0.16305579464E+04  0.25500000920E-02 0.  1.
       -2   -1    0    0    0  501  0.00000000000E+00  0.00000000000E+00 -0.20032791624E+03  0.20032791626E+03  0.25500000920E-02 0. -1.
    10030    2    1    2    0    0  0.00000000000E+00  0.00000000000E+00  0.14302300302E+04  0.18308858627E+04  0.11430595360E+04 0.  0.
        2    1    3    3  502    0  0.32194091196E+03  0.44679223225E+03  0.96001403734E+03  0.11067502887E+04  0.25500000920E-02 0. -1.
       -2    1    3    3    0  502 -0.32194091196E+03 -0.44679223225E+03  0.47021599282E+03  0.72413557398E+03  0.25500000920E-02 0.  1.
</event>
<event>
 5   0  0.9298693E-04  0.1193540E+04  0.7818609E-02  0.9118530E-01
       -2   -1    0    0    0  501  0.00000000000E+00  0.00000000000E+00  0.13834678954E+04  0.13834678954E+04  0.25500000920E-02 0.  1.
        2   -1    0    0  501    0  0.00000000000E+00  0.00000000000E+00 -0.25742155609E+03  0.25742155611E+03  0.25500000920E-02 0. -1.
    10030    2    1    2    0    0  0.00000000000E+00  0.00000000000E+00  0.11260463394E+04  0.16408894516E+04  0.11935400428E+04 0.  0.
        1    1    3    3  502    0  0.23949901779E+03  0.68345957281E+02 -0.18255371031E+03  0.30879897437E+03  0.50400001928E-02 0. -1.
       -1    1    3    3    0  502 -0.23949901779E+03 -0.68345957281E+02  0.13086000497E+04  0.13320904772E+04  0.50400001928E-02 0.  1.
</event>
<event>
 5   0  0.5001586E-04  0.1197471E+04  0.7818609E-02  0.9115073E-01
        1   -1    0    0  501    0  0.00000000000E+00  0.00000000000E+00  0.10705391742E+04  0.10705391742E+04  0.50400001928E-02 0. -1.
       -1   -1    0    0    0  501  0.00000000000E+00  0.00000000000E+00 -0.33486316183E+03  0.33486316187E+03  0.50400001928E-02 0.  1.
    10030    2    1    2    0    0  0.00000000000E+00  0.00000000000E+00  0.73567601235E+03  0.14054023361E+04  0.11974708894E+04 0.  0.
        1    1    3    3  502    0 -0.35412502041E+02  0.58573186320E+03  0.50743864475E+03  0.77577692611E+03  0.50400001928E-02 0. -1.
       -1    1    3    3    0  502  0.35412502041E+02 -0.58573186320E+03  0.22823736760E+03  0.62962540996E+03  0.50400001928E-02 0.  1.
</event>
<event>
 5   0  0.9070772E-04  0.1209573E+04  0.7818609E-02  0.9104518E-01
        2   -1    0    0  501    0  0.00000000000E+00  0.00000000000E+00  0.59705707631E+03  0.59705707632E+03  0.25500000920E-02 0.  1.
       -2   -1    0    0    0  501  0.00000000000E+00  0.00000000000E+00 -0.61261596509E+03  0.61261596510E+03  0.25500000920E-02 0. -1.
    10030    2    1    2    0    0  0.00000000000E+00  0.00000000000E+00 -0.15558888775E+02  0.12096730414E+04  0.12095729776E+04 0.  0.
        4    1    3    3  502    0 -0.85060238527E+02 -0.59224766917E+03  0.80389849310E+02  0.60370248185E+03  0.12699999809E+01 0. -1.
       -4    1    3    3    0  502  0.85060238527E+02  0.59224766917E+03 -0.95948738085E+02  0.60597055957E+03  0.12699999809E+01 0.  1.
</event>
<event>
 5   0  0.9070772E-04  0.1204177E+04  0.7818609E-02  0.9109208E-01
       -2   -1    0    0    0  501  0.00000000000E+00  0.00000000000E+00  0.25721232707E+03  0.25721232708E+03  0.25500000920E-02 0.  1.
        2   -1    0    0  501    0  0.00000000000E+00  0.00000000000E+00 -0.14093827342E+04  0.14093827342E+04  0.25500000920E-02 0. -1.
    10030    2    1    2    0    0  0.00000000000E+00  0.00000000000E+00 -0.11521704071E+04  0.16665950612E+04  0.12041770846E+04 0.  0.
        4    1    3    3  502    0  0.65854027999E+02  0.18777328551E+03 -0.13625563476E+04  0.13770101572E+04  0.12699999809E+01 0. -1.
       -4    1    3    3    0  502 -0.65854027999E+02 -0.18777328551E+03  0.21038594054E+03  0.28958490401E+03  0.12699999809E+01 0.  1.
</event>
<event>
 5   0  0.9145224E-04  0.1200537E+04  0.7818609E-02  0.9112387E-01
        2   -1    0    0  501    0  0.00000000000E+00  0.00000000000E+00  0.64252792714E+03  0.64252792714E+03  0.25500000920E-02 0. -1.
       -2   -1    0    0    0  501  0.00000000000E+00  0.00000000000E+00 -0.56078813808E+03  0.56078813809E+03  0.25500000920E-02 0.  1.
    10030    2    1    2    0    0  0.00000000000E+00  0.00000000000E+00  0.81739789057E+02  0.12033160652E+04  0.12005366132E+04 0.  0.
        5    1    3    3  502    0 -0.35489702845E+03 -0.45142491445E+03 -0.13435932591E+03  0.58975492592E+03  0.46999998093E+01 0.  1.
       -5    1    3    3    0  502  0.35489702845E+03  0.45142491445E+03  0.21609911496E+03  0.61356113931E+03  0.46999998093E+01 0. -1.
</event>
<event>
 5   0  0.5447074E-04  0.1197300E+04  0.7818609E-02  0.9115223E-01
       -1   -1    0    0    0  501  0.00000000000E+00  0.00000000000E+00  0.27650458175E+03  0.27650458180E+03  0.50400001928E-02 0.  1.
        1   -1    0    0  501    0  0.00000000000E+00  0.00000000000E+00 -0.12961159163E+04  0.12961159163E+04  0.50400001928E-02 0. -1.
    10030    2    1    2    0    0  0.00000000000E+00  0.00000000000E+00 -0.10196113345E+04  0.15726204981E+04  0.11973002787E+04 0.  0.
        4    1    3    3  502    0 -0.45233214870E+03 -0.14982178720E+03 -0.33811218574E+02  0.47769839027E+03  0.12699999809E+01 0.  1.
       -4    1    3    3    0  502  0.45233214870E+03  0.14982178720E+03 -0.98580011593E+03  0.10949221078E+04  0.12699999809E+01 0. -1.
</event>
<event>
 5   0  0.5052959E-04  0.1203189E+04  0.7818609E-02  0.9110069E-01
        1   -1    0    0  501    0  0.00000000000E+00  0.00000000000E+00  0.12745649799E+04  0.12745649799E+04  0.50400001928E-02 0.  1.
       -1   -1    0    0    0  501  0.00000000000E+00  0.00000000000E+00 -0.28395268938E+03  0.28395268942E+03  0.50400001928E-02 0. -1.
    10030    2    1    2    0    0  0.00000000000E+00  0.00000000000E+00  0.99061229050E+03  0.15585176693E+04  0.12031893515E+04 0.  0.
        2    1    3    3  502    0  0.35266013895E+03 -0.26927982026E+03 -0.30912523261E+02  0.44478801614E+03  0.25500000920E-02 0. -1.
       -2    1    3    3    0  502 -0.35266013895E+03  0.26927982026E+03  0.10215248138E+04  0.11137296532E+04  0.25500000920E-02 0.  1.
</event>
<event>
 5   0  0.9050363E-04  0.1203261E+04  0.7818609E-02  0.9110007E-01
       -2   -1    0    0    0  501  0.00000000000E+00  0.00000000000E+00  0.28770468136E+03  0.28770468137E+03  0.25500000920E-02 0.  1.
        2   -1    0    0  501    0  0.00000000000E+00  0.00000000000E+00 -0.12580934770E+04  0.12580934770E+04  0.25500000920E-02 0. -1.
    10030    2    1    2    0    0  0.00000000000E+00  0.00000000000E+00 -0.97038879561E+03  0.15457981583E+04  0.12032612068E+04 0.  0.
        3    1    3    3  502    0 -0.12627611708E+03  0.39023140502E+03 -0.10506452431E+04  0.11278659691E+04  0.10100000352E+00 0. -1.
       -3    1    3    3    0  502  0.12627611708E+03 -0.39023140502E+03  0.80256447522E+02  0.41793218921E+03  0.10100000352E+00 0.  1.
</event>
<event>
 5   0  0.9298693E-04  0.1197140E+04  0.7818609E-02  0.9115364E-01
       -2   -1    0    0    0  501  0.00000000000E+00  0.00000000000E+00  0.21440885083E+03  0.21440885085E+03  0.25500000920E-02 0.  1.
        2   -1    0    0  501    0  0.00000000000E+00  0.00000000000E+00 -0.16710415176E+04  0.16710415176E+04  0.25500000920E-02 0. -1.
    10030    2    1    2    0    0  0.00000000000E+00  0.00000000000E+00 -0.14566326668E+04  0.18854503685E+04  0.11971400779E+04 0.  0.
        1    1    3    3  502    0 -0.12571123192E+02 -0.50907564200E+03 -0.23284101298E+03  0.55993837140E+03  0.50400001928E-02 0.  1.
       -1    1    3    3    0  502  0.12571123192E+02  0.50907564200E+03 -0.12237916538E+04  0.13255119971E+04  0.50400001928E-02 0. -1.
</event>
<event>
 5   0  0.9070772E-04  0.1200097E+04  0.7818609E-02  0.9112771E-01
        2   -1    0    0  501    0  0.00000000000E+00  0.00000000000E+00  0.36175019815E+03  0.36175019815E+03  0.25500000920E-02 0.  1.
       -2   -1    0    0    0  501  0.00000000000E+00  0.00000000000E+00 -0.99532358023E+03  0.99532358024E+03  0.25500000920E-02 0. -1.
    10030    2    1    2    0    0  0.00000000000E+00  0.00000000000E+00 -0.63357338209E+03  0.13570737784E+04  0.12000975000E+04 0.  0.
        4    1    3    3  502    0 -0.13526084644E+03 -0.53492601054E+03 -0.58346338978E+03  0.80303952172E+03  0.12699999809E+01 0. -1.
       -4    1    3    3    0  502  0.13526084644E+03  0.53492601054E+03 -0.50109992306E+02  0.55403425667E+03  0.12699999809E+01 0.  1.
</event>
<event>
 5   0  0.5003507E-04  0.1205041E+04  0.7818609E-02  0.9108455E-01
        1   -1    0    0  501    0  0.00000000000E+00  0.00000000000E+00  0.10575145750E+04  0.10575145750E+04  0.50400001928E-02 0. -1.
       -1   -1    0    0    0  501  0.00000000000E+00  0.00000000000E+00 -0.34328707044E+03  0.34328707047E+03  0.50400001928E-02 0.  1.
    10030    2    1    2    0    0  0.00000000000E+00  0.00000000000E+00  0.71422750455E+03  0.14008016455E+04  0.12050412116E+04 0.  0.
        3    1    3    3  502    0 -0.57161181238E+03  0.53581817925E+02  0.56962304874E+03  0.80875305447E+03  0.10100000352E+00 0.  1.
       -3    1    3    3    0  502  0.57161181238E+03 -0.53581817925E+02  0.14460445581E+03  0.59204859100E+03  0.10100000352E+00 0. -1.
</event>
<event>
 5   0  0.5001586E-04  0.1202788E+04  0.7818609E-02  0.9110420E-01
        1   -1    0    0  501    0  0.00000000000E+00  0.00000000000E+00  0.59254369871E+03  0.59254369873E+03  0.50400001928E-02 0. -1.
       -1   -1    0    0    0  501  0.00000000000E+00  0.00000000000E+00 -0.61037611295E+03  0.61037611297E+03  0.50400001928E-02 0.  1.
    10030    2    1    2    0    0  0.00000000000E+00  0.00000000000E+00 -0.17832414240E+02  0.12029198117E+04  0.12027876281E+04 0.  0.
        1    1    3    3  502    0  0.32386666861E+02  0.18562377060E+03 -0.58009142860E+03  0.60992716448E+03  0.50400001928E-02 0.  1.
       -1    1    3    3    0  502 -0.32386666861E+02 -0.18562377060E+03  0.56225901436E+03  0.59299264722E+03  0.50400001928E-02 0. -1.
</event>
<event>
 5   0  0.5052959E-04  0.1196461E+04  0.7818609E-02  0.9115960E-01
       -1   -1    0    0    0  501  0.00000000000E+00  0.00000000000E+00  0.51706235978E+03  0.51706235980E+03  0.50400001928E-02 0. -1.
        1   -1    0    0  501    0  0.00000000000E+00  0.00000000000E+00 -0.69214036672E+03  0.69214036674E+03  0.50400001928E-02 0.  1.
    10030    2    1    2    0    0  0.00000000000E+00  0.00000000000E+00 -0.17507800694E+03  0.12092027265E+04  0.11964610003E+04 0.  0.
        2    1    3    3  502    0  0.28310395015E+03 -0.50917247034E+03 -0.22491032859E+03  0.62449107844E+03  0.25500000920E-02 0.  1.
       -2    1    3    3    0  502 -0.28310395015E+03  0.50917247034E+03  0.49832321646E+02  0.58471164810E+03  0.25500000920E-02 0. -1.
</event>
<event>
 5   0  0.9298693E-04  0.1198892E+04  0.7818609E-02  0.9113827E-01
        2   -1    0    0  501    0  0.00000000000E+00  0.00000000000E+00  0.11267718860E+04  0.11267718860E+04  0.25500000920E-02 0.  1.
       -2   -1    0    0    0  501  0.00000000000E+00  0.00000000000E+00 -0.31890714428E+03  0.31890714429E+03  0.25500000920E-02 0. -1.
    10030    2    1    2    0    0  0.00000000000E+00  0.00000000000E+00  0.80786474176E+03  0.14456790303E+04  0.11988921627E+04 0.  0.
        1    1    3    3  502    0 -0.13595050907E+03  0.82929209181E+02 -0.29293361359E+03  0.33342149998E+03  0.50400001928E-02 0. -1.
       -1    1    3    3    0  502  0.13595050907E+03 -0.82929209181E+02  0.11007983553E+04  0.11122575303E+04  0.50400001928E-02 0.  1.
</event>
<event>
 5   0  0.9070772E-04  0.1201553E+04  0.7818609E-02  0.9111498E-01
       -2   -1    0    0    0  501  0.00000000000E+00  0.00000000000E+00  0.23349033849E+03  0.23349033851E+03  0.25500000920E-02 0.  1.
        2   -1    0    0  501    0  0.00000000000E+00  0.00000000000E+00 -0.15458133796E+04  0.15458133796E+04  0.25500000920E-02 0. -1.
    10030    2    1    2    0    0  0.00000000000E+00  0.00000000000E+00 -0.13123230411E+04  0.17793037181E+04  0.12015531437E+04 0.  0.
        4    1    3    3  502    0 -0.81948765187E+02  0.39680726082E+03 -0.13130243822E+04  0.13741201707E+04  0.12699999809E+01 0. -1.
       -4    1    3    3    0  502  0.81948765187E+02 -0.39680726082E+03  0.70134104471E+00  0.40518354746E+03  0.12699999809E+01 0.  1.
</event>
<event>
 5   0  0.5157631E-04  0.1221546E+04  0.7818609E-02  0.9094204E-01
        1   -1    0    0  501    0  0.00000000000E+00  0.00000000000E+00  0.10210387530E+04  0.10210387530E+04  0.50400001928E-02 0.  1.
       -1   -1    0    0    0  501  0.00000000000E+00  0.00000000000E+00 -0.36535708833E+03  0.36535708837E+03  0.50400001928E-02 0. -1.
    10030    2    1    2    0    0  0.00000000000E+00  0.00000000000E+00  0.65568166464E+03  0.13863958413E+04  0.12215461447E+04 0.  0.
        5    1    3    3  502    0 -0.10148475111E+03 -0.25593768259E+03  0.94659084149E+03  0.98582937838E+03  0.46999998093E+01 0.  1.
       -5    1    3    3    0  502  0.10148475111E+03  0.25593768259E+03 -0.29090917686E+03  0.40056646297E+03  0.46999998093E+01 0. -1.
</event>
<event>
 5   0  0.9298693E-04  0.1192101E+04  0.7818609E-02  0.9119799E-01
        2   -1    0    0  501    0  0.00000000000E+00  0.00000000000E+00  0.24861746128E+03  0.24861746130E+03  0.25500000920E-02 0.  1.
       -2   -1    0    0    0  501  0.00000000000E+00  0.00000000000E+00 -0.14290077625E+04  0.14290077625E+04  0.25500000920E-02 0. -1.
    10030    2    1    2    0    0  0.00000000000E+00  0.00000000000E+00 -0.11803903012E+04  0.16776252238E+04  0.11921011401E+04 0.  0.
        1    1    3    3  502    0  0.52103498045E+03 -0.27220049025E+02 -0.99577121586E+03  0.11241791211E+04  0.50400001928E-02 0. -1.
       -1    1    3    3    0  502 -0.52103498045E+03  0.27220049025E+02 -0.18461908537E+03  0.55344610273E+03  0.50400001928E-02 0.  1.
</event>
<event>
 5   0  0.5003507E-04  0.1204668E+04  0.7818609E-02  0.9108781E-01
       -1   -1    0    0    0  501  0.00000000000E+00  0.00000000000E+00  0.36152812499E+03  0.36152812502E+03  0.50400001928E-02 0. -1.
        1   -1    0    0  501    0  0.00000000000E+00  0.00000000000E+00 -0.10035345813E+04  0.10035345813E+04  0.50400001928E-02 0.  1.
    10030    2    1    2    0    0  0.00000000000E+00  0.00000000000E+00 -0.64200645632E+03  0.13650627063E+04  0.12046675485E+04 0.  0.
        3    1    3    3  502    0  0.51107817103E+02  0.44230339051E+03 -0.78067700561E+03  0.89872181208E+03  0.10100000352E+00 0.  1.
       -3    1    3    3    0  502 -0.51107817103E+02 -0.44230339051E+03  0.13867054928E+03  0.46634089426E+03  0.10100000352E+00 0. -1.
</event>
<event>
 5   0  0.5157631E-04  0.1201663E+04  0.7818609E-02  0.9111402E-01
        1   -1    0    0  501    0  0.00000000000E+00  0.00000000000E+00  0.43561889206E+03  0.43561889209E+03  0.50400001928E-02 0. -1.
       -1   -1    0    0    0  501  0.00000000000E+00  0.00000000000E+00 -0.82870202413E+03  0.82870202415E+03  0.50400001928E-02 0.  1.
    10030    2    1    2    0    0  0.00000000000E+00  0.00000000000E+00 -0.39308313207E+03  0.12643209162E+04  0.12016626109E+04 0.  0.
        5    1    3    3  502    0 -0.20949406817E+03 -0.55821501414E+03 -0.27445984936E+03  0.65638560734E+03  0.46999998093E+01 0.  1.
       -5    1    3    3    0  502  0.20949406817E+03  0.55821501414E+03 -0.11862328271E+03  0.60793530890E+03  0.46999998093E+01 0. -1.
</event>
<event>
 5   0  0.5157631E-04  0.1205076E+04  0.7818609E-02  0.9108425E-01
       -1   -1    0    0    0  501  0.00000000000E+00  0.00000000000E+00  0.50841193357E+03  0.50841193360E+03  0.50400001928E-02 0.  1.
        1   -1    0    0  501    0  0.00000000000E+00  0.00000000000E+00 -0.71408989065E+03  0.71408989066E+03  0.50400001928E-02 0. -1.
    10030    2    1    2    0    0  0.00000000000E+00  0.00000000000E+00 -0.20567795707E+03  0.12225018243E+04  0.12050756359E+04 0.  0.
        5    1    3    3  502    0 -0.50692060603E+03  0.13446187025E+03 -0.40374455827E+03  0.66187631300E+03  0.46999998093E+01 0. -1.
       -5    1    3    3    0  502  0.50692060603E+03 -0.13446187025E+03  0.19806660120E+03  0.56062551127E+03  0.46999998093E+01 0.  1.
</event>
<event>
 5   0  0.3453625E-04  0.1181806E+04  0.7818609E-02  0.9128932E-01
       -4   -1    0    0    0  501  0.00000000000E+00  0.00000000000E+00  0.15191575726E+04  0.15191581034E+04  0.12699999809E+01 0.  1.
        4   -1    0    0  501    0  0.00000000000E+00  0.00000000000E+00 -0.22983988848E+03  0.22984339720E+03  0.12699999809E+01 0. -1.
    10030    2    1    2    0    0  0.00000000000E+00  0.00000000000E+00  0.12893176841E+04  0.17490015007E+04  0.11818063118E+04 0.  0.
        1    1    3    3  502    0  0.55210163118E+03  0.20971030225E+03  0.61611796850E+03  0.85346117261E+03  0.50400001928E-02 0. -1.
       -1    1    3    3    0  502 -0.55210163118E+03 -0.20971030225E+03  0.67319971561E+03  0.89554032804E+03  0.50400001928E-02 0.  1.
</event>
<event>
 5   0  0.9145224E-04  0.1200054E+04  0.7818609E-02  0.9112809E-01
       -2   -1    0    0    0  501  0.00000000000E+00  0.00000000000E+00  0.36308802372E+03  0.36308802372E+03  0.25500000920E-02 0.  1.
        2   -1    0    0  501    0  0.00000000000E+00  0.00000000000E+00 -0.99158498269E+03  0.99158498269E+03  0.25500000920E-02 0. -1.
    10030    2    1    2    0    0  0.00000000000E+00  0.00000000000E+00 -0.62849695897E+03  0.13546730064E+04  0.12000543850E+04 0.  0.
        5    1    3    3  502    0 -0.32864527411E+03  0.15730909740E+03  0.22388730385E+03  0.42766982960E+03  0.46999998093E+01 0.  1.
       -5    1    3    3    0  502  0.32864527411E+03 -0.15730909740E+03 -0.85238426283E+03  0.92700317682E+03  0.46999998093E+01 0. -1.
</event>
<event>
 5   0  0.9070772E-04  0.1202720E+04  0.7818609E-02  0.9110479E-01
       -2   -1    0    0    0  501  0.00000000000E+00  0.00000000000E+00  0.28888222540E+03  0.28888222541E+03  0.25500000920E-02 0.  1.
        2   -1    0    0  501    0  0.00000000000E+00  0.00000000000E+00 -0.12518393871E+04  0.12518393871E+04  0.25500000920E-02 0. -1.
    10030    2    1    2    0    0  0.00000000000E+00  0.00000000000E+00 -0.96295716173E+03  0.15407216125E+04  0.12027204962E+04 0.  0.
        4    1    3    3  502    0  0.32809010203E+03 -0.49391353454E+03 -0.35312699510E+03  0.69014055251E+03  0.12699999809E+01 0.  1.
       -4    1    3    3    0  502 -0.32809010203E+03  0.49391353454E+03 -0.60983016664E+03  0.85058106003E+03  0.12699999809E+01 0. -1.
</event>
<event>
 5   0  0.5001586E-04  0.1205094E+04  0.7818609E-02  0.9108409E-01
        1   -1    0    0  501    0  0.00000000000E+00  0.00000000000E+00  0.63334156658E+03  0.63334156660E+03  0.50400001928E-02 0. -1.
       -1   -1    0    0    0  501  0.00000000000E+00  0.00000000000E+00 -0.57324985475E+03  0.57324985477E+03  0.50400001928E-02 0.  1.
    10030    2    1    2    0    0  0.00000000000E+00  0.00000000000E+00  0.60091711827E+02  0.12065914214E+04  0.12050941226E+04 0.  0.
        1    1    3    3  502    0  0.44418935508E+03  0.86648753672E+02  0.42834757669E+03  0.62313227823E+03  0.50400001928E-02 0. -1.
       -1    1    3    3    0  502 -0.44418935508E+03 -0.86648753672E+02 -0.36825586487E+03  0.58345914314E+03  0.50400001928E-02 0.  1.
</event>
<event>
 5   0  0.9145224E-04  0.1195901E+04  0.7818609E-02  0.9116452E-01
       -2   -1    0    0    0  501  0.00000000000E+00  0.00000000000E+00  0.19871273882E+03  0.19871273884E+03  0.25500000920E-02 0.  1.
        2   -1    0    0  501    0  0.00000000000E+00  0.00000000000E+00 -0.17993049355E+04  0.17993049355E+04  0.25500000920E-02 0. -1.
    10030    2    1    2    0    0  0.00000000000E+00  0.00000000000E+00 -0.16005921967E+04  0.19980176743E+04  0.11959010188E+04 0.  0.
        5    1    3    3  502    0 -0.54326585839E+03  0.91730639188E+02 -0.11884303622E+04  0.13099393569E+04  0.46999998093E+01 0. -1.
       -5    1    3    3    0  502  0.54326585839E+03 -0.91730639188E+02 -0.41216183446E+03  0.68807831738E+03  0.46999998093E+01 0.  1.
</event>
<event>
 5   0  0.5157631E-04  0.1194085E+04  0.7818609E-02  0.9118050E-01
        1   -1    0    0  501    0  0.00000000000E+00  0.00000000000E+00  0.71855961767E+03  0.71855961769E+03  0.50400001928E-02 0.  1.
       -1   -1    0    0    0  501  0.00000000000E+00  0.00000000000E+00 -0.49607553137E+03  0.49607553139E+03  0.50400001928E-02 0. -1.
    10030    2    1    2    0    0  0.00000000000E+00  0.00000000000E+00  0.22248408631E+03  0.12146351491E+04  0.11940851631E+04 0.  0.
        5    1    3    3  502    0 -0.15663651395E+03 -0.20240096662E+03  0.65991016257E+03  0.70781682761E+03  0.46999998093E+01 0.  1.
       -5    1    3    3    0  502  0.15663651395E+03  0.20240096662E+03 -0.43742607626E+03  0.50681832147E+03  0.46999998093E+01 0. -1.
</event>
<event>
 5   0  0.9050363E-04  0.1206018E+04  0.7818609E-02  0.9107605E-01
        2   -1    0    0  501    0  0.00000000000E+00  0.00000000000E+00  0.62124897886E+03  0.62124897887E+03  0.25500000920E-02 0. -1.
       -2   -1    0    0    0  501  0.00000000000E+00  0.00000000000E+00 -0.58530431548E+03  0.58530431549E+03  0.25500000920E-02 0.  1.
    10030    2    1    2    0    0  0.00000000000E+00  0.00000000000E+00  0.35944663376E+02  0.12065532944E+04  0.12060177583E+04 0.  0.
        3    1    3    3  502    0  0.74948965621E+02 -0.57019334780E+03 -0.16344185162E+03  0.59787210203E+03  0.10100000352E+00 0.  1.
       -3    1    3    3    0  502 -0.74948965621E+02  0.57019334780E+03  0.19938651499E+03  0.60868119232E+03  0.10100000352E+00 0. -1.
</event>
<event>
 5   0  0.9145224E-04  0.1204012E+04  0.7818609E-02  0.9109352E-01
        2   -1    0    0  501    0  0.00000000000E+00  0.00000000000E+00  0.50572830834E+03  0.50572830835E+03  0.25500000920E-02 0. -1.
       -2   -1    0    0    0  501  0.00000000000E+00  0.00000000000E+00 -0.71661210248E+03  0.71661210249E+03  0.25500000920E-02 0.  1.
    10030    2    1    2    0    0  0.00000000000E+00  0.00000000000E+00 -0.21088379414E+03  0.12223404108E+04  0.12040116716E+04 0.  0.
        5    1    3    3  502    0  0.20836689004E+03  0.20672985932E+03 -0.63902341545E+03  0.70322614506E+03  0.46999998093E+01 0.  1.
       -5    1    3    3    0  502 -0.20836689004E+03 -0.20672985932E+03  0.42813962131E+03  0.51911426578E+03  0.46999998093E+01 0. -1.
</event>
<event>
 5   0  0.5447074E-04  0.1201140E+04  0.7818609E-02  0.9111859E-01
        1   -1    0    0  501    0  0.00000000000E+00  0.00000000000E+00  0.17496390919E+04  0.17496390919E+04  0.50400001928E-02 0. -1.
       -1   -1    0    0    0  501  0.00000000000E+00  0.00000000000E+00 -0.20614799375E+03  0.20614799381E+03  0.50400001928E-02 0.  1.
    10030    2    1    2    0    0  0.00000000000E+00  0.00000000000E+00  0.15434910981E+04  0.19557870857E+04  0.12011404392E+04 0.  0.
        4    1    3    3  502    0  0.21318088254E+03 -0.55273562799E+03  0.61121205159E+03  0.85120182568E+03  0.12699999809E+01 0.  1.
       -4    1    3    3    0  502 -0.21318088254E+03  0.55273562799E+03  0.93227904655E+03  0.11045852600E+04  0.12699999809E+01 0. -1.
</event>
<event>
 5   0  0.9050363E-04  0.1199415E+04  0.7818609E-02  0.9113368E-01
       -2   -1    0    0    0  501  0.00000000000E+00  0.00000000000E+00  0.47513618672E+03  0.47513618672E+03  0.25500000920E-02 0.  1.
        2   -1    0    0  501    0  0.00000000000E+00  0.00000000000E+00 -0.75693929362E+03  0.75693929362E+03  0.25500000920E-02 0. -1.
    10030    2    1    2    0    0  0.00000000000E+00  0.00000000000E+00 -0.28180310690E+03  0.12320754803E+04  0.11994152735E+04 0.  0.
        3    1    3    3  502    0 -0.50854713365E+03  0.89196549811E+02 -0.45428760370E+03  0.68771611056E+03  0.10100000352E+00 0. -1.
       -3    1    3    3    0  502  0.50854713365E+03 -0.89196549811E+02  0.17248449680E+03  0.54435936979E+03  0.10100000352E+00 0.  1.
</event>
<event>
 5   0  0.9410666E-04  0.1191387E+04  0.7818609E-02  0.9120429E-01
       -2   -1    0    0    0  501  0.00000000000E+00  0.00000000000E+00  0.32514596824E+03  0.32514596825E+03  0.25500000920E-02 0.  1.
        2   -1    0    0  501    0  0.00000000000E+00  0.00000000000E+00 -0.10913575178E+04  0.10913575178E+04  0.25500000920E-02 0. -1.
    10030    2    1    2    0    0  0.00000000000E+00  0.00000000000E+00 -0.76621154952E+03  0.14165034860E+04  0.11913865818E+04 0.  0.
        2    1    3    3  502    0 -0.45870924988E+02 -0.12044295571E+03  0.30837057282E+03  0.33422007349E+03  0.25500000920E-02 0.  1.
       -2    1    3    3    0  502  0.45870924988E+02  0.12044295571E+03 -0.10745821223E+04  0.10822834125E+04  0.25500000920E-02 0. -1.
</event>
<event>
 5   0  0.9070772E-04  0.1197202E+04  0.7818609E-02  0.9115309E-01
       -2   -1    0    0    0  501  0.00000000000E+00  0.00000000000E+00  0.46534135954E+03  0.46534135954E+03  0.25500000920E-02 0. -1.
        2   -1    0    0  501    0  0.00000000000E+00  0.00000000000E+00 -0.77002164869E+03  0.77002164869E+03  0.25500000920E-02 0.  1.
    10030    2    1    2    0    0  0.00000000000E+00  0.00000000000E+00 -0.30468028915E+03  0.12353630082E+04  0.11972016052E+04 0.  0.
        4    1    3    3  502    0  0.39239865328E+03 -0.11756927110E+03 -0.60274177034E+03  0.72876504528E+03  0.12699999809E+01 0.  1.
       -4    1    3    3    0  502 -0.39239865328E+03  0.11756927110E+03  0.29806148119E+03  0.50659796296E+03  0.12699999809E+01 0. -1.
</event>
<event>
 5   0  0.9145224E-04  0.1195454E+04  0.7818609E-02  0.9116845E-01
       -2   -1    0    0    0  501  0.00000000000E+00  0.00000000000E+00  0.13108485930E+03  0.13108485933E+03  0.25500000920E-02 0. -1.
        2   -1    0    0  501    0  0.00000000000E+00  0.00000000000E+00 -0.27255425475E+04  0.27255425475E+04  0.25500000920E-02 0.  1.
    10030    2    1    2    0    0  0.00000000000E+00  0.00000000000E+00 -0.25944576882E+04  0.28566274068E+04  0.11954536568E+04 0.  0.
        5    1    3    3  502    0  0.53349066689E+03  0.74139167514E+02 -0.19164304907E+04  0.19906875254E+04  0.46999998093E+01 0. -1.
       -5    1    3    3    0  502 -0.53349066689E+03 -0.74139167514E+02 -0.67802719746E+03  0.86593988147E+03  0.46999998093E+01 0.  1.
</event>
<event>
 5   0  0.9298693E-04  0.1196163E+04  0.7818609E-02  0.9116222E-01
        2   -1    0    0  501    0  0.00000000000E+00  0.00000000000E+00  0.88237554970E+03  0.88237554971E+03  0.25500000920E-02 0.  1.
       -2   -1    0    0    0  501  0.00000000000E+00  0.00000000000E+00 -0.40538441355E+03  0.40538441356E+03  0.25500000920E-02 0. -1.
    10030    2    1    2    0    0  0.00000000000E+00  0.00000000000E+00  0.47699113616E+03  0.12877599633E+04  0.11961626892E+04 0.  0.
        1    1    3    3  502    0  0.15641806779E+03 -0.42108378377E+03 -0.18661307883E+03  0.48641813916E+03  0.50400001928E-02 0. -1.
       -1    1    3    3    0  502 -0.15641806779E+03  0.42108378377E+03  0.66360421499E+03  0.80134182411E+03  0.50400001928E-02 0.  1.
</event>
<event>
 5   0  0.9298693E-04  0.1162260E+04  0.7818609E-02  0.9146547E-01
       -2   -1    0    0    0  501  0.00000000000E+00  0.00000000000E+00  0.78361929397E+03  0.78361929398E+03  0.25500000920E-02 0.  1.
        2   -1    0    0  501    0  0.00000000000E+00  0.00000000000E+00 -0.43096471129E+03  0.43096471129E+03  0.25500000920E-02 0. -1.
    10030    2    1    2    0    0  0.00000000000E+00  0.00000000000E+00  0.35265458269E+03  0.12145840053E+04  0.11622603199E+04 0.  0.
        1    1    3    3  502    0  0.21615049536E+02 -0.56047461372E+03  0.17452590130E+02  0.56116271787E+03  0.50400001928E-02 0. -1.
       -1    1    3    3    0  502 -0.21615049536E+02  0.56047461372E+03  0.33520199256E+03  0.65342128741E+03  0.50400001928E-02 0.  1.
</event>
<event>
 5   0  0.5001586E-04  0.1206081E+04  0.7818609E-02  0.9107550E-01
       -1   -1    0    0    0  501  0.00000000000E+00  0.00000000000E+00  0.33811765781E+03  0.33811765785E+03  0.50400001928E-02 0.  1.
        1   -1    0    0  501    0  0.00000000000E+00  0.00000000000E+00 -0.10755363068E+04  0.10755363069E+04  0.50400001928E-02 0. -1.
    10030    2    1    2    0    0  0.00000000000E+00  0.00000000000E+00 -0.73741864904E+03  0.14136539647E+04  0.12060809542E+04 0.  0.
        1    1    3    3  502    0 -0.35764255610E+03 -0.78759130255E+02  0.19285835683E+03  0.41389073964E+03  0.50400001928E-02 0.  1.
       -1    1    3    3    0  502  0.35764255610E+03  0.78759130255E+02 -0.93027700586E+03  0.99976322507E+03  0.50400001928E-02 0. -1.
</event>
<event>
 5   0  0.5052959E-04  0.1199702E+04  0.7818609E-02  0.9113118E-01
        1   -1    0    0  501    0  0.00000000000E+00  0.00000000000E+00  0.90103356892E+03  0.90103356893E+03  0.50400001928E-02 0.  1.
       -1   -1    0    0    0  501  0.00000000000E+00  0.00000000000E+00 -0.39934259109E+03  0.39934259112E+03  0.50400001928E-02 0. -1.
    10030    2    1    2    0    0  0.00000000000E+00  0.00000000000E+00  0.50169097783E+03  0.13003761600E+04  0.11997017631E+04 0.  0.
        2    1    3    3  502    0  0.34572152632E+03 -0.44308868881E+03  0.47813245320E+03  0.73787641427E+03  0.25500000920E-02 0.  1.
       -2    1    3    3    0  502 -0.34572152632E+03  0.44308868881E+03  0.23558524628E+02  0.56249974578E+03  0.25500000920E-02 0. -1.
</event>
<event>
 5   0  0.9298693E-04  0.1199459E+04  0.7818609E-02  0.9113331E-01
       -2   -1    0    0    0  501  0.00000000000E+00  0.00000000000E+00  0.28547001332E+03  0.28547001333E+03  0.25500000920E-02 0. -1.
        2   -1    0    0  501    0  0.00000000000E+00  0.00000000000E+00 -0.12599405969E+04  0.12599405969E+04  0.25500000920E-02 0.  1.
    10030    2    1    2    0    0  0.00000000000E+00  0.00000000000E+00 -0.97447058359E+03  0.15454106102E+04  0.11994586429E+04 0.  0.
        1    1    3    3  502    0  0.28364572942E+03 -0.52436864013E+03 -0.57130813770E+03  0.82571808676E+03  0.50400001928E-02 0.  1.
       -1    1    3    3    0  502 -0.28364572942E+03  0.52436864013E+03 -0.40316244589E+03  0.71969252349E+03  0.50400001928E-02 0. -1.
</event>
<event>
 5   0  0.5157631E-04  0.1199336E+04  0.7818609E-02  0.9113438E-01
        1   -1    0    0  501    0  0.00000000000E+00  0.00000000000E+00  0.61432709125E+03  0.61432709127E+03  0.50400001928E-02 0. -1.
       -1   -1    0    0    0  501  0.00000000000E+00  0.00000000000E+00 -0.58535910240E+03  0.58535910242E+03  0.50400001928E-02 0.  1.
    10030    2    1    2    0    0  0.00000000000E+00  0.00000000000E+00  0.28967988852E+02  0.11996861937E+04  0.11993364078E+04 0.  0.
        5    1    3    3  502    0  0.46546215214E+03 -0.37793261298E+03  0.24067483549E+02  0.60007450270E+03  0.46999998093E+01 0. -1.
       -5    1    3    3    0  502 -0.46546215214E+03  0.37793261298E+03  0.49005053034E+01  0.59961169099E+03  0.46999998093E+01 0.  1.
</event>
<event>
 5   0  0.9145224E-04  0.1185869E+04  0.7818609E-02  0.9125316E-01
        2   -1    0    0  501    0  0.00000000000E+00  0.00000000000E+00  0.44149018006E+03  0.44149018007E+03  0.25500000920E-02 0.  1.
       -2   -1    0    0    0  501  0.00000000000E+00  0.00000000000E+00 -0.79632923660E+03  0.79632923660E+03  0.25500000920E-02 0. -1.
    10030    2    1    2    0    0  0.00000000000E+00  0.00000000000E+00 -0.35483905654E+03  0.12378194167E+04  0.11858693656E+04 0.  0.
        5    1    3    3  502    0  0.69807004161E+02  0.14443915558E+03  0.41838685526E+03  0.44811308634E+03  0.46999998093E+01 0.  1.
       -5    1    3    3    0  502 -0.69807004161E+02 -0.14443915558E+03 -0.77322591180E+03  0.78970633033E+03  0.46999998093E+01 0. -1.
</event>
<event>
 5   0  0.5003507E-04  0.1202695E+04  0.7818609E-02  0.9110501E-01
       -1   -1    0    0    0  501  0.00000000000E+00  0.00000000000E+00  0.55352599081E+03  0.55352599083E+03  0.50400001928E-02 0. -1.
        1   -1    0    0  501    0  0.00000000000E+00  0.00000000000E+00 -0.65330033705E+03  0.65330033707E+03  0.50400001928E-02 0.  1.
    10030    2    1    2    0    0  0.00000000000E+00  0.00000000000E+00 -0.99774346240E+02  0.12068263279E+04  0.12026948348E+04 0.  0.
        3    1    3    3  502    0 -0.47744266769E+02  0.52051359905E+03 -0.34823797877E+03  0.62807931176E+03  0.10100000352E+00 0.  1.
       -3    1    3    3    0  502  0.47744266769E+02 -0.52051359905E+03  0.24846363253E+03  0.57874701614E+03  0.10100000352E+00 0. -1.
</event>
<event>
 5   0  0.9410666E-04  0.1202475E+04  0.7818609E-02  0.9110693E-01
        2   -1    0    0  501    0  0.00000000000E+00  0.00000000000E+00  0.10701970682E+04  0.10701970682E+04  0.25500000920E-02 0.  1.
       -2   -1    0    0    0  501  0.00000000000E+00  0.00000000000E+00 -0.33777584493E+03  0.33777584494E+03  0.25500000920E-02 0. -1.
    10030    2    1    2    0    0  0.00000000000E+00  0.00000000000E+00  0.73242122328E+03  0.14079729131E+04  0.12024753119E+04 0.  0.
        2    1    3    3  502    0  0.72654502023E+01 -0.48668572602E+03  0.77947358451E+03  0.91896400997E+03  0.25500000920E-02 0.  1.
       -2    1    3    3    0  502 -0.72654502023E+01  0.48668572602E+03 -0.47052361232E+02  0.48900890317E+03  0.25500000920E-02 0. -1.
</event>
<event>
 5   0  0.5447074E-04  0.1201088E+04  0.7818609E-02  0.9111905E-01
       -1   -1    0    0    0  501  0.00000000000E+00  0.00000000000E+00  0.69046851278E+03  0.69046851280E+03  0.50400001928E-02 0. -1.
        1   -1    0    0  501    0  0.00000000000E+00  0.00000000000E+00 -0.52233094264E+03  0.52233094267E+03  0.50400001928E-02 0.  1.
    10030    2    1    2    0    0  0.00000000000E+00  0.00000000000E+00  0.16813757014E+03  0.12127994555E+04  0.12010879554E+04 0.  0.
        4    1    3    3  502    0 -0.13873095012E+02 -0.55862499562E+03 -0.13806974096E+03  0.57560334847E+03  0.12699999809E+01 0.  1.
       -4    1    3    3    0  502  0.13873095012E+02  0.55862499562E+03  0.30620731110E+03  0.63719610700E+03  0.12699999809E+01 0. -1.
</event>
<event>
 5   0  0.5157631E-04  0.1199802E+04  0.7818609E-02  0.9113030E-01
       -1   -1    0    0    0  501  0.00000000000E+00  0.00000000000E+00  0.51882334748E+03  0.51882334750E+03  0.50400001928E-02 0. -1.
        1   -1    0    0  501    0  0.00000000000E+00  0.00000000000E+00 -0.69364889763E+03  0.69364889765E+03  0.50400001928E-02 0.  1.
    10030    2    1    2    0    0  0.00000000000E+00  0.00000000000E+00 -0.17482555016E+03  0.12124722452E+04  0.11998020555E+04 0.  0.
        5    1    3    3  502    0  0.18084406273E+03  0.40307009471E+02  0.48916468681E+03  0.52309980966E+03  0.46999998093E+01 0. -1.
       -5    1    3    3    0  502 -0.18084406273E+03 -0.40307009471E+02 -0.66399023697E+03  0.68937243550E+03  0.46999998093E+01 0.  1.
</event>
<event>
 5   0  0.5001586E-04  0.1201757E+04  0.7818609E-02  0.9111320E-01
       -1   -1    0    0    0  501  0.00000000000E+00  0.00000000000E+00  0.52257131918E+03  0.52257131920E+03  0.50400001928E-02 0. -1.
        1   -1    0    0  501    0  0.00000000000E+00  0.00000000000E+00 -0.69092054359E+03  0.69092054361E+03  0.50400001928E-02 0.  1.
    10030    2    1    2    0    0  0.00000000000E+00  0.00000000000E+00 -0.16834922442E+03  0.12134918628E+04  0.12017574796E+04 0.  0.
        1    1    3    3  502    0 -0.20325497508E+03 -0.56481612720E+03 -0.56978048098E+02  0.60297291849E+03  0.50400001928E-02 0. -1.
       -1    1    3    3    0  502  0.20325497508E+03  0.56481612720E+03 -0.11137117632E+03  0.61051894433E+03  0.50400001928E-02 0.  1.
</event>
<event>
 5   0  0.5052959E-04  0.1193870E+04  0.7818609E-02  0.9118239E-01
        1   -1    0    0  501    0  0.00000000000E+00  0.00000000000E+00  0.11024734670E+04  0.11024734670E+04  0.50400001928E-02 0. -1.
       -1   -1    0    0    0  501  0.00000000000E+00  0.00000000000E+00 -0.32321092467E+03  0.32321092471E+03  0.50400001928E-02 0.  1.
    10030    2    1    2    0    0  0.00000000000E+00  0.00000000000E+00  0.77926254236E+03  0.14256843918E+04  0.11938701248E+04 0.  0.
        2    1    3    3  502    0 -0.22043724133E+03 -0.55356471612E+03  0.43277036046E+03  0.73642152141E+03  0.25500000920E-02 0. -1.
       -2    1    3    3    0  502  0.22043724133E+03  0.55356471612E+03  0.34649218190E+03  0.68926287034E+03  0.25500000920E-02 0.  1.
</event>
<event>
 5   0  0.9050363E-04  0.1198609E+04  0.7818609E-02  0.9114075E-01
        2   -1    0    0  501    0  0.00000000000E+00  0.00000000000E+00  0.12956270499E+04  0.12956270499E+04  0.25500000920E-02 0. -1.
       -2   -1    0    0    0  501  0.00000000000E+00  0.00000000000E+00 -0.27721376359E+03  0.27721376360E+03  0.25500000920E-02 0.  1.
    10030    2    1    2    0    0  0.00000000000E+00  0.00000000000E+00  0.10184132864E+04  0.15728408136E+04  0.11986086112E+04 0.  0.
        3    1    3    3  502    0 -0.34041885192E+03 -0.42253510038E+03  0.84310140401E+03  0.10026170223E+04  0.10100000352E+00 0. -1.
       -3    1    3    3    0  502  0.34041885192E+03  0.42253510038E+03  0.17531188234E+03  0.57022379123E+03  0.10100000352E+00 0.  1.
</event>
<event>
 5   0  0.9298693E-04  0.1193732E+04  0.7818609E-02  0.9118361E-01
       -2   -1    0    0    0  501  0.00000000000E+00  0.00000000000E+00  0.57103523492E+03  0.57103523492E+03  0.25500000920E-02 0. -1.
        2   -1    0    0  501    0  0.00000000000E+00  0.00000000000E+00 -0.62386530267E+03  0.62386530268E+03  0.25500000920E-02 0.  1.
    10030    2    1    2    0    0  0.00000000000E+00  0.00000000000E+00 -0.52830067753E+02  0.11949005376E+04  0.11937320799E+04 0.  0.
        1    1    3    3  502    0  0.28773581030E+03 -0.51495613260E+03 -0.11748405581E+03  0.60147669815E+03  0.50400001928E-02 0.  1.
       -1    1    3    3    0  502 -0.28773581030E+03  0.51495613260E+03  0.64653988055E+02  0.59342383945E+03  0.50400001928E-02 0. -1.
</event>
<event>
 5   0  0.5052959E-04  0.1202558E+04  0.7818609E-02  0.9110621E-01
        1   -1    0    0  501    0  0.00000000000E+00  0.00000000000E+00  0.44408297604E+03  0.44408297607E+03  0.50400001928E-02 0. -1.
       -1   -1    0    0    0  501  0.00000000000E+00  0.00000000000E+00 -0.81411879029E+03  0.81411879031E+03  0.50400001928E-02 0.  1.
    10030    2    1    2    0    0  0.00000000000E+00  0.00000000000E+00 -0.37003581425E+03  0.12582017664E+04  0.12025577662E+04 0.  0.
        2    1    3    3  502    0 -0.72108901098E+02 -0.10963987704E+03  0.42891760551E+03  0.44854309557E+03  0.25500000920E-02 0. -1.
       -2    1    3    3    0  502  0.72108901098E+02  0.10963987704E+03 -0.79895341976E+03  0.80965867081E+03  0.25500000920E-02 0.  1.
</event>
<event>
 5   0  0.5447074E-04  0.1197972E+04  0.7818609E-02  0.9114633E-01
        1   -1    0    0  501    0  0.00000000000E+00  0.00000000000E+00  0.74742127165E+03  0.74742127167E+03  0.50400001928E-02 0. -1.
       -1   -1    0    0    0  501  0.00000000000E+00  0.00000000000E+00 -0.48002968372E+03  0.48002968375E+03  0.50400001928E-02 0.  1.
    10030    2    1    2    0    0  0.00000000000E+00  0.00000000000E+00  0.26739158793E+03  0.12274509554E+04  0.11979722813E+04 0.  0.
        4    1    3    3  502    0 -0.40016966351E+03  0.67391136330E+01 -0.32291771883E+03  0.51425542416E+03  0.12699999809E+01 0.  1.
       -4    1    3    3    0  502  0.40016966351E+03 -0.67391136330E+01  0.59030930676E+03  0.71319553125E+03  0.12699999809E+01 0. -1.
</event>
<event>
 5   0  0.5003507E-04  0.1196974E+04  0.7818609E-02  0.9115510E-01
        1   -1    0    0  501    0  0.00000000000E+00  0.00000000000E+00  0.58907999196E+03  0.58907999198E+03  0.50400001928E-02 0.  1.
       -1   -1    0    0    0  501  0.00000000000E+00  0.00000000000E+00 -0.60804385076E+03  0.60804385078E+03  0.50400001928E-02 0. -1.
    10030    2    1    2    0    0  0.00000000000E+00  0.00000000000E+00 -0.18963858805E+02  0.11971238428E+04  0.11969736283E+04 0.  0.
        3    1    3    3  502    0  0.52201322341E+03 -0.13184481743E+03 -0.27086811947E+03  0.60270258806E+03  0.10100000352E+00 0. -1.
       -3    1    3    3    0  502 -0.52201322341E+03  0.13184481743E+03  0.25190426066E+03  0.59442125470E+03  0.10100000352E+00 0.  1.
</event>
<event>
 5   0  0.5447074E-04  0.1188816E+04  0.7818609E-02  0.9122703E-01
       -1   -1    0    0    0  501  0.00000000000E+00  0.00000000000E+00  0.80532200260E+03  0.80532200262E+03  0.50400001928E-02 0. -1.
        1   -1    0    0  501    0  0.00000000000E+00  0.00000000000E+00 -0.43873238308E+03  0.43873238311E+03  0.50400001928E-02 0.  1.
    10030    2    1    2    0    0  0.00000000000E+00  0.00000000000E+00  0.36658961952E+03  0.12440543857E+04  0.11888159511E+04 0.  0.
        4    1    3    3  502    0  0.10471498458E+03 -0.58279146782E+03  0.23775228896E+03  0.63807435833E+03  0.12699999809E+01 0.  1.
       -4    1    3    3    0  502 -0.10471498458E+03  0.58279146782E+03  0.12883733056E+03  0.60598002740E+03  0.12699999809E+01 0. -1.
</event>
<event>
 5   0  0.9410666E-04  0.1174286E+04  0.7818609E-02  0.9135666E-01
        2   -1    0    0  501    0  0.00000000000E+00  0.00000000000E+00  0.24421821334E+03  0.24421821335E+03  0.25500000920E-02 0.  1.
       -2   -1    0    0    0  501  0.00000000000E+00  0.00000000000E+00 -0.14115943202E+04  0.14115943202E+04  0.25500000920E-02 0. -1.
    10030    2    1    2    0    0  0.00000000000E+00  0.00000000000E+00 -0.11673761069E+04  0.16558125335E+04  0.11742862391E+04 0.  0.
        2    1    3    3  502    0 -0.56704148515E+03  0.10423551669E+03 -0.74029952306E+03  0.93832002679E+03  0.25500000920E-02 0. -1.
       -2    1    3    3    0  502  0.56704148515E+03 -0.10423551669E+03 -0.42707658380E+03  0.71749250676E+03  0.25500000920E-02 0.  1.
</event>
<event>
 5   0  0.9298693E-04  0.1200368E+04  0.7818609E-02  0.9112534E-01
        2   -1    0    0  501    0  0.00000000000E+00  0.00000000000E+00  0.11776345475E+04  0.11776345475E+04  0.25500000920E-02 0.  1.
       -2   -1    0    0    0  501  0.00000000000E+00  0.00000000000E+00 -0.30588509479E+03  0.30588509480E+03  0.25500000920E-02 0. -1.
    10030    2    1    2    0    0  0.00000000000E+00  0.00000000000E+00  0.87174945266E+03  0.14835196423E+04  0.12003680355E+04 0.  0.
        1    1    3    3  502    0 -0.47290390551E+03 -0.16659911643E+03  0.84358173436E+03  0.98133761368E+03  0.50400001928E-02 0.  1.
       -1    1    3    3    0  502  0.47290390551E+03  0.16659911643E+03  0.28167718301E+02  0.50218202857E+03  0.50400001928E-02 0. -1.
</event>
<event>
 5   0  0.5001586E-04  0.1201329E+04  0.7818609E-02  0.9111694E-01
       -1   -1    0    0    0  501  0.00000000000E+00  0.00000000000E+00  0.45860894414E+03  0.45860894416E+03  0.50400001928E-02 0.  1.
        1   -1    0    0  501    0  0.00000000000E+00  0.00000000000E+00 -0.78672166186E+03  0.78672166187E+03  0.50400001928E-02 0. -1.
    10030    2    1    2    0    0  0.00000000000E+00  0.00000000000E+00 -0.32811271772E+03  0.12453306060E+04  0.12013285824E+04 0.  0.
        1    1    3    3  502    0 -0.27943148467E+03 -0.33900371520E+03  0.26057164153E+03  0.51078670102E+03  0.50400001928E-02 0.  1.
       -1    1    3    3    0  502  0.27943148467E+03  0.33900371520E+03 -0.58868435925E+03  0.73454390502E+03  0.50400001928E-02 0. -1.
</event>
<event>
 5   0  0.9410666E-04  0.1199967E+04  0.7818609E-02  0.9112885E-01
       -2   -1    0    0    0  501  0.00000000000E+00  0.00000000000E+00  0.20839657179E+03  0.20839657180E+03  0.25500000920E-02 0.  1.
        2   -1    0    0  501    0  0.00000000000E+00  0.00000000000E+00 -0.17273811382E+04  0.17273811382E+04  0.25500000920E-02 0. -1.
    10030    2    1    2    0    0  0.00000000000E+00  0.00000000000E+00 -0.15189845664E+04  0.19357777100E+04  0.11999671785E+04 0.  0.
        2    1    3    3  502    0 -0.25543092219E+03  0.45766037720E+03 -0.28838952466E+03  0.59821943700E+03  0.25500000920E-02 0.  1.
       -2    1    3    3    0  502  0.25543092219E+03 -0.45766037720E+03 -0.12305950417E+04  0.13375582730E+04  0.25500000920E-02 0. -1.
</event>
<event>
 5   0  0.5003507E-04  0.1199551E+04  0.7818609E-02  0.9113249E-01
        1   -1    0    0  501    0  0.00000000000E+00  0.00000000000E+00  0.87553186089E+03  0.87553186091E+03  0.50400001928E-02 0.  1.
       -1   -1    0    0    0  501  0.00000000000E+00  0.00000000000E+00 -0.41087115386E+03  0.41087115389E+03  0.50400001928E-02 0. -1.
    10030    2    1    2    0    0  0.00000000000E+00  0.00000000000E+00  0.46466070703E+03  0.12864030148E+04  0.11995512260E+04 0.  0.
        3    1    3    3  502    0 -0.28510654077E+03  0.16186356760E+03  0.77093453937E+03  0.83775033769E+03  0.10100000352E+00 0.  1.
       -3    1    3    3    0  502  0.28510654077E+03 -0.16186356760E+03 -0.30627383233E+03  0.44865267711E+03  0.10100000352E+00 0. -1.
</event>
<event>
 5   0  0.9298693E-04  0.1180203E+04  0.7818609E-02  0.9130363E-01
        2   -1    0    0  501    0  0.00000000000E+00  0.00000000000E+00  0.50566399940E+03  0.50566399941E+03  0.25500000920E-02 0. -1.
       -2   -1    0    0    0  501  0.00000000000E+00  0.00000000000E+00 -0.68863879315E+03  0.68863879315E+03  0.25500000920E-02 0.  1.
    10030    2    1    2    0    0  0.00000000000E+00  0.00000000000E+00 -0.18297479375E+03  0.11943027926E+04  0.11802031118E+04 0.  0.
        1    1    3    3  502    0 -0.47035299079E+03  0.22483240987E+03 -0.37126516154E+03  0.64001513159E+03  0.50400001928E-02 0.  1.
       -1    1    3    3    0  502  0.47035299079E+03 -0.22483240987E+03  0.18829036779E+03  0.55428766097E+03  0.50400001928E-02 0. -1.
</event>
<event>
 5   0  0.5003507E-04  0.1186043E+04  0.7818609E-02  0.9125162E-01
        1   -1    0    0  501    0  0.00000000000E+00  0.00000000000E+00  0.66588407236E+03  0.66588407238E+03  0.50400001928E-02 0. -1.
       -1   -1    0    0    0  501  0.00000000000E+00  0.00000000000E+00 -0.52813145697E+03  0.52813145700E+03  0.50400001928E-02 0.  1.
    10030    2    1    2    0    0  0.00000000000E+00  0.00000000000E+00  0.13775261539E+03  0.11940155294E+04  0.11860427064E+04 0.  0.
        3    1    3    3  502    0  0.38875941530E+03  0.15843881299E+03 -0.35279199475E+03  0.54836023033E+03  0.10100000352E+00 0.  1.
       -3    1    3    3    0  502 -0.38875941530E+03 -0.15843881299E+03  0.49054461014E+03  0.64565529904E+03  0.10100000352E+00 0. -1.
</event>
<event>
 5   0  0.3453625E-04  0.1198863E+04  0.7818609E-02  0.9113852E-01
        4   -1    0    0  501    0  0.00000000000E+00  0.00000000000E+00  0.60248135733E+03  0.60248269588E+03  0.12699999809E+01 0.  1.
       -4   -1    0    0    0  501  0.00000000000E+00  0.00000000000E+00 -0.59639489024E+03  0.59639624245E+03  0.12699999809E+01 0. -1.
    10030    2    1    2    0    0  0.00000000000E+00  0.00000000000E+00  0.60864670868E+01  0.11988789383E+04  0.11988634883E+04 0.  0.
        2    1    3    3  502    0 -0.27941500085E+03  0.45543397534E+03  0.27475534248E+03  0.60081889686E+03  0.25500000920E-02 0.  1.
       -2    1    3    3    0  502  0.27941500085E+03 -0.45543397534E+03 -0.26866887540E+03  0.59806004147E+03  0.25500000920E-02 0. -1.
</event>
<event>
 5   0  0.9298693E-04  0.1200427E+04  0.7818609E-02  0.9112483E-01
       -2   -1    0    0    0  501  0.00000000000E+00  0.00000000000E+00  0.17288212230E+03  0.17288212232E+03  0.25500000920E-02 0.  1.
        2   -1    0    0  501    0  0.00000000000E+00  0.00000000000E+00 -0.20838255435E+04  0.20838255435E+04  0.25500000920E-02 0. -1.
    10030    2    1    2    0    0  0.00000000000E+00  0.00000000000E+00 -0.19109434212E+04  0.22567076658E+04  0.12004268949E+04 0.  0.
        1    1    3    3  502    0  0.41731700341E+02  0.16288823572E+03  0.12769898421E+03  0.21114247026E+03  0.50400001928E-02 0.  1.
       -1    1    3    3    0  502 -0.41731700341E+02 -0.16288823572E+03 -0.20386424054E+04  0.20455651955E+04  0.50400001928E-02 0. -1.
</event>
<event>
 5   0  0.5052959E-04  0.1198625E+04  0.7818609E-02  0.9114061E-01
       -1   -1    0    0    0  501  0.00000000000E+00  0.00000000000E+00  0.76273492295E+03  0.76273492297E+03  0.50400001928E-02 0.  1.
        1   -1    0    0  501    0  0.00000000000E+00  0.00000000000E+00 -0.47090447799E+03  0.47090447802E+03  0.50400001928E-02 0. -1.
    10030    2    1    2    0    0  0.00000000000E+00  0.00000000000E+00  0.29183044496E+03  0.12336394010E+04  0.11986246965E+04 0.  0.
        2    1    3    3  502    0 -0.19828333336E+03  0.56129472746E+03  0.21727490109E+03  0.63370058704E+03  0.25500000920E-02 0.  1.
       -2    1    3    3    0  502  0.19828333336E+03 -0.56129472746E+03  0.74555543867E+02  0.59993881395E+03  0.25500000920E-02 0. -1.
</event>
<event>
 5   0  0.9410666E-04  0.1194878E+04  0.7818609E-02  0.9117352E-01
        2   -1    0    0  501    0  0.00000000000E+00  0.00000000000E+00  0.20386630444E+04  0.20386630444E+04  0.25500000920E-02 0.  1.
       -2   -1    0    0    0  501  0.00000000000E+00  0.00000000000E+00 -0.17508209729E+03  0.17508209731E+03  0.25500000920E-02 0. -1.
    10030    2    1    2    0    0  0.00000000000E+00  0.00000000000E+00  0.18635809471E+04  0.22137451417E+04  0.11948780716E+04 0.  0.
        2    1    3    3  502    0  0.37162550889E+03  0.43554836514E+03  0.61560584209E+03  0.84070116572E+03  0.25500000920E-02 0. -1.
       -2    1    3    3    0  502 -0.37162550889E+03 -0.43554836514E+03  0.12479751050E+04  0.13730439760E+04  0.25500000920E-02 0.  1.
</event>
<event>
 5   0  0.9298693E-04  0.1198860E+04  0.7818609E-02  0.9113855E-01
        2   -1    0    0  501    0  0.00000000000E+00  0.00000000000E+00  0.11994779452E+04  0.11994779452E+04  0.25500000920E-02 0.  1.
       -2   -1    0    0    0  501  0.00000000000E+00  0.00000000000E+00 -0.29956079307E+03  0.29956079308E+03  0.25500000920E-02 0. -1.
    10030    2    1    2    0    0  0.00000000000E+00  0.00000000000E+00  0.89991715210E+03  0.14990387383E+04  0.11988603998E+04 0.  0.
        1    1    3    3  502    0  0.11174114697E+03  0.33365560977E+03  0.10567560544E+04  0.11137977862E+04  0.50400001928E-02 0.  1.
       -1    1    3    3    0  502 -0.11174114697E+03 -0.33365560977E+03 -0.15683890233E+03  0.38524095209E+03  0.50400001928E-02 0. -1.
</event>
<event>
 5   0  0.5052959E-04  0.1199106E+04  0.7818609E-02  0.9113639E-01
       -1   -1    0    0    0  501  0.00000000000E+00  0.00000000000E+00  0.14879027778E+03  0.14879027786E+03  0.50400001928E-02 0.  1.
        1   -1    0    0  501    0  0.00000000000E+00  0.00000000000E+00 -0.24159102333E+04  0.24159102333E+04  0.50400001928E-02 0. -1.
    10030    2    1    2    0    0  0.00000000000E+00  0.00000000000E+00 -0.22671199555E+04  0.25647005112E+04  0.11991062585E+04 0.  0.
        2    1    3    3  502    0  0.48382991765E+03  0.29988135541E+03 -0.73089046508E+03  0.92640222824E+03  0.25500000920E-02 0.  1.
       -2    1    3    3    0  502 -0.48382991765E+03 -0.29988135541E+03 -0.15362294904E+04  0.16382982829E+04  0.25500000920E-02 0. -1.
</event>
<event>
 5   0  0.5447074E-04  0.1200511E+04  0.7818609E-02  0.9112409E-01
       -1   -1    0    0    0  501  0.00000000000E+00  0.00000000000E+00  0.11186973816E+04  0.11186973816E+04  0.50400001928E-02 0.  1.
        1   -1    0    0  501    0  0.00000000000E+00  0.00000000000E+00 -0.32207720969E+03  0.32207720973E+03  0.50400001928E-02 0. -1.
    10030    2    1    2    0    0  0.00000000000E+00  0.00000000000E+00  0.79662017191E+03  0.14407745913E+04  0.12005114430E+04 0.  0.
        4    1    3    3  502    0  0.43210996369E+03 -0.39386188537E+03  0.23525469988E+03  0.63023217324E+03  0.12699999809E+01 0. -1.
       -4    1    3    3    0  502 -0.43210996369E+03  0.39386188537E+03  0.56136547203E+03  0.81054241811E+03  0.12699999809E+01 0.  1.
</event>
<event>
 5   0  0.9145224E-04  0.1199584E+04  0.7818609E-02  0.9113221E-01
       -2   -1    0    0    0  501  0.00000000000E+00  0.00000000000E+00  0.25784521555E+03  0.25784521556E+03  0.25500000920E-02 0.  1.
        2   -1    0    0  501    0  0.00000000000E+00  0.00000000000E+00 -0.13952189344E+04  0.13952189344E+04  0.25500000920E-02 0. -1.
    10030    2    1    2    0    0  0.00000000000E+00  0.00000000000E+00 -0.11373737189E+04  0.16530641500E+04  0.11995841394E+04 0.  0.
        5    1    3    3  502    0  0.31795037302E+02  0.17092988372E+03  0.22233233700E+03  0.28227948494E+03  0.46999998093E+01 0.  1.
       -5    1    3    3    0  502 -0.31795037302E+02 -0.17092988372E+03 -0.13597060559E+04  0.13707846650E+04  0.46999998093E+01 0. -1.
</event>
<event>
 5   0  0.5003507E-04  0.1204198E+04  0.7818609E-02  0.9109190E-01
        1   -1    0    0  501    0  0.00000000000E+00  0.00000000000E+00  0.94024195978E+03  0.94024195979E+03  0.50400001928E-02 0. -1.
       -1   -1    0    0    0  501  0.00000000000E+00  0.00000000000E+00 -0.38556379671E+03  0.38556379674E+03  0.50400001928E-02 0.  1.
    10030    2    1    2    0    0  0.00000000000E+00  0.00000000000E+00  0.55467816307E+03  0.13258057565E+04  0.12041980898E+04 0.  0.
        3    1    3    3  502    0 -0.22714202394E+03  0.49239818033E+02  0.88886265663E+03  0.91874636940E+03  0.10100000352E+00 0. -1.
       -3    1    3    3    0  502  0.22714202394E+03 -0.49239818033E+02 -0.33418449356E+03  0.40705938714E+03  0.10100000352E+00 0.  1.
</event>
<event>
 5   0  0.5003507E-04  0.1199894E+04  0.7818609E-02  0.9112949E-01
        1   -1    0    0  501    0  0.00000000000E+00  0.00000000000E+00  0.11967471076E+04  0.11967471076E+04  0.50400001928E-02 0.  1.
       -1   -1    0    0    0  501  0.00000000000E+00  0.00000000000E+00 -0.30076220982E+03  0.30076220986E+03  0.50400001928E-02 0. -1.
    10030    2    1    2    0    0  0.00000000000E+00  0.00000000000E+00  0.89598489782E+03  0.14975093175E+04  0.11998938365E+04 0.  0.
        3    1    3    3  502    0  0.57689854352E+03  0.12234043505E+03  0.31038460598E+03  0.66642158233E+03  0.10100000352E+00 0. -1.
       -3    1    3    3    0  502 -0.57689854352E+03 -0.12234043505E+03  0.58560029184E+03  0.83108773518E+03  0.10100000352E+00 0.  1.
</event>
<event>
 5   0  0.9050363E-04  0.1201904E+04  0.7818609E-02  0.9111191E-01
       -2   -1    0    0    0  501  0.00000000000E+00  0.00000000000E+00  0.41637743146E+03  0.41637743147E+03  0.25500000920E-02 0. -1.
        2   -1    0    0  501    0  0.00000000000E+00  0.00000000000E+00 -0.86734648995E+03  0.86734648995E+03  0.25500000920E-02 0.  1.
    10030    2    1    2    0    0  0.00000000000E+00  0.00000000000E+00 -0.45096905849E+03  0.12837239214E+04  0.12019043284E+04 0.  0.
        3    1    3    3  502    0 -0.54053709369E+03 -0.12527736090E+03 -0.47199643130E+03  0.72846098603E+03  0.10100000352E+00 0.  1.
       -3    1    3    3    0  502  0.54053709369E+03  0.12527736090E+03  0.21027372818E+02  0.55526293539E+03  0.10100000352E+00 0. -1.
</event>
<event>
 5   0  0.9145224E-04  0.1194599E+04  0.7818609E-02  0.9117598E-01
       -2   -1    0    0    0  501  0.00000000000E+00  0.00000000000E+00  0.26282484176E+03  0.26282484178E+03  0.25500000920E-02 0.  1.
        2   -1    0    0  501    0  0.00000000000E+00  0.00000000000E+00 -0.13574305844E+04  0.13574305844E+04  0.25500000920E-02 0. -1.
    10030    2    1    2    0    0  0.00000000000E+00  0.00000000000E+00 -0.10946057426E+04  0.16202554261E+04  0.11945986415E+04 0.  0.
        5    1    3    3  502    0 -0.31697255754E+03 -0.28405081898E+03 -0.11156436047E+04  0.11940850944E+04  0.46999998093E+01 0. -1.
       -5    1    3    3    0  502  0.31697255754E+03  0.28405081898E+03  0.21037862109E+02  0.42617033172E+03  0.46999998093E+01 0.  1.
</event>
<event>
 5   0  0.5157631E-04  0.1205705E+04  0.7818609E-02  0.9107878E-01
        1   -1    0    0  501    0  0.00000000000E+00  0.00000000000E+00  0.12155133118E+04  0.12155133118E+04  0.50400001928E-02 0. -1.
       -1   -1    0    0    0  501  0.00000000000E+00  0.00000000000E+00 -0.29899391187E+03  0.29899391191E+03  0.50400001928E-02 0.  1.
    10030    2    1    2    0    0  0.00000000000E+00  0.00000000000E+00  0.91651939990E+03  0.15145072237E+04  0.12057049059E+04 0.  0.
        5    1    3    3  502    0 -0.73112023537E+02 -0.49977149360E+03  0.44899497470E+02  0.50710449483E+03  0.46999998093E+01 0.  1.
       -5    1    3    3    0  502  0.73112023537E+02  0.49977149360E+03  0.87161990243E+03  0.10074027289E+04  0.46999998093E+01 0. -1.
</event>
<event>
 5   0  0.5052959E-04  0.1185598E+04  0.7818609E-02  0.9125557E-01
       -1   -1    0    0    0  501  0.00000000000E+00  0.00000000000E+00  0.52453494179E+03  0.52453494181E+03  0.50400001928E-02 0.  1.
        1   -1    0    0  501    0  0.00000000000E+00  0.00000000000E+00 -0.66994683613E+03  0.66994683615E+03  0.50400001928E-02 0. -1.
    10030    2    1    2    0    0  0.00000000000E+00  0.00000000000E+00 -0.14541189435E+03  0.11944817780E+04  0.11855977812E+04 0.  0.
        2    1    3    3  502    0  0.25772790785E+03 -0.11903048832E+03 -0.59700779678E+03  0.66106750113E+03  0.25500000920E-02 0. -1.
       -2    1    3    3    0  502 -0.25772790785E+03  0.11903048832E+03  0.45159590243E+03  0.53341427683E+03  0.25500000920E-02 0.  1.
</event>
<event>
 5   0  0.9070772E-04  0.1200316E+04  0.7818609E-02  0.9112580E-01
       -2   -1    0    0    0  501  0.00000000000E+00  0.00000000000E+00  0.32008833379E+03  0.32008833380E+03  0.25500000920E-02 0.  1.
        2   -1    0    0  501    0  0.00000000000E+00  0.00000000000E+00 -0.11252826744E+04  0.11252826744E+04  0.25500000920E-02 0. -1.
    10030    2    1    2    0    0  0.00000000000E+00  0.00000000000E+00 -0.80519434061E+03  0.14453710082E+04  0.12003163855E+04 0.  0.
        4    1    3    3  502    0 -0.54662650776E+03  0.17544586341E+03 -0.61326106476E+03  0.84004317533E+03  0.12699999809E+01 0. -1.
       -4    1    3    3    0  502  0.54662650776E+03 -0.17544586341E+03 -0.19193327585E+03  0.60532783288E+03  0.12699999809E+01 0.  1.
</event>
<event>
 5   0  0.3453625E-04  0.1170700E+04  0.7818609E-02  0.9138896E-01
        4   -1    0    0  501    0  0.00000000000E+00  0.00000000000E+00  0.34380886974E+03  0.34381121537E+03  0.12699999809E+01 0.  1.
       -4   -1    0    0    0  501  0.00000000000E+00  0.00000000000E+00 -0.99657901191E+03  0.99657982113E+03  0.12699999809E+01 0. -1.
    10030    2    1    2    0    0  0.00000000000E+00  0.00000000000E+00 -0.65277014216E+03  0.13403910365E+04  0.11707003341E+04 0.  0.
        2    1    3    3  502    0  0.58339553450E+03 -0.33108495110E+02 -0.36585333982E+03  0.68941655651E+03  0.25500000920E-02 0. -1.
       -2    1    3    3    0  502 -0.58339553450E+03  0.33108495110E+02 -0.28691680234E+03  0.65097447999E+03  0.25500000920E-02 0.  1.
</event>
<event>
 5   0  0.5001586E-04  0.1206358E+04  0.7818609E-02  0.9107310E-01
        1   -1    0    0  501    0  0.00000000000E+00  0.00000000000E+00  0.93090617068E+03  0.93090617070E+03  0.50400001928E-02 0.  1.
       -1   -1    0    0    0  501  0.00000000000E+00  0.00000000000E+00 -0.39082862554E+03  0.39082862557E+03  0.50400001928E-02 0. -1.
    10030    2    1    2    0    0  0.00000000000E+00  0.00000000000E+00  0.54007754515E+03  0.13217347963E+04  0.12063577897E+04 0.  0.
        1    1    3    3  502    0  0.17303761378E+03 -0.48136283234E+03  0.62025429049E+03  0.80396988565E+03  0.50400001928E-02 0.  1.
       -1    1    3    3    0  502 -0.17303761378E+03  0.48136283234E+03 -0.80176745341E+02  0.51776491061E+03  0.50400001928E-02 0. -1.
</event>
<event>
 5   0  0.9410666E-04  0.1198856E+04  0.7818609E-02  0.9113858E-01
        2   -1    0    0  501    0  0.00000000000E+00  0.00000000000E+00  0.84987737734E+03  0.84987737735E+03  0.25500000920E-02 0.  1.
       -2   -1    0    0    0  501  0.00000000000E+00  0.00000000000E+00 -0.42278346178E+03  0.42278346178E+03  0.25500000920E-02 0. -1.
    10030    2    1    2    0    0  0.00000000000E+00  0.00000000000E+00  0.42709391557E+03  0.12726608391E+04  0.11988562878E+04 0.  0.
        2    1    3    3  502    0 -0.47594184731E+03  0.20154017057E+03  0.53584091969E+03  0.74448947178E+03  0.25500000920E-02 0.  1.
       -2    1    3    3    0  502  0.47594184731E+03 -0.20154017057E+03 -0.10874700412E+03  0.52817136735E+03  0.25500000920E-02 0. -1.
</event>
<event>
 5   0  0.5052959E-04  0.1199726E+04  0.7818609E-02  0.9113096E-01
       -1   -1    0    0    0  501  0.00000000000E+00  0.00000000000E+00  0.49848242868E+03  0.49848242870E+03  0.50400001928E-02 0.  1.
        1   -1    0    0  501    0  0.00000000000E+00  0.00000000000E+00 -0.72186219229E+03  0.72186219231E+03  0.50400001928E-02 0. -1.
    10030    2    1    2    0    0  0.00000000000E+00  0.00000000000E+00 -0.22337976361E+03  0.12203446210E+04  0.11997260001E+04 0.  0.
        2    1    3    3  502    0  0.40914483924E+02 -0.44195573966E+03 -0.52215535391E+03  0.68530656238E+03  0.25500000920E-02 0. -1.
       -2    1    3    3    0  502 -0.40914483924E+02  0.44195573966E+03  0.29877559030E+03  0.53503805863E+03  0.25500000920E-02 0.  1.
</event>
<event>
 5   0  0.9298693E-04  0.1204784E+04  0.7818609E-02  0.9108680E-01
       -2   -1    0    0    0  501  0.00000000000E+00  0.00000000000E+00  0.94484909559E+03  0.94484909559E+03  0.25500000920E-02 0.  1.
        2   -1    0    0  501    0  0.00000000000E+00  0.00000000000E+00 -0.38405697074E+03  0.38405697075E+03  0.25500000920E-02 0. -1.
    10030    2    1    2    0    0  0.00000000000E+00  0.00000000000E+00  0.56079212485E+03  0.13289060663E+04  0.12047836013E+04 0.  0.
        1    1    3    3  502    0  0.45843779976E+03  0.10584059749E+03  0.69532755423E+03  0.83955217588E+03  0.50400001928E-02 0.  1.
       -1    1    3    3    0  502 -0.45843779976E+03 -0.10584059749E+03 -0.13453542938E+03  0.48935389046E+03  0.50400001928E-02 0. -1.
</event>
<event>
 5   0  0.5003507E-04  0.1209375E+04  0.7818609E-02  0.9104690E-01
        1   -1    0    0  501    0  0.00000000000E+00  0.00000000000E+00  0.84298048807E+03  0.84298048809E+03  0.50400001928E-02 0. -1.
       -1   -1    0    0    0  501  0.00000000000E+00  0.00000000000E+00 -0.43375475844E+03  0.43375475847E+03  0.50400001928E-02 0.  1.
    10030    2    1    2    0    0  0.00000000000E+00  0.00000000000E+00  0.40922572963E+03  0.12767352466E+04  0.12093747112E+04 0.  0.
        3    1    3    3  502    0 -0.74039081061E+02  0.43616615014E+03 -0.23056564800E+03  0.49888197431E+03  0.10100000352E+00 0.  1.
       -3    1    3    3    0  502  0.74039081061E+02 -0.43616615014E+03  0.63979137763E+03  0.77785327225E+03  0.10100000352E+00 0. -1.
</event>
<event>
 5   0  0.5003507E-04  0.1185552E+04  0.7818609E-02  0.9125598E-01
        1   -1    0    0  501    0  0.00000000000E+00  0.00000000000E+00  0.12446648111E+04  0.12446648111E+04  0.50400001928E-02 0. -1.
       -1   -1    0    0    0  501  0.00000000000E+00  0.00000000000E+00 -0.28231144517E+03  0.28231144522E+03  0.50400001928E-02 0.  1.
    10030    2    1    2    0    0  0.00000000000E+00  0.00000000000E+00  0.96235336594E+03  0.15269762563E+04  0.11855515537E+04 0.  0.
        3    1    3    3  502    0 -0.54876970874E+03  0.19433536200E+03  0.62499763904E+03  0.85412907991E+03  0.10100000352E+00 0.  1.
       -3    1    3    3    0  502  0.54876970874E+03 -0.19433536200E+03  0.33735572690E+03  0.67284717643E+03  0.10100000352E+00 0. -1.
</event>
<event>
 5   0  0.9070772E-04  0.1197279E+04  0.7818609E-02  0.9115242E-01
        2   -1    0    0  501    0  0.00000000000E+00  0.00000000000E+00  0.40906268575E+03  0.40906268576E+03  0.25500000920E-02 0.  1.
       -2   -1    0    0    0  501  0.00000000000E+00  0.00000000000E+00 -0.87607403414E+03  0.87607403414E+03  0.25500000920E-02 0. -1.
    10030    2    1    2    0    0  0.00000000000E+00  0.00000000000E+00 -0.46701134839E+03  0.12851367199E+04  0.11972789104E+04 0.  0.
        4    1    3    3  502    0  0.41348688567E+03  0.24920601824E+03  0.14643571593E+03  0.50449982750E+03  0.12699999809E+01 0.  1.
       -4    1    3    3    0  502 -0.41348688567E+03 -0.24920601824E+03 -0.61344706432E+03  0.78063689240E+03  0.12699999809E+01 0. -1.
</event>
<event>
 5   0  0.9298693E-04  0.1200849E+04  0.7818609E-02  0.9112114E-01
        2   -1    0    0  501    0  0.00000000000E+00  0.00000000000E+00  0.71220106771E+03  0.71220106772E+03  0.25500000920E-02 0.  1.
       -2   -1    0    0    0  501  0.00000000000E+00  0.00000000000E+00 -0.50619066506E+03  0.50619066507E+03  0.25500000920E-02 0. -1.
    10030    2    1    2    0    0  0.00000000000E+00  0.00000000000E+00  0.20601040265E+03  0.12183917328E+04  0.12008489199E+04 0.  0.
        1    1    3    3  502    0 -0.42574912616E+03  0.36561751003E+03 -0.11358713679E+03  0.57257359329E+03  0.50400001928E-02 0. -1.
       -1    1    3    3    0  502  0.42574912616E+03 -0.36561751003E+03  0.31959753944E+03  0.64581813950E+03  0.50400001928E-02 0.  1.
</event>
<event>
 5   0  0.3453625E-04  0.1202777E+04  0.7818609E-02  0.9110430E-01
       -4   -1    0    0    0  501  0.00000000000E+00  0.00000000000E+00  0.85266152730E+03  0.85266247310E+03  0.12699999809E+01 0. -1.
        4   -1    0    0  501    0  0.00000000000E+00  0.00000000000E+00 -0.42416144303E+03  0.42416334430E+03  0.12699999809E+01 0.  1.
    10030    2    1    2    0    0  0.00000000000E+00  0.00000000000E+00  0.42850008427E+03  0.12768258174E+04  0.12027767232E+04 0.  0.
        3    1    3    3  502    0  0.59897831368E+03  0.23053328806E+02  0.26583680994E+03  0.65572532050E+03  0.10100000352E+00 0. -1.
       -3    1    3    3    0  502 -0.59897831368E+03 -0.23053328806E+02  0.16266327433E+03  0.62110049690E+03  0.10100000352E+00 0.  1.
</event>
<event>
 5   0  0.5447074E-04  0.1203951E+04  0.7818609E-02  0.9109405E-01
        1   -1    0    0  501    0  0.00000000000E+00  0.00000000000E+00  0.43734890353E+03  0.43734890356E+03  0.50400001928E-02 0.  1.
       -1   -1    0    0    0  501  0.00000000000E+00  0.00000000000E+00 -0.82857112765E+03  0.82857112767E+03  0.50400001928E-02 0. -1.
    10030    2    1    2    0    0  0.00000000000E+00  0.00000000000E+00 -0.39122222413E+03  0.12659200312E+04  0.12039512851E+04 0.  0.
        4    1    3    3  502    0 -0.74404374241E+02 -0.56283200118E+03  0.14833393452E+02  0.56792386367E+03  0.12699999809E+01 0.  1.
       -4    1    3    3    0  502  0.74404374241E+02  0.56283200118E+03 -0.40605561758E+03  0.69799616756E+03  0.12699999809E+01 0. -1.
</event>
<event>
 5   0  0.5157631E-04  0.1200892E+04  0.7818609E-02  0.9112076E-01
       -1   -1    0    0    0  501  0.00000000000E+00  0.00000000000E+00  0.28577102981E+03  0.28577102985E+03  0.50400001928E-02 0. -1.
        1   -1    0    0  501    0  0.00000000000E+00  0.00000000000E+00 -0.12616225629E+04  0.12616225629E+04  0.50400001928E-02 0.  1.
    10030    2    1    2    0    0  0.00000000000E+00  0.00000000000E+00 -0.97585153305E+03  0.15473935927E+04  0.12008916338E+04 0.  0.
        5    1    3    3  502    0  0.34220989196E+03  0.30833823789E+03 -0.98419331798E+03  0.10866640034E+04  0.46999998093E+01 0.  1.
       -5    1    3    3    0  502 -0.34220989196E+03 -0.30833823789E+03  0.83417849357E+01  0.46072958932E+03  0.46999998093E+01 0. -1.
</event>
<event>
 5   0  0.9410666E-04  0.1157368E+04  0.7818609E-02  0.9151013E-01
        2   -1    0    0  501    0  0.00000000000E+00  0.00000000000E+00  0.16532966379E+04  0.16532966379E+04  0.25500000920E-02 0. -1.
       -2   -1    0    0    0  501  0.00000000000E+00  0.00000000000E+00 -0.20254995315E+03  0.20254995317E+03  0.25500000920E-02 0.  1.
    10030    2    1    2    0    0  0.00000000000E+00  0.00000000000E+00  0.14507466848E+04  0.18558465911E+04  0.11573679736E+04 0.  0.
        2    1    3    3  502    0  0.32016442461E+03  0.47956713405E+03  0.80368720275E+03  0.98914256542E+03  0.25500000920E-02 0. -1.
       -2    1    3    3    0  502 -0.32016442461E+03 -0.47956713405E+03  0.64705948204E+03  0.86670402569E+03  0.25500000920E-02 0.  1.
</event>
<event>
 5   0  0.5447074E-04  0.1206135E+04  0.7818609E-02  0.9107504E-01
        1   -1    0    0  501    0  0.00000000000E+00  0.00000000000E+00  0.12474205447E+04  0.12474205447E+04  0.50400001928E-02 0.  1.
       -1   -1    0    0    0  501  0.00000000000E+00  0.00000000000E+00 -0.29155377843E+03  0.29155377848E+03  0.50400001928E-02 0. -1.
    10030    2    1    2    0    0  0.00000000000E+00  0.00000000000E+00  0.95586676630E+03  0.15389743232E+04  0.12061346080E+04 0.  0.
        4    1    3    3  502    0  0.26249573951E+03 -0.36875000720E+03  0.98641090005E+03  0.10853057900E+04  0.12699999809E+01 0.  1.
       -4    1    3    3    0  502 -0.26249573951E+03  0.36875000720E+03 -0.30544133752E+02  0.45366853326E+03  0.12699999809E+01 0. -1.
</event>
<event>
 5   0  0.9145224E-04  0.1250440E+04  0.7818609E-02  0.9069817E-01
        2   -1    0    0  501    0  0.00000000000E+00  0.00000000000E+00  0.29679466833E+03  0.29679466834E+03  0.25500000920E-02 0.  1.
       -2   -1    0    0    0  501  0.00000000000E+00  0.00000000000E+00 -0.13170720595E+04  0.13170720595E+04  0.25500000920E-02 0. -1.
    10030    2    1    2    0    0  0.00000000000E+00  0.00000000000E+00 -0.10202773912E+04  0.16138667279E+04  0.12504398667E+04 0.  0.
        5    1    3    3  502    0  0.44045916005E+03 -0.23657641802E+03 -0.99461034723E+03  0.11132135941E+04  0.46999998093E+01 0. -1.
       -5    1    3    3    0  502 -0.44045916005E+03  0.23657641802E+03 -0.25667043984E+02  0.50065313380E+03  0.46999998093E+01 0.  1.
</event>
<event>
 5   0  0.5157631E-04  0.1195261E+04  0.7818609E-02  0.9117015E-01
       -1   -1    0    0    0  501  0.00000000000E+00  0.00000000000E+00  0.48655469183E+03  0.48655469186E+03  0.50400001928E-02 0. -1.
        1   -1    0    0  501    0  0.00000000000E+00  0.00000000000E+00 -0.73406404770E+03  0.73406404772E+03  0.50400001928E-02 0.  1.
    10030    2    1    2    0    0  0.00000000000E+00  0.00000000000E+00 -0.24750935586E+03  0.12206187396E+04  0.11952611540E+04 0.  0.
        5    1    3    3  502    0 -0.55792880322E+03 -0.16850229510E+03 -0.25870447118E+03  0.63767363622E+03  0.46999998093E+01 0.  1.
       -5    1    3    3    0  502  0.55792880322E+03  0.16850229510E+03  0.11195115320E+02  0.58294510336E+03  0.46999998093E+01 0. -1.
</event>
<event>
 5   0  0.5001586E-04  0.1198171E+04  0.7818609E-02  0.9114459E-01
        1   -1    0    0  501    0  0.00000000000E+00  0.00000000000E+00  0.65214308754E+03  0.65214308756E+03  0.50400001928E-02 0. -1.
       -1   -1    0    0    0  501  0.00000000000E+00  0.00000000000E+00 -0.55034457696E+03  0.55034457698E+03  0.50400001928E-02 0.  1.
    10030    2    1    2    0    0  0.00000000000E+00  0.00000000000E+00  0.10179851058E+03  0.12024876645E+04  0.11981709589E+04 0.  0.
        1    1    3    3  502    0  0.11176509325E+03  0.35753250792E+03  0.52011169422E+03  0.64096575944E+03  0.50400001928E-02 0. -1.
       -1    1    3    3    0  502 -0.11176509325E+03 -0.35753250792E+03 -0.41831318363E+03  0.56152190511E+03  0.50400001928E-02 0.  1.
</event>
<event>
 5   0  0.9410666E-04  0.1204583E+04  0.7818609E-02  0.9108855E-01
       -2   -1    0    0    0  501  0.00000000000E+00  0.00000000000E+00  0.50002889624E+03  0.50002889625E+03  0.25500000920E-02 0.  1.
        2   -1    0    0  501    0  0.00000000000E+00  0.00000000000E+00 -0.72546778617E+03  0.72546778617E+03  0.25500000920E-02 0. -1.
    10030    2    1    2    0    0  0.00000000000E+00  0.00000000000E+00 -0.22543888993E+03  0.12254966824E+04  0.12045826769E+04 0.  0.
        2    1    3    3  502    0  0.61387897418E+01  0.36652145225E+03  0.37346806428E+03  0.52331066753E+03  0.25500000920E-02 0.  1.
       -2    1    3    3    0  502 -0.61387897418E+01 -0.36652145225E+03 -0.59890695421E+03  0.70218601489E+03  0.25500000920E-02 0. -1.
</event>
<event>
 5   0  0.5157631E-04  0.1210882E+04  0.7818609E-02  0.9103384E-01
        1   -1    0    0  501    0  0.00000000000E+00  0.00000000000E+00  0.14377311924E+04  0.14377311924E+04  0.50400001928E-02 0. -1.
       -1   -1    0    0    0  501  0.00000000000E+00  0.00000000000E+00 -0.25495654422E+03  0.25495654427E+03  0.50400001928E-02 0.  1.
    10030    2    1    2    0    0  0.00000000000E+00  0.00000000000E+00  0.11827746482E+04  0.16926877367E+04  0.12108822839E+04 0.  0.
        5    1    3    3  502    0  0.10314889179E+03 -0.99719250720E+02 -0.23082434955E+03  0.27181904493E+03  0.46999998093E+01 0.  1.
       -5    1    3    3    0  502 -0.10314889179E+03  0.99719250720E+02  0.14135989977E+04  0.14208686917E+04  0.46999998093E+01 0. -1.
</event>
<event>
 5   0  0.9298693E-04  0.1201178E+04  0.7818609E-02  0.9111826E-01
        2   -1    0    0  501    0  0.00000000000E+00  0.00000000000E+00  0.12201680214E+04  0.12201680214E+04  0.25500000920E-02 0.  1.
       -2   -1    0    0    0  501  0.00000000000E+00  0.00000000000E+00 -0.29562106357E+03  0.29562106358E+03  0.25500000920E-02 0. -1.
    10030    2    1    2    0    0  0.00000000000E+00  0.00000000000E+00  0.92454695788E+03  0.15157890850E+04  0.12011783685E+04 0.  0.
        1    1    3    3  502    0 -0.30146911144E+02 -0.31204417647E+03  0.11087243141E+04  0.11521935640E+04  0.50400001928E-02 0.  1.
       -1    1    3    3    0  502  0.30146911144E+02  0.31204417647E+03 -0.18417735621E+03  0.36359552099E+03  0.50400001928E-02 0. -1.
</event>
<event>
 5   0  0.5001586E-04  0.1196730E+04  0.7818609E-02  0.9115724E-01
        1   -1    0    0  501    0  0.00000000000E+00  0.00000000000E+00  0.49961894534E+03  0.49961894536E+03  0.50400001928E-02 0.  1.
       -1   -1    0    0    0  501  0.00000000000E+00  0.00000000000E+00 -0.71662723615E+03  0.71662723617E+03  0.50400001928E-02 0. -1.
    10030    2    1    2    0    0  0.00000000000E+00  0.00000000000E+00 -0.21700829082E+03  0.12162461815E+04  0.11967297840E+04 0.  0.
        1    1    3    3  502    0 -0.82671194495E+02  0.52159607754E+03  0.17740836038E+03  0.55710925397E+03  0.50400001928E-02 0. -1.
       -1    1    3    3    0  502  0.82671194495E+02 -0.52159607754E+03 -0.39441665120E+03  0.65913692756E+03  0.50400001928E-02 0.  1.
</event>
<event>
 5   0  0.5052959E-04  0.1217658E+04  0.7818609E-02  0.9097539E-01
       -1   -1    0    0    0  501  0.00000000000E+00  0.00000000000E+00  0.12775134205E+03  0.12775134215E+03  0.50400001928E-02 0.  1.
        1   -1    0    0  501    0  0.00000000000E+00  0.00000000000E+00 -0.29015178398E+04  0.29015178398E+04  0.50400001928E-02 0. -1.
    10030    2    1    2    0    0  0.00000000000E+00  0.00000000000E+00 -0.27737664978E+04  0.30292691820E+04  0.12176580771E+04 0.  0.
        2    1    3    3  502    0  0.28103431995E+03  0.25818123542E+03 -0.25670340564E+04  0.25952459779E+04  0.25500000920E-02 0.  1.
       -2    1    3    3    0  502 -0.28103431995E+03 -0.25818123542E+03 -0.20673244139E+03  0.43402320404E+03  0.25500000920E-02 0. -1.
</event>
<event>
 5   0  0.9070772E-04  0.1212637E+04  0.7818609E-02  0.9101867E-01
       -2   -1    0    0    0  501  0.00000000000E+00  0.00000000000E+00  0.26052386915E+03  0.26052386916E+03  0.25500000920E-02 0.  1.
        2   -1    0    0  501    0  0.00000000000E+00  0.00000000000E+00 -0.14110884503E+04  0.14110884503E+04  0.25500000920E-02 0. -1.
    10030    2    1    2    0    0  0.00000000000E+00  0.00000000000E+00 -0.11505645811E+04  0.16716123194E+04  0.12126371638E+04 0.  0.
        4    1    3    3  502    0 -0.30881127076E+02  0.36987539202E+03 -0.12361820549E+04  0.12907010248E+04  0.12699999809E+01 0. -1.
       -4    1    3    3    0  502  0.30881127076E+02 -0.36987539202E+03  0.85617473827E+02  0.38091129460E+03  0.12699999809E+01 0.  1.
</event>
<event>
 5   0  0.9410666E-04  0.1199644E+04  0.7818609E-02  0.9113169E-01
       -2   -1    0    0    0  501  0.00000000000E+00  0.00000000000E+00  0.49652015786E+03  0.49652015787E+03  0.25500000920E-02 0.  1.
        2   -1    0    0  501    0  0.00000000000E+00  0.00000000000E+00 -0.72461549985E+03  0.72461549985E+03  0.25500000920E-02 0. -1.
    10030    2    1    2    0    0  0.00000000000E+00  0.00000000000E+00 -0.22809534198E+03  0.12211356577E+04  0.11996436177E+04 0.  0.
        2    1    3    3  502    0 -0.11319021287E+03 -0.51990249358E+03 -0.39591204473E+03  0.66321713962E+03  0.25500000920E-02 0.  1.
       -2    1    3    3    0  502  0.11319021287E+03  0.51990249358E+03  0.16781670274E+03  0.55791851810E+03  0.25500000920E-02 0. -1.
</event>
<event>
 5   0  0.9070772E-04  0.1197350E+04  0.7818609E-02  0.9115179E-01
        2   -1    0    0  501    0  0.00000000000E+00  0.00000000000E+00  0.81283691794E+03  0.81283691795E+03  0.25500000920E-02 0. -1.
       -2   -1    0    0    0  501  0.00000000000E+00  0.00000000000E+00 -0.44093937426E+03  0.44093937427E+03  0.25500000920E-02 0.  1.
    10030    2    1    2    0    0  0.00000000000E+00  0.00000000000E+00  0.37189754368E+03  0.12537762922E+04  0.11973500774E+04 0.  0.
        4    1    3    3  502    0 -0.53582382156E+03 -0.19526646740E+03  0.37666955023E+03  0.68346011150E+03  0.12699999809E+01 0. -1.
       -4    1    3    3    0  502  0.53582382156E+03  0.19526646740E+03 -0.47720065456E+01  0.57031618072E+03  0.12699999809E+01 0.  1.
</event>
<event>
 5   0  0.5052959E-04  0.1203992E+04  0.7818609E-02  0.9109370E-01
        1   -1    0    0  501    0  0.00000000000E+00  0.00000000000E+00  0.15509543506E+04  0.15509543506E+04  0.50400001928E-02 0. -1.
       -1   -1    0    0    0  501  0.00000000000E+00  0.00000000000E+00 -0.23366205966E+03  0.23366205972E+03  0.50400001928E-02 0.  1.
    10030    2    1    2    0    0  0.00000000000E+00  0.00000000000E+00  0.13172922909E+04  0.17846164103E+04  0.12039920067E+04 0.  0.
        2    1    3    3  502    0  0.31124060798E+03  0.48780969597E+03  0.90476280970E+03  0.10739761438E+04  0.25500000920E-02 0. -1.
       -2    1    3    3    0  502 -0.31124060798E+03 -0.48780969597E+03  0.41252948121E+03  0.71064026653E+03  0.25500000920E-02 0.  1.
</event>
<event>
 5   0  0.9298693E-04  0.1196432E+04  0.7818609E-02  0.9115985E-01
       -2   -1    0    0    0  501  0.00000000000E+00  0.00000000000E+00  0.26664914381E+03  0.26664914382E+03  0.25500000920E-02 0. -1.
        2   -1    0    0  501    0  0.00000000000E+00  0.00000000000E+00 -0.13420718807E+04  0.13420718807E+04  0.25500000920E-02 0.  1.
    10030    2    1    2    0    0  0.00000000000E+00  0.00000000000E+00 -0.10754227369E+04  0.16087210245E+04  0.11964318918E+04 0.  0.
        1    1    3    3  502    0 -0.35112071188E+03 -0.16874038064E+03  0.72717654728E+02  0.39629146811E+03  0.50400001928E-02 0. -1.
       -1    1    3    3    0  502  0.35112071188E+03  0.16874038064E+03 -0.11481403916E+04  0.12124295564E+04  0.50400001928E-02 0.  1.
</event>
<event>
 5   0  0.5447074E-04  0.1204897E+04  0.7818609E-02  0.9108581E-01
       -1   -1    0    0    0  501  0.00000000000E+00  0.00000000000E+00  0.78377708811E+03  0.78377708812E+03  0.50400001928E-02 0.  1.
        1   -1    0    0  501    0  0.00000000000E+00  0.00000000000E+00 -0.46307032332E+03  0.46307032335E+03  0.50400001928E-02 0. -1.
    10030    2    1    2    0    0  0.00000000000E+00  0.00000000000E+00  0.32070676479E+03  0.12468474115E+04  0.12048965261E+04 0.  0.
        4    1    3    3  502    0  0.38967819393E+03 -0.97983536411E+02  0.62486108651E+03  0.74290164797E+03  0.12699999809E+01 0.  1.
       -4    1    3    3    0  502 -0.38967819393E+03  0.97983536411E+02 -0.30415432172E+03  0.50394576350E+03  0.12699999809E+01 0. -1.
</event>
<event>
 5   0  0.5052959E-04  0.1197333E+04  0.7818609E-02  0.9115194E-01
       -1   -1    0    0    0  501  0.00000000000E+00  0.00000000000E+00  0.38931425229E+03  0.38931425232E+03  0.50400001928E-02 0. -1.
        1   -1    0    0  501    0  0.00000000000E+00  0.00000000000E+00 -0.92059740138E+03  0.92059740139E+03  0.50400001928E-02 0.  1.
    10030    2    1    2    0    0  0.00000000000E+00  0.00000000000E+00 -0.53128314910E+03  0.13099116537E+04  0.11973331850E+04 0.  0.
        2    1    3    3  502    0 -0.19580304786E+03  0.41192896116E+03  0.15860491031E+03  0.48288696417E+03  0.25500000920E-02 0. -1.
       -2    1    3    3    0  502  0.19580304786E+03 -0.41192896116E+03 -0.68988805941E+03  0.82702468954E+03  0.25500000920E-02 0.  1.
</event>
<event>
 5   0  0.5001586E-04  0.1198734E+04  0.7818609E-02  0.9113965E-01
       -1   -1    0    0    0  501  0.00000000000E+00  0.00000000000E+00  0.55334259123E+03  0.55334259126E+03  0.50400001928E-02 0.  1.
        1   -1    0    0  501    0  0.00000000000E+00  0.00000000000E+00 -0.64921985936E+03  0.64921985938E+03  0.50400001928E-02 0. -1.
    10030    2    1    2    0    0  0.00000000000E+00  0.00000000000E+00 -0.95877268123E+02  0.12025624506E+04  0.11987343313E+04 0.  0.
        1    1    3    3  502    0  0.91948427357E+02 -0.11526818600E+03  0.53486387288E+03  0.55481585282E+03  0.50400001928E-02 0.  1.
       -1    1    3    3    0  502 -0.91948427357E+02  0.11526818600E+03 -0.63074114101E+03  0.64774659782E+03  0.50400001928E-02 0. -1.
</event>
<event>
 5   0  0.9298693E-04  0.1202497E+04  0.7818609E-02  0.9110674E-01
       -2   -1    0    0    0  501  0.00000000000E+00  0.00000000000E+00  0.35990982870E+03  0.35990982871E+03  0.25500000920E-02 0.  1.
        2   -1    0    0  501    0  0.00000000000E+00  0.00000000000E+00 -0.10044174924E+04  0.10044174924E+04  0.25500000920E-02 0. -1.
    10030    2    1    2    0    0  0.00000000000E+00  0.00000000000E+00 -0.64450766368E+03  0.13643273211E+04  0.12024969483E+04 0.  0.
        1    1    3    3  502    0 -0.36762503352E+03  0.47225379302E+03 -0.25680214300E+03  0.65124430974E+03  0.50400001928E-02 0. -1.
       -1    1    3    3    0  502  0.36762503352E+03 -0.47225379302E+03 -0.38770552069E+03  0.71308301136E+03  0.50400001928E-02 0.  1.
</event>
<event>
 5   0  0.5003507E-04  0.1199825E+04  0.7818609E-02  0.9113009E-01
        1   -1    0    0  501    0  0.00000000000E+00  0.00000000000E+00  0.43722283182E+03  0.43722283185E+03  0.50400001928E-02 0. -1.
       -1   -1    0    0    0  501  0.00000000000E+00  0.00000000000E+00 -0.82313920476E+03  0.82313920477E+03  0.50400001928E-02 0.  1.
    10030    2    1    2    0    0  0.00000000000E+00  0.00000000000E+00 -0.38591637293E+03  0.12603620366E+04  0.11998254108E+04 0.  0.
        3    1    3    3  502    0  0.37947611932E+03  0.16034100425E+03 -0.65106221479E+03  0.77045011552E+03  0.10100000352E+00 0.  1.
       -3    1    3    3    0  502 -0.37947611932E+03 -0.16034100425E+03  0.26514584186E+03  0.48991192110E+03  0.10100000352E+00 0. -1.
</event>
<event>
 5   0  0.5157631E-04  0.1200783E+04  0.7818609E-02  0.9112172E-01
        1   -1    0    0  501    0  0.00000000000E+00  0.00000000000E+00  0.22018389306E+04  0.22018389306E+04  0.50400001928E-02 0.  1.
       -1   -1    0    0    0  501  0.00000000000E+00  0.00000000000E+00 -0.16371309852E+03  0.16371309859E+03  0.50400001928E-02 0. -1.
    10030    2    1    2    0    0  0.00000000000E+00  0.00000000000E+00  0.20381258321E+04  0.23655520292E+04  0.12007828677E+04 0.  0.
        5    1    3    3  502    0  0.44199990598E+03  0.24382554963E+03  0.37878611929E+03  0.63112267405E+03  0.46999998093E+01 0. -1.
       -5    1    3    3    0  502 -0.44199990598E+03 -0.24382554963E+03  0.16593397128E+04  0.17344293552E+04  0.46999998093E+01 0.  1.
</event>
<event>
 5   0  0.5003507E-04  0.1202979E+04  0.7818609E-02  0.9110253E-01
       -1   -1    0    0    0  501  0.00000000000E+00  0.00000000000E+00  0.13276343716E+04  0.13276343716E+04  0.50400001928E-02 0.  1.
        1   -1    0    0  501    0  0.00000000000E+00  0.00000000000E+00 -0.27250678969E+03  0.27250678974E+03  0.50400001928E-02 0. -1.
    10030    2    1    2    0    0  0.00000000000E+00  0.00000000000E+00  0.10551275819E+04  0.16001411613E+04  0.12029786042E+04 0.  0.
        3    1    3    3  502    0  0.58063047520E+03  0.34218393303E+02  0.32371337206E+03  0.66565231512E+03  0.10100000352E+00 0. -1.
       -3    1    3    3    0  502 -0.58063047520E+03 -0.34218393303E+02  0.73141420983E+03  0.93448884622E+03  0.10100000352E+00 0.  1.
</event>
<event>
 5   0  0.9410666E-04  0.1197138E+04  0.7818609E-02  0.9115366E-01
       -2   -1    0    0    0  501  0.00000000000E+00  0.00000000000E+00  0.46957744026E+03  0.46957744026E+03  0.25500000920E-02 0.  1.
        2   -1    0    0  501    0  0.00000000000E+00  0.00000000000E+00 -0.76299356466E+03  0.76299356466E+03  0.25500000920E-02 0. -1.
    10030    2    1    2    0    0  0.00000000000E+00  0.00000000000E+00 -0.29341612440E+03  0.12325710049E+04  0.11971375277E+04 0.  0.
        2    1    3    3  502    0 -0.33249685104E+03  0.26760603840E+03 -0.57879292897E+03  0.71914421528E+03  0.25500000920E-02 0. -1.
       -2    1    3    3    0  502  0.33249685104E+03 -0.26760603840E+03  0.28537680457E+03  0.51342678965E+03  0.25500000920E-02 0.  1.
</event>
<event>
 5   0  0.9070772E-04  0.1200565E+04  0.7818609E-02  0.9112362E-01
       -2   -1    0    0    0  501  0.00000000000E+00  0.00000000000E+00  0.46964330490E+03  0.46964330490E+03  0.25500000920E-02 0.  1.
        2   -1    0    0  501    0  0.00000000000E+00  0.00000000000E+00 -0.76726087875E+03  0.76726087875E+03  0.25500000920E-02 0. -1.
    10030    2    1    2    0    0  0.00000000000E+00  0.00000000000E+00 -0.29761757385E+03  0.12369041837E+04  0.12005647585E+04 0.  0.
        4    1    3    3  502    0  0.37089685503E+03 -0.29615605853E+03 -0.52744397205E+03  0.70955735824E+03  0.12699999809E+01 0. -1.
       -4    1    3    3    0  502 -0.37089685503E+03  0.29615605853E+03  0.22982639820E+03  0.52734682542E+03  0.12699999809E+01 0.  1.
</event>
<event>
 5   0  0.9070772E-04  0.1195446E+04  0.7818609E-02  0.9116852E-01
        2   -1    0    0  501    0  0.00000000000E+00  0.00000000000E+00  0.88804621755E+03  0.88804621755E+03  0.25500000920E-02 0. -1.
       -2   -1    0    0    0  501  0.00000000000E+00  0.00000000000E+00 -0.40231351362E+03  0.40231351363E+03  0.25500000920E-02 0.  1.
    10030    2    1    2    0    0  0.00000000000E+00  0.00000000000E+00  0.48573270392E+03  0.12903597312E+04  0.11954463502E+04 0.  0.
        4    1    3    3  502    0  0.34358293519E+03  0.44056916344E+02 -0.28292364239E+03  0.44725568253E+03  0.12699999809E+01 0.  1.
       -4    1    3    3    0  502 -0.34358293519E+03 -0.44056916344E+02  0.76865634632E+03  0.84310404866E+03  0.12699999809E+01 0. -1.
</event>
<event>
 5   0  0.3453625E-04  0.1195068E+04  0.7818609E-02  0.9117184E-01
       -3   -1    0    0    0  501  0.00000000000E+00  0.00000000000E+00  0.13528091156E+04  0.13528091194E+04  0.10100000352E+00 0. -1.
        3   -1    0    0  501    0  0.00000000000E+00  0.00000000000E+00 -0.26393018407E+03  0.26393020340E+03  0.10100000352E+00 0.  1.
    10030    2    1    2    0    0  0.00000000000E+00  0.00000000000E+00  0.10888789316E+04  0.16167393228E+04  0.11950684961E+04 0.  0.
        4    1    3    3  502    0  0.18866210602E+03  0.47099841664E+03  0.11746246203E+03  0.52079932950E+03  0.12699999809E+01 0.  1.
       -4    1    3    3    0  502 -0.18866210602E+03 -0.47099841664E+03  0.97141646953E+03  0.10959399933E+04  0.12699999809E+01 0. -1.
</event>
<event>
 5   0  0.5003507E-04  0.1204703E+04  0.7818609E-02  0.9108750E-01
       -1   -1    0    0    0  501  0.00000000000E+00  0.00000000000E+00  0.25793044970E+03  0.25793044975E+03  0.50400001928E-02 0. -1.
        1   -1    0    0  501    0  0.00000000000E+00  0.00000000000E+00 -0.14066874858E+04  0.14066874858E+04  0.50400001928E-02 0.  1.
    10030    2    1    2    0    0  0.00000000000E+00  0.00000000000E+00 -0.11487570361E+04  0.16646179355E+04  0.12047033425E+04 0.  0.
        3    1    3    3  502    0  0.58018504253E+03  0.40231008890E+02 -0.79107494877E+03  0.98185172120E+03  0.10100000352E+00 0. -1.
       -3    1    3    3    0  502 -0.58018504253E+03 -0.40231008890E+02 -0.35768208729E+03  0.68276621432E+03  0.10100000352E+00 0.  1.
</event>
<event>
 5   0  0.5447074E-04  0.1200448E+04  0.7818609E-02  0.9112464E-01
        1   -1    0    0  501    0  0.00000000000E+00  0.00000000000E+00  0.24287384357E+03  0.24287384362E+03  0.50400001928E-02 0. -1.
       -1   -1    0    0    0  501  0.00000000000E+00  0.00000000000E+00 -0.14833591579E+04  0.14833591579E+04  0.50400001928E-02 0.  1.
    10030    2    1    2    0    0  0.00000000000E+00  0.00000000000E+00 -0.12404853143E+04  0.17262330015E+04  0.12004484831E+04 0.  0.
        4    1    3    3  502    0 -0.44486840845E+03 -0.78718775480E+02 -0.11884998386E+04  0.12714708120E+04  0.12699999809E+01 0.  1.
       -4    1    3    3    0  502  0.44486840845E+03  0.78718775480E+02 -0.51985475715E+02  0.45476218954E+03  0.12699999809E+01 0. -1.
</event>
<event>
 5   0  0.9145224E-04  0.1201671E+04  0.7818609E-02  0.9111396E-01
        2   -1    0    0  501    0  0.00000000000E+00  0.00000000000E+00  0.88553058104E+03  0.88553058104E+03  0.25500000920E-02 0.  1.
       -2   -1    0    0    0  501  0.00000000000E+00  0.00000000000E+00 -0.40766860741E+03  0.40766860741E+03  0.25500000920E-02 0. -1.
    10030    2    1    2    0    0  0.00000000000E+00  0.00000000000E+00  0.47786197363E+03  0.12931991885E+04  0.12016705352E+04 0.  0.
        5    1    3    3  502    0 -0.42005609174E+02  0.31657618108E+03  0.78661053291E+03  0.84897772062E+03  0.46999998093E+01 0.  1.
       -5    1    3    3    0  502  0.42005609174E+02 -0.31657618108E+03 -0.30874855928E+03  0.44422146783E+03  0.46999998093E+01 0. -1.
</event>
<event>
 5   0  0.5157631E-04  0.1196352E+04  0.7818609E-02  0.9116056E-01
       -1   -1    0    0    0  501  0.00000000000E+00  0.00000000000E+00  0.27592324014E+03  0.27592324018E+03  0.50400001928E-02 0.  1.
        1   -1    0    0  501    0  0.00000000000E+00  0.00000000000E+00 -0.12967895505E+04  0.12967895505E+04  0.50400001928E-02 0. -1.
    10030    2    1    2    0    0  0.00000000000E+00  0.00000000000E+00 -0.10208663104E+04  0.15727127907E+04  0.11963517453E+04 0.  0.
        5    1    3    3  502    0 -0.35237952479E+03 -0.47424031918E+03 -0.38769603847E+03  0.70668629396E+03  0.46999998093E+01 0.  1.
       -5    1    3    3    0  502  0.35237952479E+03  0.47424031918E+03 -0.63317027190E+03  0.86602649674E+03  0.46999998093E+01 0. -1.
</event>
<event>
 5   0  0.5052959E-04  0.1193947E+04  0.7818609E-02  0.9118172E-01
       -1   -1    0    0    0  501  0.00000000000E+00  0.00000000000E+00  0.79731127074E+03  0.79731127076E+03  0.50400001928E-02 0. -1.
        1   -1    0    0  501    0  0.00000000000E+00  0.00000000000E+00 -0.44697361894E+03  0.44697361897E+03  0.50400001928E-02 0.  1.
    10030    2    1    2    0    0  0.00000000000E+00  0.00000000000E+00  0.35033765180E+03  0.12442848897E+04  0.11939465719E+04 0.  0.
        2    1    3    3  502    0  0.49754304221E+03 -0.77614951814E+02  0.50931756264E+03  0.71622450336E+03  0.25500000920E-02 0. -1.
       -2    1    3    3    0  502 -0.49754304221E+03  0.77614951814E+02 -0.15897991084E+03  0.52806038637E+03  0.25500000920E-02 0.  1.
</event>
<event>
 5   0  0.9145224E-04  0.1202831E+04  0.7818609E-02  0.9110382E-01
        2   -1    0    0  501    0  0.00000000000E+00  0.00000000000E+00  0.57974334451E+03  0.57974334452E+03  0.25500000920E-02 0.  1.
       -2   -1    0    0    0  501  0.00000000000E+00  0.00000000000E+00 -0.62389744142E+03  0.62389744142E+03  0.25500000920E-02 0. -1.
    10030    2    1    2    0    0  0.00000000000E+00  0.00000000000E+00 -0.44154096905E+02  0.12036407859E+04  0.12028306436E+04 0.  0.
        5    1    3    3  502    0  0.15405543188E+03  0.24273109983E+03  0.50650863880E+03  0.58242987054E+03  0.46999998093E+01 0.  1.
       -5    1    3    3    0  502 -0.15405543188E+03 -0.24273109983E+03 -0.55066273571E+03  0.62121091540E+03  0.46999998093E+01 0. -1.
</event>
<event>
 5   0  0.5003507E-04  0.1207711E+04  0.7818609E-02  0.9106134E-01
        1   -1    0    0  501    0  0.00000000000E+00  0.00000000000E+00  0.83338058867E+03  0.83338058869E+03  0.50400001928E-02 0. -1.
       -1   -1    0    0    0  501  0.00000000000E+00  0.00000000000E+00 -0.43754492712E+03  0.43754492715E+03  0.50400001928E-02 0.  1.
    10030    2    1    2    0    0  0.00000000000E+00  0.00000000000E+00  0.39583566155E+03  0.12709255158E+04  0.12077109736E+04 0.  0.
        3    1    3    3  502    0 -0.14540471334E+03 -0.20490835374E+03 -0.37992404131E+03  0.45549121996E+03  0.10100000352E+00 0.  1.
       -3    1    3    3    0  502  0.14540471334E+03  0.20490835374E+03  0.77575970287E+03  0.81543429587E+03  0.10100000352E+00 0. -1.
</event>
<event>
 5   0  0.5003507E-04  0.1197541E+04  0.7818609E-02  0.9115012E-01
       -1   -1    0    0    0  501  0.00000000000E+00  0.00000000000E+00  0.34822736768E+03  0.34822736771E+03  0.50400001928E-02 0. -1.
        1   -1    0    0  501    0  0.00000000000E+00  0.00000000000E+00 -0.10295745863E+04  0.10295745863E+04  0.50400001928E-02 0.  1.
    10030    2    1    2    0    0  0.00000000000E+00  0.00000000000E+00 -0.68134721862E+03  0.13778019540E+04  0.11975408937E+04 0.  0.
        3    1    3    3  502    0  0.52316735427E+03  0.19427582718E+03 -0.59031087313E+03  0.81235098002E+03  0.10100000352E+00 0.  1.
       -3    1    3    3    0  502 -0.52316735427E+03 -0.19427582718E+03 -0.91036345496E+02  0.56545097401E+03  0.10100000352E+00 0. -1.
</event>
<event>
 5   0  0.5003507E-04  0.1204661E+04  0.7818609E-02  0.9108787E-01
       -1   -1    0    0    0  501  0.00000000000E+00  0.00000000000E+00  0.40915524644E+03  0.40915524647E+03  0.50400001928E-02 0.  1.
        1   -1    0    0  501    0  0.00000000000E+00  0.00000000000E+00 -0.88670966298E+03  0.88670966299E+03  0.50400001928E-02 0. -1.
    10030    2    1    2    0    0  0.00000000000E+00  0.00000000000E+00 -0.47755441654E+03  0.12958649095E+04  0.12046607999E+04 0.  0.
        3    1    3    3  502    0  0.55792498841E+03 -0.20152461390E+03 -0.35113317396E+03  0.68933807290E+03  0.10100000352E+00 0. -1.
       -3    1    3    3    0  502 -0.55792498841E+03  0.20152461390E+03 -0.12642124258E+03  0.60652683656E+03  0.10100000352E+00 0.  1.
</event>
<event>
 5   0  0.3453625E-04  0.1202388E+04  0.7818609E-02  0.9110769E-01
        4   -1    0    0  501    0  0.00000000000E+00  0.00000000000E+00  0.34037225087E+03  0.34037462018E+03  0.12699999809E+01 0.  1.
       -4   -1    0    0    0  501  0.00000000000E+00  0.00000000000E+00 -0.10618733302E+04  0.10618740896E+04  0.12699999809E+01 0. -1.
    10030    2    1    2    0    0  0.00000000000E+00  0.00000000000E+00 -0.72150107929E+03  0.14022487098E+04  0.12023883053E+04 0.  0.
        5    1    3    3  502    0  0.41070357478E+03 -0.17031838260E+03 -0.83263953488E+03  0.94392608971E+03  0.46999998093E+01 0. -1.
       -5    1    3    3    0  502 -0.41070357478E+03  0.17031838260E+03  0.11113845558E+03  0.45832262010E+03  0.46999998093E+01 0.  1.
</event>
<event>
 5   0  0.5447074E-04  0.1210957E+04  0.7818609E-02  0.9103320E-01
        1   -1    0    0  501    0  0.00000000000E+00  0.00000000000E+00  0.94436732324E+03  0.94436732325E+03  0.50400001928E-02 0. -1.
       -1   -1    0    0    0  501  0.00000000000E+00  0.00000000000E+00 -0.38820072838E+03  0.38820072841E+03  0.50400001928E-02 0.  1.
    10030    2    1    2    0    0  0.00000000000E+00  0.00000000000E+00  0.55616659486E+03  0.13325680517E+04  0.12109567833E+04 0.  0.
        4    1    3    3  502    0 -0.58489052947E+03 -0.15302853601E+03  0.24178916741E+03  0.65113614450E+03  0.12699999809E+01 0.  1.
       -4    1    3    3    0  502  0.58489052947E+03  0.15302853601E+03  0.31437742745E+03  0.68143190716E+03  0.12699999809E+01 0. -1.
</event>
<event>
 5   0  0.5447074E-04  0.1222974E+04  0.7818609E-02  0.9092982E-01
       -1   -1    0    0    0  501  0.00000000000E+00  0.00000000000E+00  0.10491078042E+04  0.10491078043E+04  0.50400001928E-02 0.  1.
        1   -1    0    0  501    0  0.00000000000E+00  0.00000000000E+00 -0.35641367766E+03  0.35641367769E+03  0.50400001928E-02 0. -1.
    10030    2    1    2    0    0  0.00000000000E+00  0.00000000000E+00  0.69269412659E+03  0.14055214819E+04  0.12229740321E+04 0.  0.
        4    1    3    3  502    0 -0.57617175235E+03  0.83155268847E+01  0.58151638230E+03  0.81866107272E+03  0.12699999809E+01 0.  1.
       -4    1    3    3    0  502  0.57617175235E+03 -0.83155268847E+01  0.11117774428E+03  0.58686040923E+03  0.12699999809E+01 0. -1.
</event>
<event>
 5   0  0.9050363E-04  0.1213121E+04  0.7818609E-02  0.9101449E-01
        2   -1    0    0  501    0  0.00000000000E+00  0.00000000000E+00  0.19273936139E+04  0.19273936139E+04  0.25500000920E-02 0.  1.
       -2   -1    0    0    0  501  0.00000000000E+00  0.00000000000E+00 -0.19088750619E+03  0.19088750620E+03  0.25500000920E-02 0. -1.
    10030    2    1    2    0    0  0.00000000000E+00  0.00000000000E+00  0.17365061077E+04  0.21182811201E+04  0.12131205388E+04 0.  0.
        3    1    3    3  502    0  0.19834694898E+03  0.38220571331E+03  0.12231578564E+03  0.44764258184E+03  0.10100000352E+00 0. -1.
       -3    1    3    3    0  502 -0.19834694898E+03 -0.38220571331E+03  0.16141903221E+04  0.16706385383E+04  0.10100000352E+00 0.  1.
</event>
<event>
 5   0  0.9070772E-04  0.1200955E+04  0.7818609E-02  0.9112021E-01
        2   -1    0    0  501    0  0.00000000000E+00  0.00000000000E+00  0.30200625052E+04  0.30200625052E+04  0.25500000920E-02 0. -1.
       -2   -1    0    0    0  501  0.00000000000E+00  0.00000000000E+00 -0.11939261814E+03  0.11939261816E+03  0.25500000920E-02 0.  1.
    10030    2    1    2    0    0  0.00000000000E+00  0.00000000000E+00  0.29006698871E+04  0.31394551234E+04  0.12009549025E+04 0.  0.
        4    1    3    3  502    0  0.29401946415E+03 -0.13529592246E+03  0.12814428536E+03  0.34810200043E+03  0.12699999809E+01 0.  1.
       -4    1    3    3    0  502 -0.29401946415E+03  0.13529592246E+03  0.27725256017E+04  0.27913531229E+04  0.12699999809E+01 0. -1.
</event>
<event>
 5   0  0.9070772E-04  0.1196114E+04  0.7818609E-02  0.9116264E-01
       -2   -1    0    0    0  501  0.00000000000E+00  0.00000000000E+00  0.17782772528E+03  0.17782772529E+03  0.25500000920E-02 0. -1.
        2   -1    0    0  501    0  0.00000000000E+00  0.00000000000E+00 -0.20113420591E+04  0.20113420591E+04  0.25500000920E-02 0.  1.
    10030    2    1    2    0    0  0.00000000000E+00  0.00000000000E+00 -0.18335143338E+04  0.21891697844E+04  0.11961143476E+04 0.  0.
        4    1    3    3  502    0  0.37598514826E+03  0.36499814653E+03 -0.38921038432E+03  0.65274406535E+03  0.12699999809E+01 0. -1.
       -4    1    3    3    0  502 -0.37598514826E+03 -0.36499814653E+03 -0.14443039495E+04  0.15364257190E+04  0.12699999809E+01 0.  1.
</event>
<event>
 5   0  0.5157631E-04  0.1199372E+04  0.7818609E-02  0.9113407E-01
       -1   -1    0    0    0  501  0.00000000000E+00  0.00000000000E+00  0.72128500329E+03  0.72128500331E+03  0.50400001928E-02 0.  1.
        1   -1    0    0  501    0  0.00000000000E+00  0.00000000000E+00 -0.49858675361E+03  0.49858675364E+03  0.50400001928E-02 0. -1.
    10030    2    1    2    0    0  0.00000000000E+00  0.00000000000E+00  0.22269824968E+03  0.12198717569E+04  0.11993717493E+04 0.  0.
        5    1    3    3  502    0  0.94769692648E+02  0.58396182094E+03  0.21104676718E+03  0.62813655434E+03  0.46999998093E+01 0.  1.
       -5    1    3    3    0  502 -0.94769692648E+02 -0.58396182094E+03  0.11651482493E+02  0.59173520261E+03  0.46999998093E+01 0. -1.
</event>
<event>
 5   0  0.5003507E-04  0.1199231E+04  0.7818609E-02  0.9113530E-01
        1   -1    0    0  501    0  0.00000000000E+00  0.00000000000E+00  0.97443563225E+03  0.97443563226E+03  0.50400001928E-02 0. -1.
       -1   -1    0    0    0  501  0.00000000000E+00  0.00000000000E+00 -0.36897137487E+03  0.36897137491E+03  0.50400001928E-02 0.  1.
    10030    2    1    2    0    0  0.00000000000E+00  0.00000000000E+00  0.60546425738E+03  0.13434070072E+04  0.11992311787E+04 0.  0.
        3    1    3    3  502    0  0.28499485973E+03  0.37202212587E+03 -0.11629184745E+03  0.48285229231E+03  0.10100000352E+00 0.  1.
       -3    1    3    3    0  502 -0.28499485973E+03 -0.37202212587E+03  0.72175610483E+03  0.86055471486E+03  0.10100000352E+00 0. -1.
</event>
<event>
 5   0  0.9070772E-04  0.1193081E+04  0.7818609E-02  0.9118934E-01
        2   -1    0    0  501    0  0.00000000000E+00  0.00000000000E+00  0.90005927576E+03  0.90005927576E+03  0.25500000920E-02 0.  1.
       -2   -1    0    0    0  501  0.00000000000E+00  0.00000000000E+00 -0.39537477201E+03  0.39537477202E+03  0.25500000920E-02 0. -1.
    10030    2    1    2    0    0  0.00000000000E+00  0.00000000000E+00  0.50468450375E+03  0.12954340478E+04  0.11930812729E+04 0.  0.
        4    1    3    3  502    0 -0.40423293071E+03 -0.36455575280E+03 -0.12630122168E+02  0.54448718264E+03  0.12699999809E+01 0. -1.
       -4    1    3    3    0  502  0.40423293071E+03  0.36455575280E+03  0.51731462592E+03  0.75094686514E+03  0.12699999809E+01 0.  1.
</event>
<event>
 5   0  0.9145224E-04  0.1198050E+04  0.7818609E-02  0.9114565E-01
       -2   -1    0    0    0  501  0.00000000000E+00  0.00000000000E+00  0.43797786672E+03  0.43797786673E+03  0.25500000920E-02 0. -1.
        2   -1    0    0  501    0  0.00000000000E+00  0.00000000000E+00 -0.81929002611E+03  0.81929002612E+03  0.25500000920E-02 0.  1.
    10030    2    1    2    0    0  0.00000000000E+00  0.00000000000E+00 -0.38131215939E+03  0.12572678928E+04  0.11980499119E+04 0.  0.
        5    1    3    3  502    0 -0.21640103337E+03  0.37192169786E+03  0.24665942290E+03  0.49600213456E+03  0.46999998093E+01 0. -1.
       -5    1    3    3    0  502  0.21640103337E+03 -0.37192169786E+03 -0.62797158228E+03  0.76126575829E+03  0.46999998093E+01 0.  1.
</event>
<event>
 5   0  0.5157631E-04  0.1200868E+04  0.7818609E-02  0.9112097E-01
       -1   -1    0    0    0  501  0.00000000000E+00  0.00000000000E+00  0.32582788142E+03  0.32582788146E+03  0.50400001928E-02 0. -1.
        1   -1    0    0  501    0  0.00000000000E+00  0.00000000000E+00 -0.11064775149E+04  0.11064775149E+04  0.50400001928E-02 0.  1.
    10030    2    1    2    0    0  0.00000000000E+00  0.00000000000E+00 -0.78064963344E+03  0.14323053963E+04  0.12008683934E+04 0.  0.
        5    1    3    3  502    0 -0.22212086699E+03  0.19326369563E+03 -0.10144408526E+04  0.10563147585E+04  0.46999998093E+01 0.  1.
       -5    1    3    3    0  502  0.22212086699E+03 -0.19326369563E+03  0.23379121914E+03  0.37599063785E+03  0.46999998093E+01 0. -1.
</event>
<event>
 5   0  0.5003507E-04  0.1224934E+04  0.7818609E-02  0.9091308E-01
       -1   -1    0    0    0  501  0.00000000000E+00  0.00000000000E+00  0.61593596861E+03  0.61593596863E+03  0.50400001928E-02 0. -1.
        1   -1    0    0  501    0  0.00000000000E+00  0.00000000000E+00 -0.60901755310E+03  0.60901755312E+03  0.50400001928E-02 0.  1.
    10030    2    1    2    0    0  0.00000000000E+00  0.00000000000E+00  0.69184155113E+01  0.12249535217E+04  0.12249339843E+04 0.  0.
        3    1    3    3  502    0 -0.47450531021E+03  0.12921308672E+03  0.36851912915E+03  0.61453858296E+03  0.10100000352E+00 0. -1.
       -3    1    3    3    0  502  0.47450531021E+03 -0.12921308672E+03 -0.36160071364E+03  0.61041493879E+03  0.10100000352E+00 0.  1.
</event>
<event>
 5   0  0.9410666E-04  0.1197109E+04  0.7818609E-02  0.9115391E-01
       -2   -1    0    0    0  501  0.00000000000E+00  0.00000000000E+00  0.35865480248E+03  0.35865480249E+03  0.25500000920E-02 0. -1.
        2   -1    0    0  501    0  0.00000000000E+00  0.00000000000E+00 -0.99892058220E+03  0.99892058220E+03  0.25500000920E-02 0.  1.
    10030    2    1    2    0    0  0.00000000000E+00  0.00000000000E+00 -0.64026577972E+03  0.13575753847E+04  0.11971092918E+04 0.  0.
        2    1    3    3  502    0  0.89962817723E+02 -0.44361804462E+03 -0.76426361516E+03  0.88825061303E+03  0.25500000920E-02 0.  1.
       -2    1    3    3    0  502 -0.89962817723E+02  0.44361804462E+03  0.12399783544E+03  0.46932477165E+03  0.25500000920E-02 0. -1.
</event>
<event>
 5   0  0.9145224E-04  0.1190367E+04  0.7818609E-02  0.9121331E-01
        2   -1    0    0  501    0  0.00000000000E+00  0.00000000000E+00  0.80025490835E+03  0.80025490836E+03  0.25500000920E-02 0. -1.
       -2   -1    0    0    0  501  0.00000000000E+00  0.00000000000E+00 -0.44266283528E+03  0.44266283529E+03  0.25500000920E-02 0.  1.
    10030    2    1    2    0    0  0.00000000000E+00  0.00000000000E+00  0.35759207307E+03  0.12429177436E+04  0.11903665094E+04 0.  0.
        5    1    3    3  502    0 -0.41549584468E+03 -0.36297030229E+03  0.41189303052E+03  0.68852174685E+03  0.46999998093E+01 0. -1.
       -5    1    3    3    0  502  0.41549584468E+03  0.36297030229E+03 -0.54300957451E+02  0.55439599680E+03  0.46999998093E+01 0.  1.
</event>
<event>
 5   0  0.9298693E-04  0.1187911E+04  0.7818609E-02  0.9123505E-01
        2   -1    0    0  501    0  0.00000000000E+00  0.00000000000E+00  0.62008239928E+03  0.62008239928E+03  0.25500000920E-02 0. -1.
       -2   -1    0    0    0  501  0.00000000000E+00  0.00000000000E+00 -0.56892905938E+03  0.56892905938E+03  0.25500000920E-02 0.  1.
    10030    2    1    2    0    0  0.00000000000E+00  0.00000000000E+00  0.51153339904E+02  0.11890114587E+04  0.11879105962E+04 0.  0.
        1    1    3    3  502    0 -0.45234956319E+03 -0.36700593518E+03 -0.90588680832E+02  0.58950809400E+03  0.50400001928E-02 0.  1.
       -1    1    3    3    0  502  0.45234956319E+03  0.36700593518E+03  0.14174202074E+03  0.59950336466E+03  0.50400001928E-02 0. -1.
</event>
<event>
 5   0  0.9070772E-04  0.1237900E+04  0.7818609E-02  0.9080315E-01
       -2   -1    0    0    0  501  0.00000000000E+00  0.00000000000E+00  0.27760757873E+03  0.27760757874E+03  0.25500000920E-02 0. -1.
        2   -1    0    0  501    0  0.00000000000E+00  0.00000000000E+00 -0.13800018931E+04  0.13800018931E+04  0.25500000920E-02 0.  1.
    10030    2    1    2    0    0  0.00000000000E+00  0.00000000000E+00 -0.11023943144E+04  0.16576094719E+04  0.12378998089E+04 0.  0.
        4    1    3    3  502    0  0.76584431439E+01 -0.24952538749E+03  0.20720144272E+03  0.32443122772E+03  0.12699999809E+01 0. -1.
       -4    1    3    3    0  502 -0.76584431439E+01  0.24952538749E+03 -0.13095957571E+04  0.13331782441E+04  0.12699999809E+01 0.  1.
</event>
<event>
 5   0  0.9145224E-04  0.1204158E+04  0.7818609E-02  0.9109225E-01
        2   -1    0    0  501    0  0.00000000000E+00  0.00000000000E+00  0.77179331496E+03  0.77179331496E+03  0.25500000920E-02 0. -1.
       -2   -1    0    0    0  501  0.00000000000E+00  0.00000000000E+00 -0.46968418078E+03  0.46968418079E+03  0.25500000920E-02 0.  1.
    10030    2    1    2    0    0  0.00000000000E+00  0.00000000000E+00  0.30210913418E+03  0.12414774957E+04  0.12041579811E+04 0.  0.
        5    1    3    3  502    0 -0.40756425819E+03  0.80933263583E+02  0.60023860203E+03  0.73004608558E+03  0.46999998093E+01 0. -1.
       -5    1    3    3    0  502  0.40756425819E+03 -0.80933263583E+02 -0.29812946786E+03  0.51143141017E+03  0.46999998093E+01 0.  1.
</event>
<event>
 5   0  0.9050363E-04  0.1201745E+04  0.7818609E-02  0.9111330E-01
        2   -1    0    0  501    0  0.00000000000E+00  0.00000000000E+00  0.40638892706E+03  0.40638892707E+03  0.25500000920E-02 0. -1.
       -2   -1    0    0    0  501  0.00000000000E+00  0.00000000000E+00 -0.88842954274E+03  0.88842954275E+03  0.25500000920E-02 0.  1.
    10030    2    1    2    0    0  0.00000000000E+00  0.00000000000E+00 -0.48204061568E+03  0.12948184698E+04  0.12017452786E+04 0.  0.
        3    1    3    3  502    0  0.36495909454E+03  0.44627736384E+03 -0.58523035092E+02  0.57946836152E+03  0.10100000352E+00 0.  1.
       -3    1    3    3    0  502 -0.36495909454E+03 -0.44627736384E+03 -0.42351758059E+03  0.71535010829E+03  0.10100000352E+00 0. -1.
</event>
<event>
 5   0  0.5447074E-04  0.1200210E+04  0.7818609E-02  0.9112673E-01
       -1   -1    0    0    0  501  0.00000000000E+00  0.00000000000E+00  0.37022368260E+03  0.37022368263E+03  0.50400001928E-02 0.  1.
        1   -1    0    0  501    0  0.00000000000E+00  0.00000000000E+00 -0.97272576670E+03  0.97272576672E+03  0.50400001928E-02 0. -1.
    10030    2    1    2    0    0  0.00000000000E+00  0.00000000000E+00 -0.60250208410E+03  0.13429494494E+04  0.12002101742E+04 0.  0.
        4    1    3    3  502    0  0.42126892215E+02  0.25007583979E+03 -0.90982054291E+03  0.94450390888E+03  0.12699999809E+01 0. -1.
       -4    1    3    3    0  502 -0.42126892215E+02 -0.25007583979E+03  0.30731845881E+03  0.39844554047E+03  0.12699999809E+01 0.  1.
</event>
<event>
 5   0  0.9145224E-04  0.1198362E+04  0.7818609E-02  0.9114292E-01
        2   -1    0    0  501    0  0.00000000000E+00  0.00000000000E+00  0.10129544546E+04  0.10129544546E+04  0.25500000920E-02 0.  1.
       -2   -1    0    0    0  501  0.00000000000E+00  0.00000000000E+00 -0.35442630352E+03  0.35442630353E+03  0.25500000920E-02 0. -1.
    10030    2    1    2    0    0  0.00000000000E+00  0.00000000000E+00  0.65852815108E+03  0.13673807581E+04  0.11983617200E+04 0.  0.
        5    1    3    3  502    0  0.24241682850E+03  0.18056783653E+03 -0.26102512347E+03  0.39940814640E+03  0.46999998093E+01 0. -1.
       -5    1    3    3    0  502 -0.24241682850E+03 -0.18056783653E+03  0.91955327454E+03  0.96797261173E+03  0.46999998093E+01 0.  1.
</event>
<event>
 5   0  0.5157631E-04  0.1195403E+04  0.7818609E-02  0.9116890E-01
        1   -1    0    0  501    0  0.00000000000E+00  0.00000000000E+00  0.70051204537E+03  0.70051204539E+03  0.50400001928E-02 0. -1.
       -1   -1    0    0    0  501  0.00000000000E+00  0.00000000000E+00 -0.50997990036E+03  0.50997990038E+03  0.50400001928E-02 0.  1.
    10030    2    1    2    0    0  0.00000000000E+00  0.00000000000E+00  0.19053214502E+03  0.12104919458E+04  0.11954029666E+04 0.  0.
        5    1    3    3  502    0 -0.58122292968E+03  0.12158994603E+02  0.23578742413E+03  0.62736411637E+03  0.46999998093E+01 0.  1.
       -5    1    3    3    0  502  0.58122292968E+03 -0.12158994603E+02 -0.45255279116E+02  0.58312782940E+03  0.46999998093E+01 0. -1.
</event>
<event>
 5   0  0.5157631E-04  0.1198952E+04  0.7818609E-02  0.9113775E-01
       -1   -1    0    0    0  501  0.00000000000E+00  0.00000000000E+00  0.62294830761E+03  0.62294830763E+03  0.50400001928E-02 0. -1.
        1   -1    0    0  501    0  0.00000000000E+00  0.00000000000E+00 -0.57688780114E+03  0.57688780116E+03  0.50400001928E-02 0.  1.
    10030    2    1    2    0    0  0.00000000000E+00  0.00000000000E+00  0.46060506474E+02  0.11998361088E+04  0.11989516745E+04 0.  0.
        5    1    3    3  502    0  0.37482681852E+03 -0.46769928738E+02 -0.44278773210E+03  0.58203576849E+03  0.46999998093E+01 0.  1.
       -5    1    3    3    0  502 -0.37482681852E+03  0.46769928738E+02  0.48884823857E+03  0.61780034029E+03  0.46999998093E+01 0. -1.
</event>
<event>
 5   0  0.5157631E-04  0.1196100E+04  0.7818609E-02  0.9116277E-01
       -1   -1    0    0    0  501  0.00000000000E+00  0.00000000000E+00  0.28054584233E+03  0.28054584238E+03  0.50400001928E-02 0.  1.
        1   -1    0    0  501    0  0.00000000000E+00  0.00000000000E+00 -0.12748856666E+04  0.12748856666E+04  0.50400001928E-02 0. -1.
    10030    2    1    2    0    0  0.00000000000E+00  0.00000000000E+00 -0.99433982423E+03  0.15554315090E+04  0.11961001183E+04 0.  0.
        5    1    3    3  502    0  0.15214978842E+03  0.17492352969E+03  0.21970669740E+03  0.31943844828E+03  0.46999998093E+01 0.  1.
       -5    1    3    3    0  502 -0.15214978842E+03 -0.17492352969E+03 -0.12140465216E+04  0.12359930607E+04  0.46999998093E+01 0. -1.
</event>
<event>
 5   0  0.5001586E-04  0.1194411E+04  0.7818609E-02  0.9117763E-01
       -1   -1    0    0    0  501  0.00000000000E+00  0.00000000000E+00  0.30166482060E+03  0.30166482064E+03  0.50400001928E-02 0. -1.
        1   -1    0    0  501    0  0.00000000000E+00  0.00000000000E+00 -0.11822873206E+04  0.11822873207E+04  0.50400001928E-02 0.  1.
    10030    2    1    2    0    0  0.00000000000E+00  0.00000000000E+00 -0.88062250005E+03  0.14839521413E+04  0.11944111395E+04 0.  0.
        1    1    3    3  502    0  0.15385433482E+03 -0.26659413312E+03 -0.10761439214E+04  0.11192985874E+04  0.50400001928E-02 0.  1.
       -1    1    3    3    0  502 -0.15385433482E+03  0.26659413312E+03  0.19552142134E+03  0.36465355392E+03  0.50400001928E-02 0. -1.
</event>
<event>
 5   0  0.9050363E-04  0.1200228E+04  0.7818609E-02  0.9112657E-01
       -2   -1    0    0    0  501  0.00000000000E+00  0.00000000000E+00  0.11566704417E+03  0.11566704420E+03  0.25500000920E-02 0.  1.
        2   -1    0    0  501    0  0.00000000000E+00  0.00000000000E+00 -0.31135663055E+04  0.31135663055E+04  0.25500000920E-02 0. -1.
    10030    2    1    2    0    0  0.00000000000E+00  0.00000000000E+00 -0.29978992614E+04  0.32292333497E+04  0.12002283307E+04 0.  0.
        3    1    3    3  502    0  0.26179464074E+03  0.13213445157E+03 -0.90236397533E+02  0.30682008548E+03  0.10100000352E+00 0.  1.
       -3    1    3    3    0  502 -0.26179464074E+03 -0.13213445157E+03 -0.29076628638E+04  0.29224132643E+04  0.10100000352E+00 0. -1.
</event>
<event>
 5   0  0.3453625E-04  0.1205285E+04  0.7818609E-02  0.9108243E-01
       -4   -1    0    0    0  501  0.00000000000E+00  0.00000000000E+00  0.75024629952E+03  0.75024737443E+03  0.12699999809E+01 0.  1.
        4   -1    0    0  501    0  0.00000000000E+00  0.00000000000E+00 -0.48407579554E+03  0.48407746149E+03  0.12699999809E+01 0. -1.
    10030    2    1    2    0    0  0.00000000000E+00  0.00000000000E+00  0.26617050398E+03  0.12343248359E+04  0.12052846400E+04 0.  0.
        3    1    3    3  502    0  0.13564952827E+03  0.10086597544E+03  0.72547123161E+03  0.74490486481E+03  0.10100000352E+00 0.  1.
       -3    1    3    3    0  502 -0.13564952827E+03 -0.10086597544E+03 -0.45930072763E+03  0.48941997111E+03  0.10100000352E+00 0. -1.
</event>
<event>
 5   0  0.5447074E-04  0.1227382E+04  0.7818609E-02  0.9089221E-01
        1   -1    0    0  501    0  0.00000000000E+00  0.00000000000E+00  0.88972839946E+03  0.88972839947E+03  0.50400001928E-02 0.  1.
       -1   -1    0    0    0  501  0.00000000000E+00  0.00000000000E+00 -0.42329409350E+03  0.42329409353E+03  0.50400001928E-02 0. -1.
    10030    2    1    2    0    0  0.00000000000E+00  0.00000000000E+00  0.46643430596E+03  0.13130224930E+04  0.12273822165E+04 0.  0.
        4    1    3    3  502    0 -0.11091875689E+03 -0.53970354266E+03  0.52231826724E+03  0.75921068867E+03  0.12699999809E+01 0.  1.
       -4    1    3    3    0  502  0.11091875689E+03  0.53970354266E+03 -0.55883961287E+02  0.55381180434E+03  0.12699999809E+01 0. -1.
</event>
<event>
 5   0  0.9070772E-04  0.1206473E+04  0.7818609E-02  0.9107209E-01
       -2   -1    0    0    0  501  0.00000000000E+00  0.00000000000E+00  0.37834900187E+03  0.37834900187E+03  0.25500000920E-02 0. -1.
        2   -1    0    0  501    0  0.00000000000E+00  0.00000000000E+00 -0.96179550630E+03  0.96179550631E+03  0.25500000920E-02 0.  1.
    10030    2    1    2    0    0  0.00000000000E+00  0.00000000000E+00 -0.58344650444E+03  0.13401445082E+04  0.12064731573E+04 0.  0.
        4    1    3    3  502    0 -0.31303399114E+03 -0.22840488966E+02  0.28050422510E+03  0.42094679087E+03  0.12699999809E+01 0. -1.
       -4    1    3    3    0  502  0.31303399114E+03  0.22840488966E+02 -0.86395072953E+03  0.91919771731E+03  0.12699999809E+01 0.  1.
</event>
<event>
 5   0  0.9410666E-04  0.1170379E+04  0.7818609E-02  0.9139186E-01
       -2   -1    0    0    0  501  0.00000000000E+00  0.00000000000E+00  0.82190606545E+03  0.82190606546E+03  0.25500000920E-02 0. -1.
        2   -1    0    0  501    0  0.00000000000E+00  0.00000000000E+00 -0.41664983099E+03  0.41664983100E+03  0.25500000920E-02 0.  1.
    10030    2    1    2    0    0  0.00000000000E+00  0.00000000000E+00  0.40525623446E+03  0.12385558965E+04  0.11703794654E+04 0.  0.
        2    1    3    3  502    0  0.30011171098E+03 -0.46703271116E+03  0.39850596716E+03  0.68336929857E+03  0.25500000920E-02 0.  1.
       -2    1    3    3    0  502 -0.30011171098E+03  0.46703271116E+03  0.67502672962E+01  0.55518659789E+03  0.25500000920E-02 0. -1.
</event>
<event>
 5   0  0.5001586E-04  0.1199947E+04  0.7818609E-02  0.9112903E-01
       -1   -1    0    0    0  501  0.00000000000E+00  0.00000000000E+00  0.74773491659E+03  0.74773491660E+03  0.50400001928E-02 0. -1.
        1   -1    0    0  501    0  0.00000000000E+00  0.00000000000E+00 -0.48141153026E+03  0.48141153028E+03  0.50400001928E-02 0.  1.
    10030    2    1    2    0    0  0.00000000000E+00  0.00000000000E+00  0.26632338633E+03  0.12291464469E+04  0.11999470162E+04 0.  0.
        1    1    3    3  502    0  0.26008326438E+03  0.53778578275E+03  0.19029857614E+03  0.62695326831E+03  0.50400001928E-02 0.  1.
       -1    1    3    3    0  502 -0.26008326438E+03 -0.53778578275E+03  0.76024810185E+02  0.60219317858E+03  0.50400001928E-02 0. -1.
</event>
<event>
 5   0  0.9145224E-04  0.1201730E+04  0.7818609E-02  0.9111344E-01
        2   -1    0    0  501    0  0.00000000000E+00  0.00000000000E+00  0.12071986093E+04  0.12071986094E+04  0.25500000920E-02 0.  1.
       -2   -1    0    0    0  501  0.00000000000E+00  0.00000000000E+00 -0.29907159033E+03  0.29907159034E+03  0.25500000920E-02 0. -1.
    10030    2    1    2    0    0  0.00000000000E+00  0.00000000000E+00  0.90812701902E+03  0.15062701997E+04  0.12017300994E+04 0.  0.
        5    1    3    3  502    0 -0.25765111802E+03  0.61884759939E+02  0.11299835273E+04  0.11606458047E+04  0.46999998093E+01 0.  1.
       -5    1    3    3    0  502  0.25765111802E+03 -0.61884759939E+02 -0.22185650826E+03  0.34562439495E+03  0.46999998093E+01 0. -1.
</event>
<event>
 5   0  0.5003507E-04  0.1192292E+04  0.7818609E-02  0.9119630E-01
       -1   -1    0    0    0  501  0.00000000000E+00  0.00000000000E+00  0.42576889478E+03  0.42576889481E+03  0.50400001928E-02 0.  1.
        1   -1    0    0  501    0  0.00000000000E+00  0.00000000000E+00 -0.83470200993E+03  0.83470200994E+03  0.50400001928E-02 0. -1.
    10030    2    1    2    0    0  0.00000000000E+00  0.00000000000E+00 -0.40893311515E+03  0.12604709048E+04  0.11922921660E+04 0.  0.
        3    1    3    3  502    0  0.50637172479E+03 -0.12078666337E+03 -0.51157482807E+03  0.72987023273E+03  0.10100000352E+00 0. -1.
       -3    1    3    3    0  502 -0.50637172479E+03  0.12078666337E+03  0.10264171292E+03  0.53060067202E+03  0.10100000352E+00 0.  1.
</event>
<event>
 5   0  0.9070772E-04  0.1193381E+04  0.7818609E-02  0.9118670E-01
       -2   -1    0    0    0  501  0.00000000000E+00  0.00000000000E+00  0.26158437784E+03  0.26158437785E+03  0.25500000920E-02 0.  1.
        2   -1    0    0  501    0  0.00000000000E+00  0.00000000000E+00 -0.13610895871E+04  0.13610895871E+04  0.25500000920E-02 0. -1.
    10030    2    1    2    0    0  0.00000000000E+00  0.00000000000E+00 -0.10995052093E+04  0.16226739650E+04  0.11933813688E+04 0.  0.
        4    1    3    3  502    0  0.47143424286E+03 -0.74191117606E+01 -0.10469983772E+04  0.11482649970E+04  0.12699999809E+01 0. -1.
       -4    1    3    3    0  502 -0.47143424286E+03  0.74191117606E+01 -0.52506832051E+02  0.47440896795E+03  0.12699999809E+01 0.  1.
</event>
<event>
 5   0  0.3453625E-04  0.1193530E+04  0.7818609E-02  0.9118539E-01
        3   -1    0    0  501    0  0.00000000000E+00  0.00000000000E+00  0.13556001242E+04  0.13556001279E+04  0.10100000352E+00 0.  1.
       -3   -1    0    0    0  501  0.00000000000E+00  0.00000000000E+00 -0.26270902572E+03  0.26270904513E+03  0.10100000352E+00 0. -1.
    10030    2    1    2    0    0  0.00000000000E+00  0.00000000000E+00  0.10928910985E+04  0.16183091731E+04  0.11935299018E+04 0.  0.
        3    1    3    3  502    0 -0.11231648976E+03  0.51230381704E+03  0.16041055634E+03  0.54845396490E+03  0.10100000352E+00 0.  1.
       -3    1    3    3    0  502  0.11231648976E+03 -0.51230381704E+03  0.93248054213E+03  0.10698552082E+04  0.10100000352E+00 0. -1.
</event>
<event>
 5   0  0.3453625E-04  0.1201592E+04  0.7818609E-02  0.9111464E-01
       -4   -1    0    0    0  501  0.00000000000E+00  0.00000000000E+00  0.43154545377E+03  0.43154732251E+03  0.12699999809E+01 0.  1.
        4   -1    0    0  501    0  0.00000000000E+00  0.00000000000E+00 -0.83642178835E+03  0.83642275252E+03  0.12699999809E+01 0. -1.
    10030    2    1    2    0    0  0.00000000000E+00  0.00000000000E+00 -0.40487633459E+03  0.12679700750E+04  0.12015919710E+04 0.  0.
        3    1    3    3  502    0 -0.14629635002E+03  0.20230461323E+03  0.37421650442E+03  0.44985306595E+03  0.10100000352E+00 0.  1.
       -3    1    3    3    0  502  0.14629635002E+03 -0.20230461323E+03 -0.77909283900E+03  0.81811700908E+03  0.10100000352E+00 0. -1.
</event>
<event>
 5   0  0.5001586E-04  0.1199856E+04  0.7818609E-02  0.9112983E-01
        1   -1    0    0  501    0  0.00000000000E+00  0.00000000000E+00  0.43698980970E+03  0.43698980973E+03  0.50400001928E-02 0. -1.
       -1   -1    0    0    0  501  0.00000000000E+00  0.00000000000E+00 -0.82361989171E+03  0.82361989173E+03  0.50400001928E-02 0.  1.
    10030    2    1    2    0    0  0.00000000000E+00  0.00000000000E+00 -0.38663008202E+03  0.12606097015E+04  0.11998558243E+04 0.  0.
        1    1    3    3  502    0 -0.51633503764E+03  0.26568345328E+03 -0.34937602399E+02  0.58173035380E+03  0.50400001928E-02 0. -1.
       -1    1    3    3    0  502  0.51633503764E+03 -0.26568345328E+03 -0.35169247962E+03  0.67887934766E+03  0.50400001928E-02 0.  1.
</event>
<event>
 5   0  0.5001586E-04  0.1198800E+04  0.7818609E-02  0.9113907E-01
       -1   -1    0    0    0  501  0.00000000000E+00  0.00000000000E+00  0.33693425419E+03  0.33693425423E+03  0.50400001928E-02 0. -1.
        1   -1    0    0  501    0  0.00000000000E+00  0.00000000000E+00 -0.10663224171E+04  0.10663224171E+04  0.50400001928E-02 0.  1.
    10030    2    1    2    0    0  0.00000000000E+00  0.00000000000E+00 -0.72938816287E+03  0.14032566713E+04  0.11988003142E+04 0.  0.
        1    1    3    3  502    0  0.51562759619E+03  0.28463656644E+02 -0.84953552593E+01  0.51648249611E+03  0.50400001928E-02 0. -1.
       -1    1    3    3    0  502 -0.51562759619E+03 -0.28463656644E+02 -0.72089280761E+03  0.88677417519E+03  0.50400001928E-02 0.  1.
</event>
<event>
 5   0  0.5003507E-04  0.1195730E+04  0.7818609E-02  0.9116602E-01
       -1   -1    0    0    0  501  0.00000000000E+00  0.00000000000E+00  0.70351099394E+03  0.70351099396E+03  0.50400001928E-02 0. -1.
        1   -1    0    0  501    0  0.00000000000E+00  0.00000000000E+00 -0.50808401996E+03  0.50808401998E+03  0.50400001928E-02 0.  1.
    10030    2    1    2    0    0  0.00000000000E+00  0.00000000000E+00  0.19542697399E+03  0.12115950139E+04  0.11957302270E+04 0.  0.
        3    1    3    3  502    0  0.18814601706E+03  0.54763774575E+03 -0.53044493442E+02  0.58148065556E+03  0.10100000352E+00 0.  1.
       -3    1    3    3    0  502 -0.18814601706E+03 -0.54763774575E+03  0.24847146743E+03  0.63011435838E+03  0.10100000352E+00 0. -1.
</event>
<event>
 5   0  0.9070772E-04  0.1194702E+04  0.7818609E-02  0.9117507E-01
       -2   -1    0    0    0  501  0.00000000000E+00  0.00000000000E+00  0.18044510307E+03  0.18044510309E+03  0.25500000920E-02 0. -1.
        2   -1    0    0  501    0  0.00000000000E+00  0.00000000000E+00 -0.19774877916E+04  0.19774877916E+04  0.25500000920E-02 0.  1.
    10030    2    1    2    0    0  0.00000000000E+00  0.00000000000E+00 -0.17970426886E+04  0.21579328947E+04  0.11947016170E+04 0.  0.
        4    1    3    3  502    0 -0.58605391085E+03  0.27003440928E+02 -0.69546446130E+03  0.90986856308E+03  0.12699999809E+01 0.  1.
       -4    1    3    3    0  502  0.58605391085E+03 -0.27003440928E+02 -0.11015782273E+04  0.12480643316E+04  0.12699999809E+01 0. -1.
</event>
<event>
 5   0  0.9298693E-04  0.1208502E+04  0.7818609E-02  0.9105447E-01
       -2   -1    0    0    0  501  0.00000000000E+00  0.00000000000E+00  0.15721179690E+03  0.15721179692E+03  0.25500000920E-02 0. -1.
        2   -1    0    0  501    0  0.00000000000E+00  0.00000000000E+00 -0.23224680649E+04  0.23224680649E+04  0.25500000920E-02 0.  1.
    10030    2    1    2    0    0  0.00000000000E+00  0.00000000000E+00 -0.21652562680E+04  0.24796798618E+04  0.12085021766E+04 0.  0.
        1    1    3    3  502    0  0.10820161325E+03 -0.36660253318E+03 -0.12237776064E+03  0.40134937744E+03  0.50400001928E-02 0. -1.
       -1    1    3    3    0  502 -0.10820161325E+03  0.36660253318E+03 -0.20428785073E+04  0.20783304843E+04  0.50400001928E-02 0.  1.
</event>
<event>
 5   0  0.3453625E-04  0.1197940E+04  0.7818609E-02  0.9114662E-01
       -4   -1    0    0    0  501  0.00000000000E+00  0.00000000000E+00  0.41022137211E+03  0.41022333800E+03  0.12699999809E+01 0. -1.
        4   -1    0    0  501    0  0.00000000000E+00  0.00000000000E+00 -0.87455941093E+03  0.87456033305E+03  0.12699999809E+01 0.  1.
    10030    2    1    2    0    0  0.00000000000E+00  0.00000000000E+00 -0.46433803882E+03  0.12847836711E+04  0.11979395924E+04 0.  0.
        3    1    3    3  502    0 -0.41498389768E+03  0.30016898624E+03 -0.56525024006E+03  0.76277185299E+03  0.10100000352E+00 0.  1.
       -3    1    3    3    0  502  0.41498389768E+03 -0.30016898624E+03  0.10091220123E+03  0.52201181806E+03  0.10100000352E+00 0. -1.
</event>
<event>
 5   0  0.5052959E-04  0.1204196E+04  0.7818609E-02  0.9109192E-01
        1   -1    0    0  501    0  0.00000000000E+00  0.00000000000E+00  0.19065366084E+04  0.19065366084E+04  0.50400001928E-02 0.  1.
       -1   -1    0    0    0  501  0.00000000000E+00  0.00000000000E+00 -0.19014676588E+03  0.19014676595E+03  0.50400001928E-02 0. -1.
    10030    2    1    2    0    0  0.00000000000E+00  0.00000000000E+00  0.17163898425E+04  0.20966833744E+04  0.12041956157E+04 0.  0.
        2    1    3    3  502    0 -0.37729572269E+02  0.47900268220E+03  0.14899575917E+04  0.15655161178E+04  0.25500000920E-02 0.  1.
       -2    1    3    3    0  502  0.37729572269E+02 -0.47900268220E+03  0.22643225083E+03  0.53116725652E+03  0.25500000920E-02 0. -1.
</event>
<event>
 5   0  0.5157631E-04  0.1191735E+04  0.7818609E-02  0.9120121E-01
        1   -1    0    0  501    0  0.00000000000E+00  0.00000000000E+00  0.94244292438E+03  0.94244292439E+03  0.50400001928E-02 0.  1.
       -1   -1    0    0    0  501  0.00000000000E+00  0.00000000000E+00 -0.37674252984E+03  0.37674252988E+03  0.50400001928E-02 0. -1.
    10030    2    1    2    0    0  0.00000000000E+00  0.00000000000E+00  0.56570039454E+03  0.13191854543E+04  0.11917354263E+04 0.  0.
        5    1    3    3  502    0 -0.41216405670E+02 -0.25990032130E+03 -0.30891438113E+03  0.40582897133E+03  0.46999998093E+01 0. -1.
       -5    1    3    3    0  502  0.41216405670E+02  0.25990032130E+03  0.87461477567E+03  0.91335648294E+03  0.46999998093E+01 0.  1.
</event>
<event>
 5   0  0.9070772E-04  0.1205051E+04  0.7818609E-02  0.9108446E-01
        2   -1    0    0  501    0  0.00000000000E+00  0.00000000000E+00  0.16862115831E+04  0.16862115831E+04  0.25500000920E-02 0. -1.
       -2   -1    0    0    0  501  0.00000000000E+00  0.00000000000E+00 -0.21529756474E+03  0.21529756476E+03  0.25500000920E-02 0.  1.
    10030    2    1    2    0    0  0.00000000000E+00  0.00000000000E+00  0.14709140183E+04  0.19015091478E+04  0.12050514470E+04 0.  0.
        4    1    3    3  502    0 -0.48029897826E+03  0.18160780251E+02  0.16211920812E+03  0.50724863035E+03  0.12699999809E+01 0.  1.
       -4    1    3    3    0  502  0.48029897826E+03 -0.18160780251E+02  0.13087948102E+04  0.13942605175E+04  0.12699999809E+01 0. -1.
</event>
<event>
 5   0  0.5003507E-04  0.1200985E+04  0.7818609E-02  0.9111994E-01
       -1   -1    0    0    0  501  0.00000000000E+00  0.00000000000E+00  0.86098741705E+03  0.86098741706E+03  0.50400001928E-02 0. -1.
        1   -1    0    0  501    0  0.00000000000E+00  0.00000000000E+00 -0.41881158687E+03  0.41881158690E+03  0.50400001928E-02 0.  1.
    10030    2    1    2    0    0  0.00000000000E+00  0.00000000000E+00  0.44217583017E+03  0.12797990040E+04  0.12009854394E+04 0.  0.
        3    1    3    3  502    0  0.16244733627E+03 -0.16468819695E+03 -0.36942568282E+03  0.43587462028E+03  0.10100000352E+00 0.  1.
       -3    1    3    3    0  502 -0.16244733627E+03  0.16468819695E+03  0.81160151299E+03  0.84392438368E+03  0.10100000352E+00 0. -1.
</event>
<event>
 5   0  0.9070772E-04  0.1202607E+04  0.7818609E-02  0.9110577E-01
        2   -1    0    0  501    0  0.00000000000E+00  0.00000000000E+00  0.61998970561E+03  0.61998970561E+03  0.25500000920E-02 0.  1.
       -2   -1    0    0    0  501  0.00000000000E+00  0.00000000000E+00 -0.58318094833E+03  0.58318094833E+03  0.25500000920E-02 0. -1.
    10030    2    1    2    0    0  0.00000000000E+00  0.00000000000E+00  0.36808757281E+02  0.12031706539E+04  0.12026074746E+04 0.  0.
        4    1    3    3  502    0 -0.36236599512E+03  0.46167512989E+03 -0.11246793300E+03  0.59758153321E+03  0.12699999809E+01 0. -1.
       -4    1    3    3    0  502  0.36236599512E+03 -0.46167512989E+03  0.14927669028E+03  0.60558912073E+03  0.12699999809E+01 0.  1.
</event>
<event>
 5   0  0.5003507E-04  0.1190599E+04  0.7818609E-02  0.9121126E-01
        1   -1    0    0  501    0  0.00000000000E+00  0.00000000000E+00  0.11253418728E+04  0.11253418728E+04  0.50400001928E-02 0.  1.
       -1   -1    0    0    0  501  0.00000000000E+00  0.00000000000E+00 -0.31490984961E+03  0.31490984965E+03  0.50400001928E-02 0. -1.
    10030    2    1    2    0    0  0.00000000000E+00  0.00000000000E+00  0.81043202319E+03  0.14402517225E+04  0.11905985721E+04 0.  0.
        3    1    3    3  502    0 -0.26482773193E+03  0.45770814774E+03  0.73595152735E+03  0.90623128225E+03  0.10100000352E+00 0. -1.
       -3    1    3    3    0  502  0.26482773193E+03 -0.45770814774E+03  0.74480495835E+02  0.53402044022E+03  0.10100000352E+00 0.  1.
</event>
<event>
 5   0  0.5003507E-04  0.1200705E+04  0.7818609E-02  0.9112240E-01
        1   -1    0    0  501    0  0.00000000000E+00  0.00000000000E+00  0.11663628861E+04  0.11663628861E+04  0.50400001928E-02 0.  1.
       -1   -1    0    0    0  501  0.00000000000E+00  0.00000000000E+00 -0.30901452456E+03  0.30901452461E+03  0.50400001928E-02 0. -1.
    10030    2    1    2    0    0  0.00000000000E+00  0.00000000000E+00  0.85734836149E+03  0.14753774107E+04  0.12007049142E+04 0.  0.
        3    1    3    3  502    0 -0.28239871010E+03  0.11455870285E+03 -0.20690489472E+03  0.36835088370E+03  0.10100000352E+00 0. -1.
       -3    1    3    3    0  502  0.28239871010E+03 -0.11455870285E+03  0.10642532562E+04  0.11070265270E+04  0.10100000352E+00 0.  1.
</event>
<event>
 5   0  0.9298693E-04  0.1202469E+04  0.7818609E-02  0.9110698E-01
        2   -1    0    0  501    0  0.00000000000E+00  0.00000000000E+00  0.18846353608E+04  0.18846353608E+04  0.25500000920E-02 0.  1.
       -2   -1    0    0    0  501  0.00000000000E+00  0.00000000000E+00 -0.19180533285E+03  0.19180533287E+03  0.25500000920E-02 0. -1.
    10030    2    1    2    0    0  0.00000000000E+00  0.00000000000E+00  0.16928300279E+04  0.20764406936E+04  0.12024693139E+04 0.  0.
        1    1    3    3  502    0 -0.46744351271E+01  0.21571107918E+03 -0.12264916578E+03  0.24818528949E+03  0.50400001928E-02 0. -1.
       -1    1    3    3    0  502  0.46744351271E+01 -0.21571107918E+03  0.18154791937E+04  0.18282554042E+04  0.50400001928E-02 0.  1.
</event>
<event>
 5   0  0.9298693E-04  0.1205078E+04  0.7818609E-02  0.9108423E-01
        2   -1    0    0  501    0  0.00000000000E+00  0.00000000000E+00  0.28295844126E+04  0.28295844126E+04  0.25500000920E-02 0. -1.
       -2   -1    0    0    0  501  0.00000000000E+00  0.00000000000E+00 -0.12830622324E+03  0.12830622326E+03  0.25500000920E-02 0.  1.
    10030    2    1    2    0    0  0.00000000000E+00  0.00000000000E+00  0.27012781894E+04  0.29578906359E+04  0.12050780711E+04 0.  0.
        1    1    3    3  502    0 -0.48327657876E+03  0.43104511687E+02  0.47372168684E+03  0.67810507085E+03  0.50400001928E-02 0.  1.
       -1    1    3    3    0  502  0.48327657876E+03 -0.43104511687E+02  0.22275565025E+04  0.22797855650E+04  0.50400001928E-02 0. -1.
</event>
<event>
 5   0  0.9070772E-04  0.1191732E+04  0.7818609E-02  0.9120124E-01
       -2   -1    0    0    0  501  0.00000000000E+00  0.00000000000E+00  0.59154838297E+03  0.59154838297E+03  0.25500000920E-02 0.  1.
        2   -1    0    0  501    0  0.00000000000E+00  0.00000000000E+00 -0.60021509937E+03  0.60021509937E+03  0.25500000920E-02 0. -1.
    10030    2    1    2    0    0  0.00000000000E+00  0.00000000000E+00 -0.86667164021E+01  0.11917634823E+04  0.11917319690E+04 0.  0.
        4    1    3    3  502    0 -0.20072754311E+03  0.10694238373E+03  0.54643200083E+03  0.59187647734E+03  0.12699999809E+01 0.  1.
       -4    1    3    3    0  502  0.20072754311E+03 -0.10694238373E+03 -0.55509871723E+03  0.59988700500E+03  0.12699999809E+01 0. -1.
</event>
<event>
 5   0  0.9070772E-04  0.1185418E+04  0.7818609E-02  0.9125716E-01
       -2   -1    0    0    0  501  0.00000000000E+00  0.00000000000E+00  0.57060778491E+03  0.57060778492E+03  0.25500000920E-02 0. -1.
        2   -1    0    0  501    0  0.00000000000E+00  0.00000000000E+00 -0.61566669697E+03  0.61566669698E+03  0.25500000920E-02 0.  1.
    10030    2    1    2    0    0  0.00000000000E+00  0.00000000000E+00 -0.45058912060E+02  0.11862744819E+04  0.11854184244E+04 0.  0.
        4    1    3    3  502    0 -0.10979229192E+03  0.23472760620E+02 -0.60492677824E+03  0.61525875677E+03  0.12699999809E+01 0.  1.
       -4    1    3    3    0  502  0.10979229192E+03 -0.23472760620E+02  0.55986786618E+03  0.57101572512E+03  0.12699999809E+01 0. -1.
</event>
<event>
 5   0  0.5001586E-04  0.1204945E+04  0.7818609E-02  0.9108539E-01
       -1   -1    0    0    0  501  0.00000000000E+00  0.00000000000E+00  0.98386199846E+03  0.98386199847E+03  0.50400001928E-02 0.  1.
        1   -1    0    0  501    0  0.00000000000E+00  0.00000000000E+00 -0.36892675053E+03  0.36892675057E+03  0.50400001928E-02 0. -1.
    10030    2    1    2    0    0  0.00000000000E+00  0.00000000000E+00  0.61493524792E+03  0.13527887490E+04  0.12049448288E+04 0.  0.
        1    1    3    3  502    0 -0.25109357411E+03 -0.14046180517E+03 -0.28681551013E+03  0.40625193975E+03  0.50400001928E-02 0. -1.
       -1    1    3    3    0  502  0.25109357411E+03  0.14046180517E+03  0.90175075805E+03  0.94653680929E+03  0.50400001928E-02 0.  1.
</event>
<event>
 5   0  0.5003507E-04  0.1195443E+04  0.7818609E-02  0.9116855E-01
        1   -1    0    0  501    0  0.00000000000E+00  0.00000000000E+00  0.74415760560E+03  0.74415760562E+03  0.50400001928E-02 0. -1.
       -1   -1    0    0    0  501  0.00000000000E+00  0.00000000000E+00 -0.48010127464E+03  0.48010127467E+03  0.50400001928E-02 0.  1.
    10030    2    1    2    0    0  0.00000000000E+00  0.00000000000E+00  0.26405633096E+03  0.12242588803E+04  0.11954430392E+04 0.  0.
        3    1    3    3  502    0 -0.19155457531E+02  0.18793520843E+03 -0.44872539704E+03  0.48686863348E+03  0.10100000352E+00 0.  1.
       -3    1    3    3    0  502  0.19155457531E+02 -0.18793520843E+03  0.71278172800E+03  0.73739024681E+03  0.10100000352E+00 0. -1.
</event>
<event>
 5   0  0.9410666E-04  0.1198383E+04  0.7818609E-02  0.9114273E-01
        2   -1    0    0  501    0  0.00000000000E+00  0.00000000000E+00  0.85645090163E+03  0.85645090163E+03  0.25500000920E-02 0.  1.
       -2   -1    0    0    0  501  0.00000000000E+00  0.00000000000E+00 -0.41920733707E+03  0.41920733708E+03  0.25500000920E-02 0. -1.
    10030    2    1    2    0    0  0.00000000000E+00  0.00000000000E+00  0.43724356455E+03  0.12756582387E+04  0.11983830803E+04 0.  0.
        2    1    3    3  502    0 -0.35644405464E+03 -0.47077551356E+03  0.11033424043E+03  0.60071257093E+03  0.25500000920E-02 0.  1.
       -2    1    3    3    0  502  0.35644405464E+03  0.47077551356E+03  0.32690932412E+03  0.67494566778E+03  0.25500000920E-02 0. -1.
</event>
<event>
 5   0  0.5052959E-04  0.1203795E+04  0.7818609E-02  0.9109541E-01
       -1   -1    0    0    0  501  0.00000000000E+00  0.00000000000E+00  0.65766658126E+03  0.65766658128E+03  0.50400001928E-02 0.  1.
        1   -1    0    0  501    0  0.00000000000E+00  0.00000000000E+00 -0.55085767524E+03  0.55085767526E+03  0.50400001928E-02 0. -1.
    10030    2    1    2    0    0  0.00000000000E+00  0.00000000000E+00  0.10680890603E+03  0.12085242565E+04  0.12037951388E+04 0.  0.
        2    1    3    3  502    0 -0.51624996719E+03  0.10434280373E+03  0.34588939629E+03  0.63011183435E+03  0.25500000920E-02 0. -1.
       -2    1    3    3    0  502  0.51624996719E+03 -0.10434280373E+03 -0.23908049026E+03  0.57841242219E+03  0.25500000920E-02 0.  1.
</event>
<event>
 5   0  0.5447074E-04  0.1179936E+04  0.7818609E-02  0.9130602E-01
       -1   -1    0    0    0  501  0.00000000000E+00  0.00000000000E+00  0.26246024709E+03  0.26246024714E+03  0.50400001928E-02 0.  1.
        1   -1    0    0  501    0  0.00000000000E+00  0.00000000000E+00 -0.13261523231E+04  0.13261523231E+04  0.50400001928E-02 0. -1.
    10030    2    1    2    0    0  0.00000000000E+00  0.00000000000E+00 -0.10636920760E+04  0.15886125702E+04  0.11799360431E+04 0.  0.
        4    1    3    3  502    0  0.36767218179E+03 -0.34357690428E+03 -0.94645497214E+03  0.10719172308E+04  0.12699999809E+01 0. -1.
       -4    1    3    3    0  502 -0.36767218179E+03  0.34357690428E+03 -0.11723710386E+03  0.51669533948E+03  0.12699999809E+01 0.  1.
</event>
<event>
 5   0  0.5447074E-04  0.1198710E+04  0.7818609E-02  0.9113987E-01
        1   -1    0    0  501    0  0.00000000000E+00  0.00000000000E+00  0.98044284624E+03  0.98044284625E+03  0.50400001928E-02 0.  1.
       -1   -1    0    0    0  501  0.00000000000E+00  0.00000000000E+00 -0.36639184030E+03  0.36639184033E+03  0.50400001928E-02 0. -1.
    10030    2    1    2    0    0  0.00000000000E+00  0.00000000000E+00  0.61405100594E+03  0.13468346866E+04  0.11987097376E+04 0.  0.
        4    1    3    3  502    0  0.44881373392E+02  0.30860905574E+03 -0.26805238430E+03  0.41122692105E+03  0.12699999809E+01 0. -1.
       -4    1    3    3    0  502 -0.44881373392E+02 -0.30860905574E+03  0.88210339024E+03  0.93560776554E+03  0.12699999809E+01 0.  1.
</event>
<event>
 5   0  0.9410666E-04  0.1197215E+04  0.7818609E-02  0.9115298E-01
        2   -1    0    0  501    0  0.00000000000E+00  0.00000000000E+00  0.24076051257E+04  0.24076051257E+04  0.25500000920E-02 0. -1.
       -2   -1    0    0    0  501  0.00000000000E+00  0.00000000000E+00 -0.14883294262E+03  0.14883294264E+03  0.25500000920E-02 0.  1.
    10030    2    1    2    0    0  0.00000000000E+00  0.00000000000E+00  0.22587721831E+04  0.25564380684E+04  0.11972150276E+04 0.  0.
        2    1    3    3  502    0  0.77848672639E+02 -0.11302400057E+03  0.23735583713E+04  0.23775226986E+04  0.25500000920E-02 0. -1.
       -2    1    3    3    0  502 -0.77848672639E+02  0.11302400057E+03 -0.11478618817E+03  0.17891536977E+03  0.25500000920E-02 0.  1.
</event>
<event>
 5   0  0.5001586E-04  0.1199515E+04  0.7818609E-02  0.9113281E-01
       -1   -1    0    0    0  501  0.00000000000E+00  0.00000000000E+00  0.61032996140E+03  0.61032996142E+03  0.50400001928E-02 0. -1.
        1   -1    0    0  501    0  0.00000000000E+00  0.00000000000E+00 -0.58936804487E+03  0.58936804489E+03  0.50400001928E-02 0.  1.
    10030    2    1    2    0    0  0.00000000000E+00  0.00000000000E+00  0.20961916529E+02  0.11996980063E+04  0.11995148621E+04 0.  0.
        1    1    3    3  502    0 -0.57410444997E+03 -0.16127853060E+03 -0.53577959560E+02  0.59872972340E+03  0.50400001928E-02 0. -1.
       -1    1    3    3    0  502  0.57410444997E+03  0.16127853060E+03  0.74539876090E+02  0.60096828291E+03  0.50400001928E-02 0.  1.
</event>
<event>
 5   0  0.9410666E-04  0.1197533E+04  0.7818609E-02  0.9115019E-01
       -2   -1    0    0    0  501  0.00000000000E+00  0.00000000000E+00  0.32195501374E+03  0.32195501375E+03  0.25500000920E-02 0.  1.
        2   -1    0    0  501    0  0.00000000000E+00  0.00000000000E+00 -0.11135758638E+04  0.11135758639E+04  0.25500000920E-02 0. -1.
    10030    2    1    2    0    0  0.00000000000E+00  0.00000000000E+00 -0.79162085011E+03  0.14355308776E+04  0.11975330184E+04 0.  0.
        2    1    3    3  502    0  0.49672056731E+03 -0.24901430624E+03 -0.12834927109E+03  0.57027447961E+03  0.25500000920E-02 0.  1.
       -2    1    3    3    0  502 -0.49672056731E+03  0.24901430624E+03 -0.66327157903E+03  0.86525639798E+03  0.25500000920E-02 0. -1.
</event>
<event>
 5   0  0.9410666E-04  0.1208477E+04  0.7818609E-02  0.9105469E-01
        2   -1    0    0  501    0  0.00000000000E+00  0.00000000000E+00  0.88400395387E+03  0.88400395388E+03  0.25500000920E-02 0.  1.
       -2   -1    0    0    0  501  0.00000000000E+00  0.00000000000E+00 -0.41301180943E+03  0.41301180944E+03  0.25500000920E-02 0. -1.
    10030    2    1    2    0    0  0.00000000000E+00  0.00000000000E+00  0.47099214444E+03  0.12970157633E+04  0.12084768472E+04 0.  0.
        2    1    3    3  502    0  0.22672389538E+03  0.45471457197E+03 -0.11547140078E+03  0.52105922034E+03  0.25500000920E-02 0. -1.
       -2    1    3    3    0  502 -0.22672389538E+03 -0.45471457197E+03  0.58646354522E+03  0.77595654297E+03  0.25500000920E-02 0.  1.
</event>
<event>
 5   0  0.9410666E-04  0.1202990E+04  0.7818609E-02  0.9110243E-01
        2   -1    0    0  501    0  0.00000000000E+00  0.00000000000E+00  0.48480965676E+03  0.48480965676E+03  0.25500000920E-02 0. -1.
       -2   -1    0    0    0  501  0.00000000000E+00  0.00000000000E+00 -0.74626493046E+03  0.74626493046E+03  0.25500000920E-02 0.  1.
    10030    2    1    2    0    0  0.00000000000E+00  0.00000000000E+00 -0.26145527370E+03  0.12310745872E+04  0.12029903487E+04 0.  0.
        2    1    3    3  502    0  0.24595006639E+03 -0.39015800264E+03  0.26439731280E+03  0.53162076822E+03  0.25500000920E-02 0. -1.
       -2    1    3    3    0  502 -0.24595006639E+03  0.39015800264E+03 -0.52585258650E+03  0.69945381900E+03  0.25500000920E-02 0.  1.
</event>
<event>
 5   0  0.9298693E-04  0.1194595E+04  0.7818609E-02  0.9117601E-01
        2   -1    0    0  501    0  0.00000000000E+00  0.00000000000E+00  0.28120843672E+03  0.28120843673E+03  0.25500000920E-02 0. -1.
       -2   -1    0    0    0  501  0.00000000000E+00  0.00000000000E+00 -0.12686820102E+04  0.12686820102E+04  0.25500000920E-02 0.  1.
    10030    2    1    2    0    0  0.00000000000E+00  0.00000000000E+00 -0.98747357345E+03  0.15498904469E+04  0.11945946338E+04 0.  0.
        1    1    3    3  502    0  0.36982784314E+03  0.41965710825E+03 -0.22196110271E+03  0.60179020697E+03  0.50400001928E-02 0. -1.
       -1    1    3    3    0  502 -0.36982784314E+03 -0.41965710825E+03 -0.76551247073E+03  0.94810023992E+03  0.50400001928E-02 0.  1.
</event>
<event>
 5   0  0.5052959E-04  0.1199931E+04  0.7818609E-02  0.9112917E-01
       -1   -1    0    0    0  501  0.00000000000E+00  0.00000000000E+00  0.43815951089E+03  0.43815951092E+03  0.50400001928E-02 0. -1.
        1   -1    0    0  501    0  0.00000000000E+00  0.00000000000E+00 -0.82152456828E+03  0.82152456830E+03  0.50400001928E-02 0.  1.
    10030    2    1    2    0    0  0.00000000000E+00  0.00000000000E+00 -0.38336505739E+03  0.12596840792E+04  0.11999313365E+04 0.  0.
        2    1    3    3  502    0 -0.12892853122E+03 -0.31347963867E+03  0.32801116118E+03  0.47168143051E+03  0.25500000920E-02 0. -1.
       -2    1    3    3    0  502  0.12892853122E+03  0.31347963867E+03 -0.71137621857E+03  0.78800264871E+03  0.25500000920E-02 0.  1.
</event>
<event>
 5   0  0.9070772E-04  0.1201332E+04  0.7818609E-02  0.9111691E-01
        2   -1    0    0  501    0  0.00000000000E+00  0.00000000000E+00  0.99057587272E+03  0.99057587272E+03  0.25500000920E-02 0.  1.
       -2   -1    0    0    0  501  0.00000000000E+00  0.00000000000E+00 -0.36423247621E+03  0.36423247622E+03  0.25500000920E-02 0. -1.
    10030    2    1    2    0    0  0.00000000000E+00  0.00000000000E+00  0.62634339651E+03  0.13548083489E+04  0.12013324319E+04 0.  0.
        4    1    3    3  502    0 -0.34068067772E+03  0.38167920333E+03 -0.41768305846E+02  0.51331135064E+03  0.12699999809E+01 0. -1.
       -4    1    3    3    0  502  0.34068067772E+03 -0.38167920333E+03  0.66811170235E+03  0.84149699830E+03  0.12699999809E+01 0.  1.
</event>
<event>
 5   0  0.9145224E-04  0.1197102E+04  0.7818609E-02  0.9115397E-01
       -2   -1    0    0    0  501  0.00000000000E+00  0.00000000000E+00  0.65797555287E+03  0.65797555287E+03  0.25500000920E-02 0. -1.
        2   -1    0    0  501    0  0.00000000000E+00  0.00000000000E+00 -0.54449345503E+03  0.54449345503E+03  0.25500000920E-02 0.  1.
    10030    2    1    2    0    0  0.00000000000E+00  0.00000000000E+00  0.11348209784E+03  0.12024690079E+04  0.11971021378E+04 0.  0.
        5    1    3    3  502    0 -0.24565355789E+03 -0.33919734888E+03  0.48625692209E+03  0.64176973773E+03  0.46999998093E+01 0. -1.
       -5    1    3    3    0  502  0.24565355789E+03  0.33919734888E+03 -0.37277482425E+03  0.56069927018E+03  0.46999998093E+01 0.  1.
</event>
<event>
 5   0  0.5003507E-04  0.1199404E+04  0.7818609E-02  0.9113378E-01
        1   -1    0    0  501    0  0.00000000000E+00  0.00000000000E+00  0.95763837221E+03  0.95763837222E+03  0.50400001928E-02 0. -1.
       -1   -1    0    0    0  501  0.00000000000E+00  0.00000000000E+00 -0.37555163127E+03  0.37555163131E+03  0.50400001928E-02 0.  1.
    10030    2    1    2    0    0  0.00000000000E+00  0.00000000000E+00  0.58208674093E+03  0.13331900035E+04  0.11994042736E+04 0.  0.
        3    1    3    3  502    0 -0.57116533230E+03  0.15197261347E+03  0.17814025629E+03  0.61730014837E+03  0.10100000352E+00 0.  1.
       -3    1    3    3    0  502  0.57116533230E+03 -0.15197261347E+03  0.40394648465E+03  0.71588985516E+03  0.10100000352E+00 0. -1.
</event>
<event>
 5   0  0.9145224E-04  0.1171239E+04  0.7818609E-02  0.9138410E-01
        2   -1    0    0  501    0  0.00000000000E+00  0.00000000000E+00  0.15413596350E+04  0.15413596350E+04  0.25500000920E-02 0. -1.
       -2   -1    0    0    0  501  0.00000000000E+00  0.00000000000E+00 -0.22249860225E+03  0.22249860227E+03  0.25500000920E-02 0.  1.
    10030    2    1    2    0    0  0.00000000000E+00  0.00000000000E+00  0.13188610327E+04  0.17638582372E+04  0.11712392828E+04 0.  0.
        5    1    3    3  502    0 -0.35185587490E+03 -0.44253562556E+03  0.88924826384E+03  0.10537670052E+04  0.46999998093E+01 0. -1.
       -5    1    3    3    0  502  0.35185587490E+03  0.44253562556E+03  0.42961276889E+03  0.71009123201E+03  0.46999998093E+01 0.  1.
</event>
<event>
 5   0  0.5157631E-04  0.1196551E+04  0.7818609E-02  0.9115880E-01
        1   -1    0    0  501    0  0.00000000000E+00  0.00000000000E+00  0.81389592018E+03  0.81389592020E+03  0.50400001928E-02 0.  1.
       -1   -1    0    0    0  501  0.00000000000E+00  0.00000000000E+00 -0.43977835637E+03  0.43977835640E+03  0.50400001928E-02 0. -1.
    10030    2    1    2    0    0  0.00000000000E+00  0.00000000000E+00  0.37411756381E+03  0.12536742766E+04  0.11965513947E+04 0.  0.
        5    1    3    3  502    0 -0.11548684690E+03  0.14168159713E+02  0.80190766868E+03  0.81031842361E+03  0.46999998093E+01 0.  1.
       -5    1    3    3    0  502  0.11548684690E+03 -0.14168159713E+02 -0.42779010487E+03  0.44335585299E+03  0.46999998093E+01 0. -1.
</event>
<event>
 5   0  0.9145224E-04  0.1200055E+04  0.7818609E-02  0.9112809E-01
        2   -1    0    0  501    0  0.00000000000E+00  0.00000000000E+00  0.47777609064E+03  0.47777609065E+03  0.25500000920E-02 0. -1.
       -2   -1    0    0    0  501  0.00000000000E+00  0.00000000000E+00 -0.75355971442E+03  0.75355971442E+03  0.25500000920E-02 0.  1.
    10030    2    1    2    0    0  0.00000000000E+00  0.00000000000E+00 -0.27578362377E+03  0.12313358051E+04  0.12000546895E+04 0.  0.
        5    1    3    3  502    0 -0.56811440476E+03  0.17010186788E+03 -0.44288333202E+02  0.59470342928E+03  0.46999998093E+01 0.  1.
       -5    1    3    3    0  502  0.56811440476E+03 -0.17010186788E+03 -0.23149529057E+03  0.63663237579E+03  0.46999998093E+01 0. -1.
</event>
<event>
 5   0  0.9410666E-04  0.1184085E+04  0.7818609E-02  0.9126902E-01
        2   -1    0    0  501    0  0.00000000000E+00  0.00000000000E+00  0.58175644233E+03  0.58175644233E+03  0.25500000920E-02 0. -1.
       -2   -1    0    0    0  501  0.00000000000E+00  0.00000000000E+00 -0.60251025368E+03  0.60251025369E+03  0.25500000920E-02 0.  1.
    10030    2    1    2    0    0  0.00000000000E+00  0.00000000000E+00 -0.20753811354E+02  0.11842666960E+04  0.11840848308E+04 0.  0.
        2    1    3    3  502    0  0.23559590743E+02  0.28948261199E+03  0.50560831737E+03  0.58309090849E+03  0.25500000920E-02 0. -1.
       -2    1    3    3    0  502 -0.23559590743E+02 -0.28948261199E+03 -0.52636212872E+03  0.60117578754E+03  0.25500000920E-02 0.  1.
</event>
<event>
 5   0  0.5001586E-04  0.1198957E+04  0.7818609E-02  0.9113770E-01
        1   -1    0    0  501    0  0.00000000000E+00  0.00000000000E+00  0.11641059622E+04  0.11641059622E+04  0.50400001928E-02 0. -1.
       -1   -1    0    0    0  501  0.00000000000E+00  0.00000000000E+00 -0.30871310301E+03  0.30871310306E+03  0.50400001928E-02 0.  1.
    10030    2    1    2    0    0  0.00000000000E+00  0.00000000000E+00  0.85539285914E+03  0.14728190652E+04  0.11989574869E+04 0.  0.
        1    1    3    3  502    0  0.21026413943E+03 -0.27273701148E+03 -0.17507722936E+03  0.38632696259E+03  0.50400001928E-02 0.  1.
       -1    1    3    3    0  502 -0.21026413943E+03  0.27273701148E+03  0.10304700885E+04  0.10864921026E+04  0.50400001928E-02 0. -1.
</event>
<event>
 5   0  0.5003507E-04  0.1198118E+04  0.7818609E-02  0.9114505E-01
        1   -1    0    0  501    0  0.00000000000E+00  0.00000000000E+00  0.57927162175E+03  0.57927162177E+03  0.50400001928E-02 0. -1.
       -1   -1    0    0    0  501  0.00000000000E+00  0.00000000000E+00 -0.61952278463E+03  0.61952278465E+03  0.50400001928E-02 0.  1.
    10030    2    1    2    0    0  0.00000000000E+00  0.00000000000E+00 -0.40251162883E+02  0.11987944064E+04  0.11981184719E+04 0.  0.
        3    1    3    3  502    0 -0.17110633794E+03 -0.46766307792E+03 -0.35330867733E+03  0.61058428166E+03  0.10100000352E+00 0.  1.
       -3    1    3    3    0  502  0.17110633794E+03  0.46766307792E+03  0.31305751445E+03  0.58821012477E+03  0.10100000352E+00 0. -1.
</event>
<event>
 5   0  0.9070772E-04  0.1203462E+04  0.7818609E-02  0.9109832E-01
       -2   -1    0    0    0  501  0.00000000000E+00  0.00000000000E+00  0.54860956414E+03  0.54860956415E+03  0.25500000920E-02 0.  1.
        2   -1    0    0  501    0  0.00000000000E+00  0.00000000000E+00 -0.65999585449E+03  0.65999585450E+03  0.25500000920E-02 0. -1.
    10030    2    1    2    0    0  0.00000000000E+00  0.00000000000E+00 -0.11138629035E+03  0.12086054186E+04  0.12034617370E+04 0.  0.
        4    1    3    3  502    0  0.50394889171E+03  0.22898891161E+03  0.18127727253E+03  0.58246327741E+03  0.12699999809E+01 0.  1.
       -4    1    3    3    0  502 -0.50394889171E+03 -0.22898891161E+03 -0.29266356288E+03  0.62614214124E+03  0.12699999809E+01 0. -1.
</event>
<event>
 5   0  0.9070772E-04  0.1205084E+04  0.7818609E-02  0.9108418E-01
       -2   -1    0    0    0  501  0.00000000000E+00  0.00000000000E+00  0.89066437287E+03  0.89066437287E+03  0.25500000920E-02 0. -1.
        2   -1    0    0  501    0  0.00000000000E+00  0.00000000000E+00 -0.40762469198E+03  0.40762469199E+03  0.25500000920E-02 0.  1.
    10030    2    1    2    0    0  0.00000000000E+00  0.00000000000E+00  0.48303968089E+03  0.12982890649E+04  0.12050838820E+04 0.  0.
        4    1    3    3  502    0 -0.41154421627E+03  0.22004591395E+03  0.65213653824E+03  0.80191802798E+03  0.12699999809E+01 0. -1.
       -4    1    3    3    0  502  0.41154421627E+03 -0.22004591395E+03 -0.16909685735E+03  0.49637103688E+03  0.12699999809E+01 0.  1.
</event>
<event>
 5   0  0.9298693E-04  0.1192529E+04  0.7818609E-02  0.9119421E-01
       -2   -1    0    0    0  501  0.00000000000E+00  0.00000000000E+00  0.33010470998E+03  0.33010470999E+03  0.25500000920E-02 0. -1.
        2   -1    0    0  501    0  0.00000000000E+00  0.00000000000E+00 -0.10770266589E+04  0.10770266589E+04  0.25500000920E-02 0.  1.
    10030    2    1    2    0    0  0.00000000000E+00  0.00000000000E+00 -0.74692194891E+03  0.14071313689E+04  0.11925293671E+04 0.  0.
        1    1    3    3  502    0  0.18453903260E+03 -0.56549532387E+03 -0.42199655405E+03  0.72932894330E+03  0.50400001928E-02 0. -1.
       -1    1    3    3    0  502 -0.18453903260E+03  0.56549532387E+03 -0.32492539486E+03  0.67780242558E+03  0.50400001928E-02 0.  1.
</event>
<event>
 5   0  0.3453625E-04  0.1201859E+04  0.7818609E-02  0.9111231E-01
        4   -1    0    0  501    0  0.00000000000E+00  0.00000000000E+00  0.94845641400E+03  0.94845726427E+03  0.12699999809E+01 0.  1.
       -4   -1    0    0    0  501  0.00000000000E+00  0.00000000000E+00 -0.38073917178E+03  0.38074128989E+03  0.12699999809E+01 0. -1.
    10030    2    1    2    0    0  0.00000000000E+00  0.00000000000E+00  0.56771724221E+03  0.13291985542E+04  0.12018593634E+04 0.  0.
        4    1    3    3  502    0 -0.22423175322E+03 -0.42865088673E+03  0.67813224163E+03  0.83299844651E+03  0.12699999809E+01 0.  1.
       -4    1    3    3    0  502  0.22423175322E+03  0.42865088673E+03 -0.11041499942E+03  0.49620010766E+03  0.12699999809E+01 0. -1.
</event>
<event>
 5   0  0.5003507E-04  0.1193809E+04  0.7818609E-02  0.9118293E-01
       -1   -1    0    0    0  501  0.00000000000E+00  0.00000000000E+00  0.33593417814E+03  0.33593417818E+03  0.50400001928E-02 0.  1.
        1   -1    0    0  501    0  0.00000000000E+00  0.00000000000E+00 -0.10606087003E+04  0.10606087003E+04  0.50400001928E-02 0. -1.
    10030    2    1    2    0    0  0.00000000000E+00  0.00000000000E+00 -0.72467452215E+03  0.13965428785E+04  0.11938085476E+04 0.  0.
        3    1    3    3  502    0  0.19116416629E+03 -0.56543967399E+03 -0.36863025884E+03  0.70153691374E+03  0.10100000352E+00 0.  1.
       -3    1    3    3    0  502 -0.19116416629E+03  0.56543967399E+03 -0.35604426331E+03  0.69500596475E+03  0.10100000352E+00 0. -1.
</event>
<event>
 5   0  0.5001586E-04  0.1192163E+04  0.7818609E-02  0.9119744E-01
        1   -1    0    0  501    0  0.00000000000E+00  0.00000000000E+00  0.18608336087E+04  0.18608336087E+04  0.50400001928E-02 0. -1.
       -1   -1    0    0    0  501  0.00000000000E+00  0.00000000000E+00 -0.19094289601E+03  0.19094289607E+03  0.50400001928E-02 0.  1.
    10030    2    1    2    0    0  0.00000000000E+00  0.00000000000E+00  0.16698907127E+04  0.20517765047E+04  0.11921626706E+04 0.  0.
        1    1    3    3  502    0 -0.39198111329E+03  0.21207742062E+03  0.15368844231E+03  0.47142991297E+03  0.50400001928E-02 0.  1.
       -1    1    3    3    0  502  0.39198111329E+03 -0.21207742062E+03  0.15162022703E+04  0.15803465918E+04  0.50400001928E-02 0. -1.
</event>
<event>
 5   0  0.9410666E-04  0.1191741E+04  0.7818609E-02  0.9120116E-01
       -2   -1    0    0    0  501  0.00000000000E+00  0.00000000000E+00  0.47530900689E+03  0.47530900689E+03  0.25500000920E-02 0. -1.
        2   -1    0    0  501    0  0.00000000000E+00  0.00000000000E+00 -0.74701264965E+03  0.74701264965E+03  0.25500000920E-02 0.  1.
    10030    2    1    2    0    0  0.00000000000E+00  0.00000000000E+00 -0.27170364276E+03  0.12223216565E+04  0.11917413153E+04 0.  0.
        2    1    3    3  502    0 -0.10084810952E+03  0.19731332827E+03  0.43147731938E+03  0.48505212901E+03  0.25500000920E-02 0. -1.
       -2    1    3    3    0  502  0.10084810952E+03 -0.19731332827E+03 -0.70318096214E+03  0.73726952754E+03  0.25500000920E-02 0.  1.
</event>
<event>
 5   0  0.5157631E-04  0.1202386E+04  0.7818609E-02  0.9110771E-01
        1   -1    0    0  501    0  0.00000000000E+00  0.00000000000E+00  0.15573588564E+04  0.15573588564E+04  0.50400001928E-02 0.  1.
       -1   -1    0    0    0  501  0.00000000000E+00  0.00000000000E+00 -0.23208063067E+03  0.23208063073E+03  0.50400001928E-02 0. -1.
    10030    2    1    2    0    0  0.00000000000E+00  0.00000000000E+00  0.13252782257E+04  0.17894394871E+04  0.12023856713E+04 0.  0.
        5    1    3    3  502    0 -0.38714527128E+03 -0.26918500957E+02  0.13459421280E+04  0.14007813422E+04  0.46999998093E+01 0.  1.
       -5    1    3    3    0  502  0.38714527128E+03  0.26918500957E+02 -0.20663902255E+02  0.38865814494E+03  0.46999998093E+01 0. -1.
</event>
<event>
 5   0  0.5003507E-04  0.1200929E+04  0.7818609E-02  0.9112044E-01
        1   -1    0    0  501    0  0.00000000000E+00  0.00000000000E+00  0.16424071055E+04  0.16424071055E+04  0.50400001928E-02 0. -1.
       -1   -1    0    0    0  501  0.00000000000E+00  0.00000000000E+00 -0.21953003971E+03  0.21953003977E+03  0.50400001928E-02 0.  1.
    10030    2    1    2    0    0  0.00000000000E+00  0.00000000000E+00  0.14228770658E+04  0.18619371452E+04  0.12009291355E+04 0.  0.
        3    1    3    3  502    0  0.27293286539E+02  0.76611224774E+02  0.16338285529E+04  0.16358514461E+04  0.10100000352E+00 0. -1.
       -3    1    3    3    0  502 -0.27293286539E+02 -0.76611224774E+02 -0.21095148712E+03  0.22608569917E+03  0.10100000352E+00 0.  1.
</event>
<event>
 5   0  0.5052959E-04  0.1204830E+04  0.7818609E-02  0.9108639E-01
       -1   -1    0    0    0  501  0.00000000000E+00  0.00000000000E+00  0.31849759307E+03  0.31849759311E+03  0.50400001928E-02 0.  1.
        1   -1    0    0  501    0  0.00000000000E+00  0.00000000000E+00 -0.11394247229E+04  0.11394247229E+04  0.50400001928E-02 0. -1.
    10030    2    1    2    0    0  0.00000000000E+00  0.00000000000E+00 -0.82092712985E+03  0.14579223160E+04  0.12048303312E+04 0.  0.
        2    1    3    3  502    0  0.58949084916E+03 -0.11192046303E+03 -0.34554295504E+03  0.69240565067E+03  0.25500000920E-02 0.  1.
       -2    1    3    3    0  502 -0.58949084916E+03  0.11192046303E+03 -0.47538417481E+03  0.76551666537E+03  0.25500000920E-02 0. -1.
</event>
<event>
 5   0  0.9410666E-04  0.1201473E+04  0.7818609E-02  0.9111568E-01
        2   -1    0    0  501    0  0.00000000000E+00  0.00000000000E+00  0.80481363071E+03  0.80481363072E+03  0.25500000920E-02 0. -1.
       -2   -1    0    0    0  501  0.00000000000E+00  0.00000000000E+00 -0.44840717613E+03  0.44840717613E+03  0.25500000920E-02 0.  1.
    10030    2    1    2    0    0  0.00000000000E+00  0.00000000000E+00  0.35640645459E+03  0.12532208069E+04  0.12014727753E+04 0.  0.
        2    1    3    3  502    0 -0.44547211308E+03 -0.35021677399E+03 -0.29854735587E+02  0.56744030308E+03  0.25500000920E-02 0.  1.
       -2    1    3    3    0  502  0.44547211308E+03  0.35021677399E+03  0.38626119017E+03  0.68578050377E+03  0.25500000920E-02 0. -1.
</event>
<event>
 5   0  0.9145224E-04  0.1203648E+04  0.7818609E-02  0.9109669E-01
       -2   -1    0    0    0  501  0.00000000000E+00  0.00000000000E+00  0.42728579888E+03  0.42728579889E+03  0.25500000920E-02 0.  1.
        2   -1    0    0  501    0  0.00000000000E+00  0.00000000000E+00 -0.84765836384E+03  0.84765836384E+03  0.25500000920E-02 0. -1.
    10030    2    1    2    0    0  0.00000000000E+00  0.00000000000E+00 -0.42037256496E+03  0.12749441627E+04  0.12036484224E+04 0.  0.
        5    1    3    3  502    0 -0.46508414769E+02  0.36386363625E+03 -0.71553093278E+03  0.80409351706E+03  0.46999998093E+01 0. -1.
       -5    1    3    3    0  502  0.46508414769E+02 -0.36386363625E+03  0.29515836782E+03  0.47085064566E+03  0.46999998093E+01 0.  1.
</event>
<event>
 5   0  0.5157631E-04  0.1203924E+04  0.7818609E-02  0.9109429E-01
       -1   -1    0    0    0  501  0.00000000000E+00  0.00000000000E+00  0.38321617921E+03  0.38321617925E+03  0.50400001928E-02 0. -1.
        1   -1    0    0  501    0  0.00000000000E+00  0.00000000000E+00 -0.94557175011E+03  0.94557175012E+03  0.50400001928E-02 0.  1.
    10030    2    1    2    0    0  0.00000000000E+00  0.00000000000E+00 -0.56235557090E+03  0.13287879294E+04  0.12039242389E+04 0.  0.
        5    1    3    3  502    0  0.37443753180E+03 -0.34891923764E+03  0.68524006379E+02  0.51639687167E+03  0.46999998093E+01 0. -1.
       -5    1    3    3    0  502 -0.37443753180E+03  0.34891923764E+03 -0.63087957727E+03  0.81239105770E+03  0.46999998093E+01 0.  1.
</event>
<event>
 5   0  0.5001586E-04  0.1218695E+04  0.7818609E-02  0.9096648E-01
       -1   -1    0    0    0  501  0.00000000000E+00  0.00000000000E+00  0.46637701454E+03  0.46637701456E+03  0.50400001928E-02 0.  1.
        1   -1    0    0  501    0  0.00000000000E+00  0.00000000000E+00 -0.79614632154E+03  0.79614632155E+03  0.50400001928E-02 0. -1.
    10030    2    1    2    0    0  0.00000000000E+00  0.00000000000E+00 -0.32976930700E+03  0.12625233361E+04  0.12186949489E+04 0.  0.
        1    1    3    3  502    0 -0.18144546156E+03 -0.56348557632E+03 -0.15239414223E+02  0.59217454353E+03  0.50400001928E-02 0.  1.
       -1    1    3    3    0  502  0.18144546156E+03  0.56348557632E+03 -0.31452989278E+03  0.67034879258E+03  0.50400001928E-02 0. -1.
</event>
<event>
 5   0  0.5003507E-04  0.1183490E+04  0.7818609E-02  0.9127431E-01
       -1   -1    0    0    0  501  0.00000000000E+00  0.00000000000E+00  0.44426517629E+03  0.44426517631E+03  0.50400001928E-02 0.  1.
        1   -1    0    0  501    0  0.00000000000E+00  0.00000000000E+00 -0.78818309163E+03  0.78818309165E+03  0.50400001928E-02 0. -1.
    10030    2    1    2    0    0  0.00000000000E+00  0.00000000000E+00 -0.34391791535E+03  0.12324482680E+04  0.11834902622E+04 0.  0.
        3    1    3    3  502    0 -0.30319891414E+03 -0.46991947765E+03 -0.37337243887E+03  0.67242909315E+03  0.10100000352E+00 0. -1.
       -3    1    3    3    0  502  0.30319891414E+03  0.46991947765E+03  0.29454523521E+02  0.56001917482E+03  0.10100000352E+00 0.  1.
</event>
<event>
 5   0  0.9145224E-04  0.1191627E+04  0.7818609E-02  0.9120217E-01
        2   -1    0    0  501    0  0.00000000000E+00  0.00000000000E+00  0.99472894630E+03  0.99472894630E+03  0.25500000920E-02 0.  1.
       -2   -1    0    0    0  501  0.00000000000E+00  0.00000000000E+00 -0.35687511267E+03  0.35687511268E+03  0.25500000920E-02 0. -1.
    10030    2    1    2    0    0  0.00000000000E+00  0.00000000000E+00  0.63785383363E+03  0.13516040590E+04  0.11916274666E+04 0.  0.
        5    1    3    3  502    0 -0.12365968176E+03  0.46805173070E+03  0.71283658074E+03  0.86169729044E+03  0.46999998093E+01 0.  1.
       -5    1    3    3    0  502  0.12365968176E+03 -0.46805173070E+03 -0.74982747112E+02  0.48990676854E+03  0.46999998093E+01 0. -1.
</event>
<event>
 5   0  0.3453625E-04  0.1200173E+04  0.7818609E-02  0.9112705E-01
       -3   -1    0    0    0  501  0.00000000000E+00  0.00000000000E+00  0.74452776650E+03  0.74452777335E+03  0.10100000352E+00 0. -1.
        3   -1    0    0  501    0  0.00000000000E+00  0.00000000000E+00 -0.48366722832E+03  0.48366723886E+03  0.10100000352E+00 0.  1.
    10030    2    1    2    0    0  0.00000000000E+00  0.00000000000E+00  0.26086053818E+03  0.12281950122E+04  0.12001728074E+04 0.  0.
        4    1    3    3  502    0 -0.39053434041E+02  0.16624165866E+03  0.71913643475E+03  0.73913482158E+03  0.12699999809E+01 0. -1.
       -4    1    3    3    0  502  0.39053434041E+02 -0.16624165866E+03 -0.45827589657E+03  0.48906019063E+03  0.12699999809E+01 0.  1.
</event>
<event>
 5   0  0.9410666E-04  0.1201401E+04  0.7818609E-02  0.9111631E-01
       -2   -1    0    0    0  501  0.00000000000E+00  0.00000000000E+00  0.15994298136E+03  0.15994298139E+03  0.25500000920E-02 0.  1.
        2   -1    0    0  501    0  0.00000000000E+00  0.00000000000E+00 -0.22560614034E+04  0.22560614034E+04  0.25500000920E-02 0. -1.
    10030    2    1    2    0    0  0.00000000000E+00  0.00000000000E+00 -0.20961184220E+04  0.24160043848E+04  0.12014011604E+04 0.  0.
        2    1    3    3  502    0  0.41852523429E+03 -0.32643752589E+03 -0.48241569685E+03  0.71725151420E+03  0.25500000920E-02 0.  1.
       -2    1    3    3    0  502 -0.41852523429E+03  0.32643752589E+03 -0.16137027252E+04  0.16987528706E+04  0.25500000920E-02 0. -1.
</event>
<event>
 5   0  0.9410666E-04  0.1196237E+04  0.7818609E-02  0.9116157E-01
        2   -1    0    0  501    0  0.00000000000E+00  0.00000000000E+00  0.10084447224E+04  0.10084447224E+04  0.25500000920E-02 0.  1.
       -2   -1    0    0    0  501  0.00000000000E+00  0.00000000000E+00 -0.35474984449E+03  0.35474984450E+03  0.25500000920E-02 0. -1.
    10030    2    1    2    0    0  0.00000000000E+00  0.00000000000E+00  0.65369487791E+03  0.13631945669E+04  0.11962367800E+04 0.  0.
        2    1    3    3  502    0 -0.21431959446E+03 -0.16952903072E+02 -0.30919686827E+03  0.37659393628E+03  0.25500000920E-02 0. -1.
       -2    1    3    3    0  502  0.21431959446E+03  0.16952903072E+02  0.96289174617E+03  0.98660063062E+03  0.25500000920E-02 0.  1.
</event>
<event>
 5   0  0.9145224E-04  0.1197547E+04  0.7818609E-02  0.9115006E-01
       -2   -1    0    0    0  501  0.00000000000E+00  0.00000000000E+00  0.21860968687E+03  0.21860968688E+03  0.25500000920E-02 0. -1.
        2   -1    0    0  501    0  0.00000000000E+00  0.00000000000E+00 -0.16400461040E+04  0.16400461040E+04  0.25500000920E-02 0.  1.
    10030    2    1    2    0    0  0.00000000000E+00  0.00000000000E+00 -0.14214364171E+04  0.18586557909E+04  0.11975474358E+04 0.  0.
        5    1    3    3  502    0 -0.53384519344E+03 -0.25441183433E+03 -0.85624576062E+03  0.10406223929E+04  0.46999998093E+01 0. -1.
       -5    1    3    3    0  502  0.53384519344E+03  0.25441183433E+03 -0.56519065649E+03  0.81803339797E+03  0.46999998093E+01 0.  1.
</event>
<event>
 5   0  0.9298693E-04  0.1201313E+04  0.7818609E-02  0.9111708E-01
       -2   -1    0    0    0  501  0.00000000000E+00  0.00000000000E+00  0.27525162931E+03  0.27525162932E+03  0.25500000920E-02 0. -1.
        2   -1    0    0  501    0  0.00000000000E+00  0.00000000000E+00 -0.13107571606E+04  0.13107571606E+04  0.25500000920E-02 0.  1.
    10030    2    1    2    0    0  0.00000000000E+00  0.00000000000E+00 -0.10355055313E+04  0.15860087899E+04  0.12013126889E+04 0.  0.
        1    1    3    3  502    0 -0.57446583313E+03  0.97902456314E+02 -0.70994557474E+03  0.91848712757E+03  0.50400001928E-02 0.  1.
       -1    1    3    3    0  502  0.57446583313E+03 -0.97902456314E+02 -0.32555995655E+03  0.66752166237E+03  0.50400001928E-02 0. -1.
</event>
<event>
 5   0  0.9410666E-04  0.1184274E+04  0.7818609E-02  0.9126734E-01
       -2   -1    0    0    0  501  0.00000000000E+00  0.00000000000E+00  0.14073738397E+04  0.14073738397E+04  0.25500000920E-02 0. -1.
        2   -1    0    0  501    0  0.00000000000E+00  0.00000000000E+00 -0.24913503920E+03  0.24913503921E+03  0.25500000920E-02 0.  1.
    10030    2    1    2    0    0  0.00000000000E+00  0.00000000000E+00  0.11582388005E+04  0.16565088789E+04  0.11842738480E+04 0.  0.
        2    1    3    3  502    0  0.53563730141E+03  0.23919291923E+03  0.46629990441E+03  0.74937051725E+03  0.25500000920E-02 0.  1.
       -2    1    3    3    0  502 -0.53563730141E+03 -0.23919291923E+03  0.69193889613E+03  0.90713836169E+03  0.25500000920E-02 0. -1.
</event>
<event>
 5   0  0.9298693E-04  0.1210756E+04  0.7818609E-02  0.9103493E-01
        2   -1    0    0  501    0  0.00000000000E+00  0.00000000000E+00  0.60053774092E+03  0.60053774093E+03  0.25500000920E-02 0.  1.
       -2   -1    0    0    0  501  0.00000000000E+00  0.00000000000E+00 -0.61025763059E+03  0.61025763059E+03  0.25500000920E-02 0. -1.
    10030    2    1    2    0    0  0.00000000000E+00  0.00000000000E+00 -0.97198896652E+01  0.12107953715E+04  0.12107563568E+04 0.  0.
        1    1    3    3  502    0 -0.25017654685E+03  0.63193869675E+02  0.54278984936E+03  0.60100132309E+03  0.50400001928E-02 0.  1.
       -1    1    3    3    0  502  0.25017654685E+03 -0.63193869675E+02 -0.55250973903E+03  0.60979404843E+03  0.50400001928E-02 0. -1.
</event>
<event>
 5   0  0.5447074E-04  0.1197993E+04  0.7818609E-02  0.9114615E-01
        1   -1    0    0  501    0  0.00000000000E+00  0.00000000000E+00  0.18736144312E+04  0.18736144312E+04  0.50400001928E-02 0.  1.
       -1   -1    0    0    0  501  0.00000000000E+00  0.00000000000E+00 -0.19149996341E+03  0.19149996348E+03  0.50400001928E-02 0. -1.
    10030    2    1    2    0    0  0.00000000000E+00  0.00000000000E+00  0.16821144678E+04  0.20651143947E+04  0.11979934809E+04 0.  0.
        4    1    3    3  502    0  0.22624987449E+03  0.36466048392E+03  0.12069970228E+03  0.44579850299E+03  0.12699999809E+01 0.  1.
       -4    1    3    3    0  502 -0.22624987449E+03 -0.36466048392E+03  0.15614147655E+04  0.16193158917E+04  0.12699999809E+01 0. -1.
</event>
<event>
 5   0  0.5447074E-04  0.1199951E+04  0.7818609E-02  0.9112899E-01
       -1   -1    0    0    0  501  0.00000000000E+00  0.00000000000E+00  0.18187440662E+03  0.18187440669E+03  0.50400001928E-02 0.  1.
        1   -1    0    0  501    0  0.00000000000E+00  0.00000000000E+00 -0.19792271297E+04  0.19792271297E+04  0.50400001928E-02 0. -1.
    10030    2    1    2    0    0  0.00000000000E+00  0.00000000000E+00 -0.17973527231E+04  0.21611015364E+04  0.11999512654E+04 0.  0.
        4    1    3    3  502    0 -0.55248754561E+02 -0.31038054186E+03 -0.18180300829E+04  0.18451621882E+04  0.12699999809E+01 0. -1.
       -4    1    3    3    0  502  0.55248754561E+02  0.31038054186E+03  0.20677359760E+02  0.31593934822E+03  0.12699999809E+01 0.  1.
</event>
<event>
 5   0  0.5447074E-04  0.1199836E+04  0.7818609E-02  0.9113000E-01
        1   -1    0    0  501    0  0.00000000000E+00  0.00000000000E+00  0.21688421155E+04  0.21688421155E+04  0.50400001928E-02 0.  1.
       -1   -1    0    0    0  501  0.00000000000E+00  0.00000000000E+00 -0.16594189904E+03  0.16594189912E+03  0.50400001928E-02 0. -1.
    10030    2    1    2    0    0  0.00000000000E+00  0.00000000000E+00  0.20029002165E+04  0.23347840146E+04  0.11998362879E+04 0.  0.
        4    1    3    3  502    0  0.46464365834E+03 -0.35138967262E+03  0.12802788551E+04  0.14065859344E+04  0.12699999809E+01 0.  1.
       -4    1    3    3    0  502 -0.46464365834E+03  0.35138967262E+03  0.72262136137E+03  0.92819808019E+03  0.12699999809E+01 0. -1.
</event>
<event>
 5   0  0.9070772E-04  0.1199861E+04  0.7818609E-02  0.9112978E-01
       -2   -1    0    0    0  501  0.00000000000E+00  0.00000000000E+00  0.17038841819E+03  0.17038841821E+03  0.25500000920E-02 0. -1.
        2   -1    0    0  501    0  0.00000000000E+00  0.00000000000E+00 -0.21123294403E+04  0.21123294403E+04  0.25500000920E-02 0.  1.
    10030    2    1    2    0    0  0.00000000000E+00  0.00000000000E+00 -0.19419410221E+04  0.22827178585E+04  0.11998607787E+04 0.  0.
        4    1    3    3  502    0  0.12528653958E+03  0.22958076710E+03 -0.19981556180E+04  0.20152001221E+04  0.12699999809E+01 0.  1.
       -4    1    3    3    0  502 -0.12528653958E+03 -0.22958076710E+03  0.56214595833E+02  0.26751773643E+03  0.12699999809E+01 0. -1.
</event>
<event>
 5   0  0.5157631E-04  0.1205133E+04  0.7818609E-02  0.9108375E-01
        1   -1    0    0  501    0  0.00000000000E+00  0.00000000000E+00  0.22928484555E+03  0.22928484560E+03  0.50400001928E-02 0.  1.
       -1   -1    0    0    0  501  0.00000000000E+00  0.00000000000E+00 -0.15835611569E+04  0.15835611569E+04  0.50400001928E-02 0. -1.
    10030    2    1    2    0    0  0.00000000000E+00  0.00000000000E+00 -0.13542763113E+04  0.18128460025E+04  0.12051333127E+04 0.  0.
        5    1    3    3  502    0 -0.35995602475E+03  0.10105426043E+02  0.49587829732E+02  0.36352648080E+03  0.46999998093E+01 0.  1.
       -5    1    3    3    0  502  0.35995602475E+03 -0.10105426043E+02 -0.14038641410E+04  0.14493195217E+04  0.46999998093E+01 0. -1.
</event>
<event>
 5   0  0.5052959E-04  0.1175581E+04  0.7818609E-02  0.9134503E-01
       -1   -1    0    0    0  501  0.00000000000E+00  0.00000000000E+00  0.17482109951E+03  0.17482109958E+03  0.50400001928E-02 0. -1.
        1   -1    0    0  501    0  0.00000000000E+00  0.00000000000E+00 -0.19762924878E+04  0.19762924879E+04  0.50400001928E-02 0.  1.
    10030    2    1    2    0    0  0.00000000000E+00  0.00000000000E+00 -0.18014713883E+04  0.21511135874E+04  0.11755809215E+04 0.  0.
        2    1    3    3  502    0 -0.53044058955E+03 -0.14988497040E+03 -0.52723105671E+03  0.76276163417E+03  0.25500000920E-02 0. -1.
       -2    1    3    3    0  502  0.53044058955E+03  0.14988497040E+03 -0.12742403316E+04  0.13883519533E+04  0.25500000920E-02 0.  1.
</event>
<event>
 5   0  0.5447074E-04  0.1204633E+04  0.7818609E-02  0.9108811E-01
       -1   -1    0    0    0  501  0.00000000000E+00  0.00000000000E+00  0.93244801803E+03  0.93244801804E+03  0.50400001928E-02 0.  1.
        1   -1    0    0  501    0  0.00000000000E+00  0.00000000000E+00 -0.38906762196E+03  0.38906762199E+03  0.50400001928E-02 0. -1.
    10030    2    1    2    0    0  0.00000000000E+00  0.00000000000E+00  0.54338039607E+03  0.13215156400E+04  0.12046332770E+04 0.  0.
        4    1    3    3  502    0 -0.23297462911E+03  0.36230181444E+03  0.73354253562E+03  0.85066212271E+03  0.12699999809E+01 0.  1.
       -4    1    3    3    0  502  0.23297462911E+03 -0.36230181444E+03 -0.19016213955E+03  0.47085351732E+03  0.12699999809E+01 0. -1.
</event>
<event>
 5   0  0.5447074E-04  0.1199039E+04  0.7818609E-02  0.9113698E-01
        1   -1    0    0  501    0  0.00000000000E+00  0.00000000000E+00  0.10421285269E+04  0.10421285269E+04  0.50400001928E-02 0.  1.
       -1   -1    0    0    0  501  0.00000000000E+00  0.00000000000E+00 -0.34489384072E+03  0.34489384075E+03  0.50400001928E-02 0. -1.
    10030    2    1    2    0    0  0.00000000000E+00  0.00000000000E+00  0.69723468622E+03  0.13870223677E+04  0.11990391323E+04 0.  0.
        4    1    3    3  502    0  0.12036793656E+03  0.26708633324E+03  0.95368926692E+03  0.99767147915E+03  0.12699999809E+01 0.  1.
       -4    1    3    3    0  502 -0.12036793656E+03 -0.26708633324E+03 -0.25645458070E+03  0.38935088856E+03  0.12699999809E+01 0. -1.
</event>
<event>
 5   0  0.9050363E-04  0.1200750E+04  0.7818609E-02  0.9112201E-01
       -2   -1    0    0    0  501  0.00000000000E+00  0.00000000000E+00  0.20968061389E+03  0.20968061391E+03  0.25500000920E-02 0.  1.
        2   -1    0    0  501    0  0.00000000000E+00  0.00000000000E+00 -0.17190428651E+04  0.17190428651E+04  0.25500000920E-02 0. -1.
    10030    2    1    2    0    0  0.00000000000E+00  0.00000000000E+00 -0.15093622512E+04  0.19287234790E+04  0.12007497046E+04 0.  0.
        3    1    3    3  502    0  0.41025176899E+03 -0.99884715164E+02 -0.14402509843E+04  0.15008685413E+04  0.10100000352E+00 0. -1.
       -3    1    3    3    0  502 -0.41025176899E+03  0.99884715164E+02 -0.69111266866E+02  0.42785493767E+03  0.10100000352E+00 0.  1.
</event>
<event>
 5   0  0.5052959E-04  0.1196821E+04  0.7818609E-02  0.9115644E-01
        1   -1    0    0  501    0  0.00000000000E+00  0.00000000000E+00  0.18721559647E+04  0.18721559647E+04  0.50400001928E-02 0.  1.
       -1   -1    0    0    0  501  0.00000000000E+00  0.00000000000E+00 -0.19127411728E+03  0.19127411734E+03  0.50400001928E-02 0. -1.
    10030    2    1    2    0    0  0.00000000000E+00  0.00000000000E+00  0.16808818475E+04  0.20634300821E+04  0.11968207546E+04 0.  0.
        2    1    3    3  502    0 -0.16723303845E+03  0.46776580550E+02 -0.14687892908E+03  0.22743868943E+03  0.25500000920E-02 0. -1.
       -2    1    3    3    0  502  0.16723303845E+03 -0.46776580550E+02  0.18277607765E+04  0.18359913926E+04  0.25500000920E-02 0.  1.
</event>
<event>
 5   0  0.9050363E-04  0.1194364E+04  0.7818609E-02  0.9117804E-01
        2   -1    0    0  501    0  0.00000000000E+00  0.00000000000E+00  0.78465260055E+03  0.78465260056E+03  0.25500000920E-02 0. -1.
       -2   -1    0    0    0  501  0.00000000000E+00  0.00000000000E+00 -0.45450223258E+03  0.45450223259E+03  0.25500000920E-02 0.  1.
    10030    2    1    2    0    0  0.00000000000E+00  0.00000000000E+00  0.33015036797E+03  0.12391548331E+04  0.11943640295E+04 0.  0.
        3    1    3    3  502    0  0.49242470730E+03  0.63455266197E+02 -0.17920925741E+03  0.52784906110E+03  0.10100000352E+00 0.  1.
       -3    1    3    3    0  502 -0.49242470730E+03 -0.63455266197E+02  0.50935962538E+03  0.71130577204E+03  0.10100000352E+00 0. -1.
</event>
<event>
 5   0  0.5157631E-04  0.1198825E+04  0.7818609E-02  0.9113885E-01
        1   -1    0    0  501    0  0.00000000000E+00  0.00000000000E+00  0.66649767169E+03  0.66649767171E+03  0.50400001928E-02 0. -1.
       -1   -1    0    0    0  501  0.00000000000E+00  0.00000000000E+00 -0.53908009635E+03  0.53908009637E+03  0.50400001928E-02 0.  1.
    10030    2    1    2    0    0  0.00000000000E+00  0.00000000000E+00  0.12741757534E+03  0.12055777681E+04  0.11988254737E+04 0.  0.
        5    1    3    3  502    0 -0.10897278523E+03 -0.35305143053E+03 -0.41091686071E+03  0.55262567524E+03  0.46999998093E+01 0.  1.
       -5    1    3    3    0  502  0.10897278523E+03  0.35305143053E+03  0.53833443605E+03  0.65295209285E+03  0.46999998093E+01 0. -1.
</event>
<event>
 5   0  0.9145224E-04  0.1187496E+04  0.7818609E-02  0.9123872E-01
        2   -1    0    0  501    0  0.00000000000E+00  0.00000000000E+00  0.96383016889E+03  0.96383016889E+03  0.25500000920E-02 0.  1.
       -2   -1    0    0    0  501  0.00000000000E+00  0.00000000000E+00 -0.36576663541E+03  0.36576663542E+03  0.25500000920E-02 0. -1.
    10030    2    1    2    0    0  0.00000000000E+00  0.00000000000E+00  0.59806353348E+03  0.13295968043E+04  0.11874963882E+04 0.  0.
        5    1    3    3  502    0 -0.27074226143E+03 -0.26457039531E+02  0.88992739363E+03  0.93058809523E+03  0.46999998093E+01 0.  1.
       -5    1    3    3    0  502  0.27074226143E+03  0.26457039531E+02 -0.29186386015E+03  0.39900870908E+03  0.46999998093E+01 0. -1.
</event>
<event>
 5   0  0.5003507E-04  0.1199226E+04  0.7818609E-02  0.9113535E-01
       -1   -1    0    0    0  501  0.00000000000E+00  0.00000000000E+00  0.14113451875E+03  0.14113451884E+03  0.50400001928E-02 0.  1.
        1   -1    0    0  501    0  0.00000000000E+00  0.00000000000E+00 -0.25474673143E+04  0.25474673143E+04  0.50400001928E-02 0. -1.
    10030    2    1    2    0    0  0.00000000000E+00  0.00000000000E+00 -0.24063327956E+04  0.26886018332E+04  0.11992257061E+04 0.  0.
        3    1    3    3  502    0 -0.11433242235E+03  0.22615614734E+03  0.15177317643E+02  0.25386781393E+03  0.10100000352E+00 0.  1.
       -3    1    3    3    0  502  0.11433242235E+03 -0.22615614734E+03 -0.24215101132E+04  0.24347340192E+04  0.10100000352E+00 0. -1.
</event>
<event>
 5   0  0.5157631E-04  0.1201707E+04  0.7818609E-02  0.9111363E-01
        1   -1    0    0  501    0  0.00000000000E+00  0.00000000000E+00  0.57006118678E+03  0.57006118680E+03  0.50400001928E-02 0. -1.
       -1   -1    0    0    0  501  0.00000000000E+00  0.00000000000E+00 -0.63330938024E+03  0.63330938026E+03  0.50400001928E-02 0.  1.
    10030    2    1    2    0    0  0.00000000000E+00  0.00000000000E+00 -0.63248193460E+02  0.12033705671E+04  0.12017072804E+04 0.  0.
        5    1    3    3  502    0 -0.39229888992E+02  0.46473290213E+03  0.34769744214E+03  0.58174844717E+03  0.46999998093E+01 0. -1.
       -5    1    3    3    0  502  0.39229888992E+02 -0.46473290213E+03 -0.41094563560E+03  0.62162211989E+03  0.46999998093E+01 0.  1.
</event>
<event>
 5   0  0.9145224E-04  0.1215837E+04  0.7818609E-02  0.9099107E-01
       -2   -1    0    0    0  501  0.00000000000E+00  0.00000000000E+00  0.50598592974E+03  0.50598592975E+03  0.25500000920E-02 0.  1.
        2   -1    0    0  501    0  0.00000000000E+00  0.00000000000E+00 -0.73038514739E+03  0.73038514739E+03  0.25500000920E-02 0. -1.
    10030    2    1    2    0    0  0.00000000000E+00  0.00000000000E+00 -0.22439921765E+03  0.12363710771E+04  0.12158365151E+04 0.  0.
        5    1    3    3  502    0 -0.46389422358E+03  0.30686175586E+03  0.13726081659E+03  0.57290890170E+03  0.46999998093E+01 0.  1.
       -5    1    3    3    0  502  0.46389422358E+03 -0.30686175586E+03 -0.36166003424E+03  0.66346217544E+03  0.46999998093E+01 0. -1.
</event>
<event>
 5   0  0.5003507E-04  0.1198805E+04  0.7818609E-02  0.9113903E-01
        1   -1    0    0  501    0  0.00000000000E+00  0.00000000000E+00  0.57331627111E+03  0.57331627113E+03  0.50400001928E-02 0. -1.
       -1   -1    0    0    0  501  0.00000000000E+00  0.00000000000E+00 -0.62667568422E+03  0.62667568425E+03  0.50400001928E-02 0.  1.
    10030    2    1    2    0    0  0.00000000000E+00  0.00000000000E+00 -0.53359413115E+02  0.11999919554E+04  0.11988050158E+04 0.  0.
        3    1    3    3  502    0  0.37305715043E+03 -0.11417386263E+03 -0.48218635176E+03  0.62025075286E+03  0.10100000352E+00 0. -1.
       -3    1    3    3    0  502 -0.37305715043E+03  0.11417386263E+03  0.42882693864E+03  0.57974120252E+03  0.10100000352E+00 0.  1.
</event>
<event>
 5   0  0.5052959E-04  0.1198432E+04  0.7818609E-02  0.9114230E-01
       -1   -1    0    0    0  501  0.00000000000E+00  0.00000000000E+00  0.90521467686E+03  0.90521467687E+03  0.50400001928E-02 0.  1.
        1   -1    0    0  501    0  0.00000000000E+00  0.00000000000E+00 -0.39665731580E+03  0.39665731583E+03  0.50400001928E-02 0. -1.
    10030    2    1    2    0    0  0.00000000000E+00  0.00000000000E+00  0.50855736106E+03  0.13018719927E+04  0.11984323493E+04 0.  0.
        2    1    3    3  502    0  0.40278420677E+03 -0.23674206785E+03 -0.15331018405E+03  0.49171733389E+03  0.25500000920E-02 0. -1.
       -2    1    3    3    0  502 -0.40278420677E+03  0.23674206785E+03  0.66186754511E+03  0.81015465881E+03  0.25500000920E-02 0.  1.
</event>
<event>
 5   0  0.9410666E-04  0.1226124E+04  0.7818609E-02  0.9090293E-01
        2   -1    0    0  501    0  0.00000000000E+00  0.00000000000E+00  0.80719726828E+03  0.80719726829E+03  0.25500000920E-02 0.  1.
       -2   -1    0    0    0  501  0.00000000000E+00  0.00000000000E+00 -0.46561718390E+03  0.46561718391E+03  0.25500000920E-02 0. -1.
    10030    2    1    2    0    0  0.00000000000E+00  0.00000000000E+00  0.34158008438E+03  0.12728144522E+04  0.12261238419E+04 0.  0.
        2    1    3    3  502    0  0.18677347962E+03  0.52030539595E+03  0.44591622265E+03  0.71024173024E+03  0.25500000920E-02 0. -1.
       -2    1    3    3    0  502 -0.18677347962E+03 -0.52030539595E+03 -0.10433613827E+03  0.56257272196E+03  0.25500000920E-02 0.  1.
</event>
<event>
 5   0  0.9410666E-04  0.1201855E+04  0.7818609E-02  0.9111235E-01
       -2   -1    0    0    0  501  0.00000000000E+00  0.00000000000E+00  0.52020766765E+03  0.52020766765E+03  0.25500000920E-02 0. -1.
        2   -1    0    0  501    0  0.00000000000E+00  0.00000000000E+00 -0.69417211641E+03  0.69417211642E+03  0.25500000920E-02 0.  1.
    10030    2    1    2    0    0  0.00000000000E+00  0.00000000000E+00 -0.17396444877E+03  0.12143797841E+04  0.12018546628E+04 0.  0.
        2    1    3    3  502    0  0.29555826760E+03 -0.11236847728E+03 -0.60331877318E+03  0.68115703499E+03  0.25500000920E-02 0.  1.
       -2    1    3    3    0  502 -0.29555826760E+03  0.11236847728E+03  0.42935432442E+03  0.53322274908E+03  0.25500000920E-02 0. -1.
</event>
<event>
 5   0  0.9070772E-04  0.1200469E+04  0.7818609E-02  0.9112446E-01
       -2   -1    0    0    0  501  0.00000000000E+00  0.00000000000E+00  0.25056823819E+03  0.25056823820E+03  0.25500000920E-02 0.  1.
        2   -1    0    0  501    0  0.00000000000E+00  0.00000000000E+00 -0.14378571926E+04  0.14378571926E+04  0.25500000920E-02 0. -1.
    10030    2    1    2    0    0  0.00000000000E+00  0.00000000000E+00 -0.11872889544E+04  0.16884254308E+04  0.12004688143E+04 0.  0.
        4    1    3    3  502    0 -0.39202310246E+03 -0.35843638563E+03 -0.98675514596E+03  0.11206453883E+04  0.12699999809E+01 0. -1.
       -4    1    3    3    0  502  0.39202310246E+03  0.35843638563E+03 -0.20053380847E+03  0.56778004249E+03  0.12699999809E+01 0.  1.
</event>
<event>
 5   0  0.9298693E-04  0.1195496E+04  0.7818609E-02  0.9116808E-01
       -2   -1    0    0    0  501  0.00000000000E+00  0.00000000000E+00  0.20608570453E+03  0.20608570455E+03  0.25500000920E-02 0.  1.
        2   -1    0    0  501    0  0.00000000000E+00  0.00000000000E+00 -0.17337590006E+04  0.17337590006E+04  0.25500000920E-02 0. -1.
    10030    2    1    2    0    0  0.00000000000E+00  0.00000000000E+00 -0.15276732961E+04  0.19398447052E+04  0.11954964578E+04 0.  0.
        1    1    3    3  502    0  0.42981039268E+03  0.22825781370E+02 -0.14368747348E+04  0.14999556638E+04  0.50400001928E-02 0.  1.
       -1    1    3    3    0  502 -0.42981039268E+03 -0.22825781370E+02 -0.90798561330E+02  0.43988904137E+03  0.50400001928E-02 0. -1.
</event>
<event>
 5   0  0.3453625E-04  0.1197457E+04  0.7818609E-02  0.9115085E-01
        4   -1    0    0  501    0  0.00000000000E+00  0.00000000000E+00  0.40495866881E+03  0.40496066024E+03  0.12699999809E+01 0.  1.
       -4   -1    0    0    0  501  0.00000000000E+00  0.00000000000E+00 -0.88521125896E+03  0.88521216998E+03  0.12699999809E+01 0. -1.
    10030    2    1    2    0    0  0.00000000000E+00  0.00000000000E+00 -0.48025259015E+03  0.12901728302E+04  0.11974570479E+04 0.  0.
        3    1    3    3  502    0  0.13766949742E+03 -0.37999422373E+03  0.23580800325E+03  0.46792512776E+03  0.10100000352E+00 0.  1.
       -3    1    3    3    0  502 -0.13766949742E+03  0.37999422373E+03 -0.71606059340E+03  0.82224770247E+03  0.10100000352E+00 0. -1.
</event>
<event>
 5   0  0.9070772E-04  0.1196913E+04  0.7818609E-02  0.9115563E-01
        2   -1    0    0  501    0  0.00000000000E+00  0.00000000000E+00  0.15790221549E+04  0.15790221549E+04  0.25500000920E-02 0. -1.
       -2   -1    0    0    0  501  0.00000000000E+00  0.00000000000E+00 -0.22681780177E+03  0.22681780179E+03  0.25500000920E-02 0.  1.
    10030    2    1    2    0    0  0.00000000000E+00  0.00000000000E+00  0.13522043531E+04  0.18058399567E+04  0.11969132535E+04 0.  0.
        4    1    3    3  502    0  0.41340600809E+02 -0.24843876877E+02 -0.22387865519E+03  0.22901862074E+03  0.12699999809E+01 0.  1.
       -4    1    3    3    0  502 -0.41340600809E+02  0.24843876877E+02  0.15760830083E+04  0.15768213359E+04  0.12699999809E+01 0. -1.
</event>
<event>
 5   0  0.9050363E-04  0.1195566E+04  0.7818609E-02  0.9116747E-01
        2   -1    0    0  501    0  0.00000000000E+00  0.00000000000E+00  0.56808106023E+03  0.56808106024E+03  0.25500000920E-02 0.  1.
       -2   -1    0    0    0  501  0.00000000000E+00  0.00000000000E+00 -0.62903760433E+03  0.62903760433E+03  0.25500000920E-02 0. -1.
    10030    2    1    2    0    0  0.00000000000E+00  0.00000000000E+00 -0.60956544099E+02  0.11971186646E+04  0.11955657225E+04 0.  0.
        3    1    3    3  502    0  0.18204943577E+02 -0.45477151968E+03 -0.41853267726E+03  0.61831882327E+03  0.10100000352E+00 0. -1.
       -3    1    3    3    0  502 -0.18204943577E+02  0.45477151968E+03  0.35757613316E+03  0.57879984130E+03  0.10100000352E+00 0.  1.
</event>
<event>
 5   0  0.3453625E-04  0.1172508E+04  0.7818609E-02  0.9137266E-01
       -3   -1    0    0    0  501  0.00000000000E+00  0.00000000000E+00  0.11167693207E+04  0.11167693252E+04  0.10100000352E+00 0.  1.
        3   -1    0    0  501    0  0.00000000000E+00  0.00000000000E+00 -0.30775717272E+03  0.30775718930E+03  0.10100000352E+00 0. -1.
    10030    2    1    2    0    0  0.00000000000E+00  0.00000000000E+00  0.80901214796E+03  0.14245265145E+04  0.11725080533E+04 0.  0.
        1    1    3    3  502    0 -0.31386977775E+03 -0.11313864382E+03 -0.18116439047E+03  0.37965132228E+03  0.50400001928E-02 0. -1.
       -1    1    3    3    0  502  0.31386977775E+03  0.11313864382E+03  0.99017653843E+03  0.10448751923E+04  0.50400001928E-02 0.  1.
</event>
<event>
 5   0  0.3453625E-04  0.1184228E+04  0.7818609E-02  0.9126775E-01
        3   -1    0    0  501    0  0.00000000000E+00  0.00000000000E+00  0.16337896291E+04  0.16337896322E+04  0.10100000352E+00 0.  1.
       -3   -1    0    0    0  501  0.00000000000E+00  0.00000000000E+00 -0.21459255001E+03  0.21459257378E+03  0.10100000352E+00 0. -1.
    10030    2    1    2    0    0  0.00000000000E+00  0.00000000000E+00  0.14191970791E+04  0.18483822060E+04  0.11842282002E+04 0.  0.
        1    1    3    3  502    0 -0.46100516376E+03 -0.31945649070E+02  0.12874289193E+04  0.13678521513E+04  0.50400001928E-02 0.  1.
       -1    1    3    3    0  502  0.46100516376E+03  0.31945649070E+02  0.13176815976E+03  0.48053005469E+03  0.50400001928E-02 0. -1.
</event>
<event>
 5   0  0.5003507E-04  0.1200470E+04  0.7818609E-02  0.9112445E-01
       -1   -1    0    0    0  501  0.00000000000E+00  0.00000000000E+00  0.44583049283E+03  0.44583049286E+03  0.50400001928E-02 0. -1.
        1   -1    0    0  501    0  0.00000000000E+00  0.00000000000E+00 -0.80811450562E+03  0.80811450563E+03  0.50400001928E-02 0.  1.
    10030    2    1    2    0    0  0.00000000000E+00  0.00000000000E+00 -0.36228401279E+03  0.12539449985E+04  0.12004700552E+04 0.  0.
        3    1    3    3  502    0  0.41327128976E+03 -0.24802734714E+02  0.27281314663E+03  0.49581786753E+03  0.10100000352E+00 0. -1.
       -3    1    3    3    0  502 -0.41327128976E+03  0.24802734714E+02 -0.63509715942E+03  0.75812713096E+03  0.10100000352E+00 0.  1.
</event>
<event>
 5   0  0.9145224E-04  0.1197960E+04  0.7818609E-02  0.9114644E-01
        2   -1    0    0  501    0  0.00000000000E+00  0.00000000000E+00  0.15821063285E+04  0.15821063285E+04  0.25500000920E-02 0. -1.
       -2   -1    0    0    0  501  0.00000000000E+00  0.00000000000E+00 -0.22677169704E+03  0.22677169706E+03  0.25500000920E-02 0.  1.
    10030    2    1    2    0    0  0.00000000000E+00  0.00000000000E+00  0.13553346315E+04  0.18088780256E+04  0.11979598274E+04 0.  0.
        5    1    3    3  502    0 -0.43855816030E+03 -0.38319968720E+03  0.46638225553E+03  0.74612985365E+03  0.46999998093E+01 0.  1.
       -5    1    3    3    0  502  0.43855816030E+03  0.38319968720E+03  0.88895237595E+03  0.10627481719E+04  0.46999998093E+01 0. -1.
</event>
<event>
 5   0  0.5447074E-04  0.1199962E+04  0.7818609E-02  0.9112890E-01
       -1   -1    0    0    0  501  0.00000000000E+00  0.00000000000E+00  0.25057873717E+03  0.25057873722E+03  0.50400001928E-02 0. -1.
        1   -1    0    0  501    0  0.00000000000E+00  0.00000000000E+00 -0.14365824061E+04  0.14365824061E+04  0.50400001928E-02 0.  1.
    10030    2    1    2    0    0  0.00000000000E+00  0.00000000000E+00 -0.11860036689E+04  0.16871611433E+04  0.11999616747E+04 0.  0.
        4    1    3    3  502    0 -0.84954423979E+02 -0.34247280049E+03 -0.12752736952E+04  0.13231891338E+04  0.12699999809E+01 0.  1.
       -4    1    3    3    0  502  0.84954423979E+02  0.34247280049E+03  0.89270026278E+02  0.36397200953E+03  0.12699999809E+01 0. -1.
</event>
<event>
 5   0  0.9298693E-04  0.1194955E+04  0.7818609E-02  0.9117284E-01
        2   -1    0    0  501    0  0.00000000000E+00  0.00000000000E+00  0.63817266918E+03  0.63817266918E+03  0.25500000920E-02 0.  1.
       -2   -1    0    0    0  501  0.00000000000E+00  0.00000000000E+00 -0.55937769543E+03  0.55937769544E+03  0.25500000920E-02 0. -1.
    10030    2    1    2    0    0  0.00000000000E+00  0.00000000000E+00  0.78794973749E+02  0.11975503646E+04  0.11949553247E+04 0.  0.
        1    1    3    3  502    0 -0.47622042248E+03  0.38823682052E+02 -0.32011040129E+03  0.57512071612E+03  0.50400001928E-02 0. -1.
       -1    1    3    3    0  502  0.47622042248E+03 -0.38823682052E+02  0.39890537504E+03  0.62242964850E+03  0.50400001928E-02 0.  1.
</event>
<event>
 5   0  0.3453625E-04  0.1199163E+04  0.7818609E-02  0.9113589E-01
        3   -1    0    0  501    0  0.00000000000E+00  0.00000000000E+00  0.53429988249E+03  0.53429989204E+03  0.10100000352E+00 0. -1.
       -3   -1    0    0    0  501  0.00000000000E+00  0.00000000000E+00 -0.67283966826E+03  0.67283967584E+03  0.10100000352E+00 0.  1.
    10030    2    1    2    0    0  0.00000000000E+00  0.00000000000E+00 -0.13853978577E+03  0.12071395679E+04  0.11991633184E+04 0.  0.
        5    1    3    3  502    0 -0.22675829799E+03  0.55058171749E+03  0.13144171997E+01  0.59546903448E+03  0.46999998093E+01 0.  1.
       -5    1    3    3    0  502  0.22675829799E+03 -0.55058171749E+03 -0.13985420297E+03  0.61167053339E+03  0.46999998093E+01 0. -1.
</event>
<event>
 5   0  0.9410666E-04  0.1199365E+04  0.7818609E-02  0.9113412E-01
        2   -1    0    0  501    0  0.00000000000E+00  0.00000000000E+00  0.19078922942E+04  0.19078922942E+04  0.25500000920E-02 0. -1.
       -2   -1    0    0    0  501  0.00000000000E+00  0.00000000000E+00 -0.18849034199E+03  0.18849034201E+03  0.25500000920E-02 0.  1.
    10030    2    1    2    0    0  0.00000000000E+00  0.00000000000E+00  0.17194019522E+04  0.20963826362E+04  0.11993652839E+04 0.  0.
        2    1    3    3  502    0  0.46434477352E+03 -0.57854856890E+02  0.20416242182E+03  0.51053457048E+03  0.25500000920E-02 0.  1.
       -2    1    3    3    0  502 -0.46434477352E+03  0.57854856890E+02  0.15152395304E+04  0.15858480657E+04  0.25500000920E-02 0. -1.
</event>
<event>
 5   0  0.5157631E-04  0.1197093E+04  0.7818609E-02  0.9115405E-01
       -1   -1    0    0    0  501  0.00000000000E+00  0.00000000000E+00  0.68472777813E+03  0.68472777815E+03  0.50400001928E-02 0.  1.
        1   -1    0    0  501    0  0.00000000000E+00  0.00000000000E+00 -0.52321207881E+03  0.52321207883E+03  0.50400001928E-02 0. -1.
    10030    2    1    2    0    0  0.00000000000E+00  0.00000000000E+00  0.16151569932E+03  0.12079398570E+04  0.11970928857E+04 0.  0.
        5    1    3    3  502    0  0.40017576079E+03 -0.43361663218E+03 -0.20509517942E+02  0.59042929598E+03  0.46999998093E+01 0. -1.
       -5    1    3    3    0  502 -0.40017576079E+03  0.43361663218E+03  0.18202521726E+03  0.61751056100E+03  0.46999998093E+01 0.  1.
</event>
<event>
 5   0  0.9070772E-04  0.1194130E+04  0.7818609E-02  0.9118010E-01
        2   -1    0    0  501    0  0.00000000000E+00  0.00000000000E+00  0.52522349738E+03  0.52522349739E+03  0.25500000920E-02 0. -1.
       -2   -1    0    0    0  501  0.00000000000E+00  0.00000000000E+00 -0.67873320621E+03  0.67873320621E+03  0.25500000920E-02 0.  1.
    10030    2    1    2    0    0  0.00000000000E+00  0.00000000000E+00 -0.15350970883E+03  0.12039567036E+04  0.11941300237E+04 0.  0.
        4    1    3    3  502    0  0.27478656224E+03  0.12741608464E+03 -0.59552035424E+03  0.66812320617E+03  0.12699999809E+01 0.  1.
       -4    1    3    3    0  502 -0.27478656224E+03 -0.12741608464E+03  0.44201064541E+03  0.53583349743E+03  0.12699999809E+01 0. -1.
</event>
<event>
 5   0  0.9145224E-04  0.1200571E+04  0.7818609E-02  0.9112357E-01
        2   -1    0    0  501    0  0.00000000000E+00  0.00000000000E+00  0.98158172722E+03  0.98158172722E+03  0.25500000920E-02 0.  1.
       -2   -1    0    0    0  501  0.00000000000E+00  0.00000000000E+00 -0.36710403493E+03  0.36710403494E+03  0.25500000920E-02 0. -1.
    10030    2    1    2    0    0  0.00000000000E+00  0.00000000000E+00  0.61447769229E+03  0.13486857622E+04  0.12005708853E+04 0.  0.
        5    1    3    3  502    0  0.83516490846E+02  0.39759638632E+03 -0.18916202511E+03  0.44817658618E+03  0.46999998093E+01 0. -1.
       -5    1    3    3    0  502 -0.83516490846E+02 -0.39759638632E+03  0.80363971740E+03  0.90050917598E+03  0.46999998093E+01 0.  1.
</event>
<event>
 5   0  0.5447074E-04  0.1189396E+04  0.7818609E-02  0.9122189E-01
        1   -1    0    0  501    0  0.00000000000E+00  0.00000000000E+00  0.13237812724E+04  0.13237812724E+04  0.50400001928E-02 0. -1.
       -1   -1    0    0    0  501  0.00000000000E+00  0.00000000000E+00 -0.26716312241E+03  0.26716312246E+03  0.50400001928E-02 0.  1.
    10030    2    1    2    0    0  0.00000000000E+00  0.00000000000E+00  0.10566181500E+04  0.15909443949E+04  0.11893957090E+04 0.  0.
        4    1    3    3  502    0  0.28512262359E+03 -0.51624471101E+03  0.42591077415E+03  0.72746485315E+03  0.12699999809E+01 0. -1.
       -4    1    3    3    0  502 -0.28512262359E+03  0.51624471101E+03  0.63070737587E+03  0.86347954174E+03  0.12699999809E+01 0.  1.
</event>
<event>
 5   0  0.9050363E-04  0.1196905E+04  0.7818609E-02  0.9115570E-01
        2   -1    0    0  501    0  0.00000000000E+00  0.00000000000E+00  0.11455630384E+04  0.11455630384E+04  0.25500000920E-02 0.  1.
       -2   -1    0    0    0  501  0.00000000000E+00  0.00000000000E+00 -0.31263690398E+03  0.31263690399E+03  0.25500000920E-02 0. -1.
    10030    2    1    2    0    0  0.00000000000E+00  0.00000000000E+00  0.83292613440E+03  0.14581999424E+04  0.11969048110E+04 0.  0.
        3    1    3    3  502    0  0.58014477104E+03 -0.66504725223E+02  0.57603103213E+03  0.82024544742E+03  0.10100000352E+00 0.  1.
       -3    1    3    3    0  502 -0.58014477104E+03  0.66504725223E+02  0.25689510227E+03  0.63795449494E+03  0.10100000352E+00 0. -1.
</event>
<event>
 5   0  0.5157631E-04  0.1199504E+04  0.7818609E-02  0.9113291E-01
        1   -1    0    0  501    0  0.00000000000E+00  0.00000000000E+00  0.55557369184E+03  0.55557369186E+03  0.50400001928E-02 0.  1.
       -1   -1    0    0    0  501  0.00000000000E+00  0.00000000000E+00 -0.64744323351E+03  0.64744323353E+03  0.50400001928E-02 0. -1.
    10030    2    1    2    0    0  0.00000000000E+00  0.00000000000E+00 -0.91869541673E+02  0.12030169254E+04  0.11995039433E+04 0.  0.
        5    1    3    3  502    0 -0.53357038372E+02  0.32446028510E+03 -0.54896014190E+03  0.63992247776E+03  0.46999998093E+01 0. -1.
       -5    1    3    3    0  502  0.53357038372E+02 -0.32446028510E+03  0.45709060022E+03  0.56309444764E+03  0.46999998093E+01 0.  1.
</event>
<event>
 5   0  0.5003507E-04  0.1196924E+04  0.7818609E-02  0.9115554E-01
        1   -1    0    0  501    0  0.00000000000E+00  0.00000000000E+00  0.93707808106E+03  0.93707808107E+03  0.50400001928E-02 0.  1.
       -1   -1    0    0    0  501  0.00000000000E+00  0.00000000000E+00 -0.38220559073E+03  0.38220559076E+03  0.50400001928E-02 0. -1.
    10030    2    1    2    0    0  0.00000000000E+00  0.00000000000E+00  0.55487249033E+03  0.13192836718E+04  0.11969235256E+04 0.  0.
        3    1    3    3  502    0 -0.40800834816E+02  0.57657263151E+03  0.44839106907E+03  0.73154307361E+03  0.10100000352E+00 0.  1.
       -3    1    3    3    0  502  0.40800834816E+02 -0.57657263151E+03  0.10648142126E+03  0.58774059822E+03  0.10100000352E+00 0. -1.
</event>
<event>
 5   0  0.5003507E-04  0.1190270E+04  0.7818609E-02  0.9121416E-01
        1   -1    0    0  501    0  0.00000000000E+00  0.00000000000E+00  0.83489140879E+03  0.83489140880E+03  0.50400001928E-02 0. -1.
       -1   -1    0    0    0  501  0.00000000000E+00  0.00000000000E+00 -0.42422962121E+03  0.42422962124E+03  0.50400001928E-02 0.  1.
    10030    2    1    2    0    0  0.00000000000E+00  0.00000000000E+00  0.41066178758E+03  0.12591210300E+04  0.11902699965E+04 0.  0.
        3    1    3    3  502    0 -0.17306271564E+03 -0.21377922457E+03  0.76362189544E+03  0.81164688738E+03  0.10100000352E+00 0. -1.
       -3    1    3    3    0  502  0.17306271564E+03  0.21377922457E+03 -0.35296010786E+03  0.44747414266E+03  0.10100000352E+00 0.  1.
</event>
<event>
 5   0  0.5001586E-04  0.1193123E+04  0.7818609E-02  0.9118898E-01
       -1   -1    0    0    0  501  0.00000000000E+00  0.00000000000E+00  0.71041431073E+03  0.71041431075E+03  0.50400001928E-02 0.  1.
        1   -1    0    0  501    0  0.00000000000E+00  0.00000000000E+00 -0.50095471201E+03  0.50095471204E+03  0.50400001928E-02 0. -1.
    10030    2    1    2    0    0  0.00000000000E+00  0.00000000000E+00  0.20945959872E+03  0.12113690228E+04  0.11931226198E+04 0.  0.
        1    1    3    3  502    0  0.31740078726E+03  0.35671760601E+03 -0.25836299868E+03  0.54290160186E+03  0.50400001928E-02 0. -1.
       -1    1    3    3    0  502 -0.31740078726E+03 -0.35671760601E+03  0.46782259740E+03  0.66846742093E+03  0.50400001928E-02 0.  1.
</event>
<event>
 5   0  0.9050363E-04  0.1201537E+04  0.7818609E-02  0.9111512E-01
        2   -1    0    0  501    0  0.00000000000E+00  0.00000000000E+00  0.59460705990E+03  0.59460705990E+03  0.25500000920E-02 0. -1.
       -2   -1    0    0    0  501  0.00000000000E+00  0.00000000000E+00 -0.60699366932E+03  0.60699366932E+03  0.25500000920E-02 0.  1.
    10030    2    1    2    0    0  0.00000000000E+00  0.00000000000E+00 -0.12386609420E+02  0.12016007292E+04  0.12015368843E+04 0.  0.
        3    1    3    3  502    0 -0.45778834539E+03  0.23593795818E+02 -0.39453838365E+03  0.60480359022E+03  0.10100000352E+00 0.  1.
       -3    1    3    3    0  502  0.45778834539E+03 -0.23593795818E+02  0.38215177423E+03  0.59679713900E+03  0.10100000352E+00 0. -1.
</event>
<event>
 5   0  0.3453625E-04  0.1193013E+04  0.7818609E-02  0.9118995E-01
        3   -1    0    0  501    0  0.00000000000E+00  0.00000000000E+00  0.80196424046E+03  0.80196424682E+03  0.10100000352E+00 0.  1.
       -3   -1    0    0    0  501  0.00000000000E+00  0.00000000000E+00 -0.44368526509E+03  0.44368527659E+03  0.10100000352E+00 0. -1.
    10030    2    1    2    0    0  0.00000000000E+00  0.00000000000E+00  0.35827897537E+03  0.12456495234E+04  0.11930125360E+04 0.  0.
        4    1    3    3  502    0  0.70891149649E+02  0.27865889064E+03 -0.36654917206E+03  0.46587148536E+03  0.12699999809E+01 0. -1.
       -4    1    3    3    0  502 -0.70891149649E+02 -0.27865889064E+03  0.72482814742E+03  0.77977803805E+03  0.12699999809E+01 0.  1.
</event>
<event>
 5   0  0.9050363E-04  0.1212248E+04  0.7818609E-02  0.9102203E-01
        2   -1    0    0  501    0  0.00000000000E+00  0.00000000000E+00  0.18265724004E+04  0.18265724004E+04  0.25500000920E-02 0. -1.
       -2   -1    0    0    0  501  0.00000000000E+00  0.00000000000E+00 -0.20113412281E+03  0.20113412282E+03  0.25500000920E-02 0.  1.
    10030    2    1    2    0    0  0.00000000000E+00  0.00000000000E+00  0.16254382776E+04  0.20277065232E+04  0.12122475614E+04 0.  0.
        3    1    3    3  502    0  0.12889141327E+03 -0.42214676789E+03  0.15075679355E+04  0.15708539017E+04  0.10100000352E+00 0. -1.
       -3    1    3    3    0  502 -0.12889141327E+03  0.42214676789E+03  0.11787034206E+03  0.45685262152E+03  0.10100000352E+00 0.  1.
</event>
<event>
 5   0  0.9145224E-04  0.1204229E+04  0.7818609E-02  0.9109163E-01
       -2   -1    0    0    0  501  0.00000000000E+00  0.00000000000E+00  0.13931939599E+04  0.13931939599E+04  0.25500000920E-02 0.  1.
        2   -1    0    0  501    0  0.00000000000E+00  0.00000000000E+00 -0.26022341507E+03  0.26022341508E+03  0.25500000920E-02 0. -1.
    10030    2    1    2    0    0  0.00000000000E+00  0.00000000000E+00  0.11329705448E+04  0.16534173749E+04  0.12042286994E+04 0.  0.
        5    1    3    3  502    0  0.20834927278E+03 -0.12733247508E+03  0.13221353625E+04  0.13445025049E+04  0.46999998093E+01 0.  1.
       -5    1    3    3    0  502 -0.20834927278E+03  0.12733247508E+03 -0.18916481776E+03  0.30891487008E+03  0.46999998093E+01 0. -1.
</event>
<event>
 5   0  0.5052959E-04  0.1201146E+04  0.7818609E-02  0.9111854E-01
        1   -1    0    0  501    0  0.00000000000E+00  0.00000000000E+00  0.88897988328E+03  0.88897988329E+03  0.50400001928E-02 0. -1.
       -1   -1    0    0    0  501  0.00000000000E+00  0.00000000000E+00 -0.40573223445E+03  0.40573223448E+03  0.50400001928E-02 0.  1.
    10030    2    1    2    0    0  0.00000000000E+00  0.00000000000E+00  0.48324764883E+03  0.12947121178E+04  0.12011457771E+04 0.  0.
        2    1    3    3  502    0 -0.42046491061E+03  0.42833728992E+03  0.21942281173E+03  0.63906959348E+03  0.25500000920E-02 0.  1.
       -2    1    3    3    0  502  0.42046491061E+03 -0.42833728992E+03  0.26382483709E+03  0.65564252430E+03  0.25500000920E-02 0. -1.
</event>
<event>
 5   0  0.5447074E-04  0.1202713E+04  0.7818609E-02  0.9110485E-01
       -1   -1    0    0    0  501  0.00000000000E+00  0.00000000000E+00  0.82202633457E+03  0.82202633459E+03  0.50400001928E-02 0. -1.
        1   -1    0    0  501    0  0.00000000000E+00  0.00000000000E+00 -0.43992470527E+03  0.43992470530E+03  0.50400001928E-02 0.  1.
    10030    2    1    2    0    0  0.00000000000E+00  0.00000000000E+00  0.38210162930E+03  0.12619510399E+04  0.12027130880E+04 0.  0.
        4    1    3    3  502    0  0.44298497929E+03 -0.29805225863E+03  0.48136857243E+03  0.71887979258E+03  0.12699999809E+01 0. -1.
       -4    1    3    3    0  502 -0.44298497929E+03  0.29805225863E+03 -0.99266943123E+02  0.54307124731E+03  0.12699999809E+01 0.  1.
</event>
<event>
 5   0  0.9410666E-04  0.1199347E+04  0.7818609E-02  0.9113429E-01
       -2   -1    0    0    0  501  0.00000000000E+00  0.00000000000E+00  0.43447887938E+03  0.43447887939E+03  0.25500000920E-02 0. -1.
        2   -1    0    0  501    0  0.00000000000E+00  0.00000000000E+00 -0.82767694589E+03  0.82767694589E+03  0.25500000920E-02 0.  1.
    10030    2    1    2    0    0  0.00000000000E+00  0.00000000000E+00 -0.39319806650E+03  0.12621558253E+04  0.11993467421E+04 0.  0.
        2    1    3    3  502    0  0.31407983472E+03  0.42522099555E+03 -0.49453132690E+03  0.72389244431E+03  0.25500000920E-02 0.  1.
       -2    1    3    3    0  502 -0.31407983472E+03 -0.42522099555E+03  0.10133326039E+03  0.53826338098E+03  0.25500000920E-02 0. -1.
</event>
<event>
 5   0  0.9050363E-04  0.1186425E+04  0.7818609E-02  0.9124823E-01
        2   -1    0    0  501    0  0.00000000000E+00  0.00000000000E+00  0.13345953222E+04  0.13345953222E+04  0.25500000920E-02 0. -1.
       -2   -1    0    0    0  501  0.00000000000E+00  0.00000000000E+00 -0.26367611691E+03  0.26367611692E+03  0.25500000920E-02 0.  1.
    10030    2    1    2    0    0  0.00000000000E+00  0.00000000000E+00  0.10709192053E+04  0.15982714392E+04  0.11864247338E+04 0.  0.
        3    1    3    3  502    0 -0.25653633992E+03  0.36292348719E+03  0.10647585294E+04  0.11537916135E+04  0.10100000352E+00 0. -1.
       -3    1    3    3    0  502  0.25653633992E+03 -0.36292348719E+03  0.61606758756E+01  0.44447982561E+03  0.10100000352E+00 0.  1.
</event>
<event>
 5   0  0.5001586E-04  0.1202938E+04  0.7818609E-02  0.9110289E-01
        1   -1    0    0  501    0  0.00000000000E+00  0.00000000000E+00  0.13531135984E+04  0.13531135984E+04  0.50400001928E-02 0.  1.
       -1   -1    0    0    0  501  0.00000000000E+00  0.00000000000E+00 -0.26735753364E+03  0.26735753369E+03  0.50400001928E-02 0. -1.
    10030    2    1    2    0    0  0.00000000000E+00  0.00000000000E+00  0.10857560648E+04  0.16204711321E+04  0.12029382602E+04 0.  0.
        1    1    3    3  502    0 -0.56244304414E+03  0.17040330181E+03  0.37044128822E+03  0.69469864777E+03  0.50400001928E-02 0. -1.
       -1    1    3    3    0  502  0.56244304414E+03 -0.17040330181E+03  0.71531477654E+03  0.92577248432E+03  0.50400001928E-02 0.  1.
</event>
<event>
 5   0  0.9145224E-04  0.1204121E+04  0.7818609E-02  0.9109257E-01
        2   -1    0    0  501    0  0.00000000000E+00  0.00000000000E+00  0.48957268839E+03  0.48957268840E+03  0.25500000920E-02 0. -1.
       -2   -1    0    0    0  501  0.00000000000E+00  0.00000000000E+00 -0.74039441783E+03  0.74039441783E+03  0.25500000920E-02 0.  1.
    10030    2    1    2    0    0  0.00000000000E+00  0.00000000000E+00 -0.25082172944E+03  0.12299671062E+04  0.12041210664E+04 0.  0.
        5    1    3    3  502    0 -0.75558475176E+02 -0.39427229425E+02 -0.73418255026E+03  0.73912765927E+03  0.46999998093E+01 0.  1.
       -5    1    3    3    0  502  0.75558475176E+02  0.39427229425E+02  0.48336082082E+03  0.49083944696E+03  0.46999998093E+01 0. -1.
</event>
<event>
 5   0  0.5447074E-04  0.1200484E+04  0.7818609E-02  0.9112433E-01
       -1   -1    0    0    0  501  0.00000000000E+00  0.00000000000E+00  0.90464849940E+03  0.90464849942E+03  0.50400001928E-02 0.  1.
        1   -1    0    0  501    0  0.00000000000E+00  0.00000000000E+00 -0.39826554376E+03  0.39826554379E+03  0.50400001928E-02 0. -1.
    10030    2    1    2    0    0  0.00000000000E+00  0.00000000000E+00  0.50638295565E+03  0.13029140432E+04  0.12004837801E+04 0.  0.
        4    1    3    3  502    0 -0.35215411413E+03  0.41256439191E+03 -0.25774446371E+02  0.54303575624E+03  0.12699999809E+01 0. -1.
       -4    1    3    3    0  502  0.35215411413E+03 -0.41256439191E+03  0.53215740202E+03  0.75987828696E+03  0.12699999809E+01 0.  1.
</event>
<event>
 5   0  0.5157631E-04  0.1188480E+04  0.7818609E-02  0.9123000E-01
       -1   -1    0    0    0  501  0.00000000000E+00  0.00000000000E+00  0.92765308276E+03  0.92765308277E+03  0.50400001928E-02 0. -1.
        1   -1    0    0  501    0  0.00000000000E+00  0.00000000000E+00 -0.38066081606E+03  0.38066081609E+03  0.50400001928E-02 0.  1.
    10030    2    1    2    0    0  0.00000000000E+00  0.00000000000E+00  0.54699226670E+03  0.13083138989E+04  0.11884800033E+04 0.  0.
        5    1    3    3  502    0  0.13001856487E+03  0.96098265287E+02 -0.35596219002E+03  0.39098705161E+03  0.46999998093E+01 0.  1.
       -5    1    3    3    0  502 -0.13001856487E+03 -0.96098265287E+02  0.90295445672E+03  0.91732684726E+03  0.46999998093E+01 0. -1.
</event>
<event>
 5   0  0.9410666E-04  0.1202768E+04  0.7818609E-02  0.9110437E-01
       -2   -1    0    0    0  501  0.00000000000E+00  0.00000000000E+00  0.13042254660E+04  0.13042254660E+04  0.25500000920E-02 0.  1.
        2   -1    0    0  501    0  0.00000000000E+00  0.00000000000E+00 -0.27730081728E+03  0.27730081729E+03  0.25500000920E-02 0. -1.
    10030    2    1    2    0    0  0.00000000000E+00  0.00000000000E+00  0.10269246488E+04  0.15815262833E+04  0.12027681201E+04 0.  0.
        2    1    3    3  502    0 -0.89995929606E+02  0.24195696272E+03 -0.20073873702E+03  0.32701449464E+03  0.25500000920E-02 0. -1.
       -2    1    3    3    0  502  0.89995929606E+02 -0.24195696272E+03  0.12276633858E+04  0.12545117887E+04  0.25500000920E-02 0.  1.
</event>
<event>
 5   0  0.5001586E-04  0.1200814E+04  0.7818609E-02  0.9112145E-01
        1   -1    0    0  501    0  0.00000000000E+00  0.00000000000E+00  0.55206048862E+03  0.55206048864E+03  0.50400001928E-02 0.  1.
       -1   -1    0    0    0  501  0.00000000000E+00  0.00000000000E+00 -0.65298693712E+03  0.65298693714E+03  0.50400001928E-02 0. -1.
    10030    2    1    2    0    0  0.00000000000E+00  0.00000000000E+00 -0.10092644850E+03  0.12050474258E+04  0.12008135369E+04 0.  0.
        1    1    3    3  502    0 -0.19572933538E+03  0.48105909748E+01  0.51912515332E+03  0.55481892483E+03  0.50400001928E-02 0.  1.
       -1    1    3    3    0  502  0.19572933538E+03 -0.48105909748E+01 -0.62005160182E+03  0.65022850095E+03  0.50400001928E-02 0. -1.
</event>
<event>
 5   0  0.5052959E-04  0.1198706E+04  0.7818609E-02  0.9113990E-01
       -1   -1    0    0    0  501  0.00000000000E+00  0.00000000000E+00  0.26727981669E+03  0.26727981673E+03  0.50400001928E-02 0. -1.
        1   -1    0    0  501    0  0.00000000000E+00  0.00000000000E+00 -0.13439999089E+04  0.13439999090E+04  0.50400001928E-02 0.  1.
    10030    2    1    2    0    0  0.00000000000E+00  0.00000000000E+00 -0.10767200923E+04  0.16112797257E+04  0.11987060513E+04 0.  0.
        2    1    3    3  502    0  0.59907409871E+03 -0.35269765998E+01 -0.56247432175E+03  0.82175396436E+03  0.25500000920E-02 0.  1.
       -2    1    3    3    0  502 -0.59907409871E+03  0.35269765998E+01 -0.51424577051E+03  0.78952576133E+03  0.25500000920E-02 0. -1.
</event>
<event>
 5   0  0.9145224E-04  0.1188478E+04  0.7818609E-02  0.9123002E-01
       -2   -1    0    0    0  501  0.00000000000E+00  0.00000000000E+00  0.59322794852E+03  0.59322794852E+03  0.25500000920E-02 0. -1.
        2   -1    0    0  501    0  0.00000000000E+00  0.00000000000E+00 -0.59525175248E+03  0.59525175249E+03  0.25500000920E-02 0.  1.
    10030    2    1    2    0    0  0.00000000000E+00  0.00000000000E+00 -0.20238039632E+01  0.11884797010E+04  0.11884779779E+04 0.  0.
        5    1    3    3  502    0 -0.51292295118E+02  0.38287439538E+03 -0.45253684590E+03  0.59500873025E+03  0.46999998093E+01 0.  1.
       -5    1    3    3    0  502  0.51292295118E+02 -0.38287439538E+03  0.45051304194E+03  0.59347097076E+03  0.46999998093E+01 0. -1.
</event>
<event>
 5   0  0.9070772E-04  0.1200213E+04  0.7818609E-02  0.9112670E-01
        2   -1    0    0  501    0  0.00000000000E+00  0.00000000000E+00  0.16203559995E+04  0.16203559995E+04  0.25500000920E-02 0. -1.
       -2   -1    0    0    0  501  0.00000000000E+00  0.00000000000E+00 -0.22225218591E+03  0.22225218592E+03  0.25500000920E-02 0.  1.
    10030    2    1    2    0    0  0.00000000000E+00  0.00000000000E+00  0.13981038136E+04  0.18426081855E+04  0.12002127526E+04 0.  0.
        4    1    3    3  502    0  0.47559227205E+03  0.31775196479E+03  0.97782164291E+03  0.11328243900E+04  0.12699999809E+01 0.  1.
       -4    1    3    3    0  502 -0.47559227205E+03 -0.31775196479E+03  0.42028217073E+03  0.70978379546E+03  0.12699999809E+01 0. -1.
</event>
<event>
 5   0  0.5052959E-04  0.1184886E+04  0.7818609E-02  0.9126190E-01
       -1   -1    0    0    0  501  0.00000000000E+00  0.00000000000E+00  0.80782565842E+03  0.80782565844E+03  0.50400001928E-02 0. -1.
        1   -1    0    0  501    0  0.00000000000E+00  0.00000000000E+00 -0.43448555005E+03  0.43448555008E+03  0.50400001928E-02 0.  1.
    10030    2    1    2    0    0  0.00000000000E+00  0.00000000000E+00  0.37334010837E+03  0.12423112085E+04  0.11848857761E+04 0.  0.
        2    1    3    3  502    0 -0.41302451153E+03 -0.41030011026E+03  0.30177769726E+03  0.65574782209E+03  0.25500000920E-02 0.  1.
       -2    1    3    3    0  502  0.41302451153E+03  0.41030011026E+03  0.71562411113E+02  0.58656338643E+03  0.25500000920E-02 0. -1.
</event>
<event>
 5   0  0.5003507E-04  0.1206259E+04  0.7818609E-02  0.9107396E-01
       -1   -1    0    0    0  501  0.00000000000E+00  0.00000000000E+00  0.20390618450E+03  0.20390618456E+03  0.50400001928E-02 0. -1.
        1   -1    0    0  501    0  0.00000000000E+00  0.00000000000E+00 -0.17839834329E+04  0.17839834329E+04  0.50400001928E-02 0.  1.
    10030    2    1    2    0    0  0.00000000000E+00  0.00000000000E+00 -0.15800772484E+04  0.19878896174E+04  0.12062591016E+04 0.  0.
        3    1    3    3  502    0 -0.90300188367E+02  0.29971613340E+03 -0.16396374862E+04  0.16692498259E+04  0.10100000352E+00 0.  1.
       -3    1    3    3    0  502  0.90300188367E+02 -0.29971613340E+03  0.59560237871E+02  0.31863979158E+03  0.10100000352E+00 0. -1.
</event>
<event>
 5   0  0.5052959E-04  0.1197154E+04  0.7818609E-02  0.9115351E-01
       -1   -1    0    0    0  501  0.00000000000E+00  0.00000000000E+00  0.42976246022E+03  0.42976246025E+03  0.50400001928E-02 0.  1.
        1   -1    0    0  501    0  0.00000000000E+00  0.00000000000E+00 -0.83370359115E+03  0.83370359116E+03  0.50400001928E-02 0. -1.
    10030    2    1    2    0    0  0.00000000000E+00  0.00000000000E+00 -0.40394113092E+03  0.12634660514E+04  0.11971541362E+04 0.  0.
        2    1    3    3  502    0 -0.28151143263E+03  0.46500560431E+03  0.62542598095E+02  0.54716585723E+03  0.25500000920E-02 0.  1.
       -2    1    3    3    0  502  0.28151143263E+03 -0.46500560431E+03 -0.46648372902E+03  0.71630019418E+03  0.25500000920E-02 0. -1.
</event>
<event>
 5   0  0.9050363E-04  0.1195487E+04  0.7818609E-02  0.9116816E-01
       -2   -1    0    0    0  501  0.00000000000E+00  0.00000000000E+00  0.26385878507E+03  0.26385878508E+03  0.25500000920E-02 0.  1.
        2   -1    0    0  501    0  0.00000000000E+00  0.00000000000E+00 -0.13541231131E+04  0.13541231131E+04  0.25500000920E-02 0. -1.
    10030    2    1    2    0    0  0.00000000000E+00  0.00000000000E+00 -0.10902643281E+04  0.16179818982E+04  0.11954869794E+04 0.  0.
        3    1    3    3  502    0  0.20980984392E+03  0.55484293709E+03 -0.64482989254E+03  0.87617147634E+03  0.10100000352E+00 0. -1.
       -3    1    3    3    0  502 -0.20980984392E+03 -0.55484293709E+03 -0.44543443551E+03  0.74181042186E+03  0.10100000352E+00 0.  1.
</event>
<event>
 5   0  0.5157631E-04  0.1202154E+04  0.7818609E-02  0.9110973E-01
        1   -1    0    0  501    0  0.00000000000E+00  0.00000000000E+00  0.50021131970E+03  0.50021131972E+03  0.50400001928E-02 0.  1.
       -1   -1    0    0    0  501  0.00000000000E+00  0.00000000000E+00 -0.72228205277E+03  0.72228205279E+03  0.50400001928E-02 0. -1.
    10030    2    1    2    0    0  0.00000000000E+00  0.00000000000E+00 -0.22207073307E+03  0.12224933725E+04  0.12021541645E+04 0.  0.
        5    1    3    3  502    0 -0.18051883353E+02 -0.38978284005E+03  0.35388129724E+03  0.52679274428E+03  0.46999998093E+01 0.  1.
       -5    1    3    3    0  502  0.18051883353E+02  0.38978284005E+03 -0.57595203032E+03  0.69570062823E+03  0.46999998093E+01 0. -1.
</event>
<event>
 5   0  0.5447074E-04  0.1203990E+04  0.7818609E-02  0.9109372E-01
       -1   -1    0    0    0  501  0.00000000000E+00  0.00000000000E+00  0.46114102757E+03  0.46114102760E+03  0.50400001928E-02 0.  1.
        1   -1    0    0  501    0  0.00000000000E+00  0.00000000000E+00 -0.78587190698E+03  0.78587190700E+03  0.50400001928E-02 0. -1.
    10030    2    1    2    0    0  0.00000000000E+00  0.00000000000E+00 -0.32473087941E+03  0.12470129346E+04  0.12039896657E+04 0.  0.
        4    1    3    3  502    0  0.27183978001E+03 -0.53357003809E+03 -0.22623180582E+03  0.64013771518E+03  0.12699999809E+01 0. -1.
       -4    1    3    3    0  502 -0.27183978001E+03  0.53357003809E+03 -0.98499073597E+02  0.60687521941E+03  0.12699999809E+01 0.  1.
</event>
<event>
 5   0  0.5003507E-04  0.1192009E+04  0.7818609E-02  0.9119880E-01
       -1   -1    0    0    0  501  0.00000000000E+00  0.00000000000E+00  0.11946847649E+04  0.11946847650E+04  0.50400001928E-02 0. -1.
        1   -1    0    0  501    0  0.00000000000E+00  0.00000000000E+00 -0.29733496590E+03  0.29733496594E+03  0.50400001928E-02 0.  1.
    10030    2    1    2    0    0  0.00000000000E+00  0.00000000000E+00  0.89734979905E+03  0.14920197309E+04  0.11920093186E+04 0.  0.
        3    1    3    3  502    0 -0.75090468034E+02  0.46601041344E+03 -0.68029003969E+01  0.47207051749E+03  0.10100000352E+00 0.  1.
       -3    1    3    3    0  502  0.75090468034E+02 -0.46601041344E+03  0.90415269944E+03  0.10199492134E+04  0.10100000352E+00 0. -1.
</event>
<event>
 5   0  0.9298693E-04  0.1197452E+04  0.7818609E-02  0.9115090E-01
       -2   -1    0    0    0  501  0.00000000000E+00  0.00000000000E+00  0.23438195838E+03  0.23438195839E+03  0.25500000920E-02 0. -1.
        2   -1    0    0  501    0  0.00000000000E+00  0.00000000000E+00 -0.15294387671E+04  0.15294387671E+04  0.25500000920E-02 0.  1.
    10030    2    1    2    0    0  0.00000000000E+00  0.00000000000E+00 -0.12950568087E+04  0.17638207255E+04  0.11974520508E+04 0.  0.
        1    1    3    3  502    0  0.43635578647E+03 -0.40876720030E+03 -0.60151446626E+03  0.84812537373E+03  0.50400001928E-02 0.  1.
       -1    1    3    3    0  502 -0.43635578647E+03  0.40876720030E+03 -0.69354234245E+03  0.91569535175E+03  0.50400001928E-02 0. -1.
</event>
<event>
 5   0  0.5001586E-04  0.1199227E+04  0.7818609E-02  0.9113533E-01
        1   -1    0    0  501    0  0.00000000000E+00  0.00000000000E+00  0.22343572568E+04  0.22343572568E+04  0.50400001928E-02 0. -1.
       -1   -1    0    0    0  501  0.00000000000E+00  0.00000000000E+00 -0.16091278319E+03  0.16091278327E+03  0.50400001928E-02 0.  1.
    10030    2    1    2    0    0  0.00000000000E+00  0.00000000000E+00  0.20734444736E+04  0.23952700401E+04  0.11992274929E+04 0.  0.
        1    1    3    3  502    0 -0.11309621238E+03  0.52920947120E+03  0.52094614026E+03  0.75115797190E+03  0.50400001928E-02 0.  1.
       -1    1    3    3    0  502  0.11309621238E+03 -0.52920947120E+03  0.15524983334E+04  0.16441120682E+04  0.50400001928E-02 0. -1.
</event>
<event>
 5   0  0.9050363E-04  0.1198652E+04  0.7818609E-02  0.9114037E-01
       -2   -1    0    0    0  501  0.00000000000E+00  0.00000000000E+00  0.23367302025E+03  0.23367302026E+03  0.25500000920E-02 0. -1.
        2   -1    0    0  501    0  0.00000000000E+00  0.00000000000E+00 -0.15371558036E+04  0.15371558036E+04  0.25500000920E-02 0.  1.
    10030    2    1    2    0    0  0.00000000000E+00  0.00000000000E+00 -0.13034827834E+04  0.17708288239E+04  0.11986523086E+04 0.  0.
        3    1    3    3  502    0 -0.21153676115E+03  0.45426905006E+03 -0.16604668175E+03  0.52790120466E+03  0.10100000352E+00 0.  1.
       -3    1    3    3    0  502  0.21153676115E+03 -0.45426905006E+03 -0.11374361016E+04  0.12429276192E+04  0.10100000352E+00 0. -1.
</event>
<event>
 5   0  0.9050363E-04  0.1196420E+04  0.7818609E-02  0.9115996E-01
       -2   -1    0    0    0  501  0.00000000000E+00  0.00000000000E+00  0.44963202017E+03  0.44963202018E+03  0.25500000920E-02 0.  1.
        2   -1    0    0  501    0  0.00000000000E+00  0.00000000000E+00 -0.79588499182E+03  0.79588499183E+03  0.25500000920E-02 0. -1.
    10030    2    1    2    0    0  0.00000000000E+00  0.00000000000E+00 -0.34625297165E+03  0.12455170120E+04  0.11964202885E+04 0.  0.
        3    1    3    3  502    0 -0.79501509035E+02 -0.37744572002E+03 -0.64913129890E+03  0.75508755447E+03  0.10100000352E+00 0. -1.
       -3    1    3    3    0  502  0.79501509035E+02  0.37744572002E+03  0.30287832724E+03  0.49042945753E+03  0.10100000352E+00 0.  1.
</event>
<event>
 5   0  0.9070772E-04  0.1203593E+04  0.7818609E-02  0.9109717E-01
        2   -1    0    0  501    0  0.00000000000E+00  0.00000000000E+00  0.61388439157E+03  0.61388439157E+03  0.25500000920E-02 0.  1.
       -2   -1    0    0    0  501  0.00000000000E+00  0.00000000000E+00 -0.58994695423E+03  0.58994695423E+03  0.25500000920E-02 0. -1.
    10030    2    1    2    0    0  0.00000000000E+00  0.00000000000E+00  0.23937437342E+02  0.12038313458E+04  0.12035933318E+04 0.  0.
        4    1    3    3  502    0 -0.12060252968E+03 -0.96099692102E+02  0.59378598952E+03  0.61348474735E+03  0.12699999809E+01 0.  1.
       -4    1    3    3    0  502  0.12060252968E+03  0.96099692102E+02 -0.56984855217E+03  0.59034659845E+03  0.12699999809E+01 0. -1.
</event>
<event>
 5   0  0.5003507E-04  0.1202244E+04  0.7818609E-02  0.9110895E-01
        1   -1    0    0  501    0  0.00000000000E+00  0.00000000000E+00  0.70363722942E+03  0.70363722943E+03  0.50400001928E-02 0.  1.
       -1   -1    0    0    0  501  0.00000000000E+00  0.00000000000E+00 -0.51354257252E+03  0.51354257255E+03  0.50400001928E-02 0. -1.
    10030    2    1    2    0    0  0.00000000000E+00  0.00000000000E+00  0.19009465689E+03  0.12171798020E+04  0.12022440234E+04 0.  0.
        3    1    3    3  502    0 -0.25620348001E+03  0.31266430205E+02  0.64468206457E+03  0.69442982900E+03  0.10100000352E+00 0.  1.
       -3    1    3    3    0  502  0.25620348001E+03 -0.31266430205E+02 -0.45458740768E+03  0.52274997298E+03  0.10100000352E+00 0. -1.
</event>
<event>
 5   0  0.9070772E-04  0.1199511E+04  0.7818609E-02  0.9113285E-01
       -2   -1    0    0    0  501  0.00000000000E+00  0.00000000000E+00  0.76905649475E+03  0.76905649476E+03  0.25500000920E-02 0. -1.
        2   -1    0    0  501    0  0.00000000000E+00  0.00000000000E+00 -0.46772437297E+03  0.46772437298E+03  0.25500000920E-02 0.  1.
    10030    2    1    2    0    0  0.00000000000E+00  0.00000000000E+00  0.30133212178E+03  0.12367808677E+04  0.11995106782E+04 0.  0.
        4    1    3    3  502    0 -0.32230775917E+03 -0.46818189735E+03 -0.46665641520E+02  0.57031208617E+03  0.12699999809E+01 0.  1.
       -4    1    3    3    0  502  0.32230775917E+03  0.46818189735E+03  0.34799776330E+03  0.66646878156E+03  0.12699999809E+01 0. -1.
</event>
<event>
 5   0  0.5157631E-04  0.1197393E+04  0.7818609E-02  0.9115141E-01
        1   -1    0    0  501    0  0.00000000000E+00  0.00000000000E+00  0.35800696909E+03  0.35800696913E+03  0.50400001928E-02 0. -1.
       -1   -1    0    0    0  501  0.00000000000E+00  0.00000000000E+00 -0.10012026588E+04  0.10012026588E+04  0.50400001928E-02 0.  1.
    10030    2    1    2    0    0  0.00000000000E+00  0.00000000000E+00 -0.64319568966E+03  0.13592096279E+04  0.11973930505E+04 0.  0.
        5    1    3    3  502    0  0.18247065530E+03  0.39858739118E+03 -0.78443467623E+03  0.89862522762E+03  0.46999998093E+01 0.  1.
       -5    1    3    3    0  502 -0.18247065530E+03 -0.39858739118E+03  0.14123898657E+03  0.46058440028E+03  0.46999998093E+01 0. -1.
</event>
<event>
 5   0  0.9298693E-04  0.1204535E+04  0.7818609E-02  0.9108896E-01
       -2   -1    0    0    0  501  0.00000000000E+00  0.00000000000E+00  0.33060141692E+03  0.33060141692E+03  0.25500000920E-02 0. -1.
        2   -1    0    0  501    0  0.00000000000E+00  0.00000000000E+00 -0.10971703576E+04  0.10971703576E+04  0.25500000920E-02 0.  1.
    10030    2    1    2    0    0  0.00000000000E+00  0.00000000000E+00 -0.76656894067E+03  0.14277717745E+04  0.12045348892E+04 0.  0.
        1    1    3    3  502    0  0.32214515055E+03 -0.38886098387E+03 -0.77234686135E+03  0.92277301492E+03  0.50400001928E-02 0.  1.
       -1    1    3    3    0  502 -0.32214515055E+03  0.38886098387E+03  0.57779206808E+01  0.50499875959E+03  0.50400001928E-02 0. -1.
</event>
<event>
 5   0  0.5052959E-04  0.1201350E+04  0.7818609E-02  0.9111676E-01
        1   -1    0    0  501    0  0.00000000000E+00  0.00000000000E+00  0.40296783142E+03  0.40296783145E+03  0.50400001928E-02 0. -1.
       -1   -1    0    0    0  501  0.00000000000E+00  0.00000000000E+00 -0.89538209715E+03  0.89538209716E+03  0.50400001928E-02 0.  1.
    10030    2    1    2    0    0  0.00000000000E+00  0.00000000000E+00 -0.49241426572E+03  0.12983499286E+04  0.12013495445E+04 0.  0.
        2    1    3    3  502    0  0.35204016327E+03 -0.19057324827E+03 -0.73020589624E+03  0.83273710763E+03  0.25500000920E-02 0.  1.
       -2    1    3    3    0  502 -0.35204016327E+03  0.19057324827E+03  0.23779163052E+03  0.46561282098E+03  0.25500000920E-02 0. -1.
</event>
<event>
 5   0  0.9145224E-04  0.1199710E+04  0.7818609E-02  0.9113111E-01
       -2   -1    0    0    0  501  0.00000000000E+00  0.00000000000E+00  0.37202611011E+03  0.37202611012E+03  0.25500000920E-02 0.  1.
        2   -1    0    0  501    0  0.00000000000E+00  0.00000000000E+00 -0.96720565800E+03  0.96720565800E+03  0.25500000920E-02 0. -1.
    10030    2    1    2    0    0  0.00000000000E+00  0.00000000000E+00 -0.59517954789E+03  0.13392317681E+04  0.11997095626E+04 0.  0.
        5    1    3    3  502    0 -0.21088865947E+03  0.43015377802E+03  0.10535677979E+03  0.49053892861E+03  0.46999998093E+01 0.  1.
       -5    1    3    3    0  502  0.21088865947E+03 -0.43015377802E+03 -0.70053632768E+03  0.84869283951E+03  0.46999998093E+01 0. -1.
</event>
<event>
 5   0  0.5003507E-04  0.1195231E+04  0.7818609E-02  0.9117041E-01
       -1   -1    0    0    0  501  0.00000000000E+00  0.00000000000E+00  0.32120639694E+03  0.32120639698E+03  0.50400001928E-02 0.  1.
        1   -1    0    0  501    0  0.00000000000E+00  0.00000000000E+00 -0.11118832804E+04  0.11118832804E+04  0.50400001928E-02 0. -1.
    10030    2    1    2    0    0  0.00000000000E+00  0.00000000000E+00 -0.79067688348E+03  0.14330896774E+04  0.11952305591E+04 0.  0.
        3    1    3    3  502    0 -0.22747528967E+03  0.54145104201E+03 -0.26274229844E+03  0.64338772439E+03  0.10100000352E+00 0. -1.
       -3    1    3    3    0  502  0.22747528967E+03 -0.54145104201E+03 -0.52793458504E+03  0.78970195301E+03  0.10100000352E+00 0.  1.
</event>
<event>
 5   0  0.5003507E-04  0.1199163E+04  0.7818609E-02  0.9113589E-01
        1   -1    0    0  501    0  0.00000000000E+00  0.00000000000E+00  0.63123000497E+03  0.63123000499E+03  0.50400001928E-02 0. -1.
       -1   -1    0    0    0  501  0.00000000000E+00  0.00000000000E+00 -0.56952024856E+03  0.56952024858E+03  0.50400001928E-02 0.  1.
    10030    2    1    2    0    0  0.00000000000E+00  0.00000000000E+00  0.61709756412E+02  0.12007502536E+04  0.11991634907E+04 0.  0.
        3    1    3    3  502    0  0.41211299257E+02  0.59744093448E+03  0.14183976251E+01  0.59886230758E+03  0.10100000352E+00 0.  1.
       -3    1    3    3    0  502 -0.41211299257E+02 -0.59744093448E+03  0.60291358787E+02  0.60188794599E+03  0.10100000352E+00 0. -1.
</event>
<event>
 5   0  0.3453625E-04  0.1203292E+04  0.7818609E-02  0.9109980E-01
       -3   -1    0    0    0  501  0.00000000000E+00  0.00000000000E+00  0.11912537697E+04  0.11912537739E+04  0.10100000352E+00 0.  1.
        3   -1    0    0  501    0  0.00000000000E+00  0.00000000000E+00 -0.30386288106E+03  0.30386289784E+03  0.10100000352E+00 0. -1.
    10030    2    1    2    0    0  0.00000000000E+00  0.00000000000E+00  0.88739088859E+03  0.14951166718E+04  0.12032918487E+04 0.  0.
        4    1    3    3  502    0 -0.46569743119E+03  0.15836823364E+03  0.87415646842E+03  0.10030482237E+04  0.12699999809E+01 0.  1.
       -4    1    3    3    0  502  0.46569743119E+03 -0.15836823364E+03  0.13234420170E+02  0.49206844810E+03  0.12699999809E+01 0. -1.
</event>
<event>
 5   0  0.5003507E-04  0.1214599E+04  0.7818609E-02  0.9100173E-01
       -1   -1    0    0    0  501  0.00000000000E+00  0.00000000000E+00  0.60335196970E+03  0.60335196972E+03  0.50400001928E-02 0. -1.
        1   -1    0    0  501    0  0.00000000000E+00  0.00000000000E+00 -0.61127335241E+03  0.61127335243E+03  0.50400001928E-02 0.  1.
    10030    2    1    2    0    0  0.00000000000E+00  0.00000000000E+00 -0.79213827150E+01  0.12146253221E+04  0.12145994916E+04 0.  0.
        3    1    3    3  502    0  0.19565310828E+03  0.19797231235E+03 -0.54373118668E+03  0.61083286487E+03  0.10100000352E+00 0.  1.
       -3    1    3    3    0  502 -0.19565310828E+03 -0.19797231235E+03  0.53580980396E+03  0.60379245728E+03  0.10100000352E+00 0. -1.
</event>
<event>
 5   0  0.5052959E-04  0.1199988E+04  0.7818609E-02  0.9112867E-01
       -1   -1    0    0    0  501  0.00000000000E+00  0.00000000000E+00  0.39646784366E+03  0.39646784369E+03  0.50400001928E-02 0. -1.
        1   -1    0    0  501    0  0.00000000000E+00  0.00000000000E+00 -0.90799954896E+03  0.90799954898E+03  0.50400001928E-02 0.  1.
    10030    2    1    2    0    0  0.00000000000E+00  0.00000000000E+00 -0.51153170531E+03  0.13044673927E+04  0.11999877053E+04 0.  0.
        2    1    3    3  502    0 -0.95908347086E+02 -0.18255311930E+02 -0.89930689816E+03  0.90459082714E+03  0.25500000920E-02 0.  1.
       -2    1    3    3    0  502  0.95908347086E+02  0.18255311930E+02  0.38777519286E+03  0.39987656552E+03  0.25500000920E-02 0. -1.
</event>
<event>
 5   0  0.5157631E-04  0.1194287E+04  0.7818609E-02  0.9117872E-01
       -1   -1    0    0    0  501  0.00000000000E+00  0.00000000000E+00  0.92154226534E+03  0.92154226535E+03  0.50400001928E-02 0. -1.
        1   -1    0    0  501    0  0.00000000000E+00  0.00000000000E+00 -0.38693847140E+03  0.38693847143E+03  0.50400001928E-02 0.  1.
    10030    2    1    2    0    0  0.00000000000E+00  0.00000000000E+00  0.53460379394E+03  0.13084807368E+04  0.11942866582E+04 0.  0.
        5    1    3    3  502    0 -0.71168912168E+02 -0.35484651820E+03 -0.25306080609E+03  0.44163664603E+03  0.46999998093E+01 0.  1.
       -5    1    3    3    0  502  0.71168912168E+02  0.35484651820E+03  0.78766460003E+03  0.86684409075E+03  0.46999998093E+01 0. -1.
</event>
<event>
 5   0  0.9145224E-04  0.1199007E+04  0.7818609E-02  0.9113726E-01
        2   -1    0    0  501    0  0.00000000000E+00  0.00000000000E+00  0.77528019162E+03  0.77528019162E+03  0.25500000920E-02 0. -1.
       -2   -1    0    0    0  501  0.00000000000E+00  0.00000000000E+00 -0.46358026758E+03  0.46358026758E+03  0.25500000920E-02 0.  1.
    10030    2    1    2    0    0  0.00000000000E+00  0.00000000000E+00  0.31169992404E+03  0.12388604592E+04  0.11990072538E+04 0.  0.
        5    1    3    3  502    0 -0.36067984567E+03  0.45560057211E+03  0.30812799315E+03  0.65774370582E+03  0.46999998093E+01 0. -1.
       -5    1    3    3    0  502  0.36067984567E+03 -0.45560057211E+03  0.35719308928E+01  0.58111675339E+03  0.46999998093E+01 0.  1.
</event>
<event>
 5   0  0.5157631E-04  0.1196772E+04  0.7818609E-02  0.9115687E-01
        1   -1    0    0  501    0  0.00000000000E+00  0.00000000000E+00  0.65078914117E+03  0.65078914119E+03  0.50400001928E-02 0. -1.
       -1   -1    0    0    0  501  0.00000000000E+00  0.00000000000E+00 -0.55020257408E+03  0.55020257410E+03  0.50400001928E-02 0.  1.
    10030    2    1    2    0    0  0.00000000000E+00  0.00000000000E+00  0.10058656709E+03  0.12009917153E+04  0.11967720931E+04 0.  0.
        5    1    3    3  502    0 -0.88779691741E+02  0.39830039311E+02 -0.54219121288E+03  0.55087354902E+03  0.46999998093E+01 0.  1.
       -5    1    3    3    0  502  0.88779691741E+02 -0.39830039311E+02  0.64277777996E+03  0.65011816626E+03  0.46999998093E+01 0. -1.
</event>
<event>
 5   0  0.9298693E-04  0.1208173E+04  0.7818609E-02  0.9105732E-01
        2   -1    0    0  501    0  0.00000000000E+00  0.00000000000E+00  0.12709074644E+04  0.12709074644E+04  0.25500000920E-02 0.  1.
       -2   -1    0    0    0  501  0.00000000000E+00  0.00000000000E+00 -0.28713403597E+03  0.28713403598E+03  0.25500000920E-02 0. -1.
    10030    2    1    2    0    0  0.00000000000E+00  0.00000000000E+00  0.98377342840E+03  0.15580415003E+04  0.12081734802E+04 0.  0.
        1    1    3    3  502    0  0.11556554499E+03  0.39051811991E+03  0.10672508736E+04  0.11423152911E+04  0.50400001928E-02 0.  1.
       -1    1    3    3    0  502 -0.11556554499E+03 -0.39051811991E+03 -0.83477445160E+02  0.41572620923E+03  0.50400001928E-02 0. -1.
</event>
<event>
 5   0  0.5001586E-04  0.1203983E+04  0.7818609E-02  0.9109377E-01
       -1   -1    0    0    0  501  0.00000000000E+00  0.00000000000E+00  0.30079808000E+03  0.30079808004E+03  0.50400001928E-02 0. -1.
        1   -1    0    0  501    0  0.00000000000E+00  0.00000000000E+00 -0.12047741851E+04  0.12047741851E+04  0.50400001928E-02 0.  1.
    10030    2    1    2    0    0  0.00000000000E+00  0.00000000000E+00 -0.90397610506E+03  0.15055722651E+04  0.12039829928E+04 0.  0.
        1    1    3    3  502    0 -0.71459290261E+02 -0.17084388493E+03  0.26429416465E+03  0.32271577073E+03  0.50400001928E-02 0. -1.
       -1    1    3    3    0  502  0.71459290261E+02  0.17084388493E+03 -0.11682702697E+04  0.11828564944E+04  0.50400001928E-02 0.  1.
</event>
<event>
 5   0  0.9070772E-04  0.1185643E+04  0.7818609E-02  0.9125517E-01
        2   -1    0    0  501    0  0.00000000000E+00  0.00000000000E+00  0.86008668126E+03  0.86008668127E+03  0.25500000920E-02 0.  1.
       -2   -1    0    0    0  501  0.00000000000E+00  0.00000000000E+00 -0.40860672608E+03  0.40860672609E+03  0.25500000920E-02 0. -1.
    10030    2    1    2    0    0  0.00000000000E+00  0.00000000000E+00  0.45147995518E+03  0.12686934074E+04  0.11856427843E+04 0.  0.
        4    1    3    3  502    0 -0.91185430028E+02 -0.11743668914E+01 -0.40105495304E+03  0.41129411623E+03  0.12699999809E+01 0. -1.
       -4    1    3    3    0  502  0.91185430028E+02  0.11743668914E+01  0.85253490822E+03  0.85739929113E+03  0.12699999809E+01 0.  1.
</event>
<event>
 5   0  0.9050363E-04  0.1204245E+04  0.7818609E-02  0.9109149E-01
        2   -1    0    0  501    0  0.00000000000E+00  0.00000000000E+00  0.61638582024E+03  0.61638582025E+03  0.25500000920E-02 0.  1.
       -2   -1    0    0    0  501  0.00000000000E+00  0.00000000000E+00 -0.58818937064E+03  0.58818937064E+03  0.25500000920E-02 0. -1.
    10030    2    1    2    0    0  0.00000000000E+00  0.00000000000E+00  0.28196449603E+02  0.12045751909E+04  0.12042451373E+04 0.  0.
        3    1    3    3  502    0  0.16058055719E+03  0.32794434939E+03 -0.46480012445E+03  0.59107764087E+03  0.10100000352E+00 0. -1.
       -3    1    3    3    0  502 -0.16058055719E+03 -0.32794434939E+03  0.49299657406E+03  0.61349755002E+03  0.10100000352E+00 0.  1.
</event>
<event>
 5   0  0.5003507E-04  0.1199003E+04  0.7818609E-02  0.9113729E-01
        1   -1    0    0  501    0  0.00000000000E+00  0.00000000000E+00  0.76833123010E+03  0.76833123011E+03  0.50400001928E-02 0.  1.
       -1   -1    0    0    0  501  0.00000000000E+00  0.00000000000E+00 -0.46776990189E+03  0.46776990192E+03  0.50400001928E-02 0. -1.
    10030    2    1    2    0    0  0.00000000000E+00  0.00000000000E+00  0.30056132821E+03  0.12361011320E+04  0.11990032930E+04 0.  0.
        3    1    3    3  502    0  0.25643361852E+03  0.29610932815E+03  0.61815424942E+03  0.73181529173E+03  0.10100000352E+00 0.  1.
       -3    1    3    3    0  502 -0.25643361852E+03 -0.29610932815E+03 -0.31759292122E+03  0.50428584030E+03  0.10100000352E+00 0. -1.
</event>
<event>
 5   0  0.5157631E-04  0.1198246E+04  0.7818609E-02  0.9114393E-01
        1   -1    0    0  501    0  0.00000000000E+00  0.00000000000E+00  0.18067012749E+04  0.18067012749E+04  0.50400001928E-02 0. -1.
       -1   -1    0    0    0  501  0.00000000000E+00  0.00000000000E+00 -0.19867625966E+03  0.19867625973E+03  0.50400001928E-02 0.  1.
    10030    2    1    2    0    0  0.00000000000E+00  0.00000000000E+00  0.16080250152E+04  0.20053775346E+04  0.11982464716E+04 0.  0.
        5    1    3    3  502    0  0.12180295127E+03 -0.29971523284E+03  0.16479109555E+04  0.16793742249E+04  0.46999998093E+01 0. -1.
       -5    1    3    3    0  502 -0.12180295127E+03  0.29971523284E+03 -0.39885940324E+02  0.32600330975E+03  0.46999998093E+01 0.  1.
</event>
<event>
 5   0  0.3453625E-04  0.1198184E+04  0.7818609E-02  0.9114447E-01
       -3   -1    0    0    0  501  0.00000000000E+00  0.00000000000E+00  0.24484772160E+03  0.24484774244E+03  0.10100000352E+00 0.  1.
        3   -1    0    0  501    0  0.00000000000E+00  0.00000000000E+00 -0.14658555595E+04  0.14658555630E+04  0.10100000352E+00 0. -1.
    10030    2    1    2    0    0  0.00000000000E+00  0.00000000000E+00 -0.12210078379E+04  0.17107033054E+04  0.11981843176E+04 0.  0.
        3    1    3    3  502    0  0.14291987207E+02  0.54357470991E+03 -0.25147842656E+03  0.59909860238E+03  0.10100000352E+00 0.  1.
       -3    1    3    3    0  502 -0.14291987207E+02 -0.54357470991E+03 -0.96952941132E+03  0.11116047030E+04  0.10100000352E+00 0. -1.
</event>
<event>
 5   0  0.5447074E-04  0.1201533E+04  0.7818609E-02  0.9111516E-01
        1   -1    0    0  501    0  0.00000000000E+00  0.00000000000E+00  0.57606724024E+03  0.57606724026E+03  0.50400001928E-02 0.  1.
       -1   -1    0    0    0  501  0.00000000000E+00  0.00000000000E+00 -0.62652490091E+03  0.62652490093E+03  0.50400001928E-02 0. -1.
    10030    2    1    2    0    0  0.00000000000E+00  0.00000000000E+00 -0.50457660672E+02  0.12025921412E+04  0.12015331383E+04 0.  0.
        4    1    3    3  502    0 -0.32256612825E+03 -0.23942849318E+03  0.42186830556E+03  0.58253702936E+03  0.12699999809E+01 0.  1.
       -4    1    3    3    0  502  0.32256612825E+03  0.23942849318E+03 -0.47232596623E+03  0.62005511184E+03  0.12699999809E+01 0. -1.
</event>
<event>
 5   0  0.9145224E-04  0.1199186E+04  0.7818609E-02  0.9113569E-01
       -2   -1    0    0    0  501  0.00000000000E+00  0.00000000000E+00  0.41883285155E+03  0.41883285156E+03  0.25500000920E-02 0. -1.
        2   -1    0    0  501    0  0.00000000000E+00  0.00000000000E+00 -0.85836622152E+03  0.85836622152E+03  0.25500000920E-02 0.  1.
    10030    2    1    2    0    0  0.00000000000E+00  0.00000000000E+00 -0.43953336997E+03  0.12771990731E+04  0.11991863446E+04 0.  0.
        5    1    3    3  502    0  0.45893767477E+03  0.29123643237E+03  0.49773042872E+02  0.54584053959E+03  0.46999998093E+01 0. -1.
       -5    1    3    3    0  502 -0.45893767477E+03 -0.29123643237E+03 -0.48930641284E+03  0.73135853349E+03  0.46999998093E+01 0.  1.
</event>
<event>
 5   0  0.9410666E-04  0.1220969E+04  0.7818609E-02  0.9094698E-01
       -2   -1    0    0    0  501  0.00000000000E+00  0.00000000000E+00  0.24536089432E+03  0.24536089433E+03  0.25500000920E-02 0. -1.
        2   -1    0    0  501    0  0.00000000000E+00  0.00000000000E+00 -0.15189509135E+04  0.15189509135E+04  0.25500000920E-02 0.  1.
    10030    2    1    2    0    0  0.00000000000E+00  0.00000000000E+00 -0.12735900192E+04  0.17643118078E+04  0.12209687213E+04 0.  0.
        2    1    3    3  502    0  0.56854055596E+03 -0.55749890541E+02 -0.32571576926E+03  0.65759955628E+03  0.25500000920E-02 0. -1.
       -2    1    3    3    0  502 -0.56854055596E+03  0.55749890541E+02 -0.94787424989E+03  0.11067122515E+04  0.25500000920E-02 0.  1.
</event>
<event>
 5   0  0.9050363E-04  0.1194383E+04  0.7818609E-02  0.9117787E-01
        2   -1    0    0  501    0  0.00000000000E+00  0.00000000000E+00  0.77366611151E+03  0.77366611152E+03  0.25500000920E-02 0.  1.
       -2   -1    0    0    0  501  0.00000000000E+00  0.00000000000E+00 -0.46097096265E+03  0.46097096266E+03  0.25500000920E-02 0. -1.
    10030    2    1    2    0    0  0.00000000000E+00  0.00000000000E+00  0.31269514886E+03  0.12346370742E+04  0.11943828736E+04 0.  0.
        3    1    3    3  502    0  0.82465821128E+02 -0.20694869294E+02 -0.45468253561E+03  0.46256362553E+03  0.10100000352E+00 0. -1.
       -3    1    3    3    0  502 -0.82465821128E+02  0.20694869294E+02  0.76737768448E+03  0.77207344864E+03  0.10100000352E+00 0.  1.
</event>
<event>
 5   0  0.9410666E-04  0.1205644E+04  0.7818609E-02  0.9107931E-01
        2   -1    0    0  501    0  0.00000000000E+00  0.00000000000E+00  0.12958650877E+04  0.12958650877E+04  0.25500000920E-02 0. -1.
       -2   -1    0    0    0  501  0.00000000000E+00  0.00000000000E+00 -0.28042607354E+03  0.28042607355E+03  0.25500000920E-02 0.  1.
    10030    2    1    2    0    0  0.00000000000E+00  0.00000000000E+00  0.10154390141E+04  0.15762911612E+04  0.12056439912E+04 0.  0.
        2    1    3    3  502    0 -0.25363033291E+03  0.47485110624E+03  0.15306584766E+03  0.55967943735E+03  0.25500000920E-02 0.  1.
       -2    1    3    3    0  502  0.25363033291E+03 -0.47485110624E+03  0.86237316646E+03  0.10166117239E+04  0.25500000920E-02 0. -1.
</event>
<event>
 5   0  0.9050363E-04  0.1198528E+04  0.7818609E-02  0.9114146E-01
        2   -1    0    0  501    0  0.00000000000E+00  0.00000000000E+00  0.55519561461E+03  0.55519561461E+03  0.25500000920E-02 0. -1.
       -2   -1    0    0    0  501  0.00000000000E+00  0.00000000000E+00 -0.64683021131E+03  0.64683021131E+03  0.25500000920E-02 0.  1.
    10030    2    1    2    0    0  0.00000000000E+00  0.00000000000E+00 -0.91634596701E+02  0.12020258259E+04  0.11985279250E+04 0.  0.
        3    1    3    3  502    0 -0.35496470874E+03  0.56583538196E+02 -0.52671190236E+03  0.63767317612E+03  0.10100000352E+00 0.  1.
       -3    1    3    3    0  502  0.35496470874E+03 -0.56583538196E+02  0.43507730566E+03  0.56435264981E+03  0.10100000352E+00 0. -1.
</event>
<event>
 5   0  0.9145224E-04  0.1196504E+04  0.7818609E-02  0.9115922E-01
       -2   -1    0    0    0  501  0.00000000000E+00  0.00000000000E+00  0.18875674185E+03  0.18875674186E+03  0.25500000920E-02 0. -1.
        2   -1    0    0  501    0  0.00000000000E+00  0.00000000000E+00 -0.18961204728E+04  0.18961204728E+04  0.25500000920E-02 0.  1.
    10030    2    1    2    0    0  0.00000000000E+00  0.00000000000E+00 -0.17073637309E+04  0.20848772147E+04  0.11965041122E+04 0.  0.
        5    1    3    3  502    0 -0.23486086822E+03  0.48880581444E+03 -0.12937822162E+04  0.14028489814E+04  0.46999998093E+01 0.  1.
       -5    1    3    3    0  502  0.23486086822E+03 -0.48880581444E+03 -0.41358151478E+03  0.68202823330E+03  0.46999998093E+01 0. -1.
</event>
<event>
 5   0  0.9070772E-04  0.1213433E+04  0.7818609E-02  0.9101180E-01
       -2   -1    0    0    0  501  0.00000000000E+00  0.00000000000E+00  0.39522810328E+03  0.39522810329E+03  0.25500000920E-02 0.  1.
        2   -1    0    0  501    0  0.00000000000E+00  0.00000000000E+00 -0.93137262178E+03  0.93137262179E+03  0.25500000920E-02 0. -1.
    10030    2    1    2    0    0  0.00000000000E+00  0.00000000000E+00 -0.53614451850E+03  0.13266007251E+04  0.12134325441E+04 0.  0.
        4    1    3    3  502    0  0.21955851680E+03  0.51756905404E+03 -0.18723582069E+02  0.56252631354E+03  0.12699999809E+01 0.  1.
       -4    1    3    3    0  502 -0.21955851680E+03 -0.51756905404E+03 -0.51742093643E+03  0.76407441153E+03  0.12699999809E+01 0. -1.
</event>
<event>
 5   0  0.9070772E-04  0.1202436E+04  0.7818609E-02  0.9110727E-01
       -2   -1    0    0    0  501  0.00000000000E+00  0.00000000000E+00  0.55645147221E+03  0.55645147222E+03  0.25500000920E-02 0. -1.
        2   -1    0    0  501    0  0.00000000000E+00  0.00000000000E+00 -0.64958643559E+03  0.64958643560E+03  0.25500000920E-02 0.  1.
    10030    2    1    2    0    0  0.00000000000E+00  0.00000000000E+00 -0.93134963381E+02  0.12060379078E+04  0.12024364073E+04 0.  0.
        4    1    3    3  502    0  0.30049631791E+03  0.52072772624E+03 -0.44047273783E+02  0.60282433360E+03  0.12699999809E+01 0. -1.
       -4    1    3    3    0  502 -0.30049631791E+03 -0.52072772624E+03 -0.49087689598E+02  0.60321357422E+03  0.12699999809E+01 0.  1.
</event>
<event>
 5   0  0.5001586E-04  0.1204049E+04  0.7818609E-02  0.9109320E-01
       -1   -1    0    0    0  501  0.00000000000E+00  0.00000000000E+00  0.33461331379E+03  0.33461331383E+03  0.50400001928E-02 0. -1.
        1   -1    0    0  501    0  0.00000000000E+00  0.00000000000E+00 -0.10831408302E+04  0.10831408302E+04  0.50400001928E-02 0.  1.
    10030    2    1    2    0    0  0.00000000000E+00  0.00000000000E+00 -0.74852751643E+03  0.14177541441E+04  0.12040487408E+04 0.  0.
        1    1    3    3  502    0  0.44662262599E+02 -0.40796998879E+03  0.14436516099E+03  0.43505807565E+03  0.50400001928E-02 0. -1.
       -1    1    3    3    0  502 -0.44662262599E+02  0.40796998879E+03 -0.89289267742E+03  0.98269606841E+03  0.50400001928E-02 0.  1.
</event>
<event>
 5   0  0.9410666E-04  0.1202105E+04  0.7818609E-02  0.9111016E-01
       -2   -1    0    0    0  501  0.00000000000E+00  0.00000000000E+00  0.19720238284E+03  0.19720238285E+03  0.25500000920E-02 0. -1.
        2   -1    0    0  501    0  0.00000000000E+00  0.00000000000E+00 -0.18319459797E+04  0.18319459797E+04  0.25500000920E-02 0.  1.
    10030    2    1    2    0    0  0.00000000000E+00  0.00000000000E+00 -0.16347435968E+04  0.20291483625E+04  0.12021050078E+04 0.  0.
        2    1    3    3  502    0 -0.24249115013E+03 -0.35041408818E+03 -0.15328752667E+04  0.15910055230E+04  0.25500000920E-02 0.  1.
       -2    1    3    3    0  502  0.24249115013E+03  0.35041408818E+03 -0.10186833012E+03  0.43814283946E+03  0.25500000920E-02 0. -1.
</event>
<event>
 5   0  0.5157631E-04  0.1198997E+04  0.7818609E-02  0.9113735E-01
       -1   -1    0    0    0  501  0.00000000000E+00  0.00000000000E+00  0.33377155032E+03  0.33377155036E+03  0.50400001928E-02 0.  1.
        1   -1    0    0  501    0  0.00000000000E+00  0.00000000000E+00 -0.10767805870E+04  0.10767805870E+04  0.50400001928E-02 0. -1.
    10030    2    1    2    0    0  0.00000000000E+00  0.00000000000E+00 -0.74300903668E+03  0.14105521374E+04  0.11989974577E+04 0.  0.
        5    1    3    3  502    0 -0.43749233671E+03  0.19199635064E+03 -0.79749140513E+03  0.92966487219E+03  0.46999998093E+01 0. -1.
       -5    1    3    3    0  502  0.43749233671E+03 -0.19199635064E+03  0.54482368448E+02  0.48088726517E+03  0.46999998093E+01 0.  1.
</event>
<event>
 5   0  0.5001586E-04  0.1214394E+04  0.7818609E-02  0.9100350E-01
        1   -1    0    0  501    0  0.00000000000E+00  0.00000000000E+00  0.18710972098E+04  0.18710972098E+04  0.50400001928E-02 0. -1.
       -1   -1    0    0    0  501  0.00000000000E+00  0.00000000000E+00 -0.19704388402E+03  0.19704388409E+03  0.50400001928E-02 0.  1.
    10030    2    1    2    0    0  0.00000000000E+00  0.00000000000E+00  0.16740533258E+04  0.20681410939E+04  0.12143941068E+04 0.  0.
        1    1    3    3  502    0  0.45087378369E+03  0.29528485676E+02  0.15278101623E+04  0.15932240873E+04  0.50400001928E-02 0. -1.
       -1    1    3    3    0  502 -0.45087378369E+03 -0.29528485676E+02  0.14624316351E+03  0.47491700663E+03  0.50400001928E-02 0.  1.
</event>
<event>
 5   0  0.5157631E-04  0.1198622E+04  0.7818609E-02  0.9114063E-01
       -1   -1    0    0    0  501  0.00000000000E+00  0.00000000000E+00  0.11448067254E+04  0.11448067254E+04  0.50400001928E-02 0.  1.
        1   -1    0    0  501    0  0.00000000000E+00  0.00000000000E+00 -0.31374197399E+03  0.31374197403E+03  0.50400001928E-02 0. -1.
    10030    2    1    2    0    0  0.00000000000E+00  0.00000000000E+00  0.83106475145E+03  0.14585486995E+04  0.11986224125E+04 0.  0.
        5    1    3    3  502    0  0.12429074549E+03  0.48875892345E+03  0.80949698938E+03  0.95375098452E+03  0.46999998093E+01 0.  1.
       -5    1    3    3    0  502 -0.12429074549E+03 -0.48875892345E+03  0.21567762070E+02  0.50479771495E+03  0.46999998093E+01 0. -1.
</event>
<event>
 5   0  0.9298693E-04  0.1159112E+04  0.7818609E-02  0.9149418E-01
       -2   -1    0    0    0  501  0.00000000000E+00  0.00000000000E+00  0.75130729605E+03  0.75130729606E+03  0.25500000920E-02 0. -1.
        2   -1    0    0  501    0  0.00000000000E+00  0.00000000000E+00 -0.44706792890E+03  0.44706792891E+03  0.25500000920E-02 0.  1.
    10030    2    1    2    0    0  0.00000000000E+00  0.00000000000E+00  0.30423936715E+03  0.11983752250E+04  0.11591124136E+04 0.  0.
        1    1    3    3  502    0  0.46649114211E+03 -0.32752788684E+03  0.43701458364E+02  0.57166276756E+03  0.50400001928E-02 0.  1.
       -1    1    3    3    0  502 -0.46649114211E+03  0.32752788684E+03  0.26053790879E+03  0.62671245741E+03  0.50400001928E-02 0. -1.
</event>
<event>
 5   0  0.9050363E-04  0.1200173E+04  0.7818609E-02  0.9112705E-01
       -2   -1    0    0    0  501  0.00000000000E+00  0.00000000000E+00  0.23269308918E+03  0.23269308919E+03  0.25500000920E-02 0.  1.
        2   -1    0    0  501    0  0.00000000000E+00  0.00000000000E+00 -0.15475486776E+04  0.15475486776E+04  0.25500000920E-02 0. -1.
    10030    2    1    2    0    0  0.00000000000E+00  0.00000000000E+00 -0.13148555884E+04  0.17802417667E+04  0.12001731249E+04 0.  0.
        3    1    3    3  502    0 -0.93160840827E+01 -0.35632352634E+03 -0.13735056218E+04  0.14190035054E+04  0.10100000352E+00 0. -1.
       -3    1    3    3    0  502  0.93160840827E+01  0.35632352634E+03  0.58650033473E+02  0.36123826136E+03  0.10100000352E+00 0.  1.
</event>
<event>
 5   0  0.9145224E-04  0.1202531E+04  0.7818609E-02  0.9110644E-01
       -2   -1    0    0    0  501  0.00000000000E+00  0.00000000000E+00  0.24638403156E+03  0.24638403158E+03  0.25500000920E-02 0. -1.
        2   -1    0    0  501    0  0.00000000000E+00  0.00000000000E+00 -0.14673041455E+04  0.14673041455E+04  0.25500000920E-02 0.  1.
    10030    2    1    2    0    0  0.00000000000E+00  0.00000000000E+00 -0.12209201139E+04  0.17136881771E+04  0.12025311820E+04 0.  0.
        5    1    3    3  502    0 -0.22726007351E+03 -0.17578188241E+03 -0.13631221530E+04  0.13930795042E+04  0.46999998093E+01 0.  1.
       -5    1    3    3    0  502  0.22726007351E+03  0.17578188241E+03  0.14220203904E+03  0.32060867284E+03  0.46999998093E+01 0. -1.
</event>
<event>
 5   0  0.5157631E-04  0.1214859E+04  0.7818609E-02  0.9099949E-01
       -1   -1    0    0    0  501  0.00000000000E+00  0.00000000000E+00  0.64636281514E+03  0.64636281516E+03  0.50400001928E-02 0. -1.
        1   -1    0    0  501    0  0.00000000000E+00  0.00000000000E+00 -0.57084149528E+03  0.57084149531E+03  0.50400001928E-02 0.  1.
    10030    2    1    2    0    0  0.00000000000E+00  0.00000000000E+00  0.75521319862E+02  0.12172043105E+04  0.12148591950E+04 0.  0.
        5    1    3    3  502    0 -0.14964558398E+03  0.53191808227E+03  0.29047359415E+03  0.62428170400E+03  0.46999998093E+01 0.  1.
       -5    1    3    3    0  502  0.14964558398E+03 -0.53191808227E+03 -0.21495227428E+03  0.59292260647E+03  0.46999998093E+01 0. -1.
</event>
<event>
 5   0  0.9050363E-04  0.1202798E+04  0.7818609E-02  0.9110411E-01
       -2   -1    0    0    0  501  0.00000000000E+00  0.00000000000E+00  0.31550015582E+03  0.31550015583E+03  0.25500000920E-02 0.  1.
        2   -1    0    0  501    0  0.00000000000E+00  0.00000000000E+00 -0.11463726774E+04  0.11463726774E+04  0.25500000920E-02 0. -1.
    10030    2    1    2    0    0  0.00000000000E+00  0.00000000000E+00 -0.83087252156E+03  0.14618728332E+04  0.12027980019E+04 0.  0.
        3    1    3    3  502    0  0.39831454495E+03 -0.23935705926E+03 -0.87941495660E+03  0.99464413467E+03  0.10100000352E+00 0. -1.
       -3    1    3    3    0  502 -0.39831454495E+03  0.23935705926E+03  0.48542435043E+02  0.46722869853E+03  0.10100000352E+00 0.  1.
</event>
<event>
 5   0  0.9298693E-04  0.1200186E+04  0.7818609E-02  0.9112694E-01
       -2   -1    0    0    0  501  0.00000000000E+00  0.00000000000E+00  0.27498060509E+03  0.27498060510E+03  0.25500000920E-02 0. -1.
        2   -1    0    0  501    0  0.00000000000E+00  0.00000000000E+00 -0.13095892632E+04  0.13095892632E+04  0.25500000920E-02 0.  1.
    10030    2    1    2    0    0  0.00000000000E+00  0.00000000000E+00 -0.10346086581E+04  0.15845698683E+04  0.12001860656E+04 0.  0.
        1    1    3    3  502    0 -0.62670611389E+02  0.51347910244E+03 -0.11570936166E+03  0.53007268423E+03  0.50400001928E-02 0. -1.
       -1    1    3    3    0  502  0.62670611389E+02 -0.51347910244E+03 -0.91889929640E+03  0.10544971840E+04  0.50400001928E-02 0.  1.
</event>
<event>
 5   0  0.9145224E-04  0.1200811E+04  0.7818609E-02  0.9112147E-01
       -2   -1    0    0    0  501  0.00000000000E+00  0.00000000000E+00  0.13262990626E+03  0.13262990629E+03  0.25500000920E-02 0. -1.
        2   -1    0    0  501    0  0.00000000000E+00  0.00000000000E+00 -0.27179918216E+04  0.27179918216E+04  0.25500000920E-02 0.  1.
    10030    2    1    2    0    0  0.00000000000E+00  0.00000000000E+00 -0.25853619154E+04  0.28506217279E+04  0.12008113933E+04 0.  0.
        5    1    3    3  502    0  0.37709650731E+03 -0.45717522727E+03 -0.10643166226E+04  0.12181965881E+04  0.46999998093E+01 0. -1.
       -5    1    3    3    0  502 -0.37709650731E+03  0.45717522727E+03 -0.15210452928E+04  0.16324251398E+04  0.46999998093E+01 0.  1.
</event>
<event>
 5   0  0.5157631E-04  0.1196668E+04  0.7818609E-02  0.9115778E-01
        1   -1    0    0  501    0  0.00000000000E+00  0.00000000000E+00  0.80874653184E+03  0.80874653186E+03  0.50400001928E-02 0. -1.
       -1   -1    0    0    0  501  0.00000000000E+00  0.00000000000E+00 -0.44266439607E+03  0.44266439610E+03  0.50400001928E-02 0.  1.
    10030    2    1    2    0    0  0.00000000000E+00  0.00000000000E+00  0.36608213577E+03  0.12514109280E+04  0.11966675313E+04 0.  0.
        5    1    3    3  502    0 -0.41987637464E+03  0.21776309034E+03 -0.20014231355E+03  0.51361071753E+03  0.46999998093E+01 0.  1.
       -5    1    3    3    0  502  0.41987637464E+03 -0.21776309034E+03  0.56622444933E+03  0.73780021043E+03  0.46999998093E+01 0. -1.
</event>
<event>
 5   0  0.9050363E-04  0.1201539E+04  0.7818609E-02  0.9111510E-01
        2   -1    0    0  501    0  0.00000000000E+00  0.00000000000E+00  0.59304031836E+03  0.59304031837E+03  0.25500000920E-02 0. -1.
       -2   -1    0    0    0  501  0.00000000000E+00  0.00000000000E+00 -0.60859984496E+03  0.60859984497E+03  0.25500000920E-02 0.  1.
    10030    2    1    2    0    0  0.00000000000E+00  0.00000000000E+00 -0.15559526596E+02  0.12016401633E+04  0.12015394223E+04 0.  0.
        3    1    3    3  502    0  0.58309859575E+03 -0.49610773676E+02  0.12809565705E+03  0.59906068873E+03  0.10100000352E+00 0. -1.
       -3    1    3    3    0  502 -0.58309859575E+03  0.49610773676E+02 -0.14365518365E+03  0.60257947460E+03  0.10100000352E+00 0.  1.
</event>
<event>
 5   0  0.9298693E-04  0.1198138E+04  0.7818609E-02  0.9114488E-01
        2   -1    0    0  501    0  0.00000000000E+00  0.00000000000E+00  0.21059375975E+04  0.21059375975E+04  0.25500000920E-02 0. -1.
       -2   -1    0    0    0  501  0.00000000000E+00  0.00000000000E+00 -0.17041516712E+03  0.17041516713E+03  0.25500000920E-02 0.  1.
    10030    2    1    2    0    0  0.00000000000E+00  0.00000000000E+00  0.19355224304E+04  0.22763527646E+04  0.11981380682E+04 0.  0.
        1    1    3    3  502    0  0.11705899433E+02  0.23073101929E+03  0.20178966792E+04  0.20310787378E+04  0.50400001928E-02 0. -1.
       -1    1    3    3    0  502 -0.11705899433E+02 -0.23073101929E+03 -0.82374248793E+02  0.24527402682E+03  0.50400001928E-02 0.  1.
</event>
<event>
 5   0  0.9070772E-04  0.1198244E+04  0.7818609E-02  0.9114395E-01
       -2   -1    0    0    0  501  0.00000000000E+00  0.00000000000E+00  0.38564970814E+03  0.38564970815E+03  0.25500000920E-02 0. -1.
        2   -1    0    0  501    0  0.00000000000E+00  0.00000000000E+00 -0.93075883675E+03  0.93075883676E+03  0.25500000920E-02 0.  1.
    10030    2    1    2    0    0  0.00000000000E+00  0.00000000000E+00 -0.54510912861E+03  0.13164085449E+04  0.11982435041E+04 0.  0.
        4    1    3    3  502    0 -0.59242413282E+03 -0.86712922680E+02 -0.24899761140E+03  0.64844961831E+03  0.12699999809E+01 0.  1.
       -4    1    3    3    0  502  0.59242413282E+03  0.86712922680E+02 -0.29611151721E+03  0.66795892660E+03  0.12699999809E+01 0. -1.
</event>
<event>
 5   0  0.9298693E-04  0.1197883E+04  0.7818609E-02  0.9114712E-01
        2   -1    0    0  501    0  0.00000000000E+00  0.00000000000E+00  0.75026852972E+03  0.75026852973E+03  0.25500000920E-02 0.  1.
       -2   -1    0    0    0  501  0.00000000000E+00  0.00000000000E+00 -0.47813637125E+03  0.47813637125E+03  0.25500000920E-02 0. -1.
    10030    2    1    2    0    0  0.00000000000E+00  0.00000000000E+00  0.27213215848E+03  0.12284049010E+04  0.11978825857E+04 0.  0.
        1    1    3    3  502    0 -0.31925133254E+02  0.53476755585E+03 -0.13859252052E+03  0.55335652132E+03  0.50400001928E-02 0. -1.
       -1    1    3    3    0  502  0.31925133254E+02 -0.53476755585E+03  0.41072467900E+03  0.67504837966E+03  0.50400001928E-02 0.  1.
</event>
<event>
 5   0  0.9050363E-04  0.1201000E+04  0.7818609E-02  0.9111982E-01
       -2   -1    0    0    0  501  0.00000000000E+00  0.00000000000E+00  0.33041752862E+03  0.33041752863E+03  0.25500000920E-02 0.  1.
        2   -1    0    0  501    0  0.00000000000E+00  0.00000000000E+00 -0.10913466392E+04  0.10913466392E+04  0.25500000920E-02 0. -1.
    10030    2    1    2    0    0  0.00000000000E+00  0.00000000000E+00 -0.76092911055E+03  0.14217641678E+04  0.12009996826E+04 0.  0.
        3    1    3    3  502    0 -0.56443777236E+03 -0.17672330220E+03 -0.25755875106E+03  0.64510281727E+03  0.10100000352E+00 0.  1.
       -3    1    3    3    0  502  0.56443777236E+03  0.17672330220E+03 -0.50337035949E+03  0.77666135054E+03  0.10100000352E+00 0. -1.
</event>
<event>
 5   0  0.9410666E-04  0.1199100E+04  0.7818609E-02  0.9113645E-01
       -2   -1    0    0    0  501  0.00000000000E+00  0.00000000000E+00  0.21908036006E+03  0.21908036007E+03  0.25500000920E-02 0. -1.
        2   -1    0    0  501    0  0.00000000000E+00  0.00000000000E+00 -0.16407691571E+04  0.16407691571E+04  0.25500000920E-02 0.  1.
    10030    2    1    2    0    0  0.00000000000E+00  0.00000000000E+00 -0.14216887970E+04  0.18598495172E+04  0.11991001588E+04 0.  0.
        2    1    3    3  502    0 -0.45781163660E+03  0.11577037294E+03 -0.13787079503E+03  0.49193762814E+03  0.25500000920E-02 0. -1.
       -2    1    3    3    0  502  0.45781163660E+03 -0.11577037294E+03 -0.12838180020E+04  0.13679118890E+04  0.25500000920E-02 0.  1.
</event>
<event>
 5   0  0.9298693E-04  0.1192847E+04  0.7818609E-02  0.9119140E-01
       -2   -1    0    0    0  501  0.00000000000E+00  0.00000000000E+00  0.55472856287E+03  0.55472856287E+03  0.25500000920E-02 0.  1.
        2   -1    0    0  501    0  0.00000000000E+00  0.00000000000E+00 -0.64125270898E+03  0.64125270899E+03  0.25500000920E-02 0. -1.
    10030    2    1    2    0    0  0.00000000000E+00  0.00000000000E+00 -0.86524146116E+02  0.11959812719E+04  0.11928473393E+04 0.  0.
        1    1    3    3  502    0  0.26027259967E+02  0.38072712488E+03 -0.50282274563E+03  0.63123789132E+03  0.50400001928E-02 0. -1.
       -1    1    3    3    0  502 -0.26027259967E+02 -0.38072712488E+03  0.41629859952E+03  0.56474338054E+03  0.50400001928E-02 0.  1.
</event>
<event>
 5   0  0.9410666E-04  0.1198733E+04  0.7818609E-02  0.9113966E-01
        2   -1    0    0  501    0  0.00000000000E+00  0.00000000000E+00  0.20830842775E+03  0.20830842776E+03  0.25500000920E-02 0.  1.
       -2   -1    0    0    0  501  0.00000000000E+00  0.00000000000E+00 -0.17245597457E+04  0.17245597457E+04  0.25500000920E-02 0. -1.
    10030    2    1    2    0    0  0.00000000000E+00  0.00000000000E+00 -0.15162513179E+04  0.19328681734E+04  0.11987332133E+04 0.  0.
        2    1    3    3  502    0  0.47092624544E+02  0.42486533940E+03 -0.14355594953E+04  0.14978515736E+04  0.25500000920E-02 0. -1.
       -2    1    3    3    0  502 -0.47092624544E+02 -0.42486533940E+03 -0.80691822623E+02  0.43501659986E+03  0.25500000920E-02 0.  1.
</event>
<event>
 5   0  0.5001586E-04  0.1196791E+04  0.7818609E-02  0.9115670E-01
       -1   -1    0    0    0  501  0.00000000000E+00  0.00000000000E+00  0.77782552407E+03  0.77782552409E+03  0.50400001928E-02 0.  1.
        1   -1    0    0  501    0  0.00000000000E+00  0.00000000000E+00 -0.46035687755E+03  0.46035687758E+03  0.50400001928E-02 0. -1.
    10030    2    1    2    0    0  0.00000000000E+00  0.00000000000E+00  0.31746864653E+03  0.12381824017E+04  0.11967912593E+04 0.  0.
        1    1    3    3  502    0  0.22273899527E+03 -0.23564774578E+03 -0.36158567653E+03  0.48568170812E+03  0.50400001928E-02 0. -1.
       -1    1    3    3    0  502 -0.22273899527E+03  0.23564774578E+03  0.67905432305E+03  0.75250069355E+03  0.50400001928E-02 0.  1.
</event>
<event>
 5   0  0.5052959E-04  0.1201372E+04  0.7818609E-02  0.9111656E-01
        1   -1    0    0  501    0  0.00000000000E+00  0.00000000000E+00  0.17098398128E+04  0.17098398128E+04  0.50400001928E-02 0. -1.
       -1   -1    0    0    0  501  0.00000000000E+00  0.00000000000E+00 -0.21102785487E+03  0.21102785493E+03  0.50400001928E-02 0.  1.
    10030    2    1    2    0    0  0.00000000000E+00  0.00000000000E+00  0.14988119579E+04  0.19208676677E+04  0.12013722619E+04 0.  0.
        2    1    3    3  502    0 -0.35395338229E+03  0.42359680691E+03  0.37067857578E+03  0.66492094133E+03  0.25500000920E-02 0.  1.
       -2    1    3    3    0  502  0.35395338229E+03 -0.42359680691E+03  0.11281333821E+04  0.12559467264E+04  0.25500000920E-02 0. -1.
</event>
<event>
 5   0  0.5447074E-04  0.1206672E+04  0.7818609E-02  0.9107036E-01
        1   -1    0    0  501    0  0.00000000000E+00  0.00000000000E+00  0.63654413004E+03  0.63654413006E+03  0.50400001928E-02 0. -1.
       -1   -1    0    0    0  501  0.00000000000E+00  0.00000000000E+00 -0.57186075535E+03  0.57186075537E+03  0.50400001928E-02 0.  1.
    10030    2    1    2    0    0  0.00000000000E+00  0.00000000000E+00  0.64683374687E+02  0.12084048854E+04  0.12066724610E+04 0.  0.
        4    1    3    3  502    0  0.14435276271E+03  0.48900756847E+03  0.35536776600E+03  0.62149335004E+03  0.12699999809E+01 0. -1.
       -4    1    3    3    0  502 -0.14435276271E+03 -0.48900756847E+03 -0.29068439131E+03  0.58691153540E+03  0.12699999809E+01 0.  1.
</event>
<event>
 5   0  0.5157631E-04  0.1203298E+04  0.7818609E-02  0.9109975E-01
       -1   -1    0    0    0  501  0.00000000000E+00  0.00000000000E+00  0.67506150998E+03  0.67506150999E+03  0.50400001928E-02 0. -1.
        1   -1    0    0  501    0  0.00000000000E+00  0.00000000000E+00 -0.53622002976E+03  0.53622002978E+03  0.50400001928E-02 0.  1.
    10030    2    1    2    0    0  0.00000000000E+00  0.00000000000E+00  0.13884148022E+03  0.12112815398E+04  0.12032979731E+04 0.  0.
        5    1    3    3  502    0 -0.36455944222E+02  0.12433105651E+03  0.66083228348E+03  0.67343050448E+03  0.46999998093E+01 0. -1.
       -5    1    3    3    0  502  0.36455944222E+02 -0.12433105651E+03 -0.52199080326E+03  0.53785103529E+03  0.46999998093E+01 0.  1.
</event>
<event>
 5   0  0.9050363E-04  0.1196899E+04  0.7818609E-02  0.9115576E-01
        2   -1    0    0  501    0  0.00000000000E+00  0.00000000000E+00  0.34451430916E+03  0.34451430917E+03  0.25500000920E-02 0. -1.
       -2   -1    0    0    0  501  0.00000000000E+00  0.00000000000E+00 -0.10395549243E+04  0.10395549243E+04  0.25500000920E-02 0.  1.
    10030    2    1    2    0    0  0.00000000000E+00  0.00000000000E+00 -0.69504061510E+03  0.13840692334E+04  0.11968985698E+04 0.  0.
        3    1    3    3  502    0 -0.16586189061E+03 -0.45860594028E+03  0.53581731543E+02  0.49061246149E+03  0.10100000352E+00 0. -1.
       -3    1    3    3    0  502  0.16586189061E+03  0.45860594028E+03 -0.74862234664E+03  0.89345677193E+03  0.10100000352E+00 0.  1.
</event>
<event>
 5   0  0.3453625E-04  0.1200555E+04  0.7818609E-02  0.9112371E-01
        3   -1    0    0  501    0  0.00000000000E+00  0.00000000000E+00  0.91070151275E+03  0.91070151835E+03  0.10100000352E+00 0.  1.
       -3   -1    0    0    0  501  0.00000000000E+00  0.00000000000E+00 -0.39566556693E+03  0.39566557982E+03  0.10100000352E+00 0. -1.
    10030    2    1    2    0    0  0.00000000000E+00  0.00000000000E+00  0.51503594583E+03  0.13063670982E+04  0.12005552756E+04 0.  0.
        3    1    3    3  502    0  0.21673505775E+03  0.13260301928E+03 -0.33426741185E+03  0.41987183617E+03  0.10100000352E+00 0. -1.
       -3    1    3    3    0  502 -0.21673505775E+03 -0.13260301928E+03  0.84930335768E+03  0.88649526200E+03  0.10100000352E+00 0.  1.
</event>
<event>
 5   0  0.9050363E-04  0.1209393E+04  0.7818609E-02  0.9104675E-01
        2   -1    0    0  501    0  0.00000000000E+00  0.00000000000E+00  0.10253741181E+04  0.10253741181E+04  0.25500000920E-02 0. -1.
       -2   -1    0    0    0  501  0.00000000000E+00  0.00000000000E+00 -0.35660898659E+03  0.35660898659E+03  0.25500000920E-02 0.  1.
    10030    2    1    2    0    0  0.00000000000E+00  0.00000000000E+00  0.66876513151E+03  0.13819831047E+04  0.12093926164E+04 0.  0.
        3    1    3    3  502    0  0.51947121502E+03  0.30950487375E+03  0.33865892476E+03  0.69306095521E+03  0.10100000352E+00 0. -1.
       -3    1    3    3    0  502 -0.51947121502E+03 -0.30950487375E+03  0.33010620675E+03  0.68892214948E+03  0.10100000352E+00 0.  1.
</event>
<event>
 5   0  0.5003507E-04  0.1158565E+04  0.7818609E-02  0.9149918E-01
        1   -1    0    0  501    0  0.00000000000E+00  0.00000000000E+00  0.13166512081E+04  0.13166512081E+04  0.50400001928E-02 0. -1.
       -1   -1    0    0    0  501  0.00000000000E+00  0.00000000000E+00 -0.25486490435E+03  0.25486490440E+03  0.50400001928E-02 0.  1.
    10030    2    1    2    0    0  0.00000000000E+00  0.00000000000E+00  0.10617863038E+04  0.15715161126E+04  0.11585649473E+04 0.  0.
        3    1    3    3  502    0 -0.40509053455E+03  0.88446872228E+02 -0.17828953147E+02  0.41501695406E+03  0.10100000352E+00 0.  1.
       -3    1    3    3    0  502  0.40509053455E+03 -0.88446872228E+02  0.10796152569E+04  0.11564991585E+04  0.10100000352E+00 0. -1.
</event>
<event>
 5   0  0.5447074E-04  0.1219562E+04  0.7818609E-02  0.9095904E-01
        1   -1    0    0  501    0  0.00000000000E+00  0.00000000000E+00  0.13667447220E+04  0.13667447220E+04  0.50400001928E-02 0. -1.
       -1   -1    0    0    0  501  0.00000000000E+00  0.00000000000E+00 -0.27205736339E+03  0.27205736344E+03  0.50400001928E-02 0.  1.
    10030    2    1    2    0    0  0.00000000000E+00  0.00000000000E+00  0.10946873586E+04  0.16388020855E+04  0.12195621600E+04 0.  0.
        4    1    3    3  502    0 -0.17950673696E+03 -0.51892231784E+03  0.19098473455E+03  0.58136032054E+03  0.12699999809E+01 0. -1.
       -4    1    3    3    0  502  0.17950673696E+03  0.51892231784E+03  0.90370262409E+03  0.10574417649E+04  0.12699999809E+01 0.  1.
</event>
<event>
 5   0  0.5157631E-04  0.1201513E+04  0.7818609E-02  0.9111534E-01
       -1   -1    0    0    0  501  0.00000000000E+00  0.00000000000E+00  0.86479330036E+03  0.86479330037E+03  0.50400001928E-02 0. -1.
        1   -1    0    0  501    0  0.00000000000E+00  0.00000000000E+00 -0.41733458954E+03  0.41733458957E+03  0.50400001928E-02 0.  1.
    10030    2    1    2    0    0  0.00000000000E+00  0.00000000000E+00  0.44745871081E+03  0.12821278899E+04  0.12015126418E+04 0.  0.
        5    1    3    3  502    0  0.56519728775E+03 -0.19693221404E+03  0.27872146303E+03  0.66025602228E+03  0.46999998093E+01 0. -1.
       -5    1    3    3    0  502 -0.56519728775E+03  0.19693221404E+03  0.16873724778E+03  0.62187186766E+03  0.46999998093E+01 0.  1.
</event>
<event>
 5   0  0.9070772E-04  0.1199504E+04  0.7818609E-02  0.9113291E-01
       -2   -1    0    0    0  501  0.00000000000E+00  0.00000000000E+00  0.12764936201E+03  0.12764936203E+03  0.25500000920E-02 0.  1.
        2   -1    0    0  501    0  0.00000000000E+00  0.00000000000E+00 -0.28178929788E+04  0.28178929788E+04  0.25500000920E-02 0. -1.
    10030    2    1    2    0    0  0.00000000000E+00  0.00000000000E+00 -0.26902436168E+04  0.29455423408E+04  0.11995036323E+04 0.  0.
        4    1    3    3  502    0  0.29752897407E+03 -0.26858801311E+03 -0.24957412703E+03  0.47217779383E+03  0.12699999809E+01 0.  1.
       -4    1    3    3    0  502 -0.29752897407E+03  0.26858801311E+03 -0.24406694897E+04  0.24733645470E+04  0.12699999809E+01 0. -1.
</event>
<event>
 5   0  0.9070772E-04  0.1200156E+04  0.7818609E-02  0.9112720E-01
       -2   -1    0    0    0  501  0.00000000000E+00  0.00000000000E+00  0.73964039713E+03  0.73964039713E+03  0.25500000920E-02 0.  1.
        2   -1    0    0  501    0  0.00000000000E+00  0.00000000000E+00 -0.48684972668E+03  0.48684972668E+03  0.25500000920E-02 0. -1.
    10030    2    1    2    0    0  0.00000000000E+00  0.00000000000E+00  0.25279067045E+03  0.12264901238E+04  0.12001561985E+04 0.  0.
        4    1    3    3  502    0  0.58460461098E+03 -0.13312560372E+03  0.10121457565E+03  0.60805508037E+03  0.12699999809E+01 0. -1.
       -4    1    3    3    0  502 -0.58460461098E+03  0.13312560372E+03  0.15157609480E+03  0.61843504344E+03  0.12699999809E+01 0.  1.
</event>
<event>
 5   0  0.9050363E-04  0.1196247E+04  0.7818609E-02  0.9116148E-01
       -2   -1    0    0    0  501  0.00000000000E+00  0.00000000000E+00  0.59814367591E+03  0.59814367592E+03  0.25500000920E-02 0.  1.
        2   -1    0    0  501    0  0.00000000000E+00  0.00000000000E+00 -0.59810329828E+03  0.59810329829E+03  0.25500000920E-02 0. -1.
    10030    2    1    2    0    0  0.00000000000E+00  0.00000000000E+00  0.40377627884E-01  0.11962469742E+04  0.11962469735E+04 0.  0.
        3    1    3    3  502    0 -0.22873921779E+03 -0.44549561141E+03  0.32707328205E+03  0.59813452632E+03  0.10100000352E+00 0.  1.
       -3    1    3    3    0  502  0.22873921779E+03  0.44549561141E+03 -0.32703290442E+03  0.59811244789E+03  0.10100000352E+00 0. -1.
</event>
<event>
 5   0  0.5001586E-04  0.1200735E+04  0.7818609E-02  0.9112213E-01
       -1   -1    0    0    0  501  0.00000000000E+00  0.00000000000E+00  0.28693099632E+03  0.28693099636E+03  0.50400001928E-02 0. -1.
        1   -1    0    0  501    0  0.00000000000E+00  0.00000000000E+00 -0.12561954171E+04  0.12561954171E+04  0.50400001928E-02 0.  1.
    10030    2    1    2    0    0  0.00000000000E+00  0.00000000000E+00 -0.96926442076E+03  0.15431264135E+04  0.12007354457E+04 0.  0.
        1    1    3    3  502    0  0.65785779879E+02  0.43496717018E+03 -0.10096871062E+04  0.11013592785E+04  0.50400001928E-02 0.  1.
       -1    1    3    3    0  502 -0.65785779879E+02 -0.43496717018E+03  0.40422685441E+02  0.44176713491E+03  0.50400001928E-02 0. -1.
</event>
<event>
 5   0  0.9070772E-04  0.1220668E+04  0.7818609E-02  0.9094956E-01
        2   -1    0    0  501    0  0.00000000000E+00  0.00000000000E+00  0.84223465067E+03  0.84223465067E+03  0.25500000920E-02 0.  1.
       -2   -1    0    0    0  501  0.00000000000E+00  0.00000000000E+00 -0.44228457980E+03  0.44228457981E+03  0.25500000920E-02 0. -1.
    10030    2    1    2    0    0  0.00000000000E+00  0.00000000000E+00  0.39995007087E+03  0.12845192305E+04  0.12206676838E+04 0.  0.
        4    1    3    3  502    0  0.35291729028E+03 -0.22333530760E+03 -0.26836324119E+03  0.49643702070E+03  0.12699999809E+01 0. -1.
       -4    1    3    3    0  502 -0.35291729028E+03  0.22333530760E+03  0.66831331206E+03  0.78808220978E+03  0.12699999809E+01 0.  1.
</event>
<event>
 5   0  0.5447074E-04  0.1198353E+04  0.7818609E-02  0.9114299E-01
        1   -1    0    0  501    0  0.00000000000E+00  0.00000000000E+00  0.18916768326E+04  0.18916768326E+04  0.50400001928E-02 0. -1.
       -1   -1    0    0    0  501  0.00000000000E+00  0.00000000000E+00 -0.18978527502E+03  0.18978527509E+03  0.50400001928E-02 0.  1.
    10030    2    1    2    0    0  0.00000000000E+00  0.00000000000E+00  0.17018915576E+04  0.20814621077E+04  0.11983528829E+04 0.  0.
        4    1    3    3  502    0 -0.31519907682E+03  0.50378952020E+03  0.71802243982E+03  0.93204730335E+03  0.12699999809E+01 0.  1.
       -4    1    3    3    0  502  0.31519907682E+03 -0.50378952020E+03  0.98386911773E+03  0.11494148043E+04  0.12699999809E+01 0. -1.
</event>
<event>
 5   0  0.9298693E-04  0.1201448E+04  0.7818609E-02  0.9111590E-01
        2   -1    0    0  501    0  0.00000000000E+00  0.00000000000E+00  0.90609443072E+03  0.90609443072E+03  0.25500000920E-02 0.  1.
       -2   -1    0    0    0  501  0.00000000000E+00  0.00000000000E+00 -0.39826882676E+03  0.39826882677E+03  0.25500000920E-02 0. -1.
    10030    2    1    2    0    0  0.00000000000E+00  0.00000000000E+00  0.50782560396E+03  0.13043632575E+04  0.12014477365E+04 0.  0.
        1    1    3    3  502    0  0.12230220038E+03 -0.39698634856E+03  0.72503549948E+03  0.83560305451E+03  0.50400001928E-02 0.  1.
       -1    1    3    3    0  502 -0.12230220038E+03  0.39698634856E+03 -0.21720989552E+03  0.46876020298E+03  0.50400001928E-02 0. -1.
</event>
<event>
 5   0  0.9145224E-04  0.1199947E+04  0.7818609E-02  0.9112903E-01
       -2   -1    0    0    0  501  0.00000000000E+00  0.00000000000E+00  0.13456473739E+03  0.13456473741E+03  0.25500000920E-02 0. -1.
        2   -1    0    0  501    0  0.00000000000E+00  0.00000000000E+00 -0.26750568106E+04  0.26750568106E+04  0.25500000920E-02 0.  1.
    10030    2    1    2    0    0  0.00000000000E+00  0.00000000000E+00 -0.25404920732E+04  0.28096215480E+04  0.11999471943E+04 0.  0.
        5    1    3    3  502    0  0.13117855180E+03 -0.33426424611E+02 -0.26387877104E+04  0.26422618736E+04  0.46999998093E+01 0.  1.
       -5    1    3    3    0  502 -0.13117855180E+03  0.33426424611E+02  0.98295637195E+02  0.16735967437E+03  0.46999998093E+01 0. -1.
</event>
<event>
 5   0  0.5001586E-04  0.1199277E+04  0.7818609E-02  0.9113489E-01
        1   -1    0    0  501    0  0.00000000000E+00  0.00000000000E+00  0.49660414657E+03  0.49660414660E+03  0.50400001928E-02 0. -1.
       -1   -1    0    0    0  501  0.00000000000E+00  0.00000000000E+00 -0.72405039838E+03  0.72405039840E+03  0.50400001928E-02 0.  1.
    10030    2    1    2    0    0  0.00000000000E+00  0.00000000000E+00 -0.22744625181E+03  0.12206545450E+04  0.11992771659E+04 0.  0.
        1    1    3    3  502    0 -0.28855190583E+03  0.48351380608E+03  0.96152896277E+02  0.57122078264E+03  0.50400001928E-02 0. -1.
       -1    1    3    3    0  502  0.28855190583E+03 -0.48351380608E+03 -0.32359914809E+03  0.64943376236E+03  0.50400001928E-02 0.  1.
</event>
<event>
 5   0  0.5001586E-04  0.1195456E+04  0.7818609E-02  0.9116843E-01
       -1   -1    0    0    0  501  0.00000000000E+00  0.00000000000E+00  0.24426634299E+03  0.24426634305E+03  0.50400001928E-02 0. -1.
        1   -1    0    0  501    0  0.00000000000E+00  0.00000000000E+00 -0.14626607427E+04  0.14626607428E+04  0.50400001928E-02 0.  1.
    10030    2    1    2    0    0  0.00000000000E+00  0.00000000000E+00 -0.12183943998E+04  0.17069270858E+04  0.11954560481E+04 0.  0.
        1    1    3    3  502    0  0.58274966893E+03 -0.86479536156E+02 -0.46497130112E+03  0.75051595433E+03  0.50400001928E-02 0.  1.
       -1    1    3    3    0  502 -0.58274966893E+03  0.86479536156E+02 -0.75342309864E+03  0.95641113147E+03  0.50400001928E-02 0. -1.
</event>
<event>
 5   0  0.5447074E-04  0.1218102E+04  0.7818609E-02  0.9097158E-01
       -1   -1    0    0    0  501  0.00000000000E+00  0.00000000000E+00  0.12447128639E+04  0.12447128639E+04  0.50400001928E-02 0.  1.
        1   -1    0    0  501    0  0.00000000000E+00  0.00000000000E+00 -0.29801498001E+03  0.29801498006E+03  0.50400001928E-02 0. -1.
    10030    2    1    2    0    0  0.00000000000E+00  0.00000000000E+00  0.94669788387E+03  0.15427278439E+04  0.12181019322E+04 0.  0.
        4    1    3    3  502    0 -0.29409523563E+03 -0.13794340670E+03  0.11258382327E+04  0.11717652197E+04  0.12699999809E+01 0.  1.
       -4    1    3    3    0  502  0.29409523563E+03  0.13794340670E+03 -0.17914034884E+03  0.37096262420E+03  0.12699999809E+01 0. -1.
</event>
<event>
 5   0  0.9070772E-04  0.1187276E+04  0.7818609E-02  0.9124067E-01
        2   -1    0    0  501    0  0.00000000000E+00  0.00000000000E+00  0.20404623980E+04  0.20404623980E+04  0.25500000920E-02 0.  1.
       -2   -1    0    0    0  501  0.00000000000E+00  0.00000000000E+00 -0.17270901924E+03  0.17270901926E+03  0.25500000920E-02 0. -1.
    10030    2    1    2    0    0  0.00000000000E+00  0.00000000000E+00  0.18677533788E+04  0.22131714173E+04  0.11872763109E+04 0.  0.
        4    1    3    3  502    0 -0.49785425644E+03 -0.23940065061E+03  0.52875402346E+03  0.76469207031E+03  0.12699999809E+01 0.  1.
       -4    1    3    3    0  502  0.49785425644E+03  0.23940065061E+03  0.13389993553E+04  0.14484793470E+04  0.12699999809E+01 0. -1.
</event>
<event>
 5   0  0.5001586E-04  0.1197032E+04  0.7818609E-02  0.9115459E-01
        1   -1    0    0  501    0  0.00000000000E+00  0.00000000000E+00  0.83332030168E+03  0.83332030170E+03  0.50400001928E-02 0.  1.
       -1   -1    0    0    0  501  0.00000000000E+00  0.00000000000E+00 -0.42987216064E+03  0.42987216067E+03  0.50400001928E-02 0. -1.
    10030    2    1    2    0    0  0.00000000000E+00  0.00000000000E+00  0.40344814104E+03  0.12631924624E+04  0.11970316598E+04 0.  0.
        1    1    3    3  502    0  0.59664507433E+03 -0.33758445505E+02  0.23666327352E+03  0.64275538304E+03  0.50400001928E-02 0. -1.
       -1    1    3    3    0  502 -0.59664507433E+03  0.33758445505E+02  0.16678486752E+03  0.62043707934E+03  0.50400001928E-02 0.  1.
</event>
<event>
 5   0  0.9298693E-04  0.1199052E+04  0.7818609E-02  0.9113687E-01
       -2   -1    0    0    0  501  0.00000000000E+00  0.00000000000E+00  0.33146048591E+03  0.33146048592E+03  0.25500000920E-02 0.  1.
        2   -1    0    0  501    0  0.00000000000E+00  0.00000000000E+00 -0.10843868777E+04  0.10843868778E+04  0.25500000920E-02 0. -1.
    10030    2    1    2    0    0  0.00000000000E+00  0.00000000000E+00 -0.75292639183E+03  0.14158473637E+04  0.11990519612E+04 0.  0.
        1    1    3    3  502    0 -0.22951707980E+03 -0.54663635210E+03 -0.48169418412E+03  0.76388394302E+03  0.50400001928E-02 0. -1.
       -1    1    3    3    0  502  0.22951707980E+03  0.54663635210E+03 -0.27123220771E+03  0.65196342066E+03  0.50400001928E-02 0.  1.
</event>
<event>
 5   0  0.3453625E-04  0.1196472E+04  0.7818609E-02  0.9115951E-01
        3   -1    0    0  501    0  0.00000000000E+00  0.00000000000E+00  0.19528159373E+04  0.19528159399E+04  0.10100000352E+00 0.  1.
       -3   -1    0    0    0  501  0.00000000000E+00  0.00000000000E+00 -0.18326664061E+03  0.18326666844E+03  0.10100000352E+00 0. -1.
    10030    2    1    2    0    0  0.00000000000E+00  0.00000000000E+00  0.17695492967E+04  0.21360826084E+04  0.11964715610E+04 0.  0.
        1    1    3    3  502    0  0.26701291537E+03  0.45816360005E+03  0.13791378613E+04  0.14775760630E+04  0.50400001928E-02 0. -1.
       -1    1    3    3    0  502 -0.26701291537E+03 -0.45816360005E+03  0.39041143536E+03  0.65850654535E+03  0.50400001928E-02 0.  1.
</event>
<event>
 5   0  0.5157631E-04  0.1206351E+04  0.7818609E-02  0.9107316E-01
       -1   -1    0    0    0  501  0.00000000000E+00  0.00000000000E+00  0.29354888303E+03  0.29354888307E+03  0.50400001928E-02 0. -1.
        1   -1    0    0  501    0  0.00000000000E+00  0.00000000000E+00 -0.12393865025E+04  0.12393865025E+04  0.50400001928E-02 0.  1.
    10030    2    1    2    0    0  0.00000000000E+00  0.00000000000E+00 -0.94583761946E+03  0.15329353856E+04  0.12063507342E+04 0.  0.
        5    1    3    3  502    0  0.49709004498E+03 -0.26481716859E+03 -0.19869086298E+03  0.59726610035E+03  0.46999998093E+01 0. -1.
       -5    1    3    3    0  502 -0.49709004498E+03  0.26481716859E+03 -0.74714675648E+03  0.93566928522E+03  0.46999998093E+01 0.  1.
</event>
<event>
 5   0  0.9050363E-04  0.1199980E+04  0.7818609E-02  0.9112874E-01
       -2   -1    0    0    0  501  0.00000000000E+00  0.00000000000E+00  0.61077591144E+03  0.61077591144E+03  0.25500000920E-02 0. -1.
        2   -1    0    0  501    0  0.00000000000E+00  0.00000000000E+00 -0.58939434488E+03  0.58939434489E+03  0.25500000920E-02 0.  1.
    10030    2    1    2    0    0  0.00000000000E+00  0.00000000000E+00  0.21381566555E+02  0.12001702563E+04  0.11999797802E+04 0.  0.
        3    1    3    3  502    0 -0.27437549525E+01  0.53086582543E+03 -0.26892792291E+03  0.59510359663E+03  0.10100000352E+00 0.  1.
       -3    1    3    3    0  502  0.27437549525E+01 -0.53086582543E+03  0.29030948947E+03  0.60506665970E+03  0.10100000352E+00 0. -1.
</event>
<event>
 5   0  0.5001586E-04  0.1199178E+04  0.7818609E-02  0.9113576E-01
       -1   -1    0    0    0  501  0.00000000000E+00  0.00000000000E+00  0.11120625090E+03  0.11120625101E+03  0.50400001928E-02 0. -1.
        1   -1    0    0  501    0  0.00000000000E+00  0.00000000000E+00 -0.32327972882E+04  0.32327972882E+04  0.50400001928E-02 0.  1.
    10030    2    1    2    0    0  0.00000000000E+00  0.00000000000E+00 -0.31215910373E+04  0.33440035392E+04  0.11991784964E+04 0.  0.
        1    1    3    3  502    0 -0.12226724850E+03  0.21134662004E+03 -0.33706628830E+02  0.24648085262E+03  0.50400001928E-02 0. -1.
       -1    1    3    3    0  502  0.12226724850E+03 -0.21134662004E+03 -0.30878844084E+04  0.30975226865E+04  0.50400001928E-02 0.  1.
</event>
<event>
 5   0  0.5157631E-04  0.1201396E+04  0.7818609E-02  0.9111635E-01
        1   -1    0    0  501    0  0.00000000000E+00  0.00000000000E+00  0.17783313973E+04  0.17783313974E+04  0.50400001928E-02 0.  1.
       -1   -1    0    0    0  501  0.00000000000E+00  0.00000000000E+00 -0.20290838975E+03  0.20290838981E+03  0.50400001928E-02 0. -1.
    10030    2    1    2    0    0  0.00000000000E+00  0.00000000000E+00  0.15754230076E+04  0.19812397872E+04  0.12013964547E+04 0.  0.
        5    1    3    3  502    0  0.50506842161E+02  0.24089202301E+03  0.16913242320E+04  0.17091458849E+04  0.46999998093E+01 0.  1.
       -5    1    3    3    0  502 -0.50506842161E+02 -0.24089202301E+03 -0.11590122443E+03  0.27209390231E+03  0.46999998093E+01 0. -1.
</event>
<event>
 5   0  0.3453625E-04  0.1199815E+04  0.7818609E-02  0.9113019E-01
        3   -1    0    0  501    0  0.00000000000E+00  0.00000000000E+00  0.68283667588E+03  0.68283668335E+03  0.10100000352E+00 0.  1.
       -3   -1    0    0    0  501  0.00000000000E+00  0.00000000000E+00 -0.52704984713E+03  0.52704985681E+03  0.10100000352E+00 0. -1.
    10030    2    1    2    0    0  0.00000000000E+00  0.00000000000E+00  0.15578682875E+03  0.12098865402E+04  0.11998149457E+04 0.  0.
        5    1    3    3  502    0  0.36783969427E+03  0.47066716921E+03  0.13343078048E+03  0.61209434570E+03  0.46999998093E+01 0.  1.
       -5    1    3    3    0  502 -0.36783969427E+03 -0.47066716921E+03  0.22356048270E+02  0.59779219446E+03  0.46999998093E+01 0. -1.
</event>
<event>
 5   0  0.9145224E-04  0.1198643E+04  0.7818609E-02  0.9114045E-01
       -2   -1    0    0    0  501  0.00000000000E+00  0.00000000000E+00  0.27770592427E+03  0.27770592428E+03  0.25500000920E-02 0.  1.
        2   -1    0    0  501    0  0.00000000000E+00  0.00000000000E+00 -0.12934054222E+04  0.12934054222E+04  0.25500000920E-02 0. -1.
    10030    2    1    2    0    0  0.00000000000E+00  0.00000000000E+00 -0.10156994980E+04  0.15711113465E+04  0.11986431466E+04 0.  0.
        5    1    3    3  502    0 -0.56474807371E+03  0.46891245799E+02 -0.25225487407E+03  0.62031748902E+03  0.46999998093E+01 0. -1.
       -5    1    3    3    0  502  0.56474807371E+03 -0.46891245799E+02 -0.76344462389E+03  0.95079385749E+03  0.46999998093E+01 0.  1.
</event>
<event>
 5   0  0.5001586E-04  0.1196245E+04  0.7818609E-02  0.9116150E-01
        1   -1    0    0  501    0  0.00000000000E+00  0.00000000000E+00  0.13541706920E+04  0.13541706920E+04  0.50400001928E-02 0. -1.
       -1   -1    0    0    0  501  0.00000000000E+00  0.00000000000E+00 -0.26418415046E+03  0.26418415051E+03  0.50400001928E-02 0.  1.
    10030    2    1    2    0    0  0.00000000000E+00  0.00000000000E+00  0.10899865415E+04  0.16183548425E+04  0.11962448477E+04 0.  0.
        1    1    3    3  502    0 -0.26264728372E+03 -0.42469211695E+03  0.99041890953E+03  0.11091783473E+04  0.50400001928E-02 0. -1.
       -1    1    3    3    0  502  0.26264728372E+03  0.42469211695E+03  0.99567631982E+02  0.50917649514E+03  0.50400001928E-02 0.  1.
</event>
<event>
 5   0  0.5157631E-04  0.1206360E+04  0.7818609E-02  0.9107308E-01
        1   -1    0    0  501    0  0.00000000000E+00  0.00000000000E+00  0.57336805783E+03  0.57336805785E+03  0.50400001928E-02 0. -1.
       -1   -1    0    0    0  501  0.00000000000E+00  0.00000000000E+00 -0.63454234856E+03  0.63454234858E+03  0.50400001928E-02 0.  1.
    10030    2    1    2    0    0  0.00000000000E+00  0.00000000000E+00 -0.61174290735E+02  0.12079104064E+04  0.12063603343E+04 0.  0.
        5    1    3    3  502    0 -0.36388179133E+03 -0.76201522396E+02 -0.50615805364E+03  0.62804036123E+03  0.46999998093E+01 0.  1.
       -5    1    3    3    0  502  0.36388179133E+03  0.76201522396E+02  0.44498376290E+03  0.57987004520E+03  0.46999998093E+01 0. -1.
</event>
<event>
 5   0  0.5003507E-04  0.1200552E+04  0.7818609E-02  0.9112373E-01
        1   -1    0    0  501    0  0.00000000000E+00  0.00000000000E+00  0.47316988047E+03  0.47316988049E+03  0.50400001928E-02 0. -1.
       -1   -1    0    0    0  501  0.00000000000E+00  0.00000000000E+00 -0.76152657478E+03  0.76152657480E+03  0.50400001928E-02 0.  1.
    10030    2    1    2    0    0  0.00000000000E+00  0.00000000000E+00 -0.28835669432E+03  0.12346964553E+04  0.12005522702E+04 0.  0.
        3    1    3    3  502    0 -0.85722531371E+02 -0.98308537820E+02 -0.74677641626E+03  0.75808175487E+03  0.10100000352E+00 0.  1.
       -3    1    3    3    0  502  0.85722531371E+02  0.98308537820E+02  0.45841972194E+03  0.47661470042E+03  0.10100000352E+00 0. -1.
</event>
<event>
 5   0  0.9070772E-04  0.1200731E+04  0.7818609E-02  0.9112217E-01
        2   -1    0    0  501    0  0.00000000000E+00  0.00000000000E+00  0.78994242150E+03  0.78994242150E+03  0.25500000920E-02 0. -1.
       -2   -1    0    0    0  501  0.00000000000E+00  0.00000000000E+00 -0.45628513259E+03  0.45628513259E+03  0.25500000920E-02 0.  1.
    10030    2    1    2    0    0  0.00000000000E+00  0.00000000000E+00  0.33365728891E+03  0.12462275541E+04  0.12007314147E+04 0.  0.
        4    1    3    3  502    0  0.22981839074E+03  0.42580837726E+02 -0.40712354800E+03  0.46944735243E+03  0.12699999809E+01 0.  1.
       -4    1    3    3    0  502 -0.22981839074E+03 -0.42580837726E+02  0.74078083691E+03  0.77678020167E+03  0.12699999809E+01 0. -1.
</event>
<event>
 5   0  0.5052959E-04  0.1205771E+04  0.7818609E-02  0.9107820E-01
        1   -1    0    0  501    0  0.00000000000E+00  0.00000000000E+00  0.22060815817E+04  0.22060815817E+04  0.50400001928E-02 0.  1.
       -1   -1    0    0    0  501  0.00000000000E+00  0.00000000000E+00 -0.16475849344E+03  0.16475849352E+03  0.50400001928E-02 0. -1.
    10030    2    1    2    0    0  0.00000000000E+00  0.00000000000E+00  0.20413230883E+04  0.23708400753E+04  0.12057705883E+04 0.  0.
        2    1    3    3  502    0 -0.41603935640E+03  0.24412167512E+03  0.17317425828E+04  0.17976697448E+04  0.25500000920E-02 0.  1.
       -2    1    3    3    0  502  0.41603935640E+03 -0.24412167512E+03  0.30958050554E+03  0.57317033049E+03  0.25500000920E-02 0. -1.
</event>
<event>
 5   0  0.3453625E-04  0.1194334E+04  0.7818609E-02  0.9117831E-01
        3   -1    0    0  501    0  0.00000000000E+00  0.00000000000E+00  0.45143961233E+03  0.45143962362E+03  0.10100000352E+00 0. -1.
       -3   -1    0    0    0  501  0.00000000000E+00  0.00000000000E+00 -0.78993583162E+03  0.78993583808E+03  0.10100000352E+00 0.  1.
    10030    2    1    2    0    0  0.00000000000E+00  0.00000000000E+00 -0.33849621929E+03  0.12413754617E+04  0.11943338505E+04 0.  0.
        4    1    3    3  502    0 -0.21337442223E+03  0.55754641067E+03 -0.18466750356E+03  0.62489226582E+03  0.12699999809E+01 0.  1.
       -4    1    3    3    0  502  0.21337442223E+03 -0.55754641067E+03 -0.15382871573E+03  0.61648319588E+03  0.12699999809E+01 0. -1.
</event>
<event>
 5   0  0.9298693E-04  0.1226176E+04  0.7818609E-02  0.9090248E-01
       -2   -1    0    0    0  501  0.00000000000E+00  0.00000000000E+00  0.31400006012E+03  0.31400006013E+03  0.25500000920E-02 0. -1.
        2   -1    0    0  501    0  0.00000000000E+00  0.00000000000E+00 -0.11970602789E+04  0.11970602789E+04  0.25500000920E-02 0.  1.
    10030    2    1    2    0    0  0.00000000000E+00  0.00000000000E+00 -0.88306021875E+03  0.15110603390E+04  0.12261761693E+04 0.  0.
        1    1    3    3  502    0  0.31688792023E+03  0.46985851001E+03 -0.72972809538E+03  0.92395241578E+03  0.50400001928E-02 0.  1.
       -1    1    3    3    0  502 -0.31688792023E+03 -0.46985851001E+03 -0.15333212337E+03  0.58710792321E+03  0.50400001928E-02 0. -1.
</event>
<event>
 5   0  0.9298693E-04  0.1199792E+04  0.7818609E-02  0.9113038E-01
        2   -1    0    0  501    0  0.00000000000E+00  0.00000000000E+00  0.56808042279E+03  0.56808042280E+03  0.25500000920E-02 0.  1.
       -2   -1    0    0    0  501  0.00000000000E+00  0.00000000000E+00 -0.63349379192E+03  0.63349379192E+03  0.25500000920E-02 0. -1.
    10030    2    1    2    0    0  0.00000000000E+00  0.00000000000E+00 -0.65413369128E+02  0.12015742147E+04  0.11997923506E+04 0.  0.
        1    1    3    3  502    0 -0.35107117583E+03 -0.47084115031E+03 -0.15508907802E+03  0.60744957114E+03  0.50400001928E-02 0. -1.
       -1    1    3    3    0  502  0.35107117583E+03  0.47084115031E+03  0.89675708896E+02  0.59412464359E+03  0.50400001928E-02 0.  1.
</event>
<event>
 5   0  0.9070772E-04  0.1200791E+04  0.7818609E-02  0.9112164E-01
        2   -1    0    0  501    0  0.00000000000E+00  0.00000000000E+00  0.60226284376E+03  0.60226284377E+03  0.25500000920E-02 0.  1.
       -2   -1    0    0    0  501  0.00000000000E+00  0.00000000000E+00 -0.59853426039E+03  0.59853426039E+03  0.25500000920E-02 0. -1.
    10030    2    1    2    0    0  0.00000000000E+00  0.00000000000E+00  0.37285833727E+01  0.12007971042E+04  0.12007913154E+04 0.  0.
        4    1    3    3  502    0  0.33704816782E+03 -0.11644655893E+02  0.49859223168E+03  0.60194093716E+03  0.12699999809E+01 0.  1.
       -4    1    3    3    0  502 -0.33704816782E+03  0.11644655893E+02 -0.49486364830E+03  0.59885616700E+03  0.12699999809E+01 0. -1.
</event>
<event>
 5   0  0.9070772E-04  0.1184032E+04  0.7818609E-02  0.9126949E-01
       -2   -1    0    0    0  501  0.00000000000E+00  0.00000000000E+00  0.78334999127E+03  0.78334999127E+03  0.25500000920E-02 0.  1.
        2   -1    0    0  501    0  0.00000000000E+00  0.00000000000E+00 -0.44741542132E+03  0.44741542133E+03  0.25500000920E-02 0. -1.
    10030    2    1    2    0    0  0.00000000000E+00  0.00000000000E+00  0.33593456995E+03  0.12307654126E+04  0.11840318685E+04 0.  0.
        4    1    3    3  502    0  0.28269642561E+03  0.39654136299E+03  0.51788274221E+03  0.71089132024E+03  0.12699999809E+01 0.  1.
       -4    1    3    3    0  502 -0.28269642561E+03 -0.39654136299E+03 -0.18194817226E+03  0.51987409236E+03  0.12699999809E+01 0. -1.
</event>
<event>
 5   0  0.9050363E-04  0.1226466E+04  0.7818609E-02  0.9090001E-01
       -2   -1    0    0    0  501  0.00000000000E+00  0.00000000000E+00  0.87353991723E+03  0.87353991724E+03  0.25500000920E-02 0. -1.
        2   -1    0    0  501    0  0.00000000000E+00  0.00000000000E+00 -0.43049551695E+03  0.43049551696E+03  0.25500000920E-02 0.  1.
    10030    2    1    2    0    0  0.00000000000E+00  0.00000000000E+00  0.44304440028E+03  0.13040354342E+04  0.12264664989E+04 0.  0.
        3    1    3    3  502    0  0.49940607956E+02  0.22917872165E+02  0.87091715375E+03  0.87264883664E+03  0.10100000352E+00 0. -1.
       -3    1    3    3    0  502 -0.49940607956E+02 -0.22917872165E+02 -0.42787275347E+03  0.43138659756E+03  0.10100000352E+00 0.  1.
</event>
<event>
 5   0  0.5003507E-04  0.1191683E+04  0.7818609E-02  0.9120168E-01
       -1   -1    0    0    0  501  0.00000000000E+00  0.00000000000E+00  0.11682192117E+04  0.11682192117E+04  0.50400001928E-02 0.  1.
        1   -1    0    0  501    0  0.00000000000E+00  0.00000000000E+00 -0.30390457076E+03  0.30390457080E+03  0.50400001928E-02 0. -1.
    10030    2    1    2    0    0  0.00000000000E+00  0.00000000000E+00  0.86431464093E+03  0.14721237825E+04  0.11916831091E+04 0.  0.
        3    1    3    3  502    0  0.51264709160E+03  0.66080927668E+02  0.79831055714E+03  0.95103810931E+03  0.10100000352E+00 0. -1.
       -3    1    3    3    0  502 -0.51264709160E+03 -0.66080927668E+02  0.66004083789E+02  0.52108567319E+03  0.10100000352E+00 0.  1.
</event>
<event>
 5   0  0.5447074E-04  0.1200859E+04  0.7818609E-02  0.9112105E-01
        1   -1    0    0  501    0  0.00000000000E+00  0.00000000000E+00  0.82649499413E+03  0.82649499414E+03  0.50400001928E-02 0. -1.
       -1   -1    0    0    0  501  0.00000000000E+00  0.00000000000E+00 -0.43619820288E+03  0.43619820291E+03  0.50400001928E-02 0.  1.
    10030    2    1    2    0    0  0.00000000000E+00  0.00000000000E+00  0.39029679125E+03  0.12626931970E+04  0.12008590778E+04 0.  0.
        4    1    3    3  502    0  0.39640420444E+03 -0.32498157670E+03  0.52392191505E+03  0.73297005700E+03  0.12699999809E+01 0. -1.
       -4    1    3    3    0  502 -0.39640420444E+03  0.32498157670E+03 -0.13362512380E+03  0.52972314005E+03  0.12699999809E+01 0.  1.
</event>
<event>
 5   0  0.9050363E-04  0.1193095E+04  0.7818609E-02  0.9118922E-01
       -2   -1    0    0    0  501  0.00000000000E+00  0.00000000000E+00  0.66336989455E+03  0.66336989455E+03  0.25500000920E-02 0. -1.
        2   -1    0    0  501    0  0.00000000000E+00  0.00000000000E+00 -0.53645586865E+03  0.53645586865E+03  0.25500000920E-02 0.  1.
    10030    2    1    2    0    0  0.00000000000E+00  0.00000000000E+00  0.12691402590E+03  0.11998257632E+04  0.11930945864E+04 0.  0.
        3    1    3    3  502    0  0.11553078668E+03 -0.11000210619E+03 -0.51460844797E+03  0.53876682429E+03  0.10100000352E+00 0.  1.
       -3    1    3    3    0  502 -0.11553078668E+03  0.11000210619E+03  0.64152247387E+03  0.66105893891E+03  0.10100000352E+00 0. -1.
</event>
<event>
 5   0  0.9410666E-04  0.1198921E+04  0.7818609E-02  0.9113801E-01
       -2   -1    0    0    0  501  0.00000000000E+00  0.00000000000E+00  0.54508048235E+03  0.54508048236E+03  0.25500000920E-02 0.  1.
        2   -1    0    0  501    0  0.00000000000E+00  0.00000000000E+00 -0.65926619065E+03  0.65926619066E+03  0.25500000920E-02 0. -1.
    10030    2    1    2    0    0  0.00000000000E+00  0.00000000000E+00 -0.11418570830E+03  0.12043466730E+04  0.11989214039E+04 0.  0.
        2    1    3    3  502    0 -0.48334723873E+03  0.64152987414E+02 -0.40740142134E+03  0.63538655722E+03  0.25500000920E-02 0. -1.
       -2    1    3    3    0  502  0.48334723873E+03 -0.64152987414E+02  0.29321571304E+03  0.56896011579E+03  0.25500000920E-02 0.  1.
</event>
<event>
 5   0  0.5001586E-04  0.1200579E+04  0.7818609E-02  0.9112350E-01
       -1   -1    0    0    0  501  0.00000000000E+00  0.00000000000E+00  0.19732440240E+03  0.19732440246E+03  0.50400001928E-02 0. -1.
        1   -1    0    0  501    0  0.00000000000E+00  0.00000000000E+00 -0.18261681054E+04  0.18261681054E+04  0.50400001928E-02 0.  1.
    10030    2    1    2    0    0  0.00000000000E+00  0.00000000000E+00 -0.16288437030E+04  0.20234925079E+04  0.12005790772E+04 0.  0.
        1    1    3    3  502    0 -0.50484705887E+03  0.15741291563E+03 -0.12932091525E+04  0.13971539969E+04  0.50400001928E-02 0.  1.
       -1    1    3    3    0  502  0.50484705887E+03 -0.15741291563E+03 -0.33563455056E+03  0.62633851104E+03  0.50400001928E-02 0. -1.
</event>
<event>
 5   0  0.9298693E-04  0.1205705E+04  0.7818609E-02  0.9107878E-01
       -2   -1    0    0    0  501  0.00000000000E+00  0.00000000000E+00  0.36047654404E+03  0.36047654405E+03  0.25500000920E-02 0.  1.
        2   -1    0    0  501    0  0.00000000000E+00  0.00000000000E+00 -0.10081962535E+04  0.10081962535E+04  0.25500000920E-02 0. -1.
    10030    2    1    2    0    0  0.00000000000E+00  0.00000000000E+00 -0.64771970944E+03  0.13686727975E+04  0.12057049410E+04 0.  0.
        1    1    3    3  502    0 -0.66391479315E+02 -0.15072068591E+03 -0.98216349452E+03  0.99587633955E+03  0.50400001928E-02 0. -1.
       -1    1    3    3    0  502  0.66391479315E+02  0.15072068591E+03  0.33444378508E+03  0.37279645799E+03  0.50400001928E-02 0.  1.
</event>
<event>
 5   0  0.5052959E-04  0.1200835E+04  0.7818609E-02  0.9112126E-01
        1   -1    0    0  501    0  0.00000000000E+00  0.00000000000E+00  0.61711571492E+03  0.61711571494E+03  0.50400001928E-02 0.  1.
       -1   -1    0    0    0  501  0.00000000000E+00  0.00000000000E+00 -0.58417135849E+03  0.58417135851E+03  0.50400001928E-02 0. -1.
    10030    2    1    2    0    0  0.00000000000E+00  0.00000000000E+00  0.32944356429E+02  0.12012870735E+04  0.12008352519E+04 0.  0.
        2    1    3    3  502    0 -0.17673083622E+03 -0.67770020516E+02  0.58648895784E+03  0.61627580013E+03  0.25500000920E-02 0.  1.
       -2    1    3    3    0  502  0.17673083622E+03  0.67770020516E+02 -0.55354460141E+03  0.58501127332E+03  0.25500000920E-02 0. -1.
</event>
<event>
 5   0  0.9145224E-04  0.1196181E+04  0.7818609E-02  0.9116206E-01
       -2   -1    0    0    0  501  0.00000000000E+00  0.00000000000E+00  0.17634838064E+03  0.17634838065E+03  0.25500000920E-02 0. -1.
        2   -1    0    0  501    0  0.00000000000E+00  0.00000000000E+00 -0.20284401192E+04  0.20284401192E+04  0.25500000920E-02 0.  1.
    10030    2    1    2    0    0  0.00000000000E+00  0.00000000000E+00 -0.18520917385E+04  0.22047884998E+04  0.11961808062E+04 0.  0.
        5    1    3    3  502    0  0.21893228752E+03 -0.32382650453E+03 -0.17603720654E+04  0.18032545162E+04  0.46999998093E+01 0.  1.
       -5    1    3    3    0  502 -0.21893228752E+03  0.32382650453E+03 -0.91719673106E+02  0.40153398360E+03  0.46999998093E+01 0. -1.
</event>
<event>
 5   0  0.5052959E-04  0.1139193E+04  0.7818609E-02  0.9167811E-01
        1   -1    0    0  501    0  0.00000000000E+00  0.00000000000E+00  0.21436683348E+04  0.21436683349E+04  0.50400001928E-02 0.  1.
       -1   -1    0    0    0  501  0.00000000000E+00  0.00000000000E+00 -0.15134823973E+03  0.15134823981E+03  0.50400001928E-02 0. -1.
    10030    2    1    2    0    0  0.00000000000E+00  0.00000000000E+00  0.19923200951E+04  0.22950165747E+04  0.11391934500E+04 0.  0.
        2    1    3    3  502    0 -0.19296034115E+03 -0.37559237658E+03  0.22602197579E+03  0.47894598876E+03  0.25500000920E-02 0. -1.
       -2    1    3    3    0  502  0.19296034115E+03  0.37559237658E+03  0.17662981193E+04  0.18160705859E+04  0.25500000920E-02 0.  1.
</event>
<event>
 5   0  0.5003507E-04  0.1190694E+04  0.7818609E-02  0.9121042E-01
        1   -1    0    0  501    0  0.00000000000E+00  0.00000000000E+00  0.16247682393E+04  0.16247682393E+04  0.50400001928E-02 0.  1.
       -1   -1    0    0    0  501  0.00000000000E+00  0.00000000000E+00 -0.21814667173E+03  0.21814667179E+03  0.50400001928E-02 0. -1.
    10030    2    1    2    0    0  0.00000000000E+00  0.00000000000E+00  0.14066215675E+04  0.18429149111E+04  0.11906935522E+04 0.  0.
        3    1    3    3  502    0  0.82560865258E+01  0.69138682866E+02 -0.21182269366E+03  0.22297350557E+03  0.10100000352E+00 0. -1.
       -3    1    3    3    0  502 -0.82560865258E+01 -0.69138682866E+02  0.16184442612E+04  0.16199414055E+04  0.10100000352E+00 0.  1.
</event>
<event>
 5   0  0.5157631E-04  0.1198387E+04  0.7818609E-02  0.9114270E-01
       -1   -1    0    0    0  501  0.00000000000E+00  0.00000000000E+00  0.65769059893E+03  0.65769059895E+03  0.50400001928E-02 0. -1.
        1   -1    0    0  501    0  0.00000000000E+00  0.00000000000E+00 -0.54589902497E+03  0.54589902499E+03  0.50400001928E-02 0.  1.
    10030    2    1    2    0    0  0.00000000000E+00  0.00000000000E+00  0.11179157396E+03  0.12035896239E+04  0.11983866767E+04 0.  0.
        5    1    3    3  502    0  0.36347542567E+02  0.51669154112E+02  0.65431799529E+03  0.65737734544E+03  0.46999998093E+01 0. -1.
       -5    1    3    3    0  502 -0.36347542567E+02 -0.51669154112E+02 -0.54252642133E+03  0.54621227849E+03  0.46999998093E+01 0.  1.
</event>
<event>
 5   0  0.9298693E-04  0.1216602E+04  0.7818609E-02  0.9098448E-01
        2   -1    0    0  501    0  0.00000000000E+00  0.00000000000E+00  0.13484862012E+04  0.13484862012E+04  0.25500000920E-02 0. -1.
       -2   -1    0    0    0  501  0.00000000000E+00  0.00000000000E+00 -0.27440411222E+03  0.27440411223E+03  0.25500000920E-02 0.  1.
    10030    2    1    2    0    0  0.00000000000E+00  0.00000000000E+00  0.10740820890E+04  0.16228903134E+04  0.12166020860E+04 0.  0.
        1    1    3    3  502    0 -0.12990769563E+03  0.50430428660E+03  0.11768013601E+03  0.53389833986E+03  0.50400001928E-02 0.  1.
       -1    1    3    3    0  502  0.12990769563E+03 -0.50430428660E+03  0.95640195298E+03  0.10889919736E+04  0.50400001928E-02 0. -1.
</event>
<event>
 5   0  0.5003507E-04  0.1196852E+04  0.7818609E-02  0.9115617E-01
       -1   -1    0    0    0  501  0.00000000000E+00  0.00000000000E+00  0.49156814430E+03  0.49156814433E+03  0.50400001928E-02 0. -1.
        1   -1    0    0  501    0  0.00000000000E+00  0.00000000000E+00 -0.72851249273E+03  0.72851249275E+03  0.50400001928E-02 0.  1.
    10030    2    1    2    0    0  0.00000000000E+00  0.00000000000E+00 -0.23694434843E+03  0.12200806371E+04  0.11968517605E+04 0.  0.
        3    1    3    3  502    0 -0.36613075051E+03  0.43360079230E+03 -0.31203134779E+03  0.64763025389E+03  0.10100000352E+00 0.  1.
       -3    1    3    3    0  502  0.36613075051E+03 -0.43360079230E+03  0.75086999358E+02  0.57245038319E+03  0.10100000352E+00 0. -1.
</event>
<event>
 5   0  0.9410666E-04  0.1198575E+04  0.7818609E-02  0.9114105E-01
       -2   -1    0    0    0  501  0.00000000000E+00  0.00000000000E+00  0.84794356992E+03  0.84794356992E+03  0.25500000920E-02 0. -1.
        2   -1    0    0  501    0  0.00000000000E+00  0.00000000000E+00 -0.42354849484E+03  0.42354849485E+03  0.25500000920E-02 0.  1.
    10030    2    1    2    0    0  0.00000000000E+00  0.00000000000E+00  0.42439507507E+03  0.12714920648E+04  0.11985745246E+04 0.  0.
        2    1    3    3  502    0 -0.17214554639E+03  0.50119720965E+03 -0.84670970421E+02  0.53665808979E+03  0.25500000920E-02 0.  1.
       -2    1    3    3    0  502  0.17214554639E+03 -0.50119720965E+03  0.50906604549E+03  0.73483397498E+03  0.25500000920E-02 0. -1.
</event>
<event>
 5   0  0.5447074E-04  0.1207098E+04  0.7818609E-02  0.9106666E-01
        1   -1    0    0  501    0  0.00000000000E+00  0.00000000000E+00  0.15892651905E+04  0.15892651905E+04  0.50400001928E-02 0.  1.
       -1   -1    0    0    0  501  0.00000000000E+00  0.00000000000E+00 -0.22920751335E+03  0.22920751340E+03  0.50400001928E-02 0. -1.
    10030    2    1    2    0    0  0.00000000000E+00  0.00000000000E+00  0.13600576771E+04  0.18184727039E+04  0.12070982105E+04 0.  0.
        4    1    3    3  502    0 -0.60285172350E+03 -0.11279826178E+02  0.72024020636E+03  0.93931091912E+03  0.12699999809E+01 0.  1.
       -4    1    3    3    0  502  0.60285172350E+03  0.11279826178E+02  0.63981747077E+03  0.87916178478E+03  0.12699999809E+01 0. -1.
</event>
<event>
 5   0  0.5157631E-04  0.1201067E+04  0.7818609E-02  0.9111923E-01
        1   -1    0    0  501    0  0.00000000000E+00  0.00000000000E+00  0.86101543545E+03  0.86101543547E+03  0.50400001928E-02 0. -1.
       -1   -1    0    0    0  501  0.00000000000E+00  0.00000000000E+00 -0.41885513252E+03  0.41885513255E+03  0.50400001928E-02 0.  1.
    10030    2    1    2    0    0  0.00000000000E+00  0.00000000000E+00  0.44216030293E+03  0.12798705680E+04  0.12010674158E+04 0.  0.
        5    1    3    3  502    0  0.21288865222E+03  0.25825187621E+02  0.81880157083E+03  0.84643169893E+03  0.46999998093E+01 0. -1.
       -5    1    3    3    0  502 -0.21288865222E+03 -0.25825187621E+02 -0.37664126790E+03  0.43343886909E+03  0.46999998093E+01 0.  1.
</event>
<event>
 5   0  0.9145224E-04  0.1205085E+04  0.7818609E-02  0.9108417E-01
        2   -1    0    0  501    0  0.00000000000E+00  0.00000000000E+00  0.28058838164E+03  0.28058838166E+03  0.25500000920E-02 0.  1.
       -2   -1    0    0    0  501  0.00000000000E+00  0.00000000000E+00 -0.12939155801E+04  0.12939155801E+04  0.25500000920E-02 0. -1.
    10030    2    1    2    0    0  0.00000000000E+00  0.00000000000E+00 -0.10133271985E+04  0.15745039618E+04  0.12050853557E+04 0.  0.
        5    1    3    3  502    0 -0.22572569225E+03  0.41082524519E+03 -0.10012683862E+04  0.11055722235E+04  0.46999998093E+01 0. -1.
       -5    1    3    3    0  502  0.22572569225E+03 -0.41082524519E+03 -0.12058812319E+02  0.46893173829E+03  0.46999998093E+01 0.  1.
</event>
<event>
 5   0  0.5157631E-04  0.1203983E+04  0.7818609E-02  0.9109378E-01
        1   -1    0    0  501    0  0.00000000000E+00  0.00000000000E+00  0.14855950083E+04  0.14855950083E+04  0.50400001928E-02 0. -1.
       -1   -1    0    0    0  501  0.00000000000E+00  0.00000000000E+00 -0.24393829759E+03  0.24393829764E+03  0.50400001928E-02 0.  1.
    10030    2    1    2    0    0  0.00000000000E+00  0.00000000000E+00  0.12416567107E+04  0.17295333060E+04  0.12039825867E+04 0.  0.
        5    1    3    3  502    0  0.51661566596E+03 -0.16938277643E+03  0.99207428588E+03  0.11312894192E+04  0.46999998093E+01 0. -1.
       -5    1    3    3    0  502 -0.51661566596E+03  0.16938277643E+03  0.24958242483E+03  0.59824388676E+03  0.46999998093E+01 0.  1.
</event>
<event>
 5   0  0.5052959E-04  0.1212038E+04  0.7818609E-02  0.9102384E-01
       -1   -1    0    0    0  501  0.00000000000E+00  0.00000000000E+00  0.21047544625E+03  0.21047544631E+03  0.50400001928E-02 0.  1.
        1   -1    0    0  501    0  0.00000000000E+00  0.00000000000E+00 -0.17449023766E+04  0.17449023766E+04  0.50400001928E-02 0. -1.
    10030    2    1    2    0    0  0.00000000000E+00  0.00000000000E+00 -0.15344269303E+04  0.19553778229E+04  0.12120381288E+04 0.  0.
        2    1    3    3  502    0  0.29839418683E+03  0.15072843675E+03  0.48261562361E+02  0.33776816130E+03  0.25500000920E-02 0.  1.
       -2    1    3    3    0  502 -0.29839418683E+03 -0.15072843675E+03 -0.15826884927E+04  0.16176096616E+04  0.25500000920E-02 0. -1.
</event>
<event>
 5   0  0.9298693E-04  0.1201727E+04  0.7818609E-02  0.9111346E-01
       -2   -1    0    0    0  501  0.00000000000E+00  0.00000000000E+00  0.44009979608E+03  0.44009979608E+03  0.25500000920E-02 0. -1.
        2   -1    0    0  501    0  0.00000000000E+00  0.00000000000E+00 -0.82035279066E+03  0.82035279067E+03  0.25500000920E-02 0.  1.
    10030    2    1    2    0    0  0.00000000000E+00  0.00000000000E+00 -0.38025299459E+03  0.12604525867E+04  0.12017272501E+04 0.  0.
        1    1    3    3  502    0  0.20373021361E+03  0.36925669332E+03  0.25878458998E+03  0.49479891829E+03  0.50400001928E-02 0. -1.
       -1    1    3    3    0  502 -0.20373021361E+03 -0.36925669332E+03 -0.63903758457E+03  0.76565366846E+03  0.50400001928E-02 0.  1.
</event>
<event>
 5   0  0.5447074E-04  0.1206447E+04  0.7818609E-02  0.9107232E-01
        1   -1    0    0  501    0  0.00000000000E+00  0.00000000000E+00  0.28853330425E+03  0.28853330430E+03  0.50400001928E-02 0. -1.
       -1   -1    0    0    0  501  0.00000000000E+00  0.00000000000E+00 -0.12611318343E+04  0.12611318343E+04  0.50400001928E-02 0.  1.
    10030    2    1    2    0    0  0.00000000000E+00  0.00000000000E+00 -0.97259853000E+03  0.15496651386E+04  0.12064469077E+04 0.  0.
        4    1    3    3  502    0  0.37684446374E+03 -0.61416423060E+02  0.11356184460E+03  0.39834863163E+03  0.12699999809E+01 0. -1.
       -4    1    3    3    0  502 -0.37684446374E+03  0.61416423060E+02 -0.10861603746E+04  0.11513165069E+04  0.12699999809E+01 0.  1.
</event>
<event>
 5   0  0.9298693E-04  0.1185765E+04  0.7818609E-02  0.9125408E-01
        2   -1    0    0  501    0  0.00000000000E+00  0.00000000000E+00  0.41905421596E+03  0.41905421597E+03  0.25500000920E-02 0.  1.
       -2   -1    0    0    0  501  0.00000000000E+00  0.00000000000E+00 -0.83881731231E+03  0.83881731231E+03  0.25500000920E-02 0. -1.
    10030    2    1    2    0    0  0.00000000000E+00  0.00000000000E+00 -0.41976309635E+03  0.12578715283E+04  0.11857654594E+04 0.  0.
        1    1    3    3  502    0 -0.49561703066E+02  0.35645165638E+02 -0.83547423129E+03  0.83770169597E+03  0.50400001928E-02 0. -1.
       -1    1    3    3    0  502  0.49561703066E+02 -0.35645165638E+02  0.41571113495E+03  0.42016983231E+03  0.50400001928E-02 0.  1.
</event>
<event>
 5   0  0.9298693E-04  0.1202316E+04  0.7818609E-02  0.9110832E-01
        2   -1    0    0  501    0  0.00000000000E+00  0.00000000000E+00  0.13171949258E+04  0.13171949258E+04  0.25500000920E-02 0.  1.
       -2   -1    0    0    0  501  0.00000000000E+00  0.00000000000E+00 -0.27436393982E+03  0.27436393983E+03  0.25500000920E-02 0. -1.
    10030    2    1    2    0    0  0.00000000000E+00  0.00000000000E+00  0.10428309860E+04  0.15915588657E+04  0.12023157478E+04 0.  0.
        1    1    3    3  502    0 -0.92448757217E+02 -0.22781230989E+03 -0.20477096630E+03  0.31996307585E+03  0.50400001928E-02 0. -1.
       -1    1    3    3    0  502  0.92448757217E+02  0.22781230989E+03  0.12476019523E+04  0.12715957898E+04  0.50400001928E-02 0.  1.
</event>
<event>
 5   0  0.5447074E-04  0.1198844E+04  0.7818609E-02  0.9113869E-01
       -1   -1    0    0    0  501  0.00000000000E+00  0.00000000000E+00  0.73770673036E+03  0.73770673038E+03  0.50400001928E-02 0. -1.
        1   -1    0    0  501    0  0.00000000000E+00  0.00000000000E+00 -0.48705910960E+03  0.48705910963E+03  0.50400001928E-02 0.  1.
    10030    2    1    2    0    0  0.00000000000E+00  0.00000000000E+00  0.25064762076E+03  0.12247658400E+04  0.11988440820E+04 0.  0.
        4    1    3    3  502    0  0.11881326808E+03 -0.55362114590E+03 -0.75632708260E+02  0.57125728470E+03  0.12699999809E+01 0.  1.
       -4    1    3    3    0  502 -0.11881326808E+03  0.55362114590E+03  0.32628032902E+03  0.65350855531E+03  0.12699999809E+01 0. -1.
</event>
<event>
 5   0  0.5003507E-04  0.1197501E+04  0.7818609E-02  0.9115046E-01
       -1   -1    0    0    0  501  0.00000000000E+00  0.00000000000E+00  0.66625167570E+03  0.66625167572E+03  0.50400001928E-02 0. -1.
        1   -1    0    0  501    0  0.00000000000E+00  0.00000000000E+00 -0.53808851335E+03  0.53808851337E+03  0.50400001928E-02 0.  1.
    10030    2    1    2    0    0  0.00000000000E+00  0.00000000000E+00  0.12816316236E+03  0.12043401891E+04  0.11975013549E+04 0.  0.
        3    1    3    3  502    0 -0.50523541926E+03 -0.27219103640E+01  0.38721405171E+03  0.63655712211E+03  0.10100000352E+00 0. -1.
       -3    1    3    3    0  502  0.50523541926E+03  0.27219103640E+01 -0.25905088935E+03  0.56778306698E+03  0.10100000352E+00 0.  1.
</event>
<event>
 5   0  0.9298693E-04  0.1200624E+04  0.7818609E-02  0.9112311E-01
       -2   -1    0    0    0  501  0.00000000000E+00  0.00000000000E+00  0.55287443659E+03  0.55287443660E+03  0.25500000920E-02 0.  1.
        2   -1    0    0  501    0  0.00000000000E+00  0.00000000000E+00 -0.65181939245E+03  0.65181939245E+03  0.25500000920E-02 0. -1.
    10030    2    1    2    0    0  0.00000000000E+00  0.00000000000E+00 -0.98944955853E+02  0.12046938290E+04  0.12006236369E+04 0.  0.
        1    1    3    3  502    0 -0.12348699600E+03  0.27607712824E+02  0.53934144789E+03  0.55398593974E+03  0.50400001928E-02 0.  1.
       -1    1    3    3    0  502  0.12348699600E+03 -0.27607712824E+02 -0.63828640374E+03  0.65070788931E+03  0.50400001928E-02 0. -1.
</event>
<event>
 5   0  0.5447074E-04  0.1193964E+04  0.7818609E-02  0.9118156E-01
        1   -1    0    0  501    0  0.00000000000E+00  0.00000000000E+00  0.32665824425E+03  0.32665824429E+03  0.50400001928E-02 0.  1.
       -1   -1    0    0    0  501  0.00000000000E+00  0.00000000000E+00 -0.10910102370E+04  0.10910102370E+04  0.50400001928E-02 0. -1.
    10030    2    1    2    0    0  0.00000000000E+00  0.00000000000E+00 -0.76435199272E+03  0.14176684813E+04  0.11939639668E+04 0.  0.
        4    1    3    3  502    0 -0.46324299898E+02  0.54417430061E+03 -0.66841238234E+03  0.86316182491E+03  0.12699999809E+01 0. -1.
       -4    1    3    3    0  502  0.46324299898E+02 -0.54417430061E+03 -0.95939610376E+02  0.55450665636E+03  0.12699999809E+01 0.  1.
</event>
<event>
 5   0  0.5001586E-04  0.1212202E+04  0.7818609E-02  0.9102243E-01
        1   -1    0    0  501    0  0.00000000000E+00  0.00000000000E+00  0.37313560192E+03  0.37313560196E+03  0.50400001928E-02 0. -1.
       -1   -1    0    0    0  501  0.00000000000E+00  0.00000000000E+00 -0.98451663658E+03  0.98451663659E+03  0.50400001928E-02 0.  1.
    10030    2    1    2    0    0  0.00000000000E+00  0.00000000000E+00 -0.61138103465E+03  0.13576522385E+04  0.12122016463E+04 0.  0.
        1    1    3    3  502    0  0.16500237838E+03  0.41500399846E+03 -0.76461827531E+03  0.88549150790E+03  0.50400001928E-02 0.  1.
       -1    1    3    3    0  502 -0.16500237838E+03 -0.41500399846E+03  0.15323724066E+03  0.47216073064E+03  0.50400001928E-02 0. -1.
</event>
<event>
 5   0  0.5157631E-04  0.1207773E+04  0.7818609E-02  0.9106080E-01
        1   -1    0    0  501    0  0.00000000000E+00  0.00000000000E+00  0.75724215992E+03  0.75724215994E+03  0.50400001928E-02 0. -1.
       -1   -1    0    0    0  501  0.00000000000E+00  0.00000000000E+00 -0.48158827089E+03  0.48158827091E+03  0.50400001928E-02 0.  1.
    10030    2    1    2    0    0  0.00000000000E+00  0.00000000000E+00  0.27565388903E+03  0.12388304309E+04  0.12077730622E+04 0.  0.
        5    1    3    3  502    0 -0.26677313895E+03 -0.27228900861E+03  0.61821589496E+03  0.72630723159E+03  0.46999998093E+01 0. -1.
       -5    1    3    3    0  502  0.26677313895E+03  0.27228900861E+03 -0.34256200593E+03  0.51252319926E+03  0.46999998093E+01 0.  1.
</event>
<event>
 5   0  0.9070772E-04  0.1153614E+04  0.7818609E-02  0.9154456E-01
       -2   -1    0    0    0  501  0.00000000000E+00  0.00000000000E+00  0.48685106106E+03  0.48685106107E+03  0.25500000920E-02 0. -1.
        2   -1    0    0  501    0  0.00000000000E+00  0.00000000000E+00 -0.68338435431E+03  0.68338435431E+03  0.25500000920E-02 0.  1.
    10030    2    1    2    0    0  0.00000000000E+00  0.00000000000E+00 -0.19653329325E+03  0.11702354154E+04  0.11536141435E+04 0.  0.
        4    1    3    3  502    0  0.83752553394E+02 -0.18126159865E+03 -0.64720529239E+03  0.67730832030E+03  0.12699999809E+01 0.  1.
       -4    1    3    3    0  502 -0.83752553394E+02  0.18126159865E+03  0.45067199915E+03  0.49292709508E+03  0.12699999809E+01 0. -1.
</event>
<event>
 5   0  0.9410666E-04  0.1198522E+04  0.7818609E-02  0.9114151E-01
        2   -1    0    0  501    0  0.00000000000E+00  0.00000000000E+00  0.84460109181E+03  0.84460109182E+03  0.25500000920E-02 0. -1.
       -2   -1    0    0    0  501  0.00000000000E+00  0.00000000000E+00 -0.42518749606E+03  0.42518749606E+03  0.25500000920E-02 0.  1.
    10030    2    1    2    0    0  0.00000000000E+00  0.00000000000E+00  0.41941359576E+03  0.12697885879E+04  0.11985221290E+04 0.  0.
        2    1    3    3  502    0  0.53345037093E+03 -0.16806154824E+03 -0.18261844585E+02  0.55959581594E+03  0.25500000920E-02 0.  1.
       -2    1    3    3    0  502 -0.53345037093E+03  0.16806154824E+03  0.43767544034E+03  0.71019277195E+03  0.25500000920E-02 0. -1.
</event>
<event>
 5   0  0.5157631E-04  0.1199466E+04  0.7818609E-02  0.9113324E-01
        1   -1    0    0  501    0  0.00000000000E+00  0.00000000000E+00  0.80429503224E+03  0.80429503226E+03  0.50400001928E-02 0.  1.
       -1   -1    0    0    0  501  0.00000000000E+00  0.00000000000E+00 -0.44719888933E+03  0.44719888935E+03  0.50400001928E-02 0. -1.
    10030    2    1    2    0    0  0.00000000000E+00  0.00000000000E+00  0.35709614292E+03  0.12514939216E+04  0.11994662899E+04 0.  0.
        5    1    3    3  502    0 -0.20880661997E+03  0.50970135790E+03 -0.68936754153E+02  0.55513065566E+03  0.46999998093E+01 0.  1.
       -5    1    3    3    0  502  0.20880661997E+03 -0.50970135790E+03  0.42603289707E+03  0.69636326595E+03  0.46999998093E+01 0. -1.
</event>
<event>
 5   0  0.5001586E-04  0.1200096E+04  0.7818609E-02  0.9112773E-01
        1   -1    0    0  501    0  0.00000000000E+00  0.00000000000E+00  0.55476391084E+03  0.55476391087E+03  0.50400001928E-02 0.  1.
       -1   -1    0    0    0  501  0.00000000000E+00  0.00000000000E+00 -0.64902830650E+03  0.64902830652E+03  0.50400001928E-02 0. -1.
    10030    2    1    2    0    0  0.00000000000E+00  0.00000000000E+00 -0.94264395654E+02  0.12037922174E+04  0.12000957988E+04 0.  0.
        1    1    3    3  502    0  0.43371399393E+03 -0.10182018958E+02 -0.46295213053E+03  0.63445738803E+03  0.50400001928E-02 0. -1.
       -1    1    3    3    0  502 -0.43371399393E+03  0.10182018958E+02  0.36868773488E+03  0.56933482935E+03  0.50400001928E-02 0.  1.
</event>
<event>
 5   0  0.9050363E-04  0.1198541E+04  0.7818609E-02  0.9114134E-01
        2   -1    0    0  501    0  0.00000000000E+00  0.00000000000E+00  0.31251499732E+03  0.31251499733E+03  0.25500000920E-02 0.  1.
       -2   -1    0    0    0  501  0.00000000000E+00  0.00000000000E+00 -0.11491456876E+04  0.11491456876E+04  0.25500000920E-02 0. -1.
    10030    2    1    2    0    0  0.00000000000E+00  0.00000000000E+00 -0.83663069030E+03  0.14616606849E+04  0.11985412158E+04 0.  0.
        3    1    3    3  502    0  0.28072579456E+03 -0.45446423543E+03 -0.87058774054E+02  0.54122449442E+03  0.10100000352E+00 0.  1.
       -3    1    3    3    0  502 -0.28072579456E+03  0.45446423543E+03 -0.74957191624E+03  0.92043619053E+03  0.10100000352E+00 0. -1.
</event>
<event>
 5   0  0.9070772E-04  0.1204447E+04  0.7818609E-02  0.9108973E-01
       -2   -1    0    0    0  501  0.00000000000E+00  0.00000000000E+00  0.54952322670E+03  0.54952322671E+03  0.25500000920E-02 0.  1.
        2   -1    0    0  501    0  0.00000000000E+00  0.00000000000E+00 -0.65997833857E+03  0.65997833857E+03  0.25500000920E-02 0. -1.
    10030    2    1    2    0    0  0.00000000000E+00  0.00000000000E+00 -0.11045511187E+03  0.12095015653E+04  0.12044474686E+04 0.  0.
        4    1    3    3  502    0  0.18162084163E+03 -0.57238563899E+03 -0.10080925274E+03  0.60891343242E+03  0.12699999809E+01 0. -1.
       -4    1    3    3    0  502 -0.18162084163E+03  0.57238563899E+03 -0.96458591261E+01  0.60058813286E+03  0.12699999809E+01 0.  1.
</event>
<event>
 5   0  0.9070772E-04  0.1197714E+04  0.7818609E-02  0.9114860E-01
        2   -1    0    0  501    0  0.00000000000E+00  0.00000000000E+00  0.12046906770E+04  0.12046906770E+04  0.25500000920E-02 0. -1.
       -2   -1    0    0    0  501  0.00000000000E+00  0.00000000000E+00 -0.29769446922E+03  0.29769446923E+03  0.25500000920E-02 0.  1.
    10030    2    1    2    0    0  0.00000000000E+00  0.00000000000E+00  0.90699620774E+03  0.15023851462E+04  0.11977140755E+04 0.  0.
        4    1    3    3  502    0  0.57234730847E+03  0.17235182860E+03  0.49944230000E+03  0.77892927681E+03  0.12699999809E+01 0.  1.
       -4    1    3    3    0  502 -0.57234730847E+03 -0.17235182860E+03  0.40755390774E+03  0.72345586939E+03  0.12699999809E+01 0. -1.
</event>
<event>
 5   0  0.5003507E-04  0.1197173E+04  0.7818609E-02  0.9115335E-01
       -1   -1    0    0    0  501  0.00000000000E+00  0.00000000000E+00  0.24553138297E+03  0.24553138302E+03  0.50400001928E-02 0.  1.
        1   -1    0    0  501    0  0.00000000000E+00  0.00000000000E+00 -0.14593071318E+04  0.14593071318E+04  0.50400001928E-02 0. -1.
    10030    2    1    2    0    0  0.00000000000E+00  0.00000000000E+00 -0.12137757488E+04  0.17048385148E+04  0.11971728334E+04 0.  0.
        3    1    3    3  502    0 -0.36110621883E+02  0.44900559671E+03 -0.45522174903E+02  0.45274968967E+03  0.10100000352E+00 0.  1.
       -3    1    3    3    0  502  0.36110621883E+02 -0.44900559671E+03 -0.11682535739E+04  0.12520888251E+04  0.10100000352E+00 0. -1.
</event>
<event>
 5   0  0.5003507E-04  0.1186732E+04  0.7818609E-02  0.9124550E-01
        1   -1    0    0  501    0  0.00000000000E+00  0.00000000000E+00  0.55351176120E+03  0.55351176122E+03  0.50400001928E-02 0. -1.
       -1   -1    0    0    0  501  0.00000000000E+00  0.00000000000E+00 -0.63608967412E+03  0.63608967414E+03  0.50400001928E-02 0.  1.
    10030    2    1    2    0    0  0.00000000000E+00  0.00000000000E+00 -0.82577912922E+02  0.11896014354E+04  0.11867318414E+04 0.  0.
        3    1    3    3  502    0 -0.42389276802E+03 -0.40125084770E+03 -0.14829812511E+03  0.60222891468E+03  0.10100000352E+00 0. -1.
       -3    1    3    3    0  502  0.42389276802E+03  0.40125084770E+03  0.65720212190E+02  0.58737252068E+03  0.10100000352E+00 0.  1.
</event>
<event>
 5   0  0.5001586E-04  0.1192951E+04  0.7818609E-02  0.9119049E-01
       -1   -1    0    0    0  501  0.00000000000E+00  0.00000000000E+00  0.35020809475E+03  0.35020809478E+03  0.50400001928E-02 0.  1.
        1   -1    0    0  501    0  0.00000000000E+00  0.00000000000E+00 -0.10159190007E+04  0.10159190007E+04  0.50400001928E-02 0. -1.
    10030    2    1    2    0    0  0.00000000000E+00  0.00000000000E+00 -0.66571090593E+03  0.13661270955E+04  0.11929510596E+04 0.  0.
        1    1    3    3  502    0  0.59116684885E+03  0.79354934264E+02 -0.32969660293E+03  0.68152424665E+03  0.50400001928E-02 0. -1.
       -1    1    3    3    0  502 -0.59116684885E+03 -0.79354934264E+02 -0.33601430301E+03  0.68460284883E+03  0.50400001928E-02 0.  1.
</event>
<event>
 5   0  0.5052959E-04  0.1238644E+04  0.7818609E-02  0.9079688E-01
       -1   -1    0    0    0  501  0.00000000000E+00  0.00000000000E+00  0.44144215720E+03  0.44144215723E+03  0.50400001928E-02 0. -1.
        1   -1    0    0  501    0  0.00000000000E+00  0.00000000000E+00 -0.86887945110E+03  0.86887945111E+03  0.50400001928E-02 0.  1.
    10030    2    1    2    0    0  0.00000000000E+00  0.00000000000E+00 -0.42743729389E+03  0.13103216083E+04  0.12386444514E+04 0.  0.
        2    1    3    3  502    0  0.15070478551E+03 -0.45478928682E+03 -0.62887573539E+03  0.79058833684E+03  0.25500000920E-02 0.  1.
       -2    1    3    3    0  502 -0.15070478551E+03  0.45478928682E+03  0.20143844150E+03  0.51973327150E+03  0.25500000920E-02 0. -1.
</event>
<event>
 5   0  0.9050363E-04  0.1203160E+04  0.7818609E-02  0.9110095E-01
        2   -1    0    0  501    0  0.00000000000E+00  0.00000000000E+00  0.13196125147E+04  0.13196125147E+04  0.25500000920E-02 0. -1.
       -2   -1    0    0    0  501  0.00000000000E+00  0.00000000000E+00 -0.27424603556E+03  0.27424603557E+03  0.25500000920E-02 0.  1.
    10030    2    1    2    0    0  0.00000000000E+00  0.00000000000E+00  0.10453664792E+04  0.15938585503E+04  0.12031600071E+04 0.  0.
        3    1    3    3  502    0  0.19431518301E+03 -0.63898299463E+02 -0.22676238240E+03  0.30538921281E+03  0.10100000352E+00 0.  1.
       -3    1    3    3    0  502 -0.19431518301E+03  0.63898299463E+02  0.12721288616E+04  0.12884693375E+04  0.10100000352E+00 0. -1.
</event>
<event>
 5   0  0.9050363E-04  0.1201070E+04  0.7818609E-02  0.9111921E-01
       -2   -1    0    0    0  501  0.00000000000E+00  0.00000000000E+00  0.10610114284E+04  0.10610114284E+04  0.25500000920E-02 0.  1.
        2   -1    0    0  501    0  0.00000000000E+00  0.00000000000E+00 -0.33990409038E+03  0.33990409039E+03  0.25500000920E-02 0. -1.
    10030    2    1    2    0    0  0.00000000000E+00  0.00000000000E+00  0.72110733807E+03  0.14009155188E+04  0.12010697307E+04 0.  0.
        3    1    3    3  502    0  0.45752885744E+03 -0.35324818387E+03  0.17058897617E+03  0.60267532204E+03  0.10100000352E+00 0. -1.
       -3    1    3    3    0  502 -0.45752885744E+03  0.35324818387E+03  0.55051836190E+03  0.79824019680E+03  0.10100000352E+00 0.  1.
</event>
<event>
 5   0  0.5003507E-04  0.1220204E+04  0.7818609E-02  0.9095353E-01
       -1   -1    0    0    0  501  0.00000000000E+00  0.00000000000E+00  0.20330837455E+03  0.20330837461E+03  0.50400001928E-02 0. -1.
        1   -1    0    0  501    0  0.00000000000E+00  0.00000000000E+00 -0.18308372064E+04  0.18308372064E+04  0.50400001928E-02 0.  1.
    10030    2    1    2    0    0  0.00000000000E+00  0.00000000000E+00 -0.16275288318E+04  0.20341455810E+04  0.12202041412E+04 0.  0.
        3    1    3    3  502    0 -0.41868956421E+03 -0.13574046063E+03 -0.15180784447E+04  0.15805975447E+04  0.10100000352E+00 0.  1.
       -3    1    3    3    0  502  0.41868956421E+03  0.13574046063E+03 -0.10945038718E+03  0.45354803636E+03  0.10100000352E+00 0. -1.
</event>
<event>
 5   0  0.9070772E-04  0.1158950E+04  0.7818609E-02  0.9149566E-01
        2   -1    0    0  501    0  0.00000000000E+00  0.00000000000E+00  0.36001378047E+03  0.36001378047E+03  0.25500000920E-02 0.  1.
       -2   -1    0    0    0  501  0.00000000000E+00  0.00000000000E+00 -0.93271809725E+03  0.93271809725E+03  0.25500000920E-02 0. -1.
    10030    2    1    2    0    0  0.00000000000E+00  0.00000000000E+00 -0.57270431679E+03  0.12927318777E+04  0.11589501599E+04 0.  0.
        4    1    3    3  502    0  0.73161566834E+02 -0.11308222885E+03 -0.91501504277E+03  0.92487531415E+03  0.12699999809E+01 0. -1.
       -4    1    3    3    0  502 -0.73161566834E+02  0.11308222885E+03  0.34231072598E+03  0.36785656357E+03  0.12699999809E+01 0.  1.
</event>
<event>
 5   0  0.9298693E-04  0.1200070E+04  0.7818609E-02  0.9112795E-01
        2   -1    0    0  501    0  0.00000000000E+00  0.00000000000E+00  0.16482008916E+04  0.16482008916E+04  0.25500000920E-02 0.  1.
       -2   -1    0    0    0  501  0.00000000000E+00  0.00000000000E+00 -0.21844562640E+03  0.21844562642E+03  0.25500000920E-02 0. -1.
    10030    2    1    2    0    0  0.00000000000E+00  0.00000000000E+00  0.14297552652E+04  0.18666465180E+04  0.12000704583E+04 0.  0.
        1    1    3    3  502    0  0.33249854268E+03 -0.39257595717E+03  0.11952342361E+04  0.13012517213E+04  0.50400001928E-02 0.  1.
       -1    1    3    3    0  502 -0.33249854268E+03  0.39257595717E+03  0.23452102910E+03  0.56539479671E+03  0.50400001928E-02 0. -1.
</event>
<event>
 5   0  0.9070772E-04  0.1198127E+04  0.7818609E-02  0.9114498E-01
       -2   -1    0    0    0  501  0.00000000000E+00  0.00000000000E+00  0.10264496215E+04  0.10264496215E+04  0.25500000920E-02 0.  1.
        2   -1    0    0  501    0  0.00000000000E+00  0.00000000000E+00 -0.34962946629E+03  0.34962946630E+03  0.25500000920E-02 0. -1.
    10030    2    1    2    0    0  0.00000000000E+00  0.00000000000E+00  0.67682015521E+03  0.13760790878E+04  0.11981269271E+04 0.  0.
        4    1    3    3  502    0 -0.51596537218E+03  0.84965166900E+01  0.68787702568E+03  0.85992375909E+03  0.12699999809E+01 0.  1.
       -4    1    3    3    0  502  0.51596537218E+03 -0.84965166900E+01 -0.11056870467E+02  0.51615532872E+03  0.12699999809E+01 0. -1.
</event>
<event>
 5   0  0.5157631E-04  0.1206861E+04  0.7818609E-02  0.9106872E-01
       -1   -1    0    0    0  501  0.00000000000E+00  0.00000000000E+00  0.48337895412E+03  0.48337895414E+03  0.50400001928E-02 0.  1.
        1   -1    0    0  501    0  0.00000000000E+00  0.00000000000E+00 -0.75329818211E+03  0.75329818212E+03  0.50400001928E-02 0. -1.
    10030    2    1    2    0    0  0.00000000000E+00  0.00000000000E+00 -0.26991922799E+03  0.12366771363E+04  0.12068611974E+04 0.  0.
        5    1    3    3  502    0  0.58154890379E+03 -0.11584410649E+02  0.29546519734E+02  0.58243318320E+03  0.46999998093E+01 0. -1.
       -5    1    3    3    0  502 -0.58154890379E+03  0.11584410649E+02 -0.29946574773E+03  0.65424395307E+03  0.46999998093E+01 0.  1.
</event>
<event>
 5   0  0.9298693E-04  0.1191499E+04  0.7818609E-02  0.9120330E-01
       -2   -1    0    0    0  501  0.00000000000E+00  0.00000000000E+00  0.42286207263E+03  0.42286207263E+03  0.25500000920E-02 0. -1.
        2   -1    0    0  501    0  0.00000000000E+00  0.00000000000E+00 -0.83932155461E+03  0.83932155461E+03  0.25500000920E-02 0.  1.
    10030    2    1    2    0    0  0.00000000000E+00  0.00000000000E+00 -0.41645948198E+03  0.12621836272E+04  0.11914986398E+04 0.  0.
        1    1    3    3  502    0 -0.21084535716E+03  0.21481425439E+03  0.33638699617E+03  0.45139466074E+03  0.50400001928E-02 0. -1.
       -1    1    3    3    0  502  0.21084535716E+03 -0.21481425439E+03 -0.75284647815E+03  0.81078896651E+03  0.50400001928E-02 0.  1.
</event>
<event>
 5   0  0.9145224E-04  0.1205679E+04  0.7818609E-02  0.9107900E-01
        2   -1    0    0  501    0  0.00000000000E+00  0.00000000000E+00  0.10882625563E+04  0.10882625563E+04  0.25500000920E-02 0. -1.
       -2   -1    0    0    0  501  0.00000000000E+00  0.00000000000E+00 -0.33394106714E+03  0.33394106715E+03  0.25500000920E-02 0.  1.
    10030    2    1    2    0    0  0.00000000000E+00  0.00000000000E+00  0.75432148915E+03  0.14222036234E+04  0.12056791603E+04 0.  0.
        5    1    3    3  502    0 -0.24916141528E+03  0.13904384458E+03 -0.24921986866E+03  0.37887627863E+03  0.46999998093E+01 0. -1.
       -5    1    3    3    0  502  0.24916141528E+03 -0.13904384458E+03  0.10035413578E+04  0.10433273448E+04  0.46999998093E+01 0.  1.
</event>
<event>
 5   0  0.5447074E-04  0.1201395E+04  0.7818609E-02  0.9111637E-01
        1   -1    0    0  501    0  0.00000000000E+00  0.00000000000E+00  0.12731916106E+04  0.12731916106E+04  0.50400001928E-02 0. -1.
       -1   -1    0    0    0  501  0.00000000000E+00  0.00000000000E+00 -0.28341163755E+03  0.28341163759E+03  0.50400001928E-02 0.  1.
    10030    2    1    2    0    0  0.00000000000E+00  0.00000000000E+00  0.98977997302E+03  0.15566032482E+04  0.12013947217E+04 0.  0.
        4    1    3    3  502    0 -0.18287355551E+03  0.74005920235E+02  0.12300189887E+04  0.12457399163E+04  0.12699999809E+01 0. -1.
       -4    1    3    3    0  502  0.18287355551E+03 -0.74005920235E+02 -0.24023901571E+03  0.31086333187E+03  0.12699999809E+01 0.  1.
</event>
<event>
 5   0  0.9145224E-04  0.1195969E+04  0.7818609E-02  0.9116392E-01
        2   -1    0    0  501    0  0.00000000000E+00  0.00000000000E+00  0.59690803281E+03  0.59690803282E+03  0.25500000920E-02 0. -1.
       -2   -1    0    0    0  501  0.00000000000E+00  0.00000000000E+00 -0.59906274384E+03  0.59906274385E+03  0.25500000920E-02 0.  1.
    10030    2    1    2    0    0  0.00000000000E+00  0.00000000000E+00 -0.21547110326E+01  0.11959707767E+04  0.11959688357E+04 0.  0.
        5    1    3    3  502    0 -0.19443728855E+03  0.15646212937E+03 -0.54447221683E+03  0.59896439127E+03  0.46999998093E+01 0.  1.
       -5    1    3    3    0  502  0.19443728855E+03 -0.15646212937E+03  0.54231750580E+03  0.59700638540E+03  0.46999998093E+01 0. -1.
</event>
<event>
 5   0  0.9410666E-04  0.1203923E+04  0.7818609E-02  0.9109429E-01
       -2   -1    0    0    0  501  0.00000000000E+00  0.00000000000E+00  0.36687089111E+03  0.36687089111E+03  0.25500000920E-02 0.  1.
        2   -1    0    0  501    0  0.00000000000E+00  0.00000000000E+00 -0.98769864561E+03  0.98769864561E+03  0.25500000920E-02 0. -1.
    10030    2    1    2    0    0  0.00000000000E+00  0.00000000000E+00 -0.62082775451E+03  0.13545695367E+04  0.12039233900E+04 0.  0.
        2    1    3    3  502    0  0.14527837568E+01  0.17270465724E+03  0.33839552161E+03  0.37992175282E+03  0.25500000920E-02 0.  1.
       -2    1    3    3    0  502 -0.14527837568E+01 -0.17270465724E+03 -0.95922327612E+03  0.97464778390E+03  0.25500000920E-02 0. -1.
</event>
<event>
 5   0  0.9410666E-04  0.1209408E+04  0.7818609E-02  0.9104662E-01
        2   -1    0    0  501    0  0.00000000000E+00  0.00000000000E+00  0.52627986699E+03  0.52627986699E+03  0.25500000920E-02 0. -1.
       -2   -1    0    0    0  501  0.00000000000E+00  0.00000000000E+00 -0.69481436639E+03  0.69481436639E+03  0.25500000920E-02 0.  1.
    10030    2    1    2    0    0  0.00000000000E+00  0.00000000000E+00 -0.16853449940E+03  0.12210942334E+04  0.12094078094E+04 0.  0.
        2    1    3    3  502    0 -0.47278389091E+03 -0.23180472461E+03  0.21594201921E+03  0.56911246123E+03  0.25500000920E-02 0. -1.
       -2    1    3    3    0  502  0.47278389091E+03  0.23180472461E+03 -0.38447651861E+03  0.65198177216E+03  0.25500000920E-02 0.  1.
</event>
<event>
 5   0  0.5003507E-04  0.1215203E+04  0.7818609E-02  0.9099653E-01
       -1   -1    0    0    0  501  0.00000000000E+00  0.00000000000E+00  0.47896795064E+03  0.47896795066E+03  0.50400001928E-02 0. -1.
        1   -1    0    0  501    0  0.00000000000E+00  0.00000000000E+00 -0.77078119722E+03  0.77078119724E+03  0.50400001928E-02 0.  1.
    10030    2    1    2    0    0  0.00000000000E+00  0.00000000000E+00 -0.29181324659E+03  0.12497491479E+04  0.12152028480E+04 0.  0.
        3    1    3    3  502    0  0.59306646238E+03  0.13157875430E+03 -0.13379547056E+03  0.62204665060E+03  0.10100000352E+00 0.  1.
       -3    1    3    3    0  502 -0.59306646238E+03 -0.13157875430E+03 -0.15801777603E+03  0.62770249730E+03  0.10100000352E+00 0. -1.
</event>
<event>
 5   0  0.5052959E-04  0.1202837E+04  0.7818609E-02  0.9110377E-01
        1   -1    0    0  501    0  0.00000000000E+00  0.00000000000E+00  0.10935840549E+04  0.10935840549E+04  0.50400001928E-02 0. -1.
       -1   -1    0    0    0  501  0.00000000000E+00  0.00000000000E+00 -0.33075104385E+03  0.33075104389E+03  0.50400001928E-02 0.  1.
    10030    2    1    2    0    0  0.00000000000E+00  0.00000000000E+00  0.76283301100E+03  0.14243350987E+04  0.12028367599E+04 0.  0.
        2    1    3    3  502    0  0.70174997668E+02 -0.19355690480E+03  0.10505539334E+04  0.10705383564E+04  0.25500000920E-02 0. -1.
       -2    1    3    3    0  502 -0.70174997668E+02  0.19355690480E+03 -0.28772092236E+03  0.35379674231E+03  0.25500000920E-02 0.  1.
</event>
<event>
 5   0  0.9298693E-04  0.1200628E+04  0.7818609E-02  0.9112307E-01
       -2   -1    0    0    0  501  0.00000000000E+00  0.00000000000E+00  0.44151370081E+03  0.44151370082E+03  0.25500000920E-02 0.  1.
        2   -1    0    0  501    0  0.00000000000E+00  0.00000000000E+00 -0.81622996406E+03  0.81622996406E+03  0.25500000920E-02 0. -1.
    10030    2    1    2    0    0  0.00000000000E+00  0.00000000000E+00 -0.37471626324E+03  0.12577436649E+04  0.12006276894E+04 0.  0.
        1    1    3    3  502    0 -0.57732967496E+03  0.16338960787E+03 -0.20753564141E+03  0.63488326488E+03  0.50400001928E-02 0.  1.
       -1    1    3    3    0  502  0.57732967496E+03 -0.16338960787E+03 -0.16718062183E+03  0.62286040000E+03  0.50400001928E-02 0. -1.
</event>
<event>
 5   0  0.5052959E-04  0.1194672E+04  0.7818609E-02  0.9117533E-01
       -1   -1    0    0    0  501  0.00000000000E+00  0.00000000000E+00  0.44271731931E+03  0.44271731934E+03  0.50400001928E-02 0. -1.
        1   -1    0    0  501    0  0.00000000000E+00  0.00000000000E+00 -0.80595528559E+03  0.80595528560E+03  0.50400001928E-02 0.  1.
    10030    2    1    2    0    0  0.00000000000E+00  0.00000000000E+00 -0.36323796628E+03  0.12486726049E+04  0.11946721116E+04 0.  0.
        2    1    3    3  502    0 -0.34766919867E+03 -0.60917607544E+02 -0.68529914497E+03  0.77085650073E+03  0.25500000920E-02 0.  1.
       -2    1    3    3    0  502  0.34766919867E+03  0.60917607544E+02  0.32206117870E+03  0.47781610421E+03  0.25500000920E-02 0. -1.
</event>
<event>
 5   0  0.5157631E-04  0.1199501E+04  0.7818609E-02  0.9113293E-01
        1   -1    0    0  501    0  0.00000000000E+00  0.00000000000E+00  0.55579053787E+03  0.55579053789E+03  0.50400001928E-02 0. -1.
       -1   -1    0    0    0  501  0.00000000000E+00  0.00000000000E+00 -0.64718768970E+03  0.64718768972E+03  0.50400001928E-02 0.  1.
    10030    2    1    2    0    0  0.00000000000E+00  0.00000000000E+00 -0.91397151829E+02  0.12029782276E+04  0.11995012200E+04 0.  0.
        5    1    3    3  502    0  0.12114549884E+03  0.29036845689E+03  0.46635820229E+03  0.56258522508E+03  0.46999998093E+01 0. -1.
       -5    1    3    3    0  502 -0.12114549884E+03 -0.29036845689E+03 -0.55775535412E+03  0.64039300253E+03  0.46999998093E+01 0.  1.
</event>
<event>
 5   0  0.9145224E-04  0.1203905E+04  0.7818609E-02  0.9109445E-01
        2   -1    0    0  501    0  0.00000000000E+00  0.00000000000E+00  0.14928603913E+04  0.14928603913E+04  0.25500000920E-02 0.  1.
       -2   -1    0    0    0  501  0.00000000000E+00  0.00000000000E+00 -0.24271980415E+03  0.24271980417E+03  0.25500000920E-02 0. -1.
    10030    2    1    2    0    0  0.00000000000E+00  0.00000000000E+00  0.12501405871E+04  0.17355801954E+04  0.12039049494E+04 0.  0.
        5    1    3    3  502    0 -0.17358422577E+03 -0.35242639357E+03 -0.32394509330E+02  0.39421737728E+03  0.46999998093E+01 0. -1.
       -5    1    3    3    0  502  0.17358422577E+03  0.35242639357E+03  0.12825350964E+04  0.13413628182E+04  0.46999998093E+01 0.  1.
</event>
<event>
 5   0  0.5052959E-04  0.1194901E+04  0.7818609E-02  0.9117332E-01
        1   -1    0    0  501    0  0.00000000000E+00  0.00000000000E+00  0.87587200629E+03  0.87587200630E+03  0.50400001928E-02 0.  1.
       -1   -1    0    0    0  501  0.00000000000E+00  0.00000000000E+00 -0.40753319112E+03  0.40753319115E+03  0.50400001928E-02 0. -1.
    10030    2    1    2    0    0  0.00000000000E+00  0.00000000000E+00  0.46833881517E+03  0.12834051974E+04  0.11949006884E+04 0.  0.
        2    1    3    3  502    0  0.36206237980E+02 -0.28342411799E+03 -0.32939096152E+03  0.43604876775E+03  0.25500000920E-02 0. -1.
       -2    1    3    3    0  502 -0.36206237980E+02  0.28342411799E+03  0.79772977669E+03  0.84735642969E+03  0.25500000920E-02 0.  1.
</event>
<event>
 5   0  0.5003507E-04  0.1194757E+04  0.7818609E-02  0.9117458E-01
       -1   -1    0    0    0  501  0.00000000000E+00  0.00000000000E+00  0.21734080639E+03  0.21734080645E+03  0.50400001928E-02 0. -1.
        1   -1    0    0  501    0  0.00000000000E+00  0.00000000000E+00 -0.16419431288E+04  0.16419431288E+04  0.50400001928E-02 0.  1.
    10030    2    1    2    0    0  0.00000000000E+00  0.00000000000E+00 -0.14246023224E+04  0.18592839352E+04  0.11947572870E+04 0.  0.
        3    1    3    3  502    0  0.35148112061E+03 -0.11314814779E+03 -0.14430864171E+04  0.14895770873E+04  0.10100000352E+00 0.  1.
       -3    1    3    3    0  502 -0.35148112061E+03  0.11314814779E+03  0.18484094696E+02  0.36970684799E+03  0.10100000352E+00 0. -1.
</event>
<event>
 5   0  0.5157631E-04  0.1197214E+04  0.7818609E-02  0.9115299E-01
       -1   -1    0    0    0  501  0.00000000000E+00  0.00000000000E+00  0.29797479692E+03  0.29797479696E+03  0.50400001928E-02 0.  1.
        1   -1    0    0  501    0  0.00000000000E+00  0.00000000000E+00 -0.12025522039E+04  0.12025522039E+04  0.50400001928E-02 0. -1.
    10030    2    1    2    0    0  0.00000000000E+00  0.00000000000E+00 -0.90457740701E+03  0.15005270009E+04  0.11972138469E+04 0.  0.
        5    1    3    3  502    0 -0.17780665009E+03 -0.37189141813E+03  0.91713541472E+02  0.42231729230E+03  0.46999998093E+01 0.  1.
       -5    1    3    3    0  502  0.17780665009E+03  0.37189141813E+03 -0.99629094848E+03  0.10782097086E+04  0.46999998093E+01 0. -1.
</event>
<event>
 5   0  0.9410666E-04  0.1212381E+04  0.7818609E-02  0.9102088E-01
       -2   -1    0    0    0  501  0.00000000000E+00  0.00000000000E+00  0.27169398646E+03  0.27169398647E+03  0.25500000920E-02 0.  1.
        2   -1    0    0  501    0  0.00000000000E+00  0.00000000000E+00 -0.13525027316E+04  0.13525027316E+04  0.25500000920E-02 0. -1.
    10030    2    1    2    0    0  0.00000000000E+00  0.00000000000E+00 -0.10808087452E+04  0.16241967181E+04  0.12123808954E+04 0.  0.
        2    1    3    3  502    0  0.16886590721E+03 -0.25210086877E+02 -0.13196252259E+04  0.13306246578E+04  0.25500000920E-02 0. -1.
       -2    1    3    3    0  502 -0.16886590721E+03  0.25210086877E+02  0.23881648074E+03  0.29357206029E+03  0.25500000920E-02 0.  1.
</event>
<event>
 5   0  0.9050363E-04  0.1198304E+04  0.7818609E-02  0.9114342E-01
        2   -1    0    0  501    0  0.00000000000E+00  0.00000000000E+00  0.33784895033E+03  0.33784895034E+03  0.25500000920E-02 0.  1.
       -2   -1    0    0    0  501  0.00000000000E+00  0.00000000000E+00 -0.10625550466E+04  0.10625550466E+04  0.25500000920E-02 0. -1.
    10030    2    1    2    0    0  0.00000000000E+00  0.00000000000E+00 -0.72470609625E+03  0.14004039969E+04  0.11983039801E+04 0.  0.
        3    1    3    3  502    0 -0.11393300709E+03 -0.57798186018E+03 -0.49004879421E+03  0.76628427604E+03  0.10100000352E+00 0.  1.
       -3    1    3    3    0  502  0.11393300709E+03  0.57798186018E+03 -0.23465730204E+03  0.63411972088E+03  0.10100000352E+00 0. -1.
</event>
<event>
 5   0  0.5003507E-04  0.1201665E+04  0.7818609E-02  0.9111401E-01
       -1   -1    0    0    0  501  0.00000000000E+00  0.00000000000E+00  0.78671063757E+03  0.78671063759E+03  0.50400001928E-02 0. -1.
        1   -1    0    0  501    0  0.00000000000E+00  0.00000000000E+00 -0.45887195461E+03  0.45887195464E+03  0.50400001928E-02 0.  1.
    10030    2    1    2    0    0  0.00000000000E+00  0.00000000000E+00  0.32783868296E+03  0.12455825922E+04  0.12016645921E+04 0.  0.
        3    1    3    3  502    0 -0.11646621681E+03  0.54867401710E+02  0.77224532014E+03  0.78290335042E+03  0.10100000352E+00 0. -1.
       -3    1    3    3    0  502  0.11646621681E+03 -0.54867401710E+02 -0.44440663718E+03  0.46267924180E+03  0.10100000352E+00 0.  1.
</event>
<event>
 5   0  0.9298693E-04  0.1201452E+04  0.7818609E-02  0.9111586E-01
        2   -1    0    0  501    0  0.00000000000E+00  0.00000000000E+00  0.33968609975E+03  0.33968609976E+03  0.25500000920E-02 0.  1.
       -2   -1    0    0    0  501  0.00000000000E+00  0.00000000000E+00 -0.10623684239E+04  0.10623684239E+04  0.25500000920E-02 0. -1.
    10030    2    1    2    0    0  0.00000000000E+00  0.00000000000E+00 -0.72268232416E+03  0.14020545237E+04  0.12014520988E+04 0.  0.
        1    1    3    3  502    0 -0.42407106994E+03  0.32649048325E+03 -0.42950660446E+02  0.53691439473E+03  0.50400001928E-02 0.  1.
       -1    1    3    3    0  502  0.42407106994E+03 -0.32649048325E+03 -0.67973166371E+03  0.86514012893E+03  0.50400001928E-02 0. -1.
</event>
<event>
 5   0  0.9298693E-04  0.1198308E+04  0.7818609E-02  0.9114339E-01
       -2   -1    0    0    0  501  0.00000000000E+00  0.00000000000E+00  0.18838116930E+03  0.18838116931E+03  0.25500000920E-02 0.  1.
        2   -1    0    0  501    0  0.00000000000E+00  0.00000000000E+00 -0.19056334259E+04  0.19056334259E+04  0.25500000920E-02 0. -1.
    10030    2    1    2    0    0  0.00000000000E+00  0.00000000000E+00 -0.17172522566E+04  0.20940145952E+04  0.11983078954E+04 0.  0.
        1    1    3    3  502    0 -0.78234326748E+02 -0.26569840477E+03  0.69790756900E+02  0.28563438510E+03  0.50400001928E-02 0.  1.
       -1    1    3    3    0  502  0.78234326748E+02  0.26569840477E+03 -0.17870430135E+04  0.18083802101E+04  0.50400001928E-02 0. -1.
</event>
<event>
 5   0  0.9145224E-04  0.1198823E+04  0.7818609E-02  0.9113887E-01
        2   -1    0    0  501    0  0.00000000000E+00  0.00000000000E+00  0.20576359473E+04  0.20576359473E+04  0.25500000920E-02 0.  1.
       -2   -1    0    0    0  501  0.00000000000E+00  0.00000000000E+00 -0.17461500699E+03  0.17461500701E+03  0.25500000920E-02 0. -1.
    10030    2    1    2    0    0  0.00000000000E+00  0.00000000000E+00  0.18830209403E+04  0.22322509543E+04  0.11988229483E+04 0.  0.
        5    1    3    3  502    0  0.48446809918E+03  0.97253499248E+02  0.30977681604E+03  0.58322495488E+03  0.46999998093E+01 0. -1.
       -5    1    3    3    0  502 -0.48446809918E+03 -0.97253499248E+02  0.15732441242E+04  0.16490259994E+04  0.46999998093E+01 0.  1.
</event>
<event>
 5   0  0.9050363E-04  0.1205302E+04  0.7818609E-02  0.9108229E-01
        2   -1    0    0  501    0  0.00000000000E+00  0.00000000000E+00  0.12519068701E+04  0.12519068701E+04  0.25500000920E-02 0. -1.
       -2   -1    0    0    0  501  0.00000000000E+00  0.00000000000E+00 -0.29010778304E+03  0.29010778305E+03  0.25500000920E-02 0.  1.
    10030    2    1    2    0    0  0.00000000000E+00  0.00000000000E+00  0.96179908702E+03  0.15420146531E+04  0.12053015003E+04 0.  0.
        3    1    3    3  502    0  0.57565600112E+03 -0.10582376949E+03  0.29723486962E+03  0.65645036349E+03  0.10100000352E+00 0.  1.
       -3    1    3    3    0  502 -0.57565600112E+03  0.10582376949E+03  0.66456421740E+03  0.88556428963E+03  0.10100000352E+00 0. -1.
</event>
<event>
 5   0  0.5001586E-04  0.1199067E+04  0.7818609E-02  0.9113673E-01
       -1   -1    0    0    0  501  0.00000000000E+00  0.00000000000E+00  0.40555056961E+03  0.40555056964E+03  0.50400001928E-02 0. -1.
        1   -1    0    0  501    0  0.00000000000E+00  0.00000000000E+00 -0.88630295513E+03  0.88630295514E+03  0.50400001928E-02 0.  1.
    10030    2    1    2    0    0  0.00000000000E+00  0.00000000000E+00 -0.48075238552E+03  0.12918535248E+04  0.11990674182E+04 0.  0.
        1    1    3    3  502    0 -0.35144135642E+02  0.58070637122E+03 -0.84302007698E+02  0.58784507174E+03  0.50400001928E-02 0.  1.
       -1    1    3    3    0  502  0.35144135642E+02 -0.58070637122E+03 -0.39645037782E+03  0.70400845304E+03  0.50400001928E-02 0. -1.
</event>
<event>
 5   0  0.5001586E-04  0.1194638E+04  0.7818609E-02  0.9117563E-01
       -1   -1    0    0    0  501  0.00000000000E+00  0.00000000000E+00  0.26839581887E+03  0.26839581892E+03  0.50400001928E-02 0.  1.
        1   -1    0    0  501    0  0.00000000000E+00  0.00000000000E+00 -0.13293424344E+04  0.13293424344E+04  0.50400001928E-02 0. -1.
    10030    2    1    2    0    0  0.00000000000E+00  0.00000000000E+00 -0.10609466156E+04  0.15977382534E+04  0.11946379389E+04 0.  0.
        1    1    3    3  502    0  0.12673611797E+03  0.55494678753E+03 -0.28839585600E+03  0.63812236317E+03  0.50400001928E-02 0.  1.
       -1    1    3    3    0  502 -0.12673611797E+03 -0.55494678753E+03 -0.77255075955E+03  0.95961589019E+03  0.50400001928E-02 0. -1.
</event>
<event>
 5   0  0.5001586E-04  0.1195067E+04  0.7818609E-02  0.9117185E-01
        1   -1    0    0  501    0  0.00000000000E+00  0.00000000000E+00  0.23226632776E+04  0.23226632776E+04  0.50400001928E-02 0. -1.
       -1   -1    0    0    0  501  0.00000000000E+00  0.00000000000E+00 -0.15372281973E+03  0.15372281981E+03  0.50400001928E-02 0.  1.
    10030    2    1    2    0    0  0.00000000000E+00  0.00000000000E+00  0.21689404579E+04  0.24763860974E+04  0.11950671085E+04 0.  0.
        1    1    3    3  502    0 -0.59570179597E+03  0.39192652903E+02  0.10316540065E+04  0.11919340094E+04  0.50400001928E-02 0. -1.
       -1    1    3    3    0  502  0.59570179597E+03 -0.39192652903E+02  0.11372864514E+04  0.12844520880E+04  0.50400001928E-02 0.  1.
</event>
<event>
 5   0  0.9145224E-04  0.1228588E+04  0.7818609E-02  0.9088195E-01
       -2   -1    0    0    0  501  0.00000000000E+00  0.00000000000E+00  0.42419475196E+03  0.42419475196E+03  0.25500000920E-02 0.  1.
        2   -1    0    0  501    0  0.00000000000E+00  0.00000000000E+00 -0.88958391997E+03  0.88958391997E+03  0.25500000920E-02 0. -1.
    10030    2    1    2    0    0  0.00000000000E+00  0.00000000000E+00 -0.46538916801E+03  0.13137786719E+04  0.12285875309E+04 0.  0.
        5    1    3    3  502    0 -0.52141763943E+03  0.36696063436E+01 -0.57993393340E+03  0.77989440171E+03  0.46999998093E+01 0. -1.
       -5    1    3    3    0  502  0.52141763943E+03 -0.36696063436E+01  0.11454476538E+03  0.53388427022E+03  0.46999998093E+01 0.  1.
</event>
<event>
 5   0  0.9298693E-04  0.1201616E+04  0.7818609E-02  0.9111443E-01
        2   -1    0    0  501    0  0.00000000000E+00  0.00000000000E+00  0.67955815248E+03  0.67955815249E+03  0.25500000920E-02 0.  1.
       -2   -1    0    0    0  501  0.00000000000E+00  0.00000000000E+00 -0.53118361966E+03  0.53118361966E+03  0.25500000920E-02 0. -1.
    10030    2    1    2    0    0  0.00000000000E+00  0.00000000000E+00  0.14837453283E+03  0.12107417721E+04  0.12016158441E+04 0.  0.
        1    1    3    3  502    0 -0.59619688209E+03  0.60175564264E+02  0.11808809333E+03  0.61075086456E+03  0.50400001928E-02 0.  1.
       -1    1    3    3    0  502  0.59619688209E+03 -0.60175564264E+02  0.30286439497E+02  0.59999090759E+03  0.50400001928E-02 0. -1.
</event>
<event>
 5   0  0.5157631E-04  0.1132072E+04  0.7818609E-02  0.9174484E-01
        1   -1    0    0  501    0  0.00000000000E+00  0.00000000000E+00  0.47779565463E+03  0.47779565466E+03  0.50400001928E-02 0.  1.
       -1   -1    0    0    0  501  0.00000000000E+00  0.00000000000E+00 -0.67057253399E+03  0.67057253401E+03  0.50400001928E-02 0. -1.
    10030    2    1    2    0    0  0.00000000000E+00  0.00000000000E+00 -0.19277687936E+03  0.11483681887E+04  0.11320718049E+04 0.  0.
        5    1    3    3  502    0  0.22205234719E+03  0.28210209551E+03  0.34750156974E+03  0.49966815803E+03  0.46999998093E+01 0.  1.
       -5    1    3    3    0  502 -0.22205234719E+03 -0.28210209551E+03 -0.54027844909E+03  0.64870003063E+03  0.46999998093E+01 0. -1.
</event>
<event>
 5   0  0.5003507E-04  0.1199295E+04  0.7818609E-02  0.9113474E-01
        1   -1    0    0  501    0  0.00000000000E+00  0.00000000000E+00  0.91813725070E+03  0.91813725071E+03  0.50400001928E-02 0. -1.
       -1   -1    0    0    0  501  0.00000000000E+00  0.00000000000E+00 -0.39163776632E+03  0.39163776635E+03  0.50400001928E-02 0.  1.
    10030    2    1    2    0    0  0.00000000000E+00  0.00000000000E+00  0.52649948438E+03  0.13097750171E+04  0.11992951631E+04 0.  0.
        3    1    3    3  502    0  0.54536901704E+03  0.11070427079E+03  0.19302129332E+02  0.55682616920E+03  0.10100000352E+00 0.  1.
       -3    1    3    3    0  502 -0.54536901704E+03 -0.11070427079E+03  0.50719735505E+03  0.75294884785E+03  0.10100000352E+00 0. -1.
</event>
<event>
 5   0  0.9298693E-04  0.1210261E+04  0.7818609E-02  0.9103922E-01
        2   -1    0    0  501    0  0.00000000000E+00  0.00000000000E+00  0.33800716232E+03  0.33800716233E+03  0.25500000920E-02 0.  1.
       -2   -1    0    0    0  501  0.00000000000E+00  0.00000000000E+00 -0.10833592351E+04  0.10833592351E+04  0.25500000920E-02 0. -1.
    10030    2    1    2    0    0  0.00000000000E+00  0.00000000000E+00 -0.74535207274E+03  0.14213663974E+04  0.12102614277E+04 0.  0.
        1    1    3    3  502    0  0.57489269143E+02 -0.20190808570E+03  0.29386950131E+03  0.36115256466E+03  0.50400001928E-02 0.  1.
       -1    1    3    3    0  502 -0.57489269143E+02  0.20190808570E+03 -0.10392215740E+04  0.10602138327E+04  0.50400001928E-02 0. -1.
</event>
<event>
 5   0  0.5003507E-04  0.1202417E+04  0.7818609E-02  0.9110744E-01
        1   -1    0    0  501    0  0.00000000000E+00  0.00000000000E+00  0.12486614778E+04  0.12486614778E+04  0.50400001928E-02 0.  1.
       -1   -1    0    0    0  501  0.00000000000E+00  0.00000000000E+00 -0.28947129885E+03  0.28947129890E+03  0.50400001928E-02 0. -1.
    10030    2    1    2    0    0  0.00000000000E+00  0.00000000000E+00  0.95919017892E+03  0.15381327767E+04  0.12024169989E+04 0.  0.
        3    1    3    3  502    0  0.22262490662E+03 -0.35823678035E+03 -0.68458794886E+02  0.42729621651E+03  0.10100000352E+00 0. -1.
       -3    1    3    3    0  502 -0.22262490662E+03  0.35823678035E+03  0.10276489738E+04  0.11108365602E+04  0.10100000352E+00 0.  1.
</event>
<event>
 5   0  0.5052959E-04  0.1200505E+04  0.7818609E-02  0.9112415E-01
       -1   -1    0    0    0  501  0.00000000000E+00  0.00000000000E+00  0.33046989862E+03  0.33046989866E+03  0.50400001928E-02 0. -1.
        1   -1    0    0  501    0  0.00000000000E+00  0.00000000000E+00 -0.10902752312E+04  0.10902752313E+04  0.50400001928E-02 0.  1.
    10030    2    1    2    0    0  0.00000000000E+00  0.00000000000E+00 -0.75980533262E+03  0.14207451299E+04  0.12005051356E+04 0.  0.
        2    1    3    3  502    0  0.32648578810E+03  0.34037835143E+03  0.59497154952E+02  0.47538437438E+03  0.25500000920E-02 0. -1.
       -2    1    3    3    0  502 -0.32648578810E+03 -0.34037835143E+03 -0.81930248757E+03  0.94536075553E+03  0.25500000920E-02 0.  1.
</event>
<event>
 5   0  0.5447074E-04  0.1191728E+04  0.7818609E-02  0.9120128E-01
       -1   -1    0    0    0  501  0.00000000000E+00  0.00000000000E+00  0.40281145002E+03  0.40281145006E+03  0.50400001928E-02 0.  1.
        1   -1    0    0  501    0  0.00000000000E+00  0.00000000000E+00 -0.88143922655E+03  0.88143922656E+03  0.50400001928E-02 0. -1.
    10030    2    1    2    0    0  0.00000000000E+00  0.00000000000E+00 -0.47862777652E+03  0.12842506766E+04  0.11917278431E+04 0.  0.
        4    1    3    3  502    0  0.37206708288E+03  0.44161836032E+03 -0.80965290325E+02  0.58311035103E+03  0.12699999809E+01 0.  1.
       -4    1    3    3    0  502 -0.37206708288E+03 -0.44161836032E+03 -0.39766248620E+03  0.70114032559E+03  0.12699999809E+01 0. -1.
</event>
<event>
 5   0  0.5447074E-04  0.1201606E+04  0.7818609E-02  0.9111452E-01
       -1   -1    0    0    0  501  0.00000000000E+00  0.00000000000E+00  0.49594399937E+03  0.49594399939E+03  0.50400001928E-02 0.  1.
        1   -1    0    0  501    0  0.00000000000E+00  0.00000000000E+00 -0.72783247969E+03  0.72783247971E+03  0.50400001928E-02 0. -1.
    10030    2    1    2    0    0  0.00000000000E+00  0.00000000000E+00 -0.23188848033E+03  0.12237764791E+04  0.12016058437E+04 0.  0.
        4    1    3    3  502    0 -0.11514243301E+03 -0.58080757199E+03 -0.21964295464E+03  0.63153769166E+03  0.12699999809E+01 0. -1.
       -4    1    3    3    0  502  0.11514243301E+03  0.58080757199E+03 -0.12245525686E+02  0.59223878745E+03  0.12699999809E+01 0.  1.
</event>
<event>
 5   0  0.5001586E-04  0.1197884E+04  0.7818609E-02  0.9114711E-01
       -1   -1    0    0    0  501  0.00000000000E+00  0.00000000000E+00  0.34558857945E+03  0.34558857949E+03  0.50400001928E-02 0. -1.
        1   -1    0    0  501    0  0.00000000000E+00  0.00000000000E+00 -0.10380303419E+04  0.10380303419E+04  0.50400001928E-02 0.  1.
    10030    2    1    2    0    0  0.00000000000E+00  0.00000000000E+00 -0.69244176243E+03  0.13836189214E+04  0.11978838530E+04 0.  0.
        1    1    3    3  502    0 -0.58023364609E+03 -0.14852070023E+03 -0.34460841969E+03  0.69100249305E+03  0.50400001928E-02 0.  1.
       -1    1    3    3    0  502  0.58023364609E+03  0.14852070023E+03 -0.34783334274E+03  0.69261642834E+03  0.50400001928E-02 0. -1.
</event>
<event>
 5   0  0.5003507E-04  0.1200625E+04  0.7818609E-02  0.9112310E-01
        1   -1    0    0  501    0  0.00000000000E+00  0.00000000000E+00  0.12031403171E+04  0.12031403171E+04  0.50400001928E-02 0.  1.
       -1   -1    0    0    0  501  0.00000000000E+00  0.00000000000E+00 -0.29952873383E+03  0.29952873388E+03  0.50400001928E-02 0. -1.
    10030    2    1    2    0    0  0.00000000000E+00  0.00000000000E+00  0.90361158323E+03  0.15026690510E+04  0.12006249970E+04 0.  0.
        3    1    3    3  502    0  0.49467214473E+03  0.23458787674E+03  0.76001570006E+03  0.93667276956E+03  0.10100000352E+00 0. -1.
       -3    1    3    3    0  502 -0.49467214473E+03 -0.23458787674E+03  0.14359588317E+03  0.56599628140E+03  0.10100000352E+00 0.  1.
</event>
<event>
 5   0  0.5447074E-04  0.1200157E+04  0.7818609E-02  0.9112719E-01
        1   -1    0    0  501    0  0.00000000000E+00  0.00000000000E+00  0.46917326167E+03  0.46917326170E+03  0.50400001928E-02 0.  1.
       -1   -1    0    0    0  501  0.00000000000E+00  0.00000000000E+00 -0.76750791683E+03  0.76750791684E+03  0.50400001928E-02 0. -1.
    10030    2    1    2    0    0  0.00000000000E+00  0.00000000000E+00 -0.29833465515E+03  0.12366811785E+04  0.12001569776E+04 0.  0.
        4    1    3    3  502    0 -0.43774942873E+03  0.27303278585E+03  0.16662481319E+03  0.54215948371E+03  0.12699999809E+01 0.  1.
       -4    1    3    3    0  502  0.43774942873E+03 -0.27303278585E+03 -0.46495946834E+03  0.69452169484E+03  0.12699999809E+01 0. -1.
</event>
<event>
 5   0  0.9145224E-04  0.1198893E+04  0.7818609E-02  0.9113826E-01
        2   -1    0    0  501    0  0.00000000000E+00  0.00000000000E+00  0.12450818310E+04  0.12450818310E+04  0.25500000920E-02 0. -1.
       -2   -1    0    0    0  501  0.00000000000E+00  0.00000000000E+00 -0.28860440652E+03  0.28860440654E+03  0.25500000920E-02 0.  1.
    10030    2    1    2    0    0  0.00000000000E+00  0.00000000000E+00  0.95647742452E+03  0.15336862376E+04  0.11988929943E+04 0.  0.
        5    1    3    3  502    0  0.11000103863E+02  0.27301608423E+03 -0.20428175690E+03  0.34119189723E+03  0.46999998093E+01 0.  1.
       -5    1    3    3    0  502 -0.11000103863E+02 -0.27301608423E+03  0.11607591814E+04  0.11924943404E+04  0.46999998093E+01 0. -1.
</event>
<event>
 5   0  0.5052959E-04  0.1201640E+04  0.7818609E-02  0.9111422E-01
        1   -1    0    0  501    0  0.00000000000E+00  0.00000000000E+00  0.88280950872E+03  0.88280950873E+03  0.50400001928E-02 0. -1.
       -1   -1    0    0    0  501  0.00000000000E+00  0.00000000000E+00 -0.40890426010E+03  0.40890426013E+03  0.50400001928E-02 0.  1.
    10030    2    1    2    0    0  0.00000000000E+00  0.00000000000E+00  0.47390524862E+03  0.12917137689E+04  0.12016398279E+04 0.  0.
        2    1    3    3  502    0 -0.14725390985E+03  0.36852802972E+03  0.72186282359E+03  0.82376122678E+03  0.25500000920E-02 0. -1.
       -2    1    3    3    0  502  0.14725390985E+03 -0.36852802972E+03 -0.24795757497E+03  0.46795254209E+03  0.25500000920E-02 0.  1.
</event>
<event>
 5   0  0.5003507E-04  0.1183082E+04  0.7818609E-02  0.9127795E-01
       -1   -1    0    0    0  501  0.00000000000E+00  0.00000000000E+00  0.26696191891E+03  0.26696191896E+03  0.50400001928E-02 0. -1.
        1   -1    0    0  501    0  0.00000000000E+00  0.00000000000E+00 -0.13107512891E+04  0.13107512891E+04  0.50400001928E-02 0.  1.
    10030    2    1    2    0    0  0.00000000000E+00  0.00000000000E+00 -0.10437893702E+04  0.15777132081E+04  0.11830818727E+04 0.  0.
        3    1    3    3  502    0  0.55064381367E+03 -0.12971980122E+03 -0.75243064433E+03  0.94137544109E+03  0.10100000352E+00 0.  1.
       -3    1    3    3    0  502 -0.55064381367E+03  0.12971980122E+03 -0.29135872586E+03  0.63633776699E+03  0.10100000352E+00 0. -1.
</event>
<event>
 5   0  0.5052959E-04  0.1191373E+04  0.7818609E-02  0.9120442E-01
       -1   -1    0    0    0  501  0.00000000000E+00  0.00000000000E+00  0.48255791827E+03  0.48255791830E+03  0.50400001928E-02 0.  1.
        1   -1    0    0  501    0  0.00000000000E+00  0.00000000000E+00 -0.73533596055E+03  0.73533596057E+03  0.50400001928E-02 0. -1.
    10030    2    1    2    0    0  0.00000000000E+00  0.00000000000E+00 -0.25277804228E+03  0.12178938789E+04  0.11913726376E+04 0.  0.
        2    1    3    3  502    0  0.81211967872E+02 -0.46812454083E+03 -0.49370126978E+03  0.68518385360E+03  0.25500000920E-02 0. -1.
       -2    1    3    3    0  502 -0.81211967872E+02  0.46812454083E+03  0.24092322750E+03  0.53271002526E+03  0.25500000920E-02 0.  1.
</event>
<event>
 5   0  0.9298693E-04  0.1202909E+04  0.7818609E-02  0.9110314E-01
        2   -1    0    0  501    0  0.00000000000E+00  0.00000000000E+00  0.66068538063E+03  0.66068538063E+03  0.25500000920E-02 0.  1.
       -2   -1    0    0    0  501  0.00000000000E+00  0.00000000000E+00 -0.54753409608E+03  0.54753409608E+03  0.25500000920E-02 0. -1.
    10030    2    1    2    0    0  0.00000000000E+00  0.00000000000E+00  0.11315128455E+03  0.12082194767E+04  0.12029094275E+04 0.  0.
        1    1    3    3  502    0 -0.26379370753E+03 -0.14877483299E+03 -0.46535916389E+03  0.55522988258E+03  0.50400001928E-02 0. -1.
       -1    1    3    3    0  502  0.26379370753E+03  0.14877483299E+03  0.57851044845E+03  0.65298959414E+03  0.50400001928E-02 0.  1.
</event>
<event>
 5   0  0.5001586E-04  0.1191880E+04  0.7818609E-02  0.9119993E-01
        1   -1    0    0  501    0  0.00000000000E+00  0.00000000000E+00  0.75150029740E+03  0.75150029742E+03  0.50400001928E-02 0.  1.
       -1   -1    0    0    0  501  0.00000000000E+00  0.00000000000E+00 -0.47258097251E+03  0.47258097254E+03  0.50400001928E-02 0. -1.
    10030    2    1    2    0    0  0.00000000000E+00  0.00000000000E+00  0.27891932489E+03  0.12240812700E+04  0.11918804326E+04 0.  0.
        1    1    3    3  502    0  0.32938098035E+03  0.11347448580E+03 -0.35710744046E+03  0.49889278728E+03  0.50400001928E-02 0. -1.
       -1    1    3    3    0  502 -0.32938098035E+03 -0.11347448580E+03  0.63602676535E+03  0.72518848268E+03  0.50400001928E-02 0.  1.
</event>
<event>
 5   0  0.9410666E-04  0.1198706E+04  0.7818609E-02  0.9113990E-01
       -2   -1    0    0    0  501  0.00000000000E+00  0.00000000000E+00  0.14923063789E+03  0.14923063791E+03  0.25500000920E-02 0.  1.
        2   -1    0    0  501    0  0.00000000000E+00  0.00000000000E+00 -0.24071714921E+04  0.24071714921E+04  0.25500000920E-02 0. -1.
    10030    2    1    2    0    0  0.00000000000E+00  0.00000000000E+00 -0.22579408542E+04  0.25564021300E+04  0.11987055307E+04 0.  0.
        2    1    3    3  502    0  0.33158557155E+02  0.27099867326E+03 -0.22668548855E+04  0.22832369222E+04  0.25500000920E-02 0. -1.
       -2    1    3    3    0  502 -0.33158557155E+02 -0.27099867326E+03  0.89140312800E+01  0.27316520786E+03  0.25500000920E-02 0.  1.
</event>
<event>
 5   0  0.3453625E-04  0.1205622E+04  0.7818609E-02  0.9107949E-01
        3   -1    0    0  501    0  0.00000000000E+00  0.00000000000E+00  0.10845906861E+04  0.10845906908E+04  0.10100000352E+00 0. -1.
       -3   -1    0    0    0  501  0.00000000000E+00  0.00000000000E+00 -0.33504004838E+03  0.33504006360E+03  0.10100000352E+00 0.  1.
    10030    2    1    2    0    0  0.00000000000E+00  0.00000000000E+00  0.74955063776E+03  0.14196307544E+04  0.12056223788E+04 0.  0.
        2    1    3    3  502    0 -0.36447887666E+03  0.26383580561E+02  0.93929263598E+03  0.10078747942E+04  0.25500000920E-02 0. -1.
       -2    1    3    3    0  502  0.36447887666E+03 -0.26383580561E+02 -0.18974199822E+03  0.41175596019E+03  0.25500000920E-02 0.  1.
</event>
<event>
 5   0  0.5001586E-04  0.1196343E+04  0.7818609E-02  0.9116063E-01
       -1   -1    0    0    0  501  0.00000000000E+00  0.00000000000E+00  0.92575725352E+03  0.92575725353E+03  0.50400001928E-02 0.  1.
        1   -1    0    0  501    0  0.00000000000E+00  0.00000000000E+00 -0.38650452901E+03  0.38650452905E+03  0.50400001928E-02 0. -1.
    10030    2    1    2    0    0  0.00000000000E+00  0.00000000000E+00  0.53925272450E+03  0.13122617826E+04  0.11963433809E+04 0.  0.
        1    1    3    3  502    0 -0.27955319052E+03 -0.42092219540E+03 -0.81523442587E+02  0.51183156665E+03  0.50400001928E-02 0. -1.
       -1    1    3    3    0  502  0.27955319052E+03  0.42092219540E+03  0.62077616709E+03  0.80043021592E+03  0.50400001928E-02 0.  1.
</event>
<event>
 5   0  0.5003507E-04  0.1199262E+04  0.7818609E-02  0.9113503E-01
        1   -1    0    0  501    0  0.00000000000E+00  0.00000000000E+00  0.13560391815E+04  0.13560391815E+04  0.50400001928E-02 0. -1.
       -1   -1    0    0    0  501  0.00000000000E+00  0.00000000000E+00 -0.26515260682E+03  0.26515260687E+03  0.50400001928E-02 0.  1.
    10030    2    1    2    0    0  0.00000000000E+00  0.00000000000E+00  0.10908865747E+04  0.16211917884E+04  0.11992619797E+04 0.  0.
        3    1    3    3  502    0  0.58450633326E+03  0.58741364707E+02  0.70799484824E+03  0.91997549798E+03  0.10100000352E+00 0.  1.
       -3    1    3    3    0  502 -0.58450633326E+03 -0.58741364707E+02  0.38289172643E+03  0.70121629040E+03  0.10100000352E+00 0. -1.
</event>
<event>
 5   0  0.3453625E-04  0.1199857E+04  0.7818609E-02  0.9112981E-01
       -3   -1    0    0    0  501  0.00000000000E+00  0.00000000000E+00  0.32333426534E+03  0.32333428112E+03  0.10100000352E+00 0.  1.
        3   -1    0    0  501    0  0.00000000000E+00  0.00000000000E+00 -0.11131340607E+04  0.11131340652E+04  0.10100000352E+00 0. -1.
    10030    2    1    2    0    0  0.00000000000E+00  0.00000000000E+00 -0.78979979531E+03  0.14364683464E+04  0.11998573221E+04 0.  0.
        5    1    3    3  502    0 -0.38308160754E+03  0.37672114039E+03 -0.75397991429E+02  0.54256546403E+03  0.46999998093E+01 0.  1.
       -5    1    3    3    0  502  0.38308160754E+03 -0.37672114039E+03 -0.71440180388E+03  0.89390288232E+03  0.46999998093E+01 0. -1.
</event>
<event>
 5   0  0.9050363E-04  0.1190945E+04  0.7818609E-02  0.9120820E-01
        2   -1    0    0  501    0  0.00000000000E+00  0.00000000000E+00  0.65491572267E+03  0.65491572267E+03  0.25500000920E-02 0. -1.
       -2   -1    0    0    0  501  0.00000000000E+00  0.00000000000E+00 -0.54142432746E+03  0.54142432746E+03  0.25500000920E-02 0.  1.
    10030    2    1    2    0    0  0.00000000000E+00  0.00000000000E+00  0.11349139521E+03  0.11963400501E+04  0.11909446749E+04 0.  0.
        3    1    3    3  502    0  0.86601610857E+02 -0.36172418895E+03  0.52387181622E+03  0.64248417716E+03  0.10100000352E+00 0. -1.
       -3    1    3    3    0  502 -0.86601610857E+02  0.36172418895E+03 -0.41038042101E+03  0.55385587297E+03  0.10100000352E+00 0.  1.
</event>
<event>
 5   0  0.9070772E-04  0.1198436E+04  0.7818609E-02  0.9114227E-01
        2   -1    0    0  501    0  0.00000000000E+00  0.00000000000E+00  0.75641336002E+03  0.75641336002E+03  0.25500000920E-02 0.  1.
       -2   -1    0    0    0  501  0.00000000000E+00  0.00000000000E+00 -0.47469024369E+03  0.47469024370E+03  0.25500000920E-02 0. -1.
    10030    2    1    2    0    0  0.00000000000E+00  0.00000000000E+00  0.28172311633E+03  0.12311036037E+04  0.11984357174E+04 0.  0.
        4    1    3    3  502    0 -0.42082720399E+03 -0.22098904775E+03 -0.23395240400E+03  0.52978017619E+03  0.12699999809E+01 0. -1.
       -4    1    3    3    0  502  0.42082720399E+03  0.22098904775E+03  0.51567552033E+03  0.70132342753E+03  0.12699999809E+01 0.  1.
</event>
<event>
 5   0  0.5001586E-04  0.1205376E+04  0.7818609E-02  0.9108164E-01
        1   -1    0    0  501    0  0.00000000000E+00  0.00000000000E+00  0.16087345069E+04  0.16087345069E+04  0.50400001928E-02 0.  1.
       -1   -1    0    0    0  501  0.00000000000E+00  0.00000000000E+00 -0.22578803250E+03  0.22578803255E+03  0.50400001928E-02 0. -1.
    10030    2    1    2    0    0  0.00000000000E+00  0.00000000000E+00  0.13829464744E+04  0.18345225395E+04  0.12053762884E+04 0.  0.
        1    1    3    3  502    0 -0.43018136486E+03 -0.16875958451E+03  0.10261976598E+03  0.47335675810E+03  0.50400001928E-02 0. -1.
       -1    1    3    3    0  502  0.43018136486E+03  0.16875958451E+03  0.12803267084E+04  0.13611657814E+04  0.50400001928E-02 0.  1.
</event>
<event>
 5   0  0.5157631E-04  0.1211032E+04  0.7818609E-02  0.9103255E-01
       -1   -1    0    0    0  501  0.00000000000E+00  0.00000000000E+00  0.24235107770E+03  0.24235107775E+03  0.50400001928E-02 0. -1.
        1   -1    0    0  501    0  0.00000000000E+00  0.00000000000E+00 -0.15128853290E+04  0.15128853290E+04  0.50400001928E-02 0.  1.
    10030    2    1    2    0    0  0.00000000000E+00  0.00000000000E+00 -0.12705342513E+04  0.17552364067E+04  0.12110316098E+04 0.  0.
        5    1    3    3  502    0  0.94754097231E+02  0.59435365221E+03 -0.53920642070E+03  0.80808431303E+03  0.46999998093E+01 0.  1.
       -5    1    3    3    0  502 -0.94754097231E+02 -0.59435365221E+03 -0.73132783055E+03  0.94715209369E+03  0.46999998093E+01 0. -1.
</event>
<event>
 5   0  0.9050363E-04  0.1198939E+04  0.7818609E-02  0.9113786E-01
       -2   -1    0    0    0  501  0.00000000000E+00  0.00000000000E+00  0.15889458042E+03  0.15889458044E+03  0.25500000920E-02 0.  1.
        2   -1    0    0  501    0  0.00000000000E+00  0.00000000000E+00 -0.22616483202E+04  0.22616483202E+04  0.25500000920E-02 0. -1.
    10030    2    1    2    0    0  0.00000000000E+00  0.00000000000E+00 -0.21027537397E+04  0.24205429006E+04  0.11989389658E+04 0.  0.
        3    1    3    3  502    0  0.32519029551E+03 -0.36891426922E+03 -0.35928077625E+03  0.60903953297E+03  0.10100000352E+00 0.  1.
       -3    1    3    3    0  502 -0.32519029551E+03  0.36891426922E+03 -0.17434729635E+04  0.18115033676E+04  0.10100000352E+00 0. -1.
</event>
<event>
 5   0  0.5447074E-04  0.1197932E+04  0.7818609E-02  0.9114668E-01
       -1   -1    0    0    0  501  0.00000000000E+00  0.00000000000E+00  0.34096712651E+03  0.34096712655E+03  0.50400001928E-02 0.  1.
        1   -1    0    0  501    0  0.00000000000E+00  0.00000000000E+00 -0.10521845687E+04  0.10521845687E+04  0.50400001928E-02 0. -1.
    10030    2    1    2    0    0  0.00000000000E+00  0.00000000000E+00 -0.71121744221E+03  0.13931516953E+04  0.11979321333E+04 0.  0.
        4    1    3    3  502    0 -0.17922167719E+03  0.44585264082E+03 -0.77144552779E+03  0.90886456755E+03  0.12699999809E+01 0. -1.
       -4    1    3    3    0  502  0.17922167719E+03 -0.44585264082E+03  0.60228085576E+02  0.48428712773E+03  0.12699999809E+01 0.  1.
</event>
<event>
 5   0  0.9050363E-04  0.1197872E+04  0.7818609E-02  0.9114722E-01
        2   -1    0    0  501    0  0.00000000000E+00  0.00000000000E+00  0.98866355039E+03  0.98866355040E+03  0.25500000920E-02 0.  1.
       -2   -1    0    0    0  501  0.00000000000E+00  0.00000000000E+00 -0.36283733169E+03  0.36283733170E+03  0.25500000920E-02 0. -1.
    10030    2    1    2    0    0  0.00000000000E+00  0.00000000000E+00  0.62582621870E+03  0.13515008821E+04  0.11978715199E+04 0.  0.
        3    1    3    3  502    0 -0.30790230841E+03 -0.49846816954E+03  0.17267503684E+03  0.61081177634E+03  0.10100000352E+00 0. -1.
       -3    1    3    3    0  502  0.30790230841E+03  0.49846816954E+03  0.45315118185E+03  0.74068910576E+03  0.10100000352E+00 0.  1.
</event>
<event>
 5   0  0.5157631E-04  0.1197947E+04  0.7818609E-02  0.9114655E-01
        1   -1    0    0  501    0  0.00000000000E+00  0.00000000000E+00  0.41833752973E+03  0.41833752976E+03  0.50400001928E-02 0.  1.
       -1   -1    0    0    0  501  0.00000000000E+00  0.00000000000E+00 -0.85760770328E+03  0.85760770330E+03  0.50400001928E-02 0. -1.
    10030    2    1    2    0    0  0.00000000000E+00  0.00000000000E+00 -0.43927017355E+03  0.12759452331E+04  0.11979473913E+04 0.  0.
        5    1    3    3  502    0 -0.47355924543E+02 -0.58887312323E+03 -0.11455427165E+03  0.60179640245E+03  0.46999998093E+01 0.  1.
       -5    1    3    3    0  502  0.47355924543E+02  0.58887312323E+03 -0.32471590190E+03  0.67414883060E+03  0.46999998093E+01 0. -1.
</event>
<event>
 5   0  0.5052959E-04  0.1202155E+04  0.7818609E-02  0.9110972E-01
       -1   -1    0    0    0  501  0.00000000000E+00  0.00000000000E+00  0.22966565922E+03  0.22966565928E+03  0.50400001928E-02 0.  1.
        1   -1    0    0  501    0  0.00000000000E+00  0.00000000000E+00 -0.15731308442E+04  0.15731308442E+04  0.50400001928E-02 0. -1.
    10030    2    1    2    0    0  0.00000000000E+00  0.00000000000E+00 -0.13434651850E+04  0.18027965035E+04  0.12021549525E+04 0.  0.
        2    1    3    3  502    0 -0.28671662201E+03  0.34128087380E+03 -0.12764697591E+04  0.13520555099E+04  0.25500000920E-02 0. -1.
       -2    1    3    3    0  502  0.28671662201E+03 -0.34128087380E+03 -0.66995425916E+02  0.45074099354E+03  0.25500000920E-02 0.  1.
</event>
<event>
 5   0  0.9145224E-04  0.1204563E+04  0.7818609E-02  0.9108872E-01
       -2   -1    0    0    0  501  0.00000000000E+00  0.00000000000E+00  0.62342768468E+03  0.62342768469E+03  0.25500000920E-02 0. -1.
        2   -1    0    0  501    0  0.00000000000E+00  0.00000000000E+00 -0.58185291976E+03  0.58185291977E+03  0.25500000920E-02 0.  1.
    10030    2    1    2    0    0  0.00000000000E+00  0.00000000000E+00  0.41574764922E+02  0.12052806045E+04  0.12045633542E+04 0.  0.
        5    1    3    3  502    0  0.13116694889E+03  0.58581164167E+03  0.69200907394E+02  0.60431027095E+03  0.46999998093E+01 0. -1.
       -5    1    3    3    0  502 -0.13116694889E+03 -0.58581164167E+03 -0.27626142472E+02  0.60097033350E+03  0.46999998093E+01 0.  1.
</event>
<event>
 5   0  0.5001586E-04  0.1210221E+04  0.7818609E-02  0.9103957E-01
       -1   -1    0    0    0  501  0.00000000000E+00  0.00000000000E+00  0.26544825160E+03  0.26544825164E+03  0.50400001928E-02 0.  1.
        1   -1    0    0  501    0  0.00000000000E+00  0.00000000000E+00 -0.13793981397E+04  0.13793981397E+04  0.50400001928E-02 0. -1.
    10030    2    1    2    0    0  0.00000000000E+00  0.00000000000E+00 -0.11139498881E+04  0.16448463913E+04  0.12102211773E+04 0.  0.
        1    1    3    3  502    0 -0.14909947387E+03  0.37836068997E+03  0.52016902497E+02  0.40999173527E+03  0.50400001928E-02 0.  1.
       -1    1    3    3    0  502  0.14909947387E+03 -0.37836068997E+03 -0.11659667906E+04  0.12348546560E+04  0.50400001928E-02 0. -1.
</event>
<event>
 5   0  0.5001586E-04  0.1199075E+04  0.7818609E-02  0.9113666E-01
        1   -1    0    0  501    0  0.00000000000E+00  0.00000000000E+00  0.13538149074E+04  0.13538149074E+04  0.50400001928E-02 0.  1.
       -1   -1    0    0    0  501  0.00000000000E+00  0.00000000000E+00 -0.26550560483E+03  0.26550560488E+03  0.50400001928E-02 0. -1.
    10030    2    1    2    0    0  0.00000000000E+00  0.00000000000E+00  0.10883093026E+04  0.16193205123E+04  0.11990753869E+04 0.  0.
        1    1    3    3  502    0 -0.68736293111E+02  0.54419098881E+03  0.21730377570E+03  0.58999105184E+03  0.50400001928E-02 0. -1.
       -1    1    3    3    0  502  0.68736293111E+02 -0.54419098881E+03  0.87100552687E+03  0.10293294605E+04  0.50400001928E-02 0.  1.
</event>
<event>
 5   0  0.9145224E-04  0.1202406E+04  0.7818609E-02  0.9110753E-01
        2   -1    0    0  501    0  0.00000000000E+00  0.00000000000E+00  0.27161475489E+04  0.27161475489E+04  0.25500000920E-02 0. -1.
       -2   -1    0    0    0  501  0.00000000000E+00  0.00000000000E+00 -0.13307278558E+03  0.13307278560E+03  0.25500000920E-02 0.  1.
    10030    2    1    2    0    0  0.00000000000E+00  0.00000000000E+00  0.25830747633E+04  0.28492203345E+04  0.12024064544E+04 0.  0.
        5    1    3    3  502    0  0.30214367428E+03  0.31186336066E+03  0.22767708770E+04  0.23178130365E+04  0.46999998093E+01 0. -1.
       -5    1    3    3    0  502 -0.30214367428E+03 -0.31186336066E+03  0.30630388629E+03  0.53140729801E+03  0.46999998093E+01 0.  1.
</event>
<event>
 5   0  0.5447074E-04  0.1199160E+04  0.7818609E-02  0.9113592E-01
       -1   -1    0    0    0  501  0.00000000000E+00  0.00000000000E+00  0.26128580622E+03  0.26128580626E+03  0.50400001928E-02 0.  1.
        1   -1    0    0  501    0  0.00000000000E+00  0.00000000000E+00 -0.13758744680E+04  0.13758744680E+04  0.50400001928E-02 0. -1.
    10030    2    1    2    0    0  0.00000000000E+00  0.00000000000E+00 -0.11145886618E+04  0.16371602743E+04  0.11991604891E+04 0.  0.
        4    1    3    3  502    0 -0.34022182739E+01  0.21383937285E+03  0.20743880773E+03  0.29794516999E+03  0.12699999809E+01 0.  1.
       -4    1    3    3    0  502  0.34022182739E+01 -0.21383937285E+03 -0.13220274695E+04  0.13392151043E+04  0.12699999809E+01 0. -1.
</event>
<event>
 5   0  0.5001586E-04  0.1202485E+04  0.7818609E-02  0.9110684E-01
       -1   -1    0    0    0  501  0.00000000000E+00  0.00000000000E+00  0.33582041587E+03  0.33582041591E+03  0.50400001928E-02 0. -1.
        1   -1    0    0  501    0  0.00000000000E+00  0.00000000000E+00 -0.10764466388E+04  0.10764466388E+04  0.50400001928E-02 0.  1.
    10030    2    1    2    0    0  0.00000000000E+00  0.00000000000E+00 -0.74062622292E+03  0.14122670547E+04  0.12024853561E+04 0.  0.
        1    1    3    3  502    0 -0.20284082560E+03 -0.99617176535E+02 -0.10246708151E+04  0.10492941731E+04  0.50400001928E-02 0.  1.
       -1    1    3    3    0  502  0.20284082560E+03  0.99617176535E+02  0.28404459219E+03  0.36297288158E+03  0.50400001928E-02 0. -1.
</event>
<event>
 5   0  0.9145224E-04  0.1187545E+04  0.7818609E-02  0.9123829E-01
        2   -1    0    0  501    0  0.00000000000E+00  0.00000000000E+00  0.13521228947E+04  0.13521228947E+04  0.25500000920E-02 0. -1.
       -2   -1    0    0    0  501  0.00000000000E+00  0.00000000000E+00 -0.26074973859E+03  0.26074973860E+03  0.25500000920E-02 0.  1.
    10030    2    1    2    0    0  0.00000000000E+00  0.00000000000E+00  0.10913731562E+04  0.16128726333E+04  0.11875448477E+04 0.  0.
        5    1    3    3  502    0 -0.33039618428E+03  0.22479256298E+03  0.11421175322E+04  0.12100197859E+04  0.46999998093E+01 0. -1.
       -5    1    3    3    0  502  0.33039618428E+03 -0.22479256298E+03 -0.50744376074E+02  0.40285284740E+03  0.46999998093E+01 0.  1.
</event>
<event>
 5   0  0.5157631E-04  0.1199904E+04  0.7818609E-02  0.9112941E-01
        1   -1    0    0  501    0  0.00000000000E+00  0.00000000000E+00  0.75021638145E+03  0.75021638147E+03  0.50400001928E-02 0.  1.
       -1   -1    0    0    0  501  0.00000000000E+00  0.00000000000E+00 -0.47978451280E+03  0.47978451282E+03  0.50400001928E-02 0. -1.
    10030    2    1    2    0    0  0.00000000000E+00  0.00000000000E+00  0.27043186866E+03  0.12300008943E+04  0.11999036646E+04 0.  0.
        5    1    3    3  502    0  0.29311809613E+03  0.43053139694E+03  0.44041641412E+03  0.68210278540E+03  0.46999998093E+01 0.  1.
       -5    1    3    3    0  502 -0.29311809613E+03 -0.43053139694E+03 -0.16998454547E+03  0.54789810889E+03  0.46999998093E+01 0. -1.
</event>
<event>
 5   0  0.9050363E-04  0.1202409E+04  0.7818609E-02  0.9110751E-01
        2   -1    0    0  501    0  0.00000000000E+00  0.00000000000E+00  0.65955477164E+03  0.65955477164E+03  0.25500000920E-02 0. -1.
       -2   -1    0    0    0  501  0.00000000000E+00  0.00000000000E+00 -0.54801603708E+03  0.54801603709E+03  0.25500000920E-02 0.  1.
    10030    2    1    2    0    0  0.00000000000E+00  0.00000000000E+00  0.11153873455E+03  0.12075708087E+04  0.12024085698E+04 0.  0.
        3    1    3    3  502    0  0.38863780660E+03  0.97762107728E+02 -0.39431740874E+03  0.56221259632E+03  0.10100000352E+00 0.  1.
       -3    1    3    3    0  502 -0.38863780660E+03 -0.97762107728E+02  0.50585614329E+03  0.64535821242E+03  0.10100000352E+00 0. -1.
</event>
<event>
 5   0  0.5052959E-04  0.1199437E+04  0.7818609E-02  0.9113349E-01
        1   -1    0    0  501    0  0.00000000000E+00  0.00000000000E+00  0.62791892094E+03  0.62791892096E+03  0.50400001928E-02 0. -1.
       -1   -1    0    0    0  501  0.00000000000E+00  0.00000000000E+00 -0.57278464533E+03  0.57278464535E+03  0.50400001928E-02 0.  1.
    10030    2    1    2    0    0  0.00000000000E+00  0.00000000000E+00  0.55134275615E+02  0.12007035663E+04  0.11994370620E+04 0.  0.
        2    1    3    3  502    0 -0.42976510257E+03 -0.25258477909E+03  0.36133365576E+03  0.61567777677E+03  0.25500000920E-02 0. -1.
       -2    1    3    3    0  502  0.42976510257E+03  0.25258477909E+03 -0.30619938015E+03  0.58502578954E+03  0.25500000920E-02 0.  1.
</event>
<event>
 5   0  0.5447074E-04  0.1207243E+04  0.7818609E-02  0.9106540E-01
        1   -1    0    0  501    0  0.00000000000E+00  0.00000000000E+00  0.21756497329E+04  0.21756497329E+04  0.50400001928E-02 0. -1.
       -1   -1    0    0    0  501  0.00000000000E+00  0.00000000000E+00 -0.16747142594E+03  0.16747142602E+03  0.50400001928E-02 0.  1.
    10030    2    1    2    0    0  0.00000000000E+00  0.00000000000E+00  0.20081783069E+04  0.23431211589E+04  0.12072434108E+04 0.  0.
        4    1    3    3  502    0 -0.19358048385E+03  0.54576481162E+03  0.67342631057E+03  0.88816509839E+03  0.12699999809E+01 0.  1.
       -4    1    3    3    0  502  0.19358048385E+03 -0.54576481162E+03  0.13347519964E+04  0.14549560605E+04  0.12699999809E+01 0. -1.
</event>
<event>
 5   0  0.5001586E-04  0.1198940E+04  0.7818609E-02  0.9113785E-01
       -1   -1    0    0    0  501  0.00000000000E+00  0.00000000000E+00  0.22005430475E+03  0.22005430481E+03  0.50400001928E-02 0. -1.
        1   -1    0    0  501    0  0.00000000000E+00  0.00000000000E+00 -0.16330702983E+04  0.16330702983E+04  0.50400001928E-02 0.  1.
    10030    2    1    2    0    0  0.00000000000E+00  0.00000000000E+00 -0.14130159936E+04  0.18531246031E+04  0.11989397803E+04 0.  0.
        1    1    3    3  502    0 -0.54344766063E+03  0.20615708457E+03 -0.47972548760E+03  0.75363960010E+03  0.50400001928E-02 0.  1.
       -1    1    3    3    0  502  0.54344766063E+03 -0.20615708457E+03 -0.93329050596E+03  0.10994850030E+04  0.50400001928E-02 0. -1.
</event>
<event>
 5   0  0.5447074E-04  0.1199901E+04  0.7818609E-02  0.9112943E-01
       -1   -1    0    0    0  501  0.00000000000E+00  0.00000000000E+00  0.72234132126E+03  0.72234132128E+03  0.50400001928E-02 0.  1.
        1   -1    0    0  501    0  0.00000000000E+00  0.00000000000E+00 -0.49829736129E+03  0.49829736132E+03  0.50400001928E-02 0. -1.
    10030    2    1    2    0    0  0.00000000000E+00  0.00000000000E+00  0.22404395997E+03  0.12206386826E+04  0.11999012865E+04 0.  0.
        4    1    3    3  502    0 -0.10633889039E+03 -0.42888658195E+03 -0.30080866729E+03  0.53454572022E+03  0.12699999809E+01 0. -1.
       -4    1    3    3    0  502  0.10633889039E+03  0.42888658195E+03  0.52485262726E+03  0.68609296238E+03  0.12699999809E+01 0.  1.
</event>
<event>
 5   0  0.9410666E-04  0.1200344E+04  0.7818609E-02  0.9112555E-01
        2   -1    0    0  501    0  0.00000000000E+00  0.00000000000E+00  0.12345144446E+04  0.12345144446E+04  0.25500000920E-02 0. -1.
       -2   -1    0    0    0  501  0.00000000000E+00  0.00000000000E+00 -0.29178007207E+03  0.29178007208E+03  0.25500000920E-02 0.  1.
    10030    2    1    2    0    0  0.00000000000E+00  0.00000000000E+00  0.94273437248E+03  0.15262945166E+04  0.12003444732E+04 0.  0.
        2    1    3    3  502    0  0.37635266500E+03 -0.28004201167E+03  0.94737751955E+03  0.10571608304E+04  0.25500000920E-02 0. -1.
       -2    1    3    3    0  502 -0.37635266500E+03  0.28004201167E+03 -0.46431470664E+01  0.46913368625E+03  0.25500000920E-02 0.  1.
</event>
<event>
 5   0  0.9298693E-04  0.1200466E+04  0.7818609E-02  0.9112449E-01
       -2   -1    0    0    0  501  0.00000000000E+00  0.00000000000E+00  0.19605586375E+03  0.19605586376E+03  0.25500000920E-02 0.  1.
        2   -1    0    0  501    0  0.00000000000E+00  0.00000000000E+00 -0.18376380108E+04  0.18376380108E+04  0.25500000920E-02 0. -1.
    10030    2    1    2    0    0  0.00000000000E+00  0.00000000000E+00 -0.16415821471E+04  0.20336938746E+04  0.12004660886E+04 0.  0.
        1    1    3    3  502    0 -0.39718954542E+03  0.94573478657E+02 -0.75438984360E+02  0.41520442946E+03  0.50400001928E-02 0.  1.
       -1    1    3    3    0  502  0.39718954542E+03 -0.94573478657E+02 -0.15661431627E+04  0.16184894451E+04  0.50400001928E-02 0. -1.
</event>
<event>
 5   0  0.9050363E-04  0.1206965E+04  0.7818609E-02  0.9106782E-01
       -2   -1    0    0    0  501  0.00000000000E+00  0.00000000000E+00  0.43813865820E+03  0.43813865821E+03  0.25500000920E-02 0. -1.
        2   -1    0    0  501    0  0.00000000000E+00  0.00000000000E+00 -0.83122393730E+03  0.83122393730E+03  0.25500000920E-02 0.  1.
    10030    2    1    2    0    0  0.00000000000E+00  0.00000000000E+00 -0.39308527910E+03  0.12693625955E+04  0.12069653525E+04 0.  0.
        3    1    3    3  502    0 -0.97939880055E+02 -0.48008442061E+03  0.17397456751E+03  0.51994271930E+03  0.10100000352E+00 0. -1.
       -3    1    3    3    0  502  0.97939880055E+02  0.48008442061E+03 -0.56705984661E+03  0.74941987621E+03  0.10100000352E+00 0.  1.
</event>
<event>
 5   0  0.9298693E-04  0.1198032E+04  0.7818609E-02  0.9114581E-01
        2   -1    0    0  501    0  0.00000000000E+00  0.00000000000E+00  0.17513888207E+04  0.17513888207E+04  0.25500000920E-02 0.  1.
       -2   -1    0    0    0  501  0.00000000000E+00  0.00000000000E+00 -0.20487750651E+03  0.20487750653E+03  0.25500000920E-02 0. -1.
    10030    2    1    2    0    0  0.00000000000E+00  0.00000000000E+00  0.15465113142E+04  0.19562663272E+04  0.11980320105E+04 0.  0.
        1    1    3    3  502    0 -0.38086249948E+02  0.21115768229E+03  0.16864862777E+04  0.17000806140E+04  0.50400001928E-02 0.  1.
       -1    1    3    3    0  502  0.38086249948E+02 -0.21115768229E+03 -0.13997496351E+03  0.25618571323E+03  0.50400001928E-02 0. -1.
</event>
<event>
 5   0  0.9070772E-04  0.1204356E+04  0.7818609E-02  0.9109052E-01
        2   -1    0    0  501    0  0.00000000000E+00  0.00000000000E+00  0.62463153973E+03  0.62463153973E+03  0.25500000920E-02 0. -1.
       -2   -1    0    0    0  501  0.00000000000E+00  0.00000000000E+00 -0.58053164531E+03  0.58053164531E+03  0.25500000920E-02 0.  1.
    10030    2    1    2    0    0  0.00000000000E+00  0.00000000000E+00  0.44099894421E+02  0.12051631850E+04  0.12043560528E+04 0.  0.
        4    1    3    3  502    0 -0.29488030545E+03  0.34269516223E+03 -0.37598841656E+03  0.58801638672E+03  0.12699999809E+01 0.  1.
       -4    1    3    3    0  502  0.29488030545E+03 -0.34269516223E+03  0.42008831098E+03  0.61714679833E+03  0.12699999809E+01 0. -1.
</event>
<event>
 5   0  0.5003507E-04  0.1196754E+04  0.7818609E-02  0.9115703E-01
       -1   -1    0    0    0  501  0.00000000000E+00  0.00000000000E+00  0.20033072151E+03  0.20033072158E+03  0.50400001928E-02 0. -1.
        1   -1    0    0  501    0  0.00000000000E+00  0.00000000000E+00 -0.17873195956E+04  0.17873195956E+04  0.50400001928E-02 0.  1.
    10030    2    1    2    0    0  0.00000000000E+00  0.00000000000E+00 -0.15869888740E+04  0.19876503171E+04  0.11967539834E+04 0.  0.
        3    1    3    3  502    0 -0.21294572099E+03 -0.68401834780E+02 -0.17152841055E+04  0.17298046895E+04  0.10100000352E+00 0.  1.
       -3    1    3    3    0  502  0.21294572099E+03  0.68401834780E+02  0.12829523143E+03  0.25784562765E+03  0.10100000352E+00 0. -1.
</event>
<event>
 5   0  0.5001586E-04  0.1199954E+04  0.7818609E-02  0.9112897E-01
        1   -1    0    0  501    0  0.00000000000E+00  0.00000000000E+00  0.55862570072E+03  0.55862570074E+03  0.50400001928E-02 0.  1.
       -1   -1    0    0    0  501  0.00000000000E+00  0.00000000000E+00 -0.64438959444E+03  0.64438959446E+03  0.50400001928E-02 0. -1.
    10030    2    1    2    0    0  0.00000000000E+00  0.00000000000E+00 -0.85763893727E+02  0.12030152952E+04  0.11999543137E+04 0.  0.
        1    1    3    3  502    0  0.15846474709E+03  0.31928107766E+03 -0.52673207414E+03  0.63600169856E+03  0.50400001928E-02 0. -1.
       -1    1    3    3    0  502 -0.15846474709E+03 -0.31928107766E+03  0.44096818041E+03  0.56701359664E+03  0.50400001928E-02 0.  1.
</event>
<event>
 5   0  0.3453625E-04  0.1200689E+04  0.7818609E-02  0.9112254E-01
        3   -1    0    0  501    0  0.00000000000E+00  0.00000000000E+00  0.20964085554E+04  0.20964085578E+04  0.10100000352E+00 0. -1.
       -3   -1    0    0    0  501  0.00000000000E+00  0.00000000000E+00 -0.17191938650E+03  0.17191941617E+03  0.10100000352E+00 0.  1.
    10030    2    1    2    0    0  0.00000000000E+00  0.00000000000E+00  0.19244891689E+04  0.22683279740E+04  0.12006886509E+04 0.  0.
        2    1    3    3  502    0  0.15739991482E+03  0.14397558772E+03  0.20223972201E+04  0.20336160451E+04  0.25500000920E-02 0. -1.
       -2    1    3    3    0  502 -0.15739991482E+03 -0.14397558772E+03 -0.97908051243E+02  0.23471192886E+03  0.25500000920E-02 0.  1.
</event>
<event>
 5   0  0.5001586E-04  0.1200204E+04  0.7818609E-02  0.9112678E-01
       -1   -1    0    0    0  501  0.00000000000E+00  0.00000000000E+00  0.61381487755E+03  0.61381487757E+03  0.50400001928E-02 0.  1.
        1   -1    0    0  501    0  0.00000000000E+00  0.00000000000E+00 -0.58669499549E+03  0.58669499552E+03  0.50400001928E-02 0. -1.
    10030    2    1    2    0    0  0.00000000000E+00  0.00000000000E+00  0.27119882056E+02  0.12005098731E+04  0.12002035108E+04 0.  0.
        1    1    3    3  502    0 -0.16156662823E+03 -0.56572083103E+03 -0.10470002629E+03  0.59758340802E+03  0.50400001928E-02 0.  1.
       -1    1    3    3    0  502  0.16156662823E+03  0.56572083103E+03  0.13181990835E+03  0.60292646506E+03  0.50400001928E-02 0. -1.
</event>
<event>
 5   0  0.5447074E-04  0.1210819E+04  0.7818609E-02  0.9103439E-01
        1   -1    0    0  501    0  0.00000000000E+00  0.00000000000E+00  0.11704949214E+04  0.11704949215E+04  0.50400001928E-02 0.  1.
       -1   -1    0    0    0  501  0.00000000000E+00  0.00000000000E+00 -0.31313287556E+03  0.31313287561E+03  0.50400001928E-02 0. -1.
    10030    2    1    2    0    0  0.00000000000E+00  0.00000000000E+00  0.85736204588E+03  0.14836277971E+04  0.12108186332E+04 0.  0.
        4    1    3    3  502    0  0.13126336901E+03 -0.58465155390E+03  0.32276920456E+03  0.68060934745E+03  0.12699999809E+01 0. -1.
       -4    1    3    3    0  502 -0.13126336901E+03  0.58465155390E+03  0.53459284131E+03  0.80301844961E+03  0.12699999809E+01 0.  1.
</event>
<event>
 5   0  0.5003507E-04  0.1199801E+04  0.7818609E-02  0.9113031E-01
       -1   -1    0    0    0  501  0.00000000000E+00  0.00000000000E+00  0.39092980960E+03  0.39092980963E+03  0.50400001928E-02 0.  1.
        1   -1    0    0  501    0  0.00000000000E+00  0.00000000000E+00 -0.92057640786E+03  0.92057640787E+03  0.50400001928E-02 0. -1.
    10030    2    1    2    0    0  0.00000000000E+00  0.00000000000E+00 -0.52964659826E+03  0.13115062175E+04  0.11998012500E+04 0.  0.
        3    1    3    3  502    0  0.87993849184E+02  0.13453408998E+02 -0.91331697827E+03  0.91764471595E+03  0.10100000352E+00 0. -1.
       -3    1    3    3    0  502 -0.87993849184E+02 -0.13453408998E+02  0.38367038001E+03  0.39386150155E+03  0.10100000352E+00 0.  1.
</event>
<event>
 5   0  0.9070772E-04  0.1198559E+04  0.7818609E-02  0.9114119E-01
        2   -1    0    0  501    0  0.00000000000E+00  0.00000000000E+00  0.18088813660E+04  0.18088813660E+04  0.25500000920E-02 0. -1.
       -2   -1    0    0    0  501  0.00000000000E+00  0.00000000000E+00 -0.19854020110E+03  0.19854020112E+03  0.25500000920E-02 0.  1.
    10030    2    1    2    0    0  0.00000000000E+00  0.00000000000E+00  0.16103411649E+04  0.20074215672E+04  0.11985585846E+04 0.  0.
        4    1    3    3  502    0 -0.17165345998E+03 -0.53286155247E+03  0.44701719837E+03  0.71640235410E+03  0.12699999809E+01 0.  1.
       -4    1    3    3    0  502  0.17165345998E+03  0.53286155247E+03  0.11633239666E+04  0.12910192131E+04  0.12699999809E+01 0. -1.
</event>
<event>
 5   0  0.5052959E-04  0.1199869E+04  0.7818609E-02  0.9112971E-01
       -1   -1    0    0    0  501  0.00000000000E+00  0.00000000000E+00  0.32609275153E+03  0.32609275157E+03  0.50400001928E-02 0.  1.
        1   -1    0    0  501    0  0.00000000000E+00  0.00000000000E+00 -0.11037390473E+04  0.11037390473E+04  0.50400001928E-02 0. -1.
    10030    2    1    2    0    0  0.00000000000E+00  0.00000000000E+00 -0.77764629573E+03  0.14298317988E+04  0.11998688310E+04 0.  0.
        2    1    3    3  502    0  0.36006256761E+03 -0.40026399764E+03 -0.73394097450E+02  0.54336269098E+03  0.25500000920E-02 0. -1.
       -2    1    3    3    0  502 -0.36006256761E+03  0.40026399764E+03 -0.70425219828E+03  0.88646910786E+03  0.25500000920E-02 0.  1.
</event>
<event>
 5   0  0.5003507E-04  0.1197901E+04  0.7818609E-02  0.9114696E-01
       -1   -1    0    0    0  501  0.00000000000E+00  0.00000000000E+00  0.39638715453E+03  0.39638715456E+03  0.50400001928E-02 0.  1.
        1   -1    0    0  501    0  0.00000000000E+00  0.00000000000E+00 -0.90502790434E+03  0.90502790435E+03  0.50400001928E-02 0. -1.
    10030    2    1    2    0    0  0.00000000000E+00  0.00000000000E+00 -0.50864074981E+03  0.13014150589E+04  0.11979005565E+04 0.  0.
        3    1    3    3  502    0  0.53887243950E+03  0.79479734445E+02  0.16283540066E+02  0.54494559188E+03  0.10100000352E+00 0.  1.
       -3    1    3    3    0  502 -0.53887243950E+03 -0.79479734445E+02 -0.52492428988E+03  0.75646946703E+03  0.10100000352E+00 0. -1.
</event>
<event>
 5   0  0.9145224E-04  0.1198982E+04  0.7818609E-02  0.9113748E-01
        2   -1    0    0  501    0  0.00000000000E+00  0.00000000000E+00  0.29911436700E+03  0.29911436702E+03  0.25500000920E-02 0. -1.
       -2   -1    0    0    0  501  0.00000000000E+00  0.00000000000E+00 -0.12015118865E+04  0.12015118865E+04  0.25500000920E-02 0.  1.
    10030    2    1    2    0    0  0.00000000000E+00  0.00000000000E+00 -0.90239751952E+03  0.15006262535E+04  0.11989820139E+04 0.  0.
        5    1    3    3  502    0 -0.68797613281E+02  0.36027458693E+02  0.29276879018E+03  0.30293026239E+03  0.46999998093E+01 0. -1.
       -5    1    3    3    0  502  0.68797613281E+02 -0.36027458693E+02 -0.11951663097E+04  0.11976959912E+04  0.46999998093E+01 0.  1.
</event>
<event>
 5   0  0.5052959E-04  0.1200870E+04  0.7818609E-02  0.9112095E-01
        1   -1    0    0  501    0  0.00000000000E+00  0.00000000000E+00  0.17334183021E+04  0.17334183021E+04  0.50400001928E-02 0. -1.
       -1   -1    0    0    0  501  0.00000000000E+00  0.00000000000E+00 -0.20798332850E+03  0.20798332856E+03  0.50400001928E-02 0.  1.
    10030    2    1    2    0    0  0.00000000000E+00  0.00000000000E+00  0.15254349736E+04  0.19414016307E+04  0.12008698651E+04 0.  0.
        2    1    3    3  502    0  0.27092309996E+03  0.49235919412E+03  0.11045382929E+04  0.12392827533E+04  0.25500000920E-02 0. -1.
       -2    1    3    3    0  502 -0.27092309996E+03 -0.49235919412E+03  0.42089668067E+03  0.70211887735E+03  0.25500000920E-02 0.  1.
</event>
<event>
 5   0  0.5157631E-04  0.1172381E+04  0.7818609E-02  0.9137381E-01
       -1   -1    0    0    0  501  0.00000000000E+00  0.00000000000E+00  0.29050749733E+03  0.29050749738E+03  0.50400001928E-02 0. -1.
        1   -1    0    0  501    0  0.00000000000E+00  0.00000000000E+00 -0.11828239981E+04  0.11828239981E+04  0.50400001928E-02 0.  1.
    10030    2    1    2    0    0  0.00000000000E+00  0.00000000000E+00 -0.89231650078E+03  0.14733314955E+04  0.11723808929E+04 0.  0.
        5    1    3    3  502    0  0.48488475566E+03 -0.32936884394E+03 -0.44653080905E+03  0.73689138620E+03  0.46999998093E+01 0. -1.
       -5    1    3    3    0  502 -0.48488475566E+03  0.32936884394E+03 -0.44578569172E+03  0.73644010929E+03  0.46999998093E+01 0.  1.
</event>
<event>
 5   0  0.5157631E-04  0.1197504E+04  0.7818609E-02  0.9115044E-01
       -1   -1    0    0    0  501  0.00000000000E+00  0.00000000000E+00  0.31027155616E+03  0.31027155620E+03  0.50400001928E-02 0.  1.
        1   -1    0    0  501    0  0.00000000000E+00  0.00000000000E+00 -0.11554528692E+04  0.11554528692E+04  0.50400001928E-02 0. -1.
    10030    2    1    2    0    0  0.00000000000E+00  0.00000000000E+00 -0.84518131301E+03  0.14657244254E+04  0.11975043379E+04 0.  0.
        5    1    3    3  502    0  0.21277980077E+03  0.46997268944E+03 -0.79451321527E+03  0.94732407954E+03  0.46999998093E+01 0. -1.
       -5    1    3    3    0  502 -0.21277980077E+03 -0.46997268944E+03 -0.50668097738E+02  0.51840034584E+03  0.46999998093E+01 0.  1.
</event>
<event>
 5   0  0.9410666E-04  0.1200715E+04  0.7818609E-02  0.9112231E-01
       -2   -1    0    0    0  501  0.00000000000E+00  0.00000000000E+00  0.57240173108E+03  0.57240173109E+03  0.25500000920E-02 0.  1.
        2   -1    0    0  501    0  0.00000000000E+00  0.00000000000E+00 -0.62967900227E+03  0.62967900228E+03  0.25500000920E-02 0. -1.
    10030    2    1    2    0    0  0.00000000000E+00  0.00000000000E+00 -0.57277271191E+02  0.12020807334E+04  0.12007153717E+04 0.  0.
        2    1    3    3  502    0  0.59209883230E+03 -0.83511991919E+02 -0.82309959249E+02  0.60359772151E+03  0.25500000920E-02 0.  1.
       -2    1    3    3    0  502 -0.59209883230E+03  0.83511991919E+02  0.25032688059E+02  0.59848301186E+03  0.25500000920E-02 0. -1.
</event>
<event>
 5   0  0.9410666E-04  0.1200341E+04  0.7818609E-02  0.9112558E-01
       -2   -1    0    0    0  501  0.00000000000E+00  0.00000000000E+00  0.17130473759E+03  0.17130473761E+03  0.25500000920E-02 0. -1.
        2   -1    0    0  501    0  0.00000000000E+00  0.00000000000E+00 -0.21027122713E+04  0.21027122713E+04  0.25500000920E-02 0.  1.
    10030    2    1    2    0    0  0.00000000000E+00  0.00000000000E+00 -0.19314075337E+04  0.22740170089E+04  0.12003409081E+04 0.  0.
        2    1    3    3  502    0  0.30149484476E+03 -0.40957714429E+03 -0.15694206650E+04  0.16497678025E+04  0.25500000920E-02 0.  1.
       -2    1    3    3    0  502 -0.30149484476E+03  0.40957714429E+03 -0.36198686870E+03  0.62424920637E+03  0.25500000920E-02 0. -1.
</event>
<event>
 5   0  0.9145224E-04  0.1194239E+04  0.7818609E-02  0.9117914E-01
       -2   -1    0    0    0  501  0.00000000000E+00  0.00000000000E+00  0.41790332107E+03  0.41790332108E+03  0.25500000920E-02 0. -1.
        2   -1    0    0  501    0  0.00000000000E+00  0.00000000000E+00 -0.85319166004E+03  0.85319166004E+03  0.25500000920E-02 0.  1.
    10030    2    1    2    0    0  0.00000000000E+00  0.00000000000E+00 -0.43528833897E+03  0.12710949811E+04  0.11942388844E+04 0.  0.
        5    1    3    3  502    0  0.46894912088E+03  0.35918444796E+03 -0.31044959543E+03  0.66732884467E+03  0.46999998093E+01 0. -1.
       -5    1    3    3    0  502 -0.46894912088E+03 -0.35918444796E+03 -0.12483874354E+03  0.60376613644E+03  0.46999998093E+01 0.  1.
</event>
<event>
 5   0  0.9070772E-04  0.1206395E+04  0.7818609E-02  0.9107277E-01
        2   -1    0    0  501    0  0.00000000000E+00  0.00000000000E+00  0.22720761179E+04  0.22720761179E+04  0.25500000920E-02 0.  1.
       -2   -1    0    0    0  501  0.00000000000E+00  0.00000000000E+00 -0.16013868503E+03  0.16013868505E+03  0.25500000920E-02 0. -1.
    10030    2    1    2    0    0  0.00000000000E+00  0.00000000000E+00  0.21119374328E+04  0.24322148029E+04  0.12063950959E+04 0.  0.
        4    1    3    3  502    0 -0.24006920600E+03  0.85537161929E+02  0.21581988984E+04  0.21731944063E+04  0.12699999809E+01 0.  1.
       -4    1    3    3    0  502  0.24006920600E+03 -0.85537161929E+02 -0.46261465585E+02  0.25902039657E+03  0.12699999809E+01 0. -1.
</event>
<event>
 5   0  0.5001586E-04  0.1208926E+04  0.7818609E-02  0.9105079E-01
        1   -1    0    0  501    0  0.00000000000E+00  0.00000000000E+00  0.49749376725E+03  0.49749376728E+03  0.50400001928E-02 0.  1.
       -1   -1    0    0    0  501  0.00000000000E+00  0.00000000000E+00 -0.73443252179E+03  0.73443252180E+03  0.50400001928E-02 0. -1.
    10030    2    1    2    0    0  0.00000000000E+00  0.00000000000E+00 -0.23693875453E+03  0.12319262891E+04  0.12089261385E+04 0.  0.
        1    1    3    3  502    0 -0.46198842213E+03  0.24282611945E+03  0.19225443122E+03  0.55620103634E+03  0.50400001928E-02 0.  1.
       -1    1    3    3    0  502  0.46198842213E+03 -0.24282611945E+03 -0.42919318575E+03  0.67572525274E+03  0.50400001928E-02 0. -1.
</event>
<event>
 5   0  0.9070772E-04  0.1203176E+04  0.7818609E-02  0.9110081E-01
       -2   -1    0    0    0  501  0.00000000000E+00  0.00000000000E+00  0.24056104868E+03  0.24056104869E+03  0.25500000920E-02 0.  1.
        2   -1    0    0  501    0  0.00000000000E+00  0.00000000000E+00 -0.15044336900E+04  0.15044336901E+04  0.25500000920E-02 0. -1.
    10030    2    1    2    0    0  0.00000000000E+00  0.00000000000E+00 -0.12638726414E+04  0.17449947387E+04  0.12031760406E+04 0.  0.
        4    1    3    3  502    0 -0.44466596684E+03  0.16884004551E+03 -0.97729214713E+02  0.48557944287E+03  0.12699999809E+01 0.  1.
       -4    1    3    3    0  502  0.44466596684E+03 -0.16884004551E+03 -0.11661434267E+04  0.12594152959E+04  0.12699999809E+01 0. -1.
</event>
<event>
 5   0  0.5447074E-04  0.1202038E+04  0.7818609E-02  0.9111075E-01
        1   -1    0    0  501    0  0.00000000000E+00  0.00000000000E+00  0.10253753129E+04  0.10253753129E+04  0.50400001928E-02 0.  1.
       -1   -1    0    0    0  501  0.00000000000E+00  0.00000000000E+00 -0.35228431613E+03  0.35228431617E+03  0.50400001928E-02 0. -1.
    10030    2    1    2    0    0  0.00000000000E+00  0.00000000000E+00  0.67309099680E+03  0.13776596291E+04  0.12020376715E+04 0.  0.
        4    1    3    3  502    0 -0.55290676423E+03  0.23561372169E+03  0.33828827404E+03  0.68968129236E+03  0.12699999809E+01 0.  1.
       -4    1    3    3    0  502  0.55290676423E+03 -0.23561372169E+03  0.33480272276E+03  0.68797833676E+03  0.12699999809E+01 0. -1.
</event>
<event>
 5   0  0.9298693E-04  0.1200322E+04  0.7818609E-02  0.9112574E-01
        2   -1    0    0  501    0  0.00000000000E+00  0.00000000000E+00  0.10704851075E+04  0.10704851075E+04  0.25500000920E-02 0.  1.
       -2   -1    0    0    0  501  0.00000000000E+00  0.00000000000E+00 -0.33647683090E+03  0.33647683091E+03  0.25500000920E-02 0. -1.
    10030    2    1    2    0    0  0.00000000000E+00  0.00000000000E+00  0.73400827664E+03  0.14069619385E+04  0.12003223509E+04 0.  0.
        1    1    3    3  502    0  0.35163939553E+03  0.22052460579E+03 -0.14111060270E+03  0.43839886914E+03  0.50400001928E-02 0. -1.
       -1    1    3    3    0  502 -0.35163939553E+03 -0.22052460579E+03  0.87511887934E+03  0.96856306932E+03  0.50400001928E-02 0.  1.
</event>
<event>
 5   0  0.5003507E-04  0.1206712E+04  0.7818609E-02  0.9107002E-01
        1   -1    0    0  501    0  0.00000000000E+00  0.00000000000E+00  0.80062299796E+03  0.80062299797E+03  0.50400001928E-02 0.  1.
       -1   -1    0    0    0  501  0.00000000000E+00  0.00000000000E+00 -0.45469419897E+03  0.45469419900E+03  0.50400001928E-02 0. -1.
    10030    2    1    2    0    0  0.00000000000E+00  0.00000000000E+00  0.34592879899E+03  0.12553171970E+04  0.12067122818E+04 0.  0.
        3    1    3    3  502    0  0.11189742149E+02  0.55412008268E+03  0.42103184274E+03  0.69601874914E+03  0.10100000352E+00 0. -1.
       -3    1    3    3    0  502 -0.11189742149E+02 -0.55412008268E+03 -0.75103043752E+02  0.55929844782E+03  0.10100000352E+00 0.  1.
</event>
<event>
 5   0  0.9050363E-04  0.1190864E+04  0.7818609E-02  0.9120891E-01
       -2   -1    0    0    0  501  0.00000000000E+00  0.00000000000E+00  0.20766717604E+03  0.20766717605E+03  0.25500000920E-02 0. -1.
        2   -1    0    0  501    0  0.00000000000E+00  0.00000000000E+00 -0.17072467956E+04  0.17072467956E+04  0.25500000920E-02 0.  1.
    10030    2    1    2    0    0  0.00000000000E+00  0.00000000000E+00 -0.14995796196E+04  0.19149139716E+04  0.11908637552E+04 0.  0.
        3    1    3    3  502    0 -0.74702032827E+02  0.53122086606E+03 -0.33430469929E+03  0.63208832011E+03  0.10100000352E+00 0. -1.
       -3    1    3    3    0  502  0.74702032827E+02 -0.53122086606E+03 -0.11652749203E+04  0.12828256515E+04  0.10100000352E+00 0.  1.
</event>
<event>
 5   0  0.5157631E-04  0.1205748E+04  0.7818609E-02  0.9107840E-01
       -1   -1    0    0    0  501  0.00000000000E+00  0.00000000000E+00  0.27837361455E+03  0.27837361460E+03  0.50400001928E-02 0. -1.
        1   -1    0    0  501    0  0.00000000000E+00  0.00000000000E+00 -0.13056452604E+04  0.13056452604E+04  0.50400001928E-02 0.  1.
    10030    2    1    2    0    0  0.00000000000E+00  0.00000000000E+00 -0.10272716458E+04  0.15840188750E+04  0.12057482166E+04 0.  0.
        5    1    3    3  502    0  0.53163111245E+03 -0.27150548514E+03 -0.40303134880E+03  0.72027996384E+03  0.46999998093E+01 0. -1.
       -5    1    3    3    0  502 -0.53163111245E+03  0.27150548514E+03 -0.62424029700E+03  0.86373891112E+03  0.46999998093E+01 0.  1.
</event>
<event>
 5   0  0.9298693E-04  0.1198685E+04  0.7818609E-02  0.9114008E-01
       -2   -1    0    0    0  501  0.00000000000E+00  0.00000000000E+00  0.94452066634E+03  0.94452066635E+03  0.25500000920E-02 0.  1.
        2   -1    0    0  501    0  0.00000000000E+00  0.00000000000E+00 -0.38031106551E+03  0.38031106552E+03  0.25500000920E-02 0. -1.
    10030    2    1    2    0    0  0.00000000000E+00  0.00000000000E+00  0.56420960083E+03  0.13248317319E+04  0.11986853816E+04 0.  0.
        1    1    3    3  502    0  0.18075421586E+02 -0.11859213573E+02 -0.37987999841E+03  0.38049464521E+03  0.50400001928E-02 0. -1.
       -1    1    3    3    0  502 -0.18075421586E+02  0.11859213573E+02  0.94408959924E+03  0.94433708666E+03  0.50400001928E-02 0.  1.
</event>
<event>
 5   0  0.9050363E-04  0.1204153E+04  0.7818609E-02  0.9109229E-01
       -2   -1    0    0    0  501  0.00000000000E+00  0.00000000000E+00  0.21144989175E+03  0.21144989176E+03  0.25500000920E-02 0.  1.
        2   -1    0    0  501    0  0.00000000000E+00  0.00000000000E+00 -0.17143362265E+04  0.17143362265E+04  0.25500000920E-02 0. -1.
    10030    2    1    2    0    0  0.00000000000E+00  0.00000000000E+00 -0.15028863347E+04  0.19257861183E+04  0.12041531622E+04 0.  0.
        3    1    3    3  502    0  0.43437894448E+03 -0.36666422473E+03 -0.10687654978E+04  0.12105318751E+04  0.10100000352E+00 0. -1.
       -3    1    3    3    0  502 -0.43437894448E+03  0.36666422473E+03 -0.43412083694E+03  0.71525424317E+03  0.10100000352E+00 0.  1.
</event>
<event>
 5   0  0.3453625E-04  0.1192600E+04  0.7818609E-02  0.9119359E-01
        3   -1    0    0  501    0  0.00000000000E+00  0.00000000000E+00  0.43829646007E+03  0.43829647171E+03  0.10100000352E+00 0.  1.
       -3   -1    0    0    0  501  0.00000000000E+00  0.00000000000E+00 -0.81126263627E+03  0.81126264256E+03  0.10100000352E+00 0. -1.
    10030    2    1    2    0    0  0.00000000000E+00  0.00000000000E+00 -0.37296617620E+03  0.12495591143E+04  0.11925997700E+04 0.  0.
        2    1    3    3  502    0 -0.15061200602E+02  0.22476920274E+03  0.39199610934E+03  0.45211611783E+03  0.25500000920E-02 0.  1.
       -2    1    3    3    0  502  0.15061200602E+02 -0.22476920274E+03 -0.76496228553E+03  0.79744299643E+03  0.25500000920E-02 0. -1.
</event>
<event>
 5   0  0.5447074E-04  0.1202434E+04  0.7818609E-02  0.9110729E-01
        1   -1    0    0  501    0  0.00000000000E+00  0.00000000000E+00  0.60742401107E+03  0.60742401109E+03  0.50400001928E-02 0. -1.
       -1   -1    0    0    0  501  0.00000000000E+00  0.00000000000E+00 -0.59507362000E+03  0.59507362002E+03  0.50400001928E-02 0.  1.
    10030    2    1    2    0    0  0.00000000000E+00  0.00000000000E+00  0.12350391074E+02  0.12024976311E+04  0.12024342064E+04 0.  0.
        4    1    3    3  502    0 -0.11558519556E+02  0.49762594306E+03  0.34338018979E+03  0.60471211847E+03  0.12699999809E+01 0. -1.
       -4    1    3    3    0  502  0.11558519556E+02 -0.49762594306E+03 -0.33102979872E+03  0.59778551264E+03  0.12699999809E+01 0.  1.
</event>
<event>
 5   0  0.5052959E-04  0.1201006E+04  0.7818609E-02  0.9111977E-01
        1   -1    0    0  501    0  0.00000000000E+00  0.00000000000E+00  0.31867466149E+03  0.31867466153E+03  0.50400001928E-02 0.  1.
       -1   -1    0    0    0  501  0.00000000000E+00  0.00000000000E+00 -0.11315734493E+04  0.11315734493E+04  0.50400001928E-02 0. -1.
    10030    2    1    2    0    0  0.00000000000E+00  0.00000000000E+00 -0.81289878778E+03  0.14502481108E+04  0.12010058883E+04 0.  0.
        2    1    3    3  502    0 -0.15952604953E+03 -0.57402231360E+03 -0.31565478662E+03  0.67423150424E+03  0.25500000920E-02 0.  1.
       -2    1    3    3    0  502  0.15952604953E+03  0.57402231360E+03 -0.49724400116E+03  0.77601660658E+03  0.25500000920E-02 0. -1.
</event>
<event>
 5   0  0.9070772E-04  0.1200568E+04  0.7818609E-02  0.9112360E-01
        2   -1    0    0  501    0  0.00000000000E+00  0.00000000000E+00  0.89587388122E+03  0.89587388123E+03  0.25500000920E-02 0. -1.
       -2   -1    0    0    0  501  0.00000000000E+00  0.00000000000E+00 -0.40222259292E+03  0.40222259292E+03  0.25500000920E-02 0.  1.
    10030    2    1    2    0    0  0.00000000000E+00  0.00000000000E+00  0.49365128831E+03  0.12980964742E+04  0.12005677248E+04 0.  0.
        4    1    3    3  502    0  0.17342923604E+03  0.28931427367E+03  0.78370960692E+03  0.85321908660E+03  0.12699999809E+01 0. -1.
       -4    1    3    3    0  502 -0.17342923604E+03 -0.28931427367E+03 -0.29005831861E+03  0.44487738755E+03  0.12699999809E+01 0.  1.
</event>
<event>
 5   0  0.9298693E-04  0.1189194E+04  0.7818609E-02  0.9122368E-01
        2   -1    0    0  501    0  0.00000000000E+00  0.00000000000E+00  0.12446198894E+04  0.12446198894E+04  0.25500000920E-02 0.  1.
       -2   -1    0    0    0  501  0.00000000000E+00  0.00000000000E+00 -0.28405900043E+03  0.28405900044E+03  0.25500000920E-02 0. -1.
    10030    2    1    2    0    0  0.00000000000E+00  0.00000000000E+00  0.96056088898E+03  0.15286788899E+04  0.11891938138E+04 0.  0.
        1    1    3    3  502    0  0.96426387573E+02 -0.31126385687E+03 -0.15905728402E+03  0.36260509710E+03  0.50400001928E-02 0. -1.
       -1    1    3    3    0  502 -0.96426387573E+02  0.31126385687E+03  0.11196181730E+04  0.11660737928E+04  0.50400001928E-02 0.  1.
</event>
<event>
 5   0  0.5001586E-04  0.1203161E+04  0.7818609E-02  0.9110094E-01
        1   -1    0    0  501    0  0.00000000000E+00  0.00000000000E+00  0.87197085320E+03  0.87197085321E+03  0.50400001928E-02 0. -1.
       -1   -1    0    0    0  501  0.00000000000E+00  0.00000000000E+00 -0.41503591879E+03  0.41503591882E+03  0.50400001928E-02 0.  1.
    10030    2    1    2    0    0  0.00000000000E+00  0.00000000000E+00  0.45693493441E+03  0.12870067720E+04  0.12031612099E+04 0.  0.
        1    1    3    3  502    0 -0.24485533109E+03 -0.32973242114E+03  0.69866989970E+03  0.81044261456E+03  0.50400001928E-02 0. -1.
       -1    1    3    3    0  502  0.24485533109E+03  0.32973242114E+03 -0.24173496529E+03  0.47656415747E+03  0.50400001928E-02 0.  1.
</event>
<event>
 5   0  0.9145224E-04  0.1206771E+04  0.7818609E-02  0.9106950E-01
        2   -1    0    0  501    0  0.00000000000E+00  0.00000000000E+00  0.90645663249E+03  0.90645663249E+03  0.25500000920E-02 0. -1.
       -2   -1    0    0    0  501  0.00000000000E+00  0.00000000000E+00 -0.40164557828E+03  0.40164557829E+03  0.25500000920E-02 0.  1.
    10030    2    1    2    0    0  0.00000000000E+00  0.00000000000E+00  0.50481105421E+03  0.13081022108E+04  0.12067713923E+04 0.  0.
        5    1    3    3  502    0  0.41976890406E+03 -0.27174491160E+03  0.61839699660E+03  0.79529124551E+03  0.46999998093E+01 0. -1.
       -5    1    3    3    0  502 -0.41976890406E+03  0.27174491160E+03 -0.11358594239E+03  0.51281096527E+03  0.46999998093E+01 0.  1.
</event>
<event>
 5   0  0.5447074E-04  0.1201425E+04  0.7818609E-02  0.9111610E-01
       -1   -1    0    0    0  501  0.00000000000E+00  0.00000000000E+00  0.18043570047E+03  0.18043570054E+03  0.50400001928E-02 0. -1.
        1   -1    0    0  501    0  0.00000000000E+00  0.00000000000E+00 -0.19999134077E+04  0.19999134077E+04  0.50400001928E-02 0.  1.
    10030    2    1    2    0    0  0.00000000000E+00  0.00000000000E+00 -0.18194777072E+04  0.21803491082E+04  0.12014254478E+04 0.  0.
        4    1    3    3  502    0 -0.47804513966E+03 -0.25253961821E+03 -0.43458384282E+03  0.69366284581E+03  0.12699999809E+01 0.  1.
       -4    1    3    3    0  502  0.47804513966E+03  0.25253961821E+03 -0.13848938644E+04  0.14866862624E+04  0.12699999809E+01 0. -1.
</event>
<event>
 5   0  0.5003507E-04  0.1183656E+04  0.7818609E-02  0.9127284E-01
       -1   -1    0    0    0  501  0.00000000000E+00  0.00000000000E+00  0.64526554978E+03  0.64526554980E+03  0.50400001928E-02 0.  1.
        1   -1    0    0  501    0  0.00000000000E+00  0.00000000000E+00 -0.54281568558E+03  0.54281568560E+03  0.50400001928E-02 0. -1.
    10030    2    1    2    0    0  0.00000000000E+00  0.00000000000E+00  0.10244986421E+03  0.11880812354E+04  0.11836557976E+04 0.  0.
        3    1    3    3  502    0  0.58470876321E+02 -0.10581345765E+01  0.64235830228E+03  0.64501485389E+03  0.10100000352E+00 0.  1.
       -3    1    3    3    0  502 -0.58470876321E+02  0.10581345765E+01 -0.53990843808E+03  0.54306638152E+03  0.10100000352E+00 0. -1.
</event>
<event>
 5   0  0.3453625E-04  0.1187458E+04  0.7818609E-02  0.9123906E-01
       -3   -1    0    0    0  501  0.00000000000E+00  0.00000000000E+00  0.54501761255E+03  0.54501762191E+03  0.10100000352E+00 0.  1.
        3   -1    0    0  501    0  0.00000000000E+00  0.00000000000E+00 -0.64679397984E+03  0.64679398773E+03  0.10100000352E+00 0. -1.
    10030    2    1    2    0    0  0.00000000000E+00  0.00000000000E+00 -0.10177636729E+03  0.11918116096E+04  0.11874579925E+04 0.  0.
        5    1    3    3  502    0  0.20109687692E+03  0.54204522120E+03 -0.18643537595E+03  0.60748104097E+03  0.46999998093E+01 0. -1.
       -5    1    3    3    0  502 -0.20109687692E+03 -0.54204522120E+03  0.84659008661E+02  0.58433056867E+03  0.46999998093E+01 0.  1.
</event>
<event>
 5   0  0.5052959E-04  0.1189246E+04  0.7818609E-02  0.9122322E-01
       -1   -1    0    0    0  501  0.00000000000E+00  0.00000000000E+00  0.40607721128E+03  0.40607721131E+03  0.50400001928E-02 0.  1.
        1   -1    0    0  501    0  0.00000000000E+00  0.00000000000E+00 -0.87071316806E+03  0.87071316808E+03  0.50400001928E-02 0. -1.
    10030    2    1    2    0    0  0.00000000000E+00  0.00000000000E+00 -0.46463595678E+03  0.12767903794E+04  0.11892464423E+04 0.  0.
        2    1    3    3  502    0  0.14058416136E+03  0.11073495358E+03  0.37647891701E+03  0.41684830734E+03  0.25500000920E-02 0.  1.
       -2    1    3    3    0  502 -0.14058416136E+03 -0.11073495358E+03 -0.84111487379E+03  0.85994207205E+03  0.25500000920E-02 0. -1.
</event>
<event>
 5   0  0.9070772E-04  0.1193961E+04  0.7818609E-02  0.9118159E-01
        2   -1    0    0  501    0  0.00000000000E+00  0.00000000000E+00  0.24809769005E+04  0.24809769005E+04  0.25500000920E-02 0. -1.
       -2   -1    0    0    0  501  0.00000000000E+00  0.00000000000E+00 -0.14364728937E+03  0.14364728939E+03  0.25500000920E-02 0.  1.
    10030    2    1    2    0    0  0.00000000000E+00  0.00000000000E+00  0.23373296111E+04  0.26246241899E+04  0.11939608147E+04 0.  0.
        4    1    3    3  502    0  0.14296726438E+03  0.12287299453E+03 -0.76496919127E+02  0.20344729786E+03  0.12699999809E+01 0.  1.
       -4    1    3    3    0  502 -0.14296726438E+03 -0.12287299453E+03  0.24138265303E+04  0.24211768920E+04  0.12699999809E+01 0. -1.
</event>
<event>
 5   0  0.5001586E-04  0.1242812E+04  0.7818609E-02  0.9076187E-01
        1   -1    0    0  501    0  0.00000000000E+00  0.00000000000E+00  0.11978834813E+04  0.11978834813E+04  0.50400001928E-02 0.  1.
       -1   -1    0    0    0  501  0.00000000000E+00  0.00000000000E+00 -0.32235665564E+03  0.32235665568E+03  0.50400001928E-02 0. -1.
    10030    2    1    2    0    0  0.00000000000E+00  0.00000000000E+00  0.87552682563E+03  0.15202401370E+04  0.12428124765E+04 0.  0.
        1    1    3    3  502    0 -0.33799686547E+03  0.50257935039E+03  0.60777782635E+03  0.85803366527E+03  0.50400001928E-02 0. -1.
       -1    1    3    3    0  502  0.33799686547E+03 -0.50257935039E+03  0.26774899927E+03  0.66220647169E+03  0.50400001928E-02 0.  1.
</event>
<event>
 5   0  0.5003507E-04  0.1196952E+04  0.7818609E-02  0.9115529E-01
       -1   -1    0    0    0  501  0.00000000000E+00  0.00000000000E+00  0.19413950983E+03  0.19413950989E+03  0.50400001928E-02 0.  1.
        1   -1    0    0  501    0  0.00000000000E+00  0.00000000000E+00 -0.18449280924E+04  0.18449280924E+04  0.50400001928E-02 0. -1.
    10030    2    1    2    0    0  0.00000000000E+00  0.00000000000E+00 -0.16507885826E+04  0.20390676023E+04  0.11969518547E+04 0.  0.
        3    1    3    3  502    0 -0.60494958441E+02 -0.57785742627E+03 -0.58092100225E+03  0.82161308787E+03  0.10100000352E+00 0. -1.
       -3    1    3    3    0  502  0.60494958441E+02  0.57785742627E+03 -0.10698675803E+04  0.12174545144E+04  0.10100000352E+00 0.  1.
</event>
<event>
 5   0  0.9410666E-04  0.1199036E+04  0.7818609E-02  0.9113701E-01
       -2   -1    0    0    0  501  0.00000000000E+00  0.00000000000E+00  0.74418298707E+03  0.74418298707E+03  0.25500000920E-02 0. -1.
        2   -1    0    0  501    0  0.00000000000E+00  0.00000000000E+00 -0.48297489471E+03  0.48297489472E+03  0.25500000920E-02 0.  1.
    10030    2    1    2    0    0  0.00000000000E+00  0.00000000000E+00  0.26120809236E+03  0.12271578818E+04  0.11990357790E+04 0.  0.
        2    1    3    3  502    0  0.60408019045E+02 -0.19528876363E+02 -0.47952490035E+03  0.48370924721E+03  0.25500000920E-02 0.  1.
       -2    1    3    3    0  502 -0.60408019045E+02  0.19528876363E+02  0.74073299270E+03  0.74344863458E+03  0.25500000920E-02 0. -1.
</event>
<event>
 5   0  0.9070772E-04  0.1203881E+04  0.7818609E-02  0.9109466E-01
       -2   -1    0    0    0  501  0.00000000000E+00  0.00000000000E+00  0.21304035085E+03  0.21304035086E+03  0.25500000920E-02 0.  1.
        2   -1    0    0  501    0  0.00000000000E+00  0.00000000000E+00 -0.17007695768E+04  0.17007695768E+04  0.25500000920E-02 0. -1.
    10030    2    1    2    0    0  0.00000000000E+00  0.00000000000E+00 -0.14877292260E+04  0.19138099277E+04  0.12038813021E+04 0.  0.
        4    1    3    3  502    0 -0.63504987590E+02  0.31391018257E+03  0.66349818331E+02  0.32707246515E+03  0.12699999809E+01 0.  1.
       -4    1    3    3    0  502  0.63504987590E+02 -0.31391018257E+03 -0.15540790443E+04  0.15867374625E+04  0.12699999809E+01 0. -1.
</event>
<event>
 5   0  0.5157631E-04  0.1205018E+04  0.7818609E-02  0.9108476E-01
        1   -1    0    0  501    0  0.00000000000E+00  0.00000000000E+00  0.77660235900E+03  0.77660235902E+03  0.50400001928E-02 0.  1.
       -1   -1    0    0    0  501  0.00000000000E+00  0.00000000000E+00 -0.46744270167E+03  0.46744270170E+03  0.50400001928E-02 0. -1.
    10030    2    1    2    0    0  0.00000000000E+00  0.00000000000E+00  0.30915965733E+03  0.12440450607E+04  0.12050180162E+04 0.  0.
        5    1    3    3  502    0 -0.96258156426E+02 -0.40556027417E+03  0.60369817659E+03  0.73363365999E+03  0.46999998093E+01 0.  1.
       -5    1    3    3    0  502  0.96258156426E+02  0.40556027417E+03 -0.29453851926E+03  0.51041140072E+03  0.46999998093E+01 0. -1.
</event>
<event>
 5   0  0.9070772E-04  0.1201004E+04  0.7818609E-02  0.9111978E-01
       -2   -1    0    0    0  501  0.00000000000E+00  0.00000000000E+00  0.82787675053E+03  0.82787675054E+03  0.25500000920E-02 0. -1.
        2   -1    0    0  501    0  0.00000000000E+00  0.00000000000E+00 -0.43557524381E+03  0.43557524382E+03  0.25500000920E-02 0.  1.
    10030    2    1    2    0    0  0.00000000000E+00  0.00000000000E+00  0.39230150672E+03  0.12634519944E+04  0.12010039425E+04 0.  0.
        4    1    3    3  502    0  0.31719990386E+03  0.50853468029E+03  0.15710333277E+03  0.61960178352E+03  0.12699999809E+01 0.  1.
       -4    1    3    3    0  502 -0.31719990386E+03 -0.50853468029E+03  0.23519817395E+03  0.64385021084E+03  0.12699999809E+01 0. -1.
</event>
<event>
 5   0  0.5052959E-04  0.1196800E+04  0.7818609E-02  0.9115662E-01
        1   -1    0    0  501    0  0.00000000000E+00  0.00000000000E+00  0.45880468712E+03  0.45880468715E+03  0.50400001928E-02 0. -1.
       -1   -1    0    0    0  501  0.00000000000E+00  0.00000000000E+00 -0.78046802000E+03  0.78046802002E+03  0.50400001928E-02 0.  1.
    10030    2    1    2    0    0  0.00000000000E+00  0.00000000000E+00 -0.32166333289E+03  0.12392727072E+04  0.11967997088E+04 0.  0.
        2    1    3    3  502    0  0.93368204349E+02 -0.54676815485E+03  0.71656554835E+02  0.55929214066E+03  0.25500000920E-02 0. -1.
       -2    1    3    3    0  502 -0.93368204349E+02  0.54676815485E+03 -0.39331988772E+03  0.67998056651E+03  0.25500000920E-02 0.  1.
</event>
<event>
 5   0  0.9145224E-04  0.1200022E+04  0.7818609E-02  0.9112837E-01
       -2   -1    0    0    0  501  0.00000000000E+00  0.00000000000E+00  0.39383890332E+03  0.39383890333E+03  0.25500000920E-02 0. -1.
        2   -1    0    0  501    0  0.00000000000E+00  0.00000000000E+00 -0.91411323798E+03  0.91411323799E+03  0.25500000920E-02 0.  1.
    10030    2    1    2    0    0  0.00000000000E+00  0.00000000000E+00 -0.52027433466E+03  0.13079521413E+04  0.12000222584E+04 0.  0.
        5    1    3    3  502    0  0.40268619678E+03  0.43687840753E+03 -0.35114779600E+03  0.69017807896E+03  0.46999998093E+01 0. -1.
       -5    1    3    3    0  502 -0.40268619678E+03 -0.43687840753E+03 -0.16912653866E+03  0.61777406236E+03  0.46999998093E+01 0.  1.
</event>
<event>
 5   0  0.5447074E-04  0.1196329E+04  0.7818609E-02  0.9116076E-01
        1   -1    0    0  501    0  0.00000000000E+00  0.00000000000E+00  0.11197184413E+04  0.11197184413E+04  0.50400001928E-02 0.  1.
       -1   -1    0    0    0  501  0.00000000000E+00  0.00000000000E+00 -0.31954514360E+03  0.31954514364E+03  0.50400001928E-02 0. -1.
    10030    2    1    2    0    0  0.00000000000E+00  0.00000000000E+00  0.80017329766E+03  0.14392635849E+04  0.11963287009E+04 0.  0.
        4    1    3    3  502    0 -0.33491958534E+03 -0.92347511551E+02  0.98589478089E+03  0.10453178098E+04  0.12699999809E+01 0.  1.
       -4    1    3    3    0  502  0.33491958534E+03  0.92347511551E+02 -0.18572148323E+03  0.39394577516E+03  0.12699999809E+01 0. -1.
</event>
<event>
 5   0  0.9050363E-04  0.1200281E+04  0.7818609E-02  0.9112610E-01
        2   -1    0    0  501    0  0.00000000000E+00  0.00000000000E+00  0.21932164883E+04  0.21932164883E+04  0.25500000920E-02 0.  1.
       -2   -1    0    0    0  501  0.00000000000E+00  0.00000000000E+00 -0.16421941911E+03  0.16421941913E+03  0.25500000920E-02 0. -1.
    10030    2    1    2    0    0  0.00000000000E+00  0.00000000000E+00  0.20289970692E+04  0.23574359074E+04  0.12002811966E+04 0.  0.
        3    1    3    3  502    0 -0.35703567541E+03  0.45647448631E+03  0.70817104594E+03  0.91506812352E+03  0.10100000352E+00 0.  1.
       -3    1    3    3    0  502  0.35703567541E+03 -0.45647448631E+03  0.13208260232E+04  0.14423677839E+04  0.10100000352E+00 0. -1.
</event>
<event>
 5   0  0.3453625E-04  0.1204749E+04  0.7818609E-02  0.9108709E-01
        4   -1    0    0  501    0  0.00000000000E+00  0.00000000000E+00  0.15598518470E+04  0.15598523640E+04  0.12699999809E+01 0.  1.
       -4   -1    0    0    0  501  0.00000000000E+00  0.00000000000E+00 -0.23261936080E+03  0.23262282760E+03  0.12699999809E+01 0. -1.
    10030    2    1    2    0    0  0.00000000000E+00  0.00000000000E+00  0.13272324862E+04  0.17924751916E+04  0.12047494512E+04 0.  0.
        5    1    3    3  502    0  0.47251836601E+03 -0.22476834072E+03  0.21965395370E+03  0.56750714760E+03  0.46999998093E+01 0.  1.
       -5    1    3    3    0  502 -0.47251836601E+03  0.22476834072E+03  0.11075785325E+04  0.12249680440E+04  0.46999998093E+01 0. -1.
</event>
<event>
 5   0  0.9410666E-04  0.1197551E+04  0.7818609E-02  0.9115003E-01
        2   -1    0    0  501    0  0.00000000000E+00  0.00000000000E+00  0.14879056920E+04  0.14879056920E+04  0.25500000920E-02 0. -1.
       -2   -1    0    0    0  501  0.00000000000E+00  0.00000000000E+00 -0.24096428863E+03  0.24096428864E+03  0.25500000920E-02 0.  1.
    10030    2    1    2    0    0  0.00000000000E+00  0.00000000000E+00  0.12469414033E+04  0.17288699806E+04  0.11975510622E+04 0.  0.
        2    1    3    3  502    0 -0.72056304255E+02 -0.48516371715E+03  0.12764542005E+03  0.50682274681E+03  0.25500000920E-02 0. -1.
       -2    1    3    3    0  502  0.72056304255E+02  0.48516371715E+03  0.11192959833E+04  0.12220472338E+04  0.25500000920E-02 0.  1.
</event>
<event>
 5   0  0.3453625E-04  0.1199754E+04  0.7818609E-02  0.9113072E-01
       -3   -1    0    0    0  501  0.00000000000E+00  0.00000000000E+00  0.73167819264E+03  0.73167819961E+03  0.10100000352E+00 0. -1.
        3   -1    0    0  501    0  0.00000000000E+00  0.00000000000E+00 -0.49181813041E+03  0.49181814078E+03  0.10100000352E+00 0.  1.
    10030    2    1    2    0    0  0.00000000000E+00  0.00000000000E+00  0.23986006222E+03  0.12234963404E+04  0.11997543271E+04 0.  0.
        4    1    3    3  502    0  0.50029493240E+03 -0.32681872027E+03  0.17336447880E+03  0.62222371436E+03  0.12699999809E+01 0. -1.
       -4    1    3    3    0  502 -0.50029493240E+03  0.32681872027E+03  0.66495583426E+02  0.60127262603E+03  0.12699999809E+01 0.  1.
</event>
<event>
 5   0  0.9070772E-04  0.1201446E+04  0.7818609E-02  0.9111591E-01
       -2   -1    0    0    0  501  0.00000000000E+00  0.00000000000E+00  0.61677396866E+03  0.61677396867E+03  0.25500000920E-02 0. -1.
        2   -1    0    0  501    0  0.00000000000E+00  0.00000000000E+00 -0.58509016372E+03  0.58509016373E+03  0.25500000920E-02 0.  1.
    10030    2    1    2    0    0  0.00000000000E+00  0.00000000000E+00  0.31683804939E+02  0.12018641324E+04  0.12014464321E+04 0.  0.
        4    1    3    3  502    0  0.57588543777E+03  0.93815393067E+02 -0.12711125792E+03  0.59716350374E+03  0.12699999809E+01 0. -1.
       -4    1    3    3    0  502 -0.57588543777E+03 -0.93815393067E+02  0.15879506286E+03  0.60470062866E+03  0.12699999809E+01 0.  1.
</event>
<event>
 5   0  0.9145224E-04  0.1196547E+04  0.7818609E-02  0.9115884E-01
        2   -1    0    0  501    0  0.00000000000E+00  0.00000000000E+00  0.24195061132E+03  0.24195061134E+03  0.25500000920E-02 0.  1.
       -2   -1    0    0    0  501  0.00000000000E+00  0.00000000000E+00 -0.14793561520E+04  0.14793561520E+04  0.25500000920E-02 0. -1.
    10030    2    1    2    0    0  0.00000000000E+00  0.00000000000E+00 -0.12374055407E+04  0.17213067634E+04  0.11965469073E+04 0.  0.
        5    1    3    3  502    0 -0.52579247635E+03  0.26397951292E+03 -0.77474611692E+03  0.97282914590E+03  0.46999998093E+01 0.  1.
       -5    1    3    3    0  502  0.52579247635E+03 -0.26397951292E+03 -0.46265942377E+03  0.74847761745E+03  0.46999998093E+01 0. -1.
</event>
<event>
 5   0  0.5447074E-04  0.1202797E+04  0.7818609E-02  0.9110412E-01
       -1   -1    0    0    0  501  0.00000000000E+00  0.00000000000E+00  0.93633903457E+03  0.93633903458E+03  0.50400001928E-02 0.  1.
        1   -1    0    0  501    0  0.00000000000E+00  0.00000000000E+00 -0.38627055423E+03  0.38627055426E+03  0.50400001928E-02 0. -1.
    10030    2    1    2    0    0  0.00000000000E+00  0.00000000000E+00  0.55006848034E+03  0.13226095888E+04  0.12027970699E+04 0.  0.
        4    1    3    3  502    0  0.42594959801E+03 -0.32394009476E+03  0.57679366456E+03  0.78680543301E+03  0.12699999809E+01 0.  1.
       -4    1    3    3    0  502 -0.42594959801E+03  0.32394009476E+03 -0.26725184220E+02  0.53580415583E+03  0.12699999809E+01 0. -1.
</event>
<event>
 5   0  0.5052959E-04  0.1198803E+04  0.7818609E-02  0.9113905E-01
       -1   -1    0    0    0  501  0.00000000000E+00  0.00000000000E+00  0.51155009211E+03  0.51155009214E+03  0.50400001928E-02 0. -1.
        1   -1    0    0  501    0  0.00000000000E+00  0.00000000000E+00 -0.70234023219E+03  0.70234023221E+03  0.50400001928E-02 0.  1.
    10030    2    1    2    0    0  0.00000000000E+00  0.00000000000E+00 -0.19079014008E+03  0.12138903243E+04  0.11988030872E+04 0.  0.
        2    1    3    3  502    0 -0.76592498314E+01 -0.63527384850E+02  0.50808179839E+03  0.51209521243E+03  0.25500000920E-02 0. -1.
       -2    1    3    3    0  502  0.76592498314E+01  0.63527384850E+02 -0.69887193846E+03  0.70179511192E+03  0.25500000920E-02 0.  1.
</event>
<event>
 5   0  0.9145224E-04  0.1202224E+04  0.7818609E-02  0.9110912E-01
        2   -1    0    0  501    0  0.00000000000E+00  0.00000000000E+00  0.44293270148E+03  0.44293270149E+03  0.25500000920E-02 0.  1.
       -2   -1    0    0    0  501  0.00000000000E+00  0.00000000000E+00 -0.81577949122E+03  0.81577949123E+03  0.25500000920E-02 0. -1.
    10030    2    1    2    0    0  0.00000000000E+00  0.00000000000E+00 -0.37284678974E+03  0.12587121927E+04  0.12022236296E+04 0.  0.
        5    1    3    3  502    0 -0.36729231582E+03  0.26598296581E+03  0.22665598410E+03  0.50699665530E+03  0.46999998093E+01 0.  1.
       -5    1    3    3    0  502  0.36729231582E+03 -0.26598296581E+03 -0.59950277384E+03  0.75171553742E+03  0.46999998093E+01 0. -1.
</event>
<event>
 5   0  0.5003507E-04  0.1201123E+04  0.7818609E-02  0.9111874E-01
        1   -1    0    0  501    0  0.00000000000E+00  0.00000000000E+00  0.65804877482E+03  0.65804877484E+03  0.50400001928E-02 0. -1.
       -1   -1    0    0    0  501  0.00000000000E+00  0.00000000000E+00 -0.54809650696E+03  0.54809650699E+03  0.50400001928E-02 0.  1.
    10030    2    1    2    0    0  0.00000000000E+00  0.00000000000E+00  0.10995226786E+03  0.12061452818E+04  0.12011231992E+04 0.  0.
        3    1    3    3  502    0 -0.35568776906E+03 -0.47661785356E+03 -0.29014824858E+02  0.59541602066E+03  0.10100000352E+00 0. -1.
       -3    1    3    3    0  502  0.35568776906E+03  0.47661785356E+03  0.13896709271E+03  0.61072926117E+03  0.10100000352E+00 0.  1.
</event>
<event>
 5   0  0.9298693E-04  0.1195146E+04  0.7818609E-02  0.9117116E-01
        2   -1    0    0  501    0  0.00000000000E+00  0.00000000000E+00  0.60869357074E+03  0.60869357074E+03  0.25500000920E-02 0. -1.
       -2   -1    0    0    0  501  0.00000000000E+00  0.00000000000E+00 -0.58665541559E+03  0.58665541560E+03  0.25500000920E-02 0.  1.
    10030    2    1    2    0    0  0.00000000000E+00  0.00000000000E+00  0.22038155145E+02  0.11953489863E+04  0.11951458149E+04 0.  0.
        1    1    3    3  502    0 -0.59148060708E+03 -0.62958960426E+02 -0.46264042061E+02  0.59661838797E+03  0.50400001928E-02 0. -1.
       -1    1    3    3    0  502  0.59148060708E+03  0.62958960426E+02  0.68302197206E+02  0.59873059837E+03  0.50400001928E-02 0.  1.
</event>
<event>
 5   0  0.5001586E-04  0.1199133E+04  0.7818609E-02  0.9113616E-01
        1   -1    0    0  501    0  0.00000000000E+00  0.00000000000E+00  0.26594005272E+04  0.26594005272E+04  0.50400001928E-02 0.  1.
       -1   -1    0    0    0  501  0.00000000000E+00  0.00000000000E+00 -0.13517335789E+03  0.13517335798E+03  0.50400001928E-02 0. -1.
    10030    2    1    2    0    0  0.00000000000E+00  0.00000000000E+00  0.25242271693E+04  0.27945738852E+04  0.11991331859E+04 0.  0.
        1    1    3    3  502    0  0.46080691938E+03  0.22973808644E+03  0.19779872284E+04  0.20439070627E+04  0.50400001928E-02 0.  1.
       -1    1    3    3    0  502 -0.46080691938E+03 -0.22973808644E+03  0.54623994099E+03  0.75066682254E+03  0.50400001928E-02 0. -1.
</event>
<event>
 5   0  0.9298693E-04  0.1200016E+04  0.7818609E-02  0.9112843E-01
       -2   -1    0    0    0  501  0.00000000000E+00  0.00000000000E+00  0.25898579669E+03  0.25898579671E+03  0.25500000920E-02 0. -1.
        2   -1    0    0  501    0  0.00000000000E+00  0.00000000000E+00 -0.13900735877E+04  0.13900735877E+04  0.25500000920E-02 0.  1.
    10030    2    1    2    0    0  0.00000000000E+00  0.00000000000E+00 -0.11310877910E+04  0.16490593844E+04  0.12000155259E+04 0.  0.
        1    1    3    3  502    0  0.22916305979E+03 -0.41070517876E+03 -0.53546895972E+02  0.47335158384E+03  0.50400001928E-02 0. -1.
       -1    1    3    3    0  502 -0.22916305979E+03  0.41070517876E+03 -0.10775408951E+04  0.11757078006E+04  0.50400001928E-02 0.  1.
</event>
<event>
 5   0  0.9050363E-04  0.1196565E+04  0.7818609E-02  0.9115869E-01
       -2   -1    0    0    0  501  0.00000000000E+00  0.00000000000E+00  0.27522882788E+03  0.27522882789E+03  0.25500000920E-02 0. -1.
        2   -1    0    0  501    0  0.00000000000E+00  0.00000000000E+00 -0.13005240212E+04  0.13005240212E+04  0.25500000920E-02 0.  1.
    10030    2    1    2    0    0  0.00000000000E+00  0.00000000000E+00 -0.10252951933E+04  0.15757528491E+04  0.11965645858E+04 0.  0.
        3    1    3    3  502    0 -0.17893817361E+03 -0.38248098364E+03  0.45491883550E+02  0.42471177814E+03  0.10100000352E+00 0. -1.
       -3    1    3    3    0  502  0.17893817361E+03  0.38248098364E+03 -0.10707870769E+04  0.11510410710E+04  0.10100000352E+00 0.  1.
</event>
<event>
 5   0  0.9145224E-04  0.1198042E+04  0.7818609E-02  0.9114572E-01
        2   -1    0    0  501    0  0.00000000000E+00  0.00000000000E+00  0.90315605111E+03  0.90315605111E+03  0.25500000920E-02 0. -1.
       -2   -1    0    0    0  501  0.00000000000E+00  0.00000000000E+00 -0.39730233683E+03  0.39730233684E+03  0.25500000920E-02 0.  1.
    10030    2    1    2    0    0  0.00000000000E+00  0.00000000000E+00  0.50585371428E+03  0.13004583880E+04  0.11980417516E+04 0.  0.
        5    1    3    3  502    0 -0.35970574785E+03 -0.36229642306E+03 -0.87156310505E+02  0.51794327455E+03  0.46999998093E+01 0.  1.
       -5    1    3    3    0  502  0.35970574785E+03  0.36229642306E+03  0.59301002479E+03  0.78251511340E+03  0.46999998093E+01 0. -1.
</event>
<event>
 5   0  0.9050363E-04  0.1198636E+04  0.7818609E-02  0.9114051E-01
       -2   -1    0    0    0  501  0.00000000000E+00  0.00000000000E+00  0.56647114166E+03  0.56647114167E+03  0.25500000920E-02 0. -1.
        2   -1    0    0  501    0  0.00000000000E+00  0.00000000000E+00 -0.63406937726E+03  0.63406937727E+03  0.25500000920E-02 0.  1.
    10030    2    1    2    0    0  0.00000000000E+00  0.00000000000E+00 -0.67598235597E+02  0.12005405189E+04  0.11986358981E+04 0.  0.
        3    1    3    3  502    0  0.25632599336E+03  0.47052379816E+03  0.23511649223E+03  0.58512856248E+03  0.10100000352E+00 0.  1.
       -3    1    3    3    0  502 -0.25632599336E+03 -0.47052379816E+03 -0.30271472783E+03  0.61541195646E+03  0.10100000352E+00 0. -1.
</event>
<event>
 5   0  0.5052959E-04  0.1187091E+04  0.7818609E-02  0.9124232E-01
       -1   -1    0    0    0  501  0.00000000000E+00  0.00000000000E+00  0.11224784043E+04  0.11224784043E+04  0.50400001928E-02 0. -1.
        1   -1    0    0  501    0  0.00000000000E+00  0.00000000000E+00 -0.31385559320E+03  0.31385559324E+03  0.50400001928E-02 0.  1.
    10030    2    1    2    0    0  0.00000000000E+00  0.00000000000E+00  0.80862281109E+03  0.14363339975E+04  0.11870907724E+04 0.  0.
        2    1    3    3  502    0 -0.22982052362E+03 -0.21360616425E+03  0.10139339241E+04  0.10613703731E+04  0.25500000920E-02 0. -1.
       -2    1    3    3    0  502  0.22982052362E+03  0.21360616425E+03 -0.20531111303E+03  0.37496362440E+03  0.25500000920E-02 0.  1.
</event>
<event>
 5   0  0.5003507E-04  0.1199718E+04  0.7818609E-02  0.9113104E-01
        1   -1    0    0  501    0  0.00000000000E+00  0.00000000000E+00  0.11376292079E+04  0.11376292079E+04  0.50400001928E-02 0.  1.
       -1   -1    0    0    0  501  0.00000000000E+00  0.00000000000E+00 -0.31629878959E+03  0.31629878963E+03  0.50400001928E-02 0. -1.
    10030    2    1    2    0    0  0.00000000000E+00  0.00000000000E+00  0.82133041834E+03  0.14539279976E+04  0.11997178693E+04 0.  0.
        3    1    3    3  502    0  0.35150921305E+02 -0.61129811120E+02 -0.31125840845E+03  0.31914612344E+03  0.10100000352E+00 0. -1.
       -3    1    3    3    0  502 -0.35150921305E+02  0.61129811120E+02  0.11325888268E+04  0.11347818741E+04  0.10100000352E+00 0.  1.
</event>
<event>
 5   0  0.3453625E-04  0.1197898E+04  0.7818609E-02  0.9114698E-01
       -3   -1    0    0    0  501  0.00000000000E+00  0.00000000000E+00  0.63376039255E+03  0.63376040060E+03  0.10100000352E+00 0. -1.
        3   -1    0    0  501    0  0.00000000000E+00  0.00000000000E+00 -0.56604996087E+03  0.56604996988E+03  0.10100000352E+00 0.  1.
    10030    2    1    2    0    0  0.00000000000E+00  0.00000000000E+00  0.67710431690E+02  0.11998103705E+04  0.11978982522E+04 0.  0.
        1    1    3    3  502    0 -0.65083027751E+02  0.44009166094E+03 -0.36781307636E+03  0.57723732528E+03  0.50400001928E-02 0.  1.
       -1    1    3    3    0  502  0.65083027751E+02 -0.44009166094E+03  0.43552350805E+03  0.62257304520E+03  0.50400001928E-02 0. -1.
</event>
<event>
 5   0  0.5052959E-04  0.1201500E+04  0.7818609E-02  0.9111544E-01
        1   -1    0    0  501    0  0.00000000000E+00  0.00000000000E+00  0.11496206143E+04  0.11496206143E+04  0.50400001928E-02 0.  1.
       -1   -1    0    0    0  501  0.00000000000E+00  0.00000000000E+00 -0.31393023688E+03  0.31393023692E+03  0.50400001928E-02 0. -1.
    10030    2    1    2    0    0  0.00000000000E+00  0.00000000000E+00  0.83569037737E+03  0.14635508512E+04  0.12015001819E+04 0.  0.
        2    1    3    3  502    0  0.49900257444E+03 -0.51431045144E+02  0.15222194223E+02  0.50187691410E+03  0.25500000920E-02 0. -1.
       -2    1    3    3    0  502 -0.49900257444E+03  0.51431045144E+02  0.82046818315E+03  0.96167393708E+03  0.25500000920E-02 0.  1.
</event>
<event>
 5   0  0.5001586E-04  0.1205582E+04  0.7818609E-02  0.9107985E-01
       -1   -1    0    0    0  501  0.00000000000E+00  0.00000000000E+00  0.28193446821E+03  0.28193446826E+03  0.50400001928E-02 0. -1.
        1   -1    0    0  501    0  0.00000000000E+00  0.00000000000E+00 -0.12887995036E+04  0.12887995036E+04  0.50400001928E-02 0.  1.
    10030    2    1    2    0    0  0.00000000000E+00  0.00000000000E+00 -0.10068650354E+04  0.15707339719E+04  0.12055820216E+04 0.  0.
        1    1    3    3  502    0  0.18539779039E+03 -0.21655011654E+02 -0.12501975154E+04  0.12640550256E+04  0.50400001928E-02 0.  1.
       -1    1    3    3    0  502 -0.18539779039E+03  0.21655011654E+02  0.24333248003E+03  0.30667894625E+03  0.50400001928E-02 0. -1.
</event>
<event>
 5   0  0.9298693E-04  0.1191405E+04  0.7818609E-02  0.9120413E-01
       -2   -1    0    0    0  501  0.00000000000E+00  0.00000000000E+00  0.57366864920E+03  0.57366864920E+03  0.25500000920E-02 0. -1.
        2   -1    0    0  501    0  0.00000000000E+00  0.00000000000E+00 -0.61858311914E+03  0.61858311915E+03  0.25500000920E-02 0.  1.
    10030    2    1    2    0    0  0.00000000000E+00  0.00000000000E+00 -0.44914469949E+02  0.11922517684E+04  0.11914054598E+04 0.  0.
        1    1    3    3  502    0  0.51143542186E+03  0.24480768202E+03 -0.20524719157E+03  0.60301194149E+03  0.50400001928E-02 0. -1.
       -1    1    3    3    0  502 -0.51143542186E+03 -0.24480768202E+03  0.16033272162E+03  0.58923982686E+03  0.50400001928E-02 0.  1.
</event>
<event>
 5   0  0.5003507E-04  0.1197127E+04  0.7818609E-02  0.9115375E-01
       -1   -1    0    0    0  501  0.00000000000E+00  0.00000000000E+00  0.12599289229E+04  0.12599289229E+04  0.50400001928E-02 0. -1.
        1   -1    0    0  501    0  0.00000000000E+00  0.00000000000E+00 -0.28436371075E+03  0.28436371080E+03  0.50400001928E-02 0.  1.
    10030    2    1    2    0    0  0.00000000000E+00  0.00000000000E+00  0.97556521217E+03  0.15442926337E+04  0.11971266664E+04 0.  0.
        3    1    3    3  502    0  0.32760686480E+03  0.49369271902E+03  0.59738925207E+03  0.84138735869E+03  0.10100000352E+00 0.  1.
       -3    1    3    3    0  502 -0.32760686480E+03 -0.49369271902E+03  0.37817596010E+03  0.70290527503E+03  0.10100000352E+00 0. -1.
</event>
<event>
 5   0  0.9410666E-04  0.1172460E+04  0.7818609E-02  0.9137310E-01
       -2   -1    0    0    0  501  0.00000000000E+00  0.00000000000E+00  0.87311437380E+03  0.87311437380E+03  0.25500000920E-02 0. -1.
        2   -1    0    0  501    0  0.00000000000E+00  0.00000000000E+00 -0.39360863692E+03  0.39360863693E+03  0.25500000920E-02 0.  1.
    10030    2    1    2    0    0  0.00000000000E+00  0.00000000000E+00  0.47950573688E+03  0.12667230107E+04  0.11724595661E+04 0.  0.
        2    1    3    3  502    0  0.40343243669E+03  0.38090680948E+03  0.44422409809E+03  0.71076211056E+03  0.25500000920E-02 0. -1.
       -2    1    3    3    0  502 -0.40343243669E+03 -0.38090680948E+03  0.35281638791E+02  0.55596090018E+03  0.25500000920E-02 0.  1.
</event>
<event>
 5   0  0.5157631E-04  0.1199552E+04  0.7818609E-02  0.9113249E-01
       -1   -1    0    0    0  501  0.00000000000E+00  0.00000000000E+00  0.44781428812E+03  0.44781428815E+03  0.50400001928E-02 0.  1.
        1   -1    0    0  501    0  0.00000000000E+00  0.00000000000E+00 -0.80330482312E+03  0.80330482314E+03  0.50400001928E-02 0. -1.
    10030    2    1    2    0    0  0.00000000000E+00  0.00000000000E+00 -0.35549053500E+03  0.12511191113E+04  0.11995522124E+04 0.  0.
        5    1    3    3  502    0 -0.30262931980E+03  0.16928895264E+03 -0.68813445084E+03  0.77058053902E+03  0.46999998093E+01 0. -1.
       -5    1    3    3    0  502  0.30262931980E+03 -0.16928895264E+03  0.33264391584E+03  0.48053857226E+03  0.46999998093E+01 0.  1.
</event>
<event>
 5   0  0.9070772E-04  0.1196744E+04  0.7818609E-02  0.9115711E-01
        2   -1    0    0  501    0  0.00000000000E+00  0.00000000000E+00  0.16471640587E+04  0.16471640587E+04  0.25500000920E-02 0.  1.
       -2   -1    0    0    0  501  0.00000000000E+00  0.00000000000E+00 -0.21737318209E+03  0.21737318211E+03  0.25500000920E-02 0. -1.
    10030    2    1    2    0    0  0.00000000000E+00  0.00000000000E+00  0.14297908766E+04  0.18645372408E+04  0.11967444053E+04 0.  0.
        4    1    3    3  502    0 -0.40965086885E+03  0.51171957628E+02  0.13897400039E+04  0.14497624960E+04  0.12699999809E+01 0.  1.
       -4    1    3    3    0  502  0.40965086885E+03 -0.51171957628E+02  0.40050872722E+02  0.41477474478E+03  0.12699999809E+01 0. -1.
</event>
<event>
 5   0  0.9298693E-04  0.1196565E+04  0.7818609E-02  0.9115868E-01
        2   -1    0    0  501    0  0.00000000000E+00  0.00000000000E+00  0.15209592162E+04  0.15209592162E+04  0.25500000920E-02 0.  1.
       -2   -1    0    0    0  501  0.00000000000E+00  0.00000000000E+00 -0.23533971994E+03  0.23533971996E+03  0.25500000920E-02 0. -1.
    10030    2    1    2    0    0  0.00000000000E+00  0.00000000000E+00  0.12856194963E+04  0.17562989362E+04  0.11965652778E+04 0.  0.
        1    1    3    3  502    0 -0.25317956961E+03 -0.39017693384E+03  0.11951415907E+04  0.12824591050E+04  0.50400001928E-02 0.  1.
       -1    1    3    3    0  502  0.25317956961E+03  0.39017693384E+03  0.90477905565E+02  0.47383983116E+03  0.50400001928E-02 0. -1.
</event>
<event>
 5   0  0.9050363E-04  0.1201130E+04  0.7818609E-02  0.9111868E-01
        2   -1    0    0  501    0  0.00000000000E+00  0.00000000000E+00  0.21010249538E+04  0.21010249538E+04  0.25500000920E-02 0.  1.
       -2   -1    0    0    0  501  0.00000000000E+00  0.00000000000E+00 -0.17166792224E+03  0.17166792226E+03  0.25500000920E-02 0. -1.
    10030    2    1    2    0    0  0.00000000000E+00  0.00000000000E+00  0.19293570315E+04  0.22726928760E+04  0.12011304482E+04 0.  0.
        3    1    3    3  502    0  0.35180008272E+03 -0.45993100798E+03  0.12661079581E+04  0.13922389171E+04  0.10100000352E+00 0.  1.
       -3    1    3    3    0  502 -0.35180008272E+03  0.45993100798E+03  0.66324907338E+03  0.88045395896E+03  0.10100000352E+00 0. -1.
</event>
<event>
 5   0  0.5447074E-04  0.1207339E+04  0.7818609E-02  0.9106457E-01
        1   -1    0    0  501    0  0.00000000000E+00  0.00000000000E+00  0.16113094768E+04  0.16113094768E+04  0.50400001928E-02 0.  1.
       -1   -1    0    0    0  501  0.00000000000E+00  0.00000000000E+00 -0.22616181875E+03  0.22616181880E+03  0.50400001928E-02 0. -1.
    10030    2    1    2    0    0  0.00000000000E+00  0.00000000000E+00  0.13851476580E+04  0.18374712956E+04  0.12073386963E+04 0.  0.
        4    1    3    3  502    0 -0.15674841264E+03 -0.58172512775E+02 -0.19021897568E+03  0.25325674269E+03  0.12699999809E+01 0. -1.
       -4    1    3    3    0  502  0.15674841264E+03  0.58172512775E+02  0.15753666337E+04  0.15842145529E+04  0.12699999809E+01 0.  1.
</event>
<event>
 5   0  0.9070772E-04  0.1200753E+04  0.7818609E-02  0.9112198E-01
       -2   -1    0    0    0  501  0.00000000000E+00  0.00000000000E+00  0.98564046185E+03  0.98564046185E+03  0.25500000920E-02 0.  1.
        2   -1    0    0  501    0  0.00000000000E+00  0.00000000000E+00 -0.36570296866E+03  0.36570296867E+03  0.25500000920E-02 0. -1.
    10030    2    1    2    0    0  0.00000000000E+00  0.00000000000E+00  0.61993749319E+03  0.13513434305E+04  0.12007525023E+04 0.  0.
        4    1    3    3  502    0  0.45200595307E+03 -0.18197451656E+03  0.70470821475E+03  0.85676098600E+03  0.12699999809E+01 0.  1.
       -4    1    3    3    0  502 -0.45200595307E+03  0.18197451656E+03 -0.84770721563E+02  0.49458244452E+03  0.12699999809E+01 0. -1.
</event>
<event>
 5   0  0.9070772E-04  0.1199792E+04  0.7818609E-02  0.9113039E-01
        2   -1    0    0  501    0  0.00000000000E+00  0.00000000000E+00  0.12387961173E+04  0.12387961173E+04  0.25500000920E-02 0. -1.
       -2   -1    0    0    0  501  0.00000000000E+00  0.00000000000E+00 -0.29050375483E+03  0.29050375484E+03  0.25500000920E-02 0.  1.
    10030    2    1    2    0    0  0.00000000000E+00  0.00000000000E+00  0.94829236244E+03  0.15292998721E+04  0.11997915211E+04 0.  0.
        4    1    3    3  502    0  0.55519933086E+03  0.59992564991E+02  0.19480582102E+03  0.59143581702E+03  0.12699999809E+01 0.  1.
       -4    1    3    3    0  502 -0.55519933086E+03 -0.59992564991E+02  0.75348654142E+03  0.93786405510E+03  0.12699999809E+01 0. -1.
</event>
<event>
 5   0  0.5052959E-04  0.1198482E+04  0.7818609E-02  0.9114187E-01
        1   -1    0    0  501    0  0.00000000000E+00  0.00000000000E+00  0.52133249958E+03  0.52133249961E+03  0.50400001928E-02 0. -1.
       -1   -1    0    0    0  501  0.00000000000E+00  0.00000000000E+00 -0.68879172707E+03  0.68879172709E+03  0.50400001928E-02 0.  1.
    10030    2    1    2    0    0  0.00000000000E+00  0.00000000000E+00 -0.16745922749E+03  0.12101242267E+04  0.11984815606E+04 0.  0.
        2    1    3    3  502    0 -0.41436014301E+03 -0.36518594121E+03  0.15098158853E+03  0.57258234330E+03  0.25500000920E-02 0. -1.
       -2    1    3    3    0  502  0.41436014301E+03  0.36518594121E+03 -0.31844081602E+03  0.63754188340E+03  0.25500000920E-02 0.  1.
</event>
<event>
 5   0  0.9298693E-04  0.1223145E+04  0.7818609E-02  0.9092835E-01
        2   -1    0    0  501    0  0.00000000000E+00  0.00000000000E+00  0.50178823853E+03  0.50178823854E+03  0.25500000920E-02 0.  1.
       -2   -1    0    0    0  501  0.00000000000E+00  0.00000000000E+00 -0.74537634215E+03  0.74537634215E+03  0.25500000920E-02 0. -1.
    10030    2    1    2    0    0  0.00000000000E+00  0.00000000000E+00 -0.24358810362E+03  0.12471645807E+04  0.12231452600E+04 0.  0.
        1    1    3    3  502    0  0.35626794394E+02  0.41268647487E+03 -0.58056478567E+03  0.71318641701E+03  0.50400001928E-02 0. -1.
       -1    1    3    3    0  502 -0.35626794394E+02 -0.41268647487E+03  0.33697668206E+03  0.53397816369E+03  0.50400001928E-02 0.  1.
</event>
<event>
 5   0  0.5157631E-04  0.1197255E+04  0.7818609E-02  0.9115262E-01
       -1   -1    0    0    0  501  0.00000000000E+00  0.00000000000E+00  0.32048740985E+03  0.32048740989E+03  0.50400001928E-02 0.  1.
        1   -1    0    0  501    0  0.00000000000E+00  0.00000000000E+00 -0.11181562473E+04  0.11181562473E+04  0.50400001928E-02 0. -1.
    10030    2    1    2    0    0  0.00000000000E+00  0.00000000000E+00 -0.79766883747E+03  0.14386436572E+04  0.11972551934E+04 0.  0.
        5    1    3    3  502    0  0.29272560058E+02  0.21413674203E+03  0.27194572828E+03  0.34740177920E+03  0.46999998093E+01 0.  1.
       -5    1    3    3    0  502 -0.29272560058E+02 -0.21413674203E+03 -0.10696145658E+04  0.10912418780E+04  0.46999998093E+01 0. -1.
</event>
<event>
 5   0  0.5157631E-04  0.1191647E+04  0.7818609E-02  0.9120200E-01
        1   -1    0    0  501    0  0.00000000000E+00  0.00000000000E+00  0.56999223291E+03  0.56999223293E+03  0.50400001928E-02 0. -1.
       -1   -1    0    0    0  501  0.00000000000E+00  0.00000000000E+00 -0.62282520991E+03  0.62282520993E+03  0.50400001928E-02 0.  1.
    10030    2    1    2    0    0  0.00000000000E+00  0.00000000000E+00 -0.52832977006E+02  0.11928174429E+04  0.11916468137E+04 0.  0.
        5    1    3    3  502    0  0.53224455527E+03  0.26728421797E+03 -0.42504687023E+02  0.59712130945E+03  0.46999998093E+01 0. -1.
       -5    1    3    3    0  502 -0.53224455527E+03 -0.26728421797E+03 -0.10328289983E+02  0.59569613341E+03  0.46999998093E+01 0.  1.
</event>
<event>
 5   0  0.5157631E-04  0.1197766E+04  0.7818609E-02  0.9114814E-01
        1   -1    0    0  501    0  0.00000000000E+00  0.00000000000E+00  0.68338445398E+03  0.68338445400E+03  0.50400001928E-02 0. -1.
       -1   -1    0    0    0  501  0.00000000000E+00  0.00000000000E+00 -0.52483029115E+03  0.52483029118E+03  0.50400001928E-02 0.  1.
    10030    2    1    2    0    0  0.00000000000E+00  0.00000000000E+00  0.15855416283E+03  0.12082147452E+04  0.11977660239E+04 0.  0.
        5    1    3    3  502    0 -0.53481708970E+03  0.24343613648E+03 -0.37265630941E+02  0.58881345877E+03  0.46999998093E+01 0.  1.
       -5    1    3    3    0  502  0.53481708970E+03 -0.24343613648E+03  0.19581979377E+03  0.61940128641E+03  0.46999998093E+01 0. -1.
</event>
<event>
 5   0  0.5052959E-04  0.1215905E+04  0.7818609E-02  0.9099048E-01
        1   -1    0    0  501    0  0.00000000000E+00  0.00000000000E+00  0.16321346786E+04  0.16321346786E+04  0.50400001928E-02 0. -1.
       -1   -1    0    0    0  501  0.00000000000E+00  0.00000000000E+00 -0.22645581575E+03  0.22645581580E+03  0.50400001928E-02 0.  1.
    10030    2    1    2    0    0  0.00000000000E+00  0.00000000000E+00  0.14056788629E+04  0.18585904944E+04  0.12159052432E+04 0.  0.
        2    1    3    3  502    0  0.13636324869E+03 -0.17065394880E+03 -0.16439564529E+03  0.27339282000E+03  0.25500000920E-02 0.  1.
       -2    1    3    3    0  502 -0.13636324869E+03  0.17065394880E+03  0.15700745082E+04  0.15851976744E+04  0.25500000920E-02 0. -1.
</event>
<event>
 5   0  0.9050363E-04  0.1191687E+04  0.7818609E-02  0.9120164E-01
       -2   -1    0    0    0  501  0.00000000000E+00  0.00000000000E+00  0.76892464879E+03  0.76892464879E+03  0.25500000920E-02 0.  1.
        2   -1    0    0  501    0  0.00000000000E+00  0.00000000000E+00 -0.46172215939E+03  0.46172215940E+03  0.25500000920E-02 0. -1.
    10030    2    1    2    0    0  0.00000000000E+00  0.00000000000E+00  0.30720248940E+03  0.12306468082E+04  0.11916871221E+04 0.  0.
        3    1    3    3  502    0  0.53918555608E+03 -0.19341265106E+03  0.32297553856E+03  0.65760377598E+03  0.10100000352E+00 0. -1.
       -3    1    3    3    0  502 -0.53918555608E+03  0.19341265106E+03 -0.15773049157E+02  0.57304303221E+03  0.10100000352E+00 0.  1.
</event>
<event>
 5   0  0.9145224E-04  0.1199764E+04  0.7818609E-02  0.9113063E-01
        2   -1    0    0  501    0  0.00000000000E+00  0.00000000000E+00  0.14422398959E+04  0.14422398959E+04  0.25500000920E-02 0.  1.
       -2   -1    0    0    0  501  0.00000000000E+00  0.00000000000E+00 -0.24951339232E+03  0.24951339233E+03  0.25500000920E-02 0. -1.
    10030    2    1    2    0    0  0.00000000000E+00  0.00000000000E+00  0.11927265036E+04  0.16917532882E+04  0.11997635917E+04 0.  0.
        5    1    3    3  502    0  0.34823395473E+02 -0.27591910473E+03 -0.15308986796E+03  0.31749428167E+03  0.46999998093E+01 0. -1.
       -5    1    3    3    0  502 -0.34823395473E+02  0.27591910473E+03  0.13458163715E+04  0.13742590066E+04  0.46999998093E+01 0.  1.
</event>
<event>
 5   0  0.9410666E-04  0.1199989E+04  0.7818609E-02  0.9112866E-01
        2   -1    0    0  501    0  0.00000000000E+00  0.00000000000E+00  0.12547716116E+04  0.12547716116E+04  0.25500000920E-02 0. -1.
       -2   -1    0    0    0  501  0.00000000000E+00  0.00000000000E+00 -0.28689940928E+03  0.28689940929E+03  0.25500000920E-02 0.  1.
    10030    2    1    2    0    0  0.00000000000E+00  0.00000000000E+00  0.96787220232E+03  0.15416710209E+04  0.11999887236E+04 0.  0.
        2    1    3    3  502    0  0.51009937726E+03  0.58635136771E+02  0.88273038339E+03  0.10212014413E+04  0.25500000920E-02 0. -1.
       -2    1    3    3    0  502 -0.51009937726E+03 -0.58635136771E+02  0.85141818930E+02  0.52046957960E+03  0.25500000920E-02 0.  1.
</event>
<event>
 5   0  0.5052959E-04  0.1197466E+04  0.7818609E-02  0.9115078E-01
        1   -1    0    0  501    0  0.00000000000E+00  0.00000000000E+00  0.13008893916E+04  0.13008893916E+04  0.50400001928E-02 0. -1.
       -1   -1    0    0    0  501  0.00000000000E+00  0.00000000000E+00 -0.27556614730E+03  0.27556614735E+03  0.50400001928E-02 0.  1.
    10030    2    1    2    0    0  0.00000000000E+00  0.00000000000E+00  0.10253232443E+04  0.15764555390E+04  0.11974657870E+04 0.  0.
        2    1    3    3  502    0  0.38560501367E+03 -0.35741526289E+03  0.13557380208E+03  0.54297067373E+03  0.25500000920E-02 0.  1.
       -2    1    3    3    0  502 -0.38560501367E+03  0.35741526289E+03  0.88974944221E+03  0.10334848652E+04  0.25500000920E-02 0. -1.
</event>
<event>
 5   0  0.9298693E-04  0.1197593E+04  0.7818609E-02  0.9114966E-01
        2   -1    0    0  501    0  0.00000000000E+00  0.00000000000E+00  0.64213758214E+03  0.64213758214E+03  0.25500000920E-02 0.  1.
       -2   -1    0    0    0  501  0.00000000000E+00  0.00000000000E+00 -0.55838092425E+03  0.55838092426E+03  0.25500000920E-02 0. -1.
    10030    2    1    2    0    0  0.00000000000E+00  0.00000000000E+00  0.83756657883E+02  0.12005185064E+04  0.11975932141E+04 0.  0.
        1    1    3    3  502    0  0.50470078192E+03 -0.27025513709E+03  0.21779675439E+03  0.61253256619E+03  0.50400001928E-02 0.  1.
       -1    1    3    3    0  502 -0.50470078192E+03  0.27025513709E+03 -0.13404009651E+03  0.58798594021E+03  0.50400001928E-02 0. -1.
</event>
<event>
 5   0  0.3453625E-04  0.1199238E+04  0.7818609E-02  0.9113524E-01
       -3   -1    0    0    0  501  0.00000000000E+00  0.00000000000E+00  0.64456362525E+03  0.64456363316E+03  0.10100000352E+00 0. -1.
        3   -1    0    0  501    0  0.00000000000E+00  0.00000000000E+00 -0.55780826976E+03  0.55780827890E+03  0.10100000352E+00 0.  1.
    10030    2    1    2    0    0  0.00000000000E+00  0.00000000000E+00  0.86755355489E+02  0.12023719121E+04  0.11992379761E+04 0.  0.
        3    1    3    3  502    0  0.20492158709E+03 -0.15241550641E+03  0.58730769330E+03  0.64043241662E+03  0.10100000352E+00 0. -1.
       -3    1    3    3    0  502 -0.20492158709E+03  0.15241550641E+03 -0.50055233781E+03  0.56193949544E+03  0.10100000352E+00 0.  1.
</event>
<event>
 5   0  0.5052959E-04  0.1224593E+04  0.7818609E-02  0.9091599E-01
       -1   -1    0    0    0  501  0.00000000000E+00  0.00000000000E+00  0.21806444876E+03  0.21806444882E+03  0.50400001928E-02 0.  1.
        1   -1    0    0  501    0  0.00000000000E+00  0.00000000000E+00 -0.17192485679E+04  0.17192485680E+04  0.50400001928E-02 0. -1.
    10030    2    1    2    0    0  0.00000000000E+00  0.00000000000E+00 -0.15011841192E+04  0.19373130168E+04  0.12245929794E+04 0.  0.
        2    1    3    3  502    0 -0.41163567121E+03  0.24758844899E+03 -0.13512607224E+04  0.14341023344E+04  0.25500000920E-02 0. -1.
       -2    1    3    3    0  502  0.41163567121E+03 -0.24758844899E+03 -0.14992339684E+03  0.50321068233E+03  0.25500000920E-02 0.  1.
</event>
<event>
 5   0  0.5001586E-04  0.1262771E+04  0.7818609E-02  0.9059620E-01
        1   -1    0    0  501    0  0.00000000000E+00  0.00000000000E+00  0.49637178530E+03  0.49637178533E+03  0.50400001928E-02 0. -1.
       -1   -1    0    0    0  501  0.00000000000E+00  0.00000000000E+00 -0.80312327404E+03  0.80312327405E+03  0.50400001928E-02 0.  1.
    10030    2    1    2    0    0  0.00000000000E+00  0.00000000000E+00 -0.30675148873E+03  0.12994950594E+04  0.12627711327E+04 0.  0.
        1    1    3    3  502    0 -0.45731854955E+03 -0.11175395691E+03  0.27959579858E+03  0.54754270450E+03  0.50400001928E-02 0. -1.
       -1    1    3    3    0  502  0.45731854955E+03  0.11175395691E+03 -0.58634728731E+03  0.75195235488E+03  0.50400001928E-02 0.  1.
</event>
<event>
 5   0  0.5003507E-04  0.1203273E+04  0.7818609E-02  0.9109997E-01
       -1   -1    0    0    0  501  0.00000000000E+00  0.00000000000E+00  0.32460137018E+03  0.32460137022E+03  0.50400001928E-02 0. -1.
        1   -1    0    0  501    0  0.00000000000E+00  0.00000000000E+00 -0.11151102121E+04  0.11151102121E+04  0.50400001928E-02 0.  1.
    10030    2    1    2    0    0  0.00000000000E+00  0.00000000000E+00 -0.79050884189E+03  0.14397115823E+04  0.12032727085E+04 0.  0.
        3    1    3    3  502    0  0.38811907158E+03 -0.45545792033E+03 -0.32064865073E+03  0.67889166907E+03  0.10100000352E+00 0. -1.
       -3    1    3    3    0  502 -0.38811907158E+03  0.45545792033E+03 -0.46986019116E+03  0.76081991322E+03  0.10100000352E+00 0.  1.
</event>
<event>
 5   0  0.5052959E-04  0.1198002E+04  0.7818609E-02  0.9114607E-01
        1   -1    0    0  501    0  0.00000000000E+00  0.00000000000E+00  0.38295440951E+03  0.38295440955E+03  0.50400001928E-02 0. -1.
       -1   -1    0    0    0  501  0.00000000000E+00  0.00000000000E+00 -0.93693217772E+03  0.93693217773E+03  0.50400001928E-02 0.  1.
    10030    2    1    2    0    0  0.00000000000E+00  0.00000000000E+00 -0.55397776820E+03  0.13198865873E+04  0.11980021851E+04 0.  0.
        2    1    3    3  502    0 -0.15929741861E+03  0.28315592205E+00  0.35918978319E+03  0.39292880794E+03  0.25500000920E-02 0. -1.
       -2    1    3    3    0  502  0.15929741861E+03 -0.28315592205E+00 -0.91316755139E+03  0.92695777934E+03  0.25500000920E-02 0.  1.
</event>
<event>
 5   0  0.5003507E-04  0.1190055E+04  0.7818609E-02  0.9121606E-01
        1   -1    0    0  501    0  0.00000000000E+00  0.00000000000E+00  0.22432152882E+03  0.22432152888E+03  0.50400001928E-02 0. -1.
       -1   -1    0    0    0  501  0.00000000000E+00  0.00000000000E+00 -0.15783485368E+04  0.15783485368E+04  0.50400001928E-02 0.  1.
    10030    2    1    2    0    0  0.00000000000E+00  0.00000000000E+00 -0.13540270080E+04  0.18026700657E+04  0.11900547161E+04 0.  0.
        3    1    3    3  502    0  0.37752796500E+03 -0.42449707913E+03 -0.40888299520E+03  0.69993603173E+03  0.10100000352E+00 0. -1.
       -3    1    3    3    0  502 -0.37752796500E+03  0.42449707913E+03 -0.94514401277E+03  0.11027340339E+04  0.10100000352E+00 0.  1.
</event>
<event>
 5   0  0.5001586E-04  0.1196874E+04  0.7818609E-02  0.9115597E-01
        1   -1    0    0  501    0  0.00000000000E+00  0.00000000000E+00  0.56377291818E+03  0.56377291820E+03  0.50400001928E-02 0. -1.
       -1   -1    0    0    0  501  0.00000000000E+00  0.00000000000E+00 -0.63523281686E+03  0.63523281688E+03  0.50400001928E-02 0.  1.
    10030    2    1    2    0    0  0.00000000000E+00  0.00000000000E+00 -0.71459898678E+02  0.11990057351E+04  0.11968743608E+04 0.  0.
        1    1    3    3  502    0  0.26180559614E+03 -0.24456076516E+03  0.44447210016E+03  0.57088316306E+03  0.50400001928E-02 0. -1.
       -1    1    3    3    0  502 -0.26180559614E+03  0.24456076516E+03 -0.51593199884E+03  0.62812257202E+03  0.50400001928E-02 0.  1.
</event>
<event>
 5   0  0.5052959E-04  0.1193431E+04  0.7818609E-02  0.9118626E-01
        1   -1    0    0  501    0  0.00000000000E+00  0.00000000000E+00  0.15364100674E+04  0.15364100674E+04  0.50400001928E-02 0.  1.
       -1   -1    0    0    0  501  0.00000000000E+00  0.00000000000E+00 -0.23175408126E+03  0.23175408131E+03  0.50400001928E-02 0. -1.
    10030    2    1    2    0    0  0.00000000000E+00  0.00000000000E+00  0.13046559861E+04  0.17681641487E+04  0.11934308587E+04 0.  0.
        2    1    3    3  502    0 -0.50105770065E+03  0.21861066880E+03  0.10067320721E+04  0.11455823449E+04  0.25500000920E-02 0. -1.
       -2    1    3    3    0  502  0.50105770065E+03 -0.21861066880E+03  0.29792391401E+03  0.62258180381E+03  0.25500000920E-02 0.  1.
</event>
<event>
 5   0  0.9410666E-04  0.1215517E+04  0.7818609E-02  0.9099382E-01
        2   -1    0    0  501    0  0.00000000000E+00  0.00000000000E+00  0.63813271831E+03  0.63813271831E+03  0.25500000920E-02 0.  1.
       -2   -1    0    0    0  501  0.00000000000E+00  0.00000000000E+00 -0.57882969682E+03  0.57882969683E+03  0.25500000920E-02 0. -1.
    10030    2    1    2    0    0  0.00000000000E+00  0.00000000000E+00  0.59303021486E+02  0.12169624151E+04  0.12155166274E+04 0.  0.
        2    1    3    3  502    0 -0.44241110701E+03 -0.14339925518E+03 -0.36206727678E+03  0.58939260846E+03  0.25500000920E-02 0. -1.
       -2    1    3    3    0  502  0.44241110701E+03  0.14339925518E+03  0.42137029827E+03  0.62756980668E+03  0.25500000920E-02 0.  1.
</event>
<event>
 5   0  0.5052959E-04  0.1209557E+04  0.7818609E-02  0.9104532E-01
        1   -1    0    0  501    0  0.00000000000E+00  0.00000000000E+00  0.62973934175E+03  0.62973934177E+03  0.50400001928E-02 0.  1.
       -1   -1    0    0    0  501  0.00000000000E+00  0.00000000000E+00 -0.58080724574E+03  0.58080724576E+03  0.50400001928E-02 0. -1.
    10030    2    1    2    0    0  0.00000000000E+00  0.00000000000E+00  0.48932096015E+02  0.12105465875E+04  0.12095572291E+04 0.  0.
        2    1    3    3  502    0 -0.34640973278E+02 -0.60056379081E+03 -0.37877028427E+02  0.60275329377E+03  0.25500000920E-02 0.  1.
       -2    1    3    3    0  502  0.34640973278E+02  0.60056379081E+03  0.86809124442E+02  0.60779329377E+03  0.25500000920E-02 0. -1.
</event>
<event>
 5   0  0.5157631E-04  0.1206439E+04  0.7818609E-02  0.9107239E-01
       -1   -1    0    0    0  501  0.00000000000E+00  0.00000000000E+00  0.38347174165E+03  0.38347174168E+03  0.50400001928E-02 0.  1.
        1   -1    0    0  501    0  0.00000000000E+00  0.00000000000E+00 -0.94889278001E+03  0.94889278003E+03  0.50400001928E-02 0. -1.
    10030    2    1    2    0    0  0.00000000000E+00  0.00000000000E+00 -0.56542103836E+03  0.13323645217E+04  0.12064386715E+04 0.  0.
        5    1    3    3  502    0 -0.51632770677E+03  0.30370098105E+03 -0.20444064080E+03  0.63296654910E+03  0.46999998093E+01 0.  1.
       -5    1    3    3    0  502  0.51632770677E+03 -0.30370098105E+03 -0.36098039757E+03  0.69939797261E+03  0.46999998093E+01 0. -1.
</event>
<event>
 5   0  0.3453625E-04  0.1199859E+04  0.7818609E-02  0.9112980E-01
        3   -1    0    0  501    0  0.00000000000E+00  0.00000000000E+00  0.49643601215E+03  0.49643602242E+03  0.10100000352E+00 0. -1.
       -3   -1    0    0    0  501  0.00000000000E+00  0.00000000000E+00 -0.72499802595E+03  0.72499803299E+03  0.10100000352E+00 0.  1.
    10030    2    1    2    0    0  0.00000000000E+00  0.00000000000E+00 -0.22856201380E+03  0.12214340554E+04  0.11998585573E+04 0.  0.
        1    1    3    3  502    0 -0.40226539843E+03 -0.33073888775E+03  0.18891604915E+03  0.55398098911E+03  0.50400001928E-02 0. -1.
       -1    1    3    3    0  502  0.40226539843E+03  0.33073888775E+03 -0.41747806295E+03  0.66745306630E+03  0.50400001928E-02 0.  1.
</event>
<event>
 5   0  0.9050363E-04  0.1201983E+04  0.7818609E-02  0.9111123E-01
        2   -1    0    0  501    0  0.00000000000E+00  0.00000000000E+00  0.50511361139E+03  0.50511361139E+03  0.25500000920E-02 0.  1.
       -2   -1    0    0    0  501  0.00000000000E+00  0.00000000000E+00 -0.71506842985E+03  0.71506842985E+03  0.25500000920E-02 0. -1.
    10030    2    1    2    0    0  0.00000000000E+00  0.00000000000E+00 -0.20995481846E+03  0.12201820412E+04  0.12019830232E+04 0.  0.
        3    1    3    3  502    0  0.31081265398E+03  0.18484586035E+03  0.38230952708E+03  0.52624431841E+03  0.10100000352E+00 0.  1.
       -3    1    3    3    0  502 -0.31081265398E+03 -0.18484586035E+03 -0.59226434555E+03  0.69393772283E+03  0.10100000352E+00 0. -1.
</event>
<event>
 5   0  0.9050363E-04  0.1203037E+04  0.7818609E-02  0.9110203E-01
       -2   -1    0    0    0  501  0.00000000000E+00  0.00000000000E+00  0.63483502518E+03  0.63483502519E+03  0.25500000920E-02 0. -1.
        2   -1    0    0  501    0  0.00000000000E+00  0.00000000000E+00 -0.56995002532E+03  0.56995002532E+03  0.25500000920E-02 0.  1.
    10030    2    1    2    0    0  0.00000000000E+00  0.00000000000E+00  0.64884999864E+02  0.12047850505E+04  0.12030365559E+04 0.  0.
        3    1    3    3  502    0  0.45591417913E+03  0.31660539781E+03 -0.19968634483E+03  0.58989097566E+03  0.10100000352E+00 0.  1.
       -3    1    3    3    0  502 -0.45591417913E+03 -0.31660539781E+03  0.26457134469E+03  0.61489407485E+03  0.10100000352E+00 0. -1.
</event>
<event>
 5   0  0.9070772E-04  0.1200914E+04  0.7818609E-02  0.9112057E-01
        2   -1    0    0  501    0  0.00000000000E+00  0.00000000000E+00  0.82656804589E+03  0.82656804589E+03  0.25500000920E-02 0. -1.
       -2   -1    0    0    0  501  0.00000000000E+00  0.00000000000E+00 -0.43619941397E+03  0.43619941398E+03  0.25500000920E-02 0.  1.
    10030    2    1    2    0    0  0.00000000000E+00  0.00000000000E+00  0.39036863192E+03  0.12627674599E+04  0.12009138141E+04 0.  0.
        4    1    3    3  502    0 -0.12585878320E+03 -0.50847820698E+03 -0.11345782500E+03  0.53597090521E+03  0.12699999809E+01 0.  1.
       -4    1    3    3    0  502  0.12585878320E+03  0.50847820698E+03  0.50382645691E+03  0.72679655466E+03  0.12699999809E+01 0. -1.
</event>
<event>
 5   0  0.9050363E-04  0.1199806E+04  0.7818609E-02  0.9113027E-01
       -2   -1    0    0    0  501  0.00000000000E+00  0.00000000000E+00  0.58297343413E+03  0.58297343414E+03  0.25500000920E-02 0.  1.
        2   -1    0    0  501    0  0.00000000000E+00  0.00000000000E+00 -0.61732401886E+03  0.61732401886E+03  0.25500000920E-02 0. -1.
    10030    2    1    2    0    0  0.00000000000E+00  0.00000000000E+00 -0.34350584727E+02  0.12002974530E+04  0.11998058230E+04 0.  0.
        3    1    3    3  502    0  0.23174679608E+03  0.45370555777E+03 -0.33405132457E+03  0.60921720945E+03  0.10100000352E+00 0. -1.
       -3    1    3    3    0  502 -0.23174679608E+03 -0.45370555777E+03  0.29970073984E+03  0.59108024354E+03  0.10100000352E+00 0.  1.
</event>
<event>
 5   0  0.9298693E-04  0.1201901E+04  0.7818609E-02  0.9111194E-01
       -2   -1    0    0    0  501  0.00000000000E+00  0.00000000000E+00  0.81099820982E+03  0.81099820983E+03  0.25500000920E-02 0. -1.
        2   -1    0    0  501    0  0.00000000000E+00  0.00000000000E+00 -0.44530504919E+03  0.44530504920E+03  0.25500000920E-02 0.  1.
    10030    2    1    2    0    0  0.00000000000E+00  0.00000000000E+00  0.36569316063E+03  0.12563032590E+04  0.12019011569E+04 0.  0.
        1    1    3    3  502    0 -0.30589026842E+03 -0.11558551571E+03 -0.34417012352E+03  0.47474408022E+03  0.50400001928E-02 0.  1.
       -1    1    3    3    0  502  0.30589026842E+03  0.11558551571E+03  0.70986328416E+03  0.78155917880E+03  0.50400001928E-02 0. -1.
</event>
<event>
 5   0  0.9145224E-04  0.1199047E+04  0.7818609E-02  0.9113691E-01
       -2   -1    0    0    0  501  0.00000000000E+00  0.00000000000E+00  0.49297505410E+03  0.49297505410E+03  0.25500000920E-02 0.  1.
        2   -1    0    0  501    0  0.00000000000E+00  0.00000000000E+00 -0.72910062365E+03  0.72910062365E+03  0.25500000920E-02 0. -1.
    10030    2    1    2    0    0  0.00000000000E+00  0.00000000000E+00 -0.23612556955E+03  0.12220756778E+04  0.11990469872E+04 0.  0.
        5    1    3    3  502    0 -0.30120597292E+03 -0.38544053774E+03 -0.47129794494E+03  0.67928881130E+03  0.46999998093E+01 0. -1.
       -5    1    3    3    0  502  0.30120597292E+03  0.38544053774E+03  0.23517237539E+03  0.54278686646E+03  0.46999998093E+01 0.  1.
</event>
<event>
 5   0  0.9145224E-04  0.1202083E+04  0.7818609E-02  0.9111036E-01
       -2   -1    0    0    0  501  0.00000000000E+00  0.00000000000E+00  0.10089826132E+04  0.10089826132E+04  0.25500000920E-02 0.  1.
        2   -1    0    0  501    0  0.00000000000E+00  0.00000000000E+00 -0.35803461804E+03  0.35803461805E+03  0.25500000920E-02 0. -1.
    10030    2    1    2    0    0  0.00000000000E+00  0.00000000000E+00  0.65094799520E+03  0.13670172313E+04  0.12020827002E+04 0.  0.
        5    1    3    3  502    0  0.47985274453E+03  0.56543812511E+02 -0.81024338271E+02  0.48994172363E+03  0.46999998093E+01 0. -1.
       -5    1    3    3    0  502 -0.47985274453E+03 -0.56543812511E+02  0.73197233348E+03  0.87707550766E+03  0.46999998093E+01 0.  1.
</event>
<event>
 5   0  0.5003507E-04  0.1198589E+04  0.7818609E-02  0.9114093E-01
       -1   -1    0    0    0  501  0.00000000000E+00  0.00000000000E+00  0.41945990992E+03  0.41945990995E+03  0.50400001928E-02 0. -1.
        1   -1    0    0  501    0  0.00000000000E+00  0.00000000000E+00 -0.85622921090E+03  0.85622921092E+03  0.50400001928E-02 0.  1.
    10030    2    1    2    0    0  0.00000000000E+00  0.00000000000E+00 -0.43676930098E+03  0.12756891209E+04  0.11985888832E+04 0.  0.
        3    1    3    3  502    0 -0.24374091940E+03 -0.41437774182E+03  0.16245259499E+03  0.50745384472E+03  0.10100000352E+00 0. -1.
       -3    1    3    3    0  502  0.24374091940E+03  0.41437774182E+03 -0.59922189597E+03  0.76823527615E+03  0.10100000352E+00 0.  1.
</event>
<event>
 5   0  0.5001586E-04  0.1191545E+04  0.7818609E-02  0.9120290E-01
        1   -1    0    0  501    0  0.00000000000E+00  0.00000000000E+00  0.17877799637E+04  0.17877799637E+04  0.50400001928E-02 0.  1.
       -1   -1    0    0    0  501  0.00000000000E+00  0.00000000000E+00 -0.19853934853E+03  0.19853934859E+03  0.50400001928E-02 0. -1.
    10030    2    1    2    0    0  0.00000000000E+00  0.00000000000E+00  0.15892406152E+04  0.19863193123E+04  0.11915446603E+04 0.  0.
        1    1    3    3  502    0  0.47701784397E+02 -0.34057821805E+03 -0.16369811843E+02  0.34429195984E+03  0.50400001928E-02 0. -1.
       -1    1    3    3    0  502 -0.47701784397E+02  0.34057821805E+03  0.16056104270E+04  0.16420273525E+04  0.50400001928E-02 0.  1.
</event>
<event>
 5   0  0.5003507E-04  0.1187692E+04  0.7818609E-02  0.9123699E-01
       -1   -1    0    0    0  501  0.00000000000E+00  0.00000000000E+00  0.48354318850E+03  0.48354318852E+03  0.50400001928E-02 0.  1.
        1   -1    0    0  501    0  0.00000000000E+00  0.00000000000E+00 -0.72931014749E+03  0.72931014750E+03  0.50400001928E-02 0. -1.
    10030    2    1    2    0    0  0.00000000000E+00  0.00000000000E+00 -0.24576695899E+03  0.12128533360E+04  0.11876918020E+04 0.  0.
        3    1    3    3  502    0 -0.10856330884E+03 -0.10861647688E+03  0.46291506256E+03  0.48772317602E+03  0.10100000352E+00 0.  1.
       -3    1    3    3    0  502  0.10856330884E+03  0.10861647688E+03 -0.70868202155E+03  0.72513016001E+03  0.10100000352E+00 0. -1.
</event>
<event>
 5   0  0.5001586E-04  0.1200334E+04  0.7818609E-02  0.9112564E-01
       -1   -1    0    0    0  501  0.00000000000E+00  0.00000000000E+00  0.62382806213E+03  0.62382806215E+03  0.50400001928E-02 0.  1.
        1   -1    0    0  501    0  0.00000000000E+00  0.00000000000E+00 -0.57740337217E+03  0.57740337219E+03  0.50400001928E-02 0. -1.
    10030    2    1    2    0    0  0.00000000000E+00  0.00000000000E+00  0.46424689957E+02  0.12012314343E+04  0.12003339981E+04 0.  0.
        1    1    3    3  502    0 -0.43453381910E+03 -0.88384590949E+02  0.42795130867E+03  0.61625789932E+03  0.50400001928E-02 0.  1.
       -1    1    3    3    0  502  0.43453381910E+03  0.88384590949E+02 -0.38152661871E+03  0.58497353502E+03  0.50400001928E-02 0. -1.
</event>
<event>
 5   0  0.5447074E-04  0.1194668E+04  0.7818609E-02  0.9117536E-01
        1   -1    0    0  501    0  0.00000000000E+00  0.00000000000E+00  0.13255778561E+04  0.13255778561E+04  0.50400001928E-02 0. -1.
       -1   -1    0    0    0  501  0.00000000000E+00  0.00000000000E+00 -0.26917168540E+03  0.26917168545E+03  0.50400001928E-02 0.  1.
    10030    2    1    2    0    0  0.00000000000E+00  0.00000000000E+00  0.10564061707E+04  0.15947495416E+04  0.11946681978E+04 0.  0.
        4    1    3    3  502    0  0.34173901593E+03 -0.16704053777E+02 -0.12540451444E+03  0.36440703281E+03  0.12699999809E+01 0.  1.
       -4    1    3    3    0  502 -0.34173901593E+03  0.16704053777E+02  0.11818106852E+04  0.12303425088E+04  0.12699999809E+01 0. -1.
</event>
<event>
 5   0  0.9070772E-04  0.1203837E+04  0.7818609E-02  0.9109505E-01
       -2   -1    0    0    0  501  0.00000000000E+00  0.00000000000E+00  0.45960071118E+03  0.45960071119E+03  0.25500000920E-02 0.  1.
        2   -1    0    0  501    0  0.00000000000E+00  0.00000000000E+00 -0.78830513758E+03  0.78830513758E+03  0.25500000920E-02 0. -1.
    10030    2    1    2    0    0  0.00000000000E+00  0.00000000000E+00 -0.32870442640E+03  0.12479058488E+04  0.12038365369E+04 0.  0.
        4    1    3    3  502    0 -0.44296792349E+03  0.27509837262E+03  0.14732770941E+03  0.54185492775E+03  0.12699999809E+01 0.  1.
       -4    1    3    3    0  502  0.44296792349E+03 -0.27509837262E+03 -0.47603213581E+03  0.70605092103E+03  0.12699999809E+01 0. -1.
</event>
<event>
 5   0  0.9145224E-04  0.1203795E+04  0.7818609E-02  0.9109542E-01
        2   -1    0    0  501    0  0.00000000000E+00  0.00000000000E+00  0.60698101137E+03  0.60698101138E+03  0.25500000920E-02 0.  1.
       -2   -1    0    0    0  501  0.00000000000E+00  0.00000000000E+00 -0.59685617239E+03  0.59685617240E+03  0.25500000920E-02 0. -1.
    10030    2    1    2    0    0  0.00000000000E+00  0.00000000000E+00  0.10124838978E+02  0.12038371838E+04  0.12037946057E+04 0.  0.
        5    1    3    3  502    0 -0.14673623692E+03  0.47177305689E+03 -0.33868936782E+03  0.59902747709E+03  0.46999998093E+01 0. -1.
       -5    1    3    3    0  502  0.14673623692E+03 -0.47177305689E+03  0.34881420679E+03  0.60480970668E+03  0.46999998093E+01 0.  1.
</event>
<event>
 5   0  0.5001586E-04  0.1243077E+04  0.7818609E-02  0.9075965E-01
        1   -1    0    0  501    0  0.00000000000E+00  0.00000000000E+00  0.90902881517E+03  0.90902881519E+03  0.50400001928E-02 0.  1.
       -1   -1    0    0    0  501  0.00000000000E+00  0.00000000000E+00 -0.42497024157E+03  0.42497024160E+03  0.50400001928E-02 0. -1.
    10030    2    1    2    0    0  0.00000000000E+00  0.00000000000E+00  0.48405857360E+03  0.13339990568E+04  0.12430771420E+04 0.  0.
        1    1    3    3  502    0 -0.13514527621E+03  0.49246040218E+03  0.62224403661E+03  0.80496530020E+03  0.50400001928E-02 0.  1.
       -1    1    3    3    0  502  0.13514527621E+03 -0.49246040218E+03 -0.13818546302E+03  0.52903375659E+03  0.50400001928E-02 0. -1.
</event>
<event>
 5   0  0.9050363E-04  0.1195750E+04  0.7818609E-02  0.9116585E-01
        2   -1    0    0  501    0  0.00000000000E+00  0.00000000000E+00  0.11848583997E+04  0.11848583997E+04  0.25500000920E-02 0. -1.
       -2   -1    0    0    0  501  0.00000000000E+00  0.00000000000E+00 -0.30168544504E+03  0.30168544505E+03  0.25500000920E-02 0.  1.
    10030    2    1    2    0    0  0.00000000000E+00  0.00000000000E+00  0.88317295467E+03  0.14865438448E+04  0.11957500301E+04 0.  0.
        3    1    3    3  502    0 -0.83425069190E+02 -0.60755580335E+02  0.11737011046E+04  0.11782297212E+04  0.10100000352E+00 0. -1.
       -3    1    3    3    0  502  0.83425069190E+02  0.60755580335E+02 -0.29052814993E+03  0.30831412360E+03  0.10100000352E+00 0.  1.
</event>
<event>
 5   0  0.9298693E-04  0.1201742E+04  0.7818609E-02  0.9111333E-01
        2   -1    0    0  501    0  0.00000000000E+00  0.00000000000E+00  0.36911761964E+03  0.36911761965E+03  0.25500000920E-02 0. -1.
       -2   -1    0    0    0  501  0.00000000000E+00  0.00000000000E+00 -0.97813221900E+03  0.97813221900E+03  0.25500000920E-02 0.  1.
    10030    2    1    2    0    0  0.00000000000E+00  0.00000000000E+00 -0.60901459936E+03  0.13472498387E+04  0.12017417965E+04 0.  0.
        1    1    3    3  502    0 -0.44194648887E+03  0.34420446714E+03 -0.54820364244E+03  0.78378609827E+03  0.50400001928E-02 0.  1.
       -1    1    3    3    0  502  0.44194648887E+03 -0.34420446714E+03 -0.60810956922E+02  0.56346374039E+03  0.50400001928E-02 0. -1.
</event>
<event>
 5   0  0.9410666E-04  0.1202761E+04  0.7818609E-02  0.9110444E-01
       -2   -1    0    0    0  501  0.00000000000E+00  0.00000000000E+00  0.64374245070E+03  0.64374245070E+03  0.25500000920E-02 0.  1.
        2   -1    0    0  501    0  0.00000000000E+00  0.00000000000E+00 -0.56180595559E+03  0.56180595560E+03  0.25500000920E-02 0. -1.
    10030    2    1    2    0    0  0.00000000000E+00  0.00000000000E+00  0.81936495105E+02  0.12055484063E+04  0.12027607288E+04 0.  0.
        2    1    3    3  502    0  0.18429340041E+03 -0.55536871146E+03  0.18006987054E+03  0.61222840623E+03  0.25500000920E-02 0.  1.
       -2    1    3    3    0  502 -0.18429340041E+03  0.55536871146E+03 -0.98133375432E+02  0.59332000008E+03  0.25500000920E-02 0. -1.
</event>
<event>
 5   0  0.5052959E-04  0.1196726E+04  0.7818609E-02  0.9115727E-01
       -1   -1    0    0    0  501  0.00000000000E+00  0.00000000000E+00  0.24132384357E+03  0.24132384362E+03  0.50400001928E-02 0.  1.
        1   -1    0    0  501    0  0.00000000000E+00  0.00000000000E+00 -0.14836429322E+04  0.14836429322E+04  0.50400001928E-02 0. -1.
    10030    2    1    2    0    0  0.00000000000E+00  0.00000000000E+00 -0.12423190886E+04  0.17249667758E+04  0.11967262259E+04 0.  0.
        2    1    3    3  502    0 -0.37604515451E+03 -0.35226727480E+03 -0.18268759762E+03  0.54669639605E+03  0.25500000920E-02 0.  1.
       -2    1    3    3    0  502  0.37604515451E+03  0.35226727480E+03 -0.10596314910E+04  0.11782703798E+04  0.25500000920E-02 0. -1.
</event>
<event>
 5   0  0.5447074E-04  0.1198519E+04  0.7818609E-02  0.9114154E-01
        1   -1    0    0  501    0  0.00000000000E+00  0.00000000000E+00  0.83831541670E+03  0.83831541671E+03  0.50400001928E-02 0. -1.
       -1   -1    0    0    0  501  0.00000000000E+00  0.00000000000E+00 -0.42837332882E+03  0.42837332885E+03  0.50400001928E-02 0.  1.
    10030    2    1    2    0    0  0.00000000000E+00  0.00000000000E+00  0.40994208788E+03  0.12666887456E+04  0.11985190289E+04 0.  0.
        4    1    3    3  502    0 -0.55691234908E+03 -0.19527221920E+03  0.94996021187E+02  0.59775284282E+03  0.12699999809E+01 0.  1.
       -4    1    3    3    0  502  0.55691234908E+03  0.19527221920E+03  0.31494606669E+03  0.66893590274E+03  0.12699999809E+01 0. -1.
</event>
<event>
 5   0  0.9145224E-04  0.1196900E+04  0.7818609E-02  0.9115574E-01
       -2   -1    0    0    0  501  0.00000000000E+00  0.00000000000E+00  0.67526318131E+03  0.67526318132E+03  0.25500000920E-02 0.  1.
        2   -1    0    0  501    0  0.00000000000E+00  0.00000000000E+00 -0.53037484183E+03  0.53037484183E+03  0.25500000920E-02 0. -1.
    10030    2    1    2    0    0  0.00000000000E+00  0.00000000000E+00  0.14488833948E+03  0.12056380232E+04  0.11969003350E+04 0.  0.
        5    1    3    3  502    0  0.58185485613E+03  0.12476496435E+03  0.87437318653E+01  0.59516376971E+03  0.46999998093E+01 0. -1.
       -5    1    3    3    0  502 -0.58185485613E+03 -0.12476496435E+03  0.13614460762E+03  0.61047425344E+03  0.46999998093E+01 0.  1.
</event>
<event>
 5   0  0.3453625E-04  0.1238382E+04  0.7818609E-02  0.9079909E-01
       -4   -1    0    0    0  501  0.00000000000E+00  0.00000000000E+00  0.65606350457E+03  0.65606473380E+03  0.12699999809E+01 0.  1.
        4   -1    0    0  501    0  0.00000000000E+00  0.00000000000E+00 -0.58438852233E+03  0.58438990231E+03  0.12699999809E+01 0. -1.
    10030    2    1    2    0    0  0.00000000000E+00  0.00000000000E+00  0.71674982245E+02  0.12404546361E+04  0.12383821709E+04 0.  0.
        5    1    3    3  502    0  0.45075452855E+03 -0.13198239069E+03 -0.36829341749E+03  0.59687614111E+03  0.46999998093E+01 0. -1.
       -5    1    3    3    0  502 -0.45075452855E+03  0.13198239069E+03  0.43996839974E+03  0.64357849500E+03  0.46999998093E+01 0.  1.
</event>
<event>
 5   0  0.5157631E-04  0.1196552E+04  0.7818609E-02  0.9115880E-01
        1   -1    0    0  501    0  0.00000000000E+00  0.00000000000E+00  0.36985163980E+03  0.36985163984E+03  0.50400001928E-02 0.  1.
       -1   -1    0    0    0  501  0.00000000000E+00  0.00000000000E+00 -0.96777817096E+03  0.96777817098E+03  0.50400001928E-02 0. -1.
    10030    2    1    2    0    0  0.00000000000E+00  0.00000000000E+00 -0.59792653116E+03  0.13376298108E+04  0.11965522864E+04 0.  0.
        5    1    3    3  502    0 -0.88032657448E+02  0.28409506928E+03  0.28132710489E+03  0.40942250440E+03  0.46999998093E+01 0.  1.
       -5    1    3    3    0  502  0.88032657448E+02 -0.28409506928E+03 -0.87925363605E+03  0.92820730641E+03  0.46999998093E+01 0. -1.
</event>
<event>
 5   0  0.5447074E-04  0.1203627E+04  0.7818609E-02  0.9109688E-01
        1   -1    0    0  501    0  0.00000000000E+00  0.00000000000E+00  0.59172163791E+03  0.59172163793E+03  0.50400001928E-02 0.  1.
       -1   -1    0    0    0  501  0.00000000000E+00  0.00000000000E+00 -0.61207707614E+03  0.61207707616E+03  0.50400001928E-02 0. -1.
    10030    2    1    2    0    0  0.00000000000E+00  0.00000000000E+00 -0.20355438231E+02  0.12037987141E+04  0.12036266033E+04 0.  0.
        4    1    3    3  502    0 -0.38348385506E+03  0.16862262752E+03  0.42195371067E+03  0.59459230104E+03  0.12699999809E+01 0.  1.
       -4    1    3    3    0  502  0.38348385506E+03 -0.16862262752E+03 -0.44230914890E+03  0.60920641305E+03  0.12699999809E+01 0. -1.
</event>
<event>
 5   0  0.5003507E-04  0.1195990E+04  0.7818609E-02  0.9116374E-01
       -1   -1    0    0    0  501  0.00000000000E+00  0.00000000000E+00  0.59659619488E+03  0.59659619490E+03  0.50400001928E-02 0.  1.
        1   -1    0    0  501    0  0.00000000000E+00  0.00000000000E+00 -0.59939724658E+03  0.59939724660E+03  0.50400001928E-02 0. -1.
    10030    2    1    2    0    0  0.00000000000E+00  0.00000000000E+00 -0.28010516996E+01  0.11959934415E+04  0.11959901614E+04 0.  0.
        3    1    3    3  502    0  0.44596490200E+02 -0.13902268762E+02  0.59476885935E+03  0.59660047458E+03  0.10100000352E+00 0.  1.
       -3    1    3    3    0  502 -0.44596490200E+02  0.13902268762E+02 -0.59756991105E+03  0.59939296693E+03  0.10100000352E+00 0. -1.
</event>
<event>
 5   0  0.5157631E-04  0.1194342E+04  0.7818609E-02  0.9117824E-01
       -1   -1    0    0    0  501  0.00000000000E+00  0.00000000000E+00  0.37602480326E+03  0.37602480330E+03  0.50400001928E-02 0.  1.
        1   -1    0    0  501    0  0.00000000000E+00  0.00000000000E+00 -0.94837616113E+03  0.94837616114E+03  0.50400001928E-02 0. -1.
    10030    2    1    2    0    0  0.00000000000E+00  0.00000000000E+00 -0.57235135787E+03  0.13244009644E+04  0.11943415917E+04 0.  0.
        5    1    3    3  502    0 -0.32437103027E+03  0.50095592910E+03 -0.30883250242E+03  0.67199182490E+03  0.46999998093E+01 0.  1.
       -5    1    3    3    0  502  0.32437103027E+03 -0.50095592910E+03 -0.26351885545E+03  0.65240913954E+03  0.46999998093E+01 0. -1.
</event>
<event>
 5   0  0.5001586E-04  0.1198897E+04  0.7818609E-02  0.9113823E-01
        1   -1    0    0  501    0  0.00000000000E+00  0.00000000000E+00  0.85269534878E+03  0.85269534879E+03  0.50400001928E-02 0. -1.
       -1   -1    0    0    0  501  0.00000000000E+00  0.00000000000E+00 -0.42141477437E+03  0.42141477440E+03  0.50400001928E-02 0.  1.
    10030    2    1    2    0    0  0.00000000000E+00  0.00000000000E+00  0.43128057440E+03  0.12741101232E+04  0.11988968564E+04 0.  0.
        1    1    3    3  502    0  0.47935133637E+03 -0.34019332516E+03  0.90665063534E+02  0.59475150771E+03  0.50400001928E-02 0. -1.
       -1    1    3    3    0  502 -0.47935133637E+03  0.34019332516E+03  0.34061551087E+03  0.67935861548E+03  0.50400001928E-02 0.  1.
</event>
<event>
 5   0  0.3453625E-04  0.1206501E+04  0.7818609E-02  0.9107185E-01
        3   -1    0    0  501    0  0.00000000000E+00  0.00000000000E+00  0.39137178364E+03  0.39137179668E+03  0.10100000352E+00 0. -1.
       -3   -1    0    0    0  501  0.00000000000E+00  0.00000000000E+00 -0.92983557994E+03  0.92983558542E+03  0.10100000352E+00 0.  1.
    10030    2    1    2    0    0  0.00000000000E+00  0.00000000000E+00 -0.53846379629E+03  0.13212073821E+04  0.12065014242E+04 0.  0.
        1    1    3    3  502    0 -0.31253406504E+03  0.49325189557E+03 -0.10338542982E+03  0.59301224390E+03  0.50400001928E-02 0.  1.
       -1    1    3    3    0  502  0.31253406504E+03 -0.49325189557E+03 -0.43507836647E+03  0.72819513820E+03  0.50400001928E-02 0. -1.
</event>
<event>
 5   0  0.9298693E-04  0.1205387E+04  0.7818609E-02  0.9108154E-01
       -2   -1    0    0    0  501  0.00000000000E+00  0.00000000000E+00  0.15592412067E+03  0.15592412069E+03  0.25500000920E-02 0.  1.
        2   -1    0    0  501    0  0.00000000000E+00  0.00000000000E+00 -0.23295922454E+04  0.23295922454E+04  0.25500000920E-02 0. -1.
    10030    2    1    2    0    0  0.00000000000E+00  0.00000000000E+00 -0.21736681248E+04  0.24855163661E+04  0.12053872779E+04 0.  0.
        1    1    3    3  502    0  0.45453038875E+03 -0.39480158385E+03 -0.10294873867E+04  0.11926065757E+04  0.50400001928E-02 0.  1.
       -1    1    3    3    0  502 -0.45453038875E+03  0.39480158385E+03 -0.11441807380E+04  0.12929097904E+04  0.50400001928E-02 0. -1.
</event>
<event>
 5   0  0.5001586E-04  0.1199573E+04  0.7818609E-02  0.9113230E-01
        1   -1    0    0  501    0  0.00000000000E+00  0.00000000000E+00  0.74049404560E+03  0.74049404562E+03  0.50400001928E-02 0.  1.
       -1   -1    0    0    0  501  0.00000000000E+00  0.00000000000E+00 -0.48581620336E+03  0.48581620339E+03  0.50400001928E-02 0. -1.
    10030    2    1    2    0    0  0.00000000000E+00  0.00000000000E+00  0.25467784224E+03  0.12263102490E+04  0.11995732672E+04 0.  0.
        1    1    3    3  502    0 -0.55269965170E+03 -0.22146315243E+03  0.20120713874E+03  0.62849593919E+03  0.50400001928E-02 0. -1.
       -1    1    3    3    0  502  0.55269965170E+03  0.22146315243E+03  0.53470703497E+02  0.59781430982E+03  0.50400001928E-02 0.  1.
</event>
<event>
 5   0  0.9298693E-04  0.1203277E+04  0.7818609E-02  0.9109993E-01
        2   -1    0    0  501    0  0.00000000000E+00  0.00000000000E+00  0.49028532362E+03  0.49028532363E+03  0.25500000920E-02 0. -1.
       -2   -1    0    0    0  501  0.00000000000E+00  0.00000000000E+00 -0.73828220069E+03  0.73828220070E+03  0.25500000920E-02 0.  1.
    10030    2    1    2    0    0  0.00000000000E+00  0.00000000000E+00 -0.24799687707E+03  0.12285675243E+04  0.12032770715E+04 0.  0.
        1    1    3    3  502    0  0.20384615761E+03 -0.56146615509E+03 -0.19742254121E+03  0.62910504614E+03  0.50400001928E-02 0. -1.
       -1    1    3    3    0  502 -0.20384615761E+03  0.56146615509E+03 -0.50574335859E+02  0.59946247818E+03  0.50400001928E-02 0.  1.
</event>
<event>
 5   0  0.9145224E-04  0.1198890E+04  0.7818609E-02  0.9113828E-01
       -2   -1    0    0    0  501  0.00000000000E+00  0.00000000000E+00  0.54451439062E+03  0.54451439063E+03  0.25500000920E-02 0. -1.
        2   -1    0    0  501    0  0.00000000000E+00  0.00000000000E+00 -0.65991739529E+03  0.65991739529E+03  0.25500000920E-02 0.  1.
    10030    2    1    2    0    0  0.00000000000E+00  0.00000000000E+00 -0.11540300467E+03  0.12044317859E+04  0.11988903509E+04 0.  0.
        5    1    3    3  502    0 -0.72124669527E+02  0.57455781242E+03  0.97913722712E+02  0.58730557197E+03  0.46999998093E+01 0.  1.
       -5    1    3    3    0  502  0.72124669527E+02 -0.57455781242E+03 -0.21331672738E+03  0.61712621395E+03  0.46999998093E+01 0. -1.
</event>
<event>
 5   0  0.5052959E-04  0.1203066E+04  0.7818609E-02  0.9110177E-01
        1   -1    0    0  501    0  0.00000000000E+00  0.00000000000E+00  0.12469604503E+04  0.12469604503E+04  0.50400001928E-02 0.  1.
       -1   -1    0    0    0  501  0.00000000000E+00  0.00000000000E+00 -0.29017934052E+03  0.29017934057E+03  0.50400001928E-02 0. -1.
    10030    2    1    2    0    0  0.00000000000E+00  0.00000000000E+00  0.95678110978E+03  0.15371397909E+04  0.12030663509E+04 0.  0.
        2    1    3    3  502    0 -0.39656345298E+03  0.32014587284E+03  0.88662281679E+03  0.10226709986E+04  0.25500000920E-02 0.  1.
       -2    1    3    3    0  502  0.39656345298E+03 -0.32014587284E+03  0.70158292987E+02  0.51446879227E+03  0.25500000920E-02 0. -1.
</event>
<event>
 5   0  0.5001586E-04  0.1264124E+04  0.7818609E-02  0.9058509E-01
       -1   -1    0    0    0  501  0.00000000000E+00  0.00000000000E+00  0.73183687351E+03  0.73183687353E+03  0.50400001928E-02 0.  1.
        1   -1    0    0  501    0  0.00000000000E+00  0.00000000000E+00 -0.54589030835E+03  0.54589030837E+03  0.50400001928E-02 0. -1.
    10030    2    1    2    0    0  0.00000000000E+00  0.00000000000E+00  0.18594656516E+03  0.12777271819E+04  0.12641244505E+04 0.  0.
        1    1    3    3  502    0  0.41802884167E+03 -0.10589961768E+03  0.56004947756E+03  0.70683679787E+03  0.50400001928E-02 0.  1.
       -1    1    3    3    0  502 -0.41802884167E+03  0.10589961768E+03 -0.37410291239E+03  0.57089038403E+03  0.50400001928E-02 0. -1.
</event>
<event>
 5   0  0.9410666E-04  0.1193939E+04  0.7818609E-02  0.9118179E-01
        2   -1    0    0  501    0  0.00000000000E+00  0.00000000000E+00  0.17475755022E+04  0.17475755022E+04  0.25500000920E-02 0.  1.
       -2   -1    0    0    0  501  0.00000000000E+00  0.00000000000E+00 -0.20392387669E+03  0.20392387671E+03  0.25500000920E-02 0. -1.
    10030    2    1    2    0    0  0.00000000000E+00  0.00000000000E+00  0.15436516255E+04  0.19514993789E+04  0.11939386437E+04 0.  0.
        2    1    3    3  502    0 -0.28144463280E+03 -0.49496239345E+03  0.47864490143E+03  0.74384124243E+03  0.25500000920E-02 0. -1.
       -2    1    3    3    0  502  0.28144463280E+03  0.49496239345E+03  0.10650067241E+04  0.12076581365E+04  0.25500000920E-02 0.  1.
</event>
<event>
 5   0  0.5003507E-04  0.1199930E+04  0.7818609E-02  0.9112918E-01
        1   -1    0    0  501    0  0.00000000000E+00  0.00000000000E+00  0.55408318431E+03  0.55408318433E+03  0.50400001928E-02 0. -1.
       -1   -1    0    0    0  501  0.00000000000E+00  0.00000000000E+00 -0.64964648929E+03  0.64964648931E+03  0.50400001928E-02 0.  1.
    10030    2    1    2    0    0  0.00000000000E+00  0.00000000000E+00 -0.95563304981E+02  0.12037296736E+04  0.11999303238E+04 0.  0.
        3    1    3    3  502    0 -0.55111540661E+03 -0.21596269273E+03  0.50457524372E+02  0.59406569335E+03  0.10100000352E+00 0.  1.
       -3    1    3    3    0  502  0.55111540661E+03  0.21596269273E+03 -0.14602082935E+03  0.60966398029E+03  0.10100000352E+00 0. -1.
</event>
<event>
 5   0  0.5003507E-04  0.1252879E+04  0.7818609E-02  0.9067791E-01
        1   -1    0    0  501    0  0.00000000000E+00  0.00000000000E+00  0.26334877955E+04  0.26334877955E+04  0.50400001928E-02 0.  1.
       -1   -1    0    0    0  501  0.00000000000E+00  0.00000000000E+00 -0.14901387595E+03  0.14901387604E+03  0.50400001928E-02 0. -1.
    10030    2    1    2    0    0  0.00000000000E+00  0.00000000000E+00  0.24844739196E+04  0.27825016716E+04  0.12528786435E+04 0.  0.
        3    1    3    3  502    0  0.16496934362E+01  0.11658718797E+03 -0.12470204734E+03  0.17072171713E+03  0.10100000352E+00 0. -1.
       -3    1    3    3    0  502 -0.16496934362E+01 -0.11658718797E+03  0.26091759669E+04  0.26117799544E+04  0.10100000352E+00 0.  1.
</event>
<event>
 5   0  0.9410666E-04  0.1198645E+04  0.7818609E-02  0.9114043E-01
        2   -1    0    0  501    0  0.00000000000E+00  0.00000000000E+00  0.11025645516E+04  0.11025645516E+04  0.25500000920E-02 0. -1.
       -2   -1    0    0    0  501  0.00000000000E+00  0.00000000000E+00 -0.32577449305E+03  0.32577449306E+03  0.25500000920E-02 0.  1.
    10030    2    1    2    0    0  0.00000000000E+00  0.00000000000E+00  0.77679005852E+03  0.14283390446E+04  0.11986449147E+04 0.  0.
        2    1    3    3  502    0  0.11405584653E+03 -0.10391542794E+03  0.10784910236E+04  0.10894723679E+04  0.25500000920E-02 0. -1.
       -2    1    3    3    0  502 -0.11405584653E+03  0.10391542794E+03 -0.30170096509E+03  0.33886667679E+03  0.25500000920E-02 0.  1.
</event>
<event>
 5   0  0.5157631E-04  0.1204392E+04  0.7818609E-02  0.9109021E-01
        1   -1    0    0  501    0  0.00000000000E+00  0.00000000000E+00  0.94940933403E+03  0.94940933405E+03  0.50400001928E-02 0.  1.
       -1   -1    0    0    0  501  0.00000000000E+00  0.00000000000E+00 -0.38196362943E+03  0.38196362946E+03  0.50400001928E-02 0. -1.
    10030    2    1    2    0    0  0.00000000000E+00  0.00000000000E+00  0.56744570461E+03  0.13313729635E+04  0.12043916889E+04 0.  0.
        5    1    3    3  502    0 -0.19433220977E+03 -0.52996671986E+03  0.51877092999E+02  0.56687128582E+03  0.46999998093E+01 0.  1.
       -5    1    3    3    0  502  0.19433220977E+03  0.52996671986E+03  0.51556861161E+03  0.76450167769E+03  0.46999998093E+01 0. -1.
</event>
<event>
 5   0  0.9050363E-04  0.1201601E+04  0.7818609E-02  0.9111456E-01
       -2   -1    0    0    0  501  0.00000000000E+00  0.00000000000E+00  0.45074726508E+03  0.45074726509E+03  0.25500000920E-02 0.  1.
        2   -1    0    0  501    0  0.00000000000E+00  0.00000000000E+00 -0.80080688758E+03  0.80080688758E+03  0.25500000920E-02 0. -1.
    10030    2    1    2    0    0  0.00000000000E+00  0.00000000000E+00 -0.35005962249E+03  0.12515541527E+04  0.12016014555E+04 0.  0.
        3    1    3    3  502    0  0.67509133877E+02  0.31942690826E+03  0.35028850940E+03  0.47884557312E+03  0.10100000352E+00 0.  1.
       -3    1    3    3    0  502 -0.67509133877E+02 -0.31942690826E+03 -0.70034813189E+03  0.77270857956E+03  0.10100000352E+00 0. -1.
</event>
<event>
 5   0  0.9050363E-04  0.1186759E+04  0.7818609E-02  0.9124526E-01
        2   -1    0    0  501    0  0.00000000000E+00  0.00000000000E+00  0.53343752954E+03  0.53343752955E+03  0.25500000920E-02 0.  1.
       -2   -1    0    0    0  501  0.00000000000E+00  0.00000000000E+00 -0.66005764228E+03  0.66005764229E+03  0.25500000920E-02 0. -1.
    10030    2    1    2    0    0  0.00000000000E+00  0.00000000000E+00 -0.12662011274E+03  0.11934951718E+04  0.11867594837E+04 0.  0.
        3    1    3    3  502    0 -0.42618303326E+03  0.30697009535E+03  0.21436734915E+03  0.56728827580E+03  0.10100000352E+00 0.  1.
       -3    1    3    3    0  502  0.42618303326E+03 -0.30697009535E+03 -0.34098746188E+03  0.62620689604E+03  0.10100000352E+00 0. -1.
</event>
<event>
 5   0  0.9410666E-04  0.1203701E+04  0.7818609E-02  0.9109623E-01
       -2   -1    0    0    0  501  0.00000000000E+00  0.00000000000E+00  0.91203298759E+03  0.91203298760E+03  0.25500000920E-02 0.  1.
        2   -1    0    0  501    0  0.00000000000E+00  0.00000000000E+00 -0.39716101287E+03  0.39716101288E+03  0.25500000920E-02 0. -1.
    10030    2    1    2    0    0  0.00000000000E+00  0.00000000000E+00  0.51487197472E+03  0.13091940005E+04  0.12037008684E+04 0.  0.
        2    1    3    3  502    0 -0.41440846970E+03 -0.27880046828E+03 -0.10779086868E+03  0.51096276992E+03  0.25500000920E-02 0. -1.
       -2    1    3    3    0  502  0.41440846970E+03  0.27880046828E+03  0.62266284340E+03  0.79823123055E+03  0.25500000920E-02 0.  1.
</event>
<event>
 5   0  0.5447074E-04  0.1200022E+04  0.7818609E-02  0.9112837E-01
        1   -1    0    0  501    0  0.00000000000E+00  0.00000000000E+00  0.78647194368E+03  0.78647194369E+03  0.50400001928E-02 0. -1.
       -1   -1    0    0    0  501  0.00000000000E+00  0.00000000000E+00 -0.45775749131E+03  0.45775749134E+03  0.50400001928E-02 0.  1.
    10030    2    1    2    0    0  0.00000000000E+00  0.00000000000E+00  0.32871445237E+03  0.12442294350E+04  0.12000223730E+04 0.  0.
        4    1    3    3  502    0 -0.17131374946E+03 -0.22818603109E+03 -0.38290747006E+03  0.47753220736E+03  0.12699999809E+01 0.  1.
       -4    1    3    3    0  502  0.17131374946E+03  0.22818603109E+03  0.71162192242E+03  0.76669722767E+03  0.12699999809E+01 0. -1.
</event>
<event>
 5   0  0.9298693E-04  0.1189961E+04  0.7818609E-02  0.9121689E-01
        2   -1    0    0  501    0  0.00000000000E+00  0.00000000000E+00  0.98515617559E+03  0.98515617559E+03  0.25500000920E-02 0.  1.
       -2   -1    0    0    0  501  0.00000000000E+00  0.00000000000E+00 -0.35933571766E+03  0.35933571767E+03  0.25500000920E-02 0. -1.
    10030    2    1    2    0    0  0.00000000000E+00  0.00000000000E+00  0.62582045792E+03  0.13444918933E+04  0.11899610101E+04 0.  0.
        1    1    3    3  502    0 -0.62249793100E+02 -0.21958068328E+03 -0.30790875401E+03  0.38327341942E+03  0.50400001928E-02 0. -1.
       -1    1    3    3    0  502  0.62249793100E+02  0.21958068328E+03  0.93372921194E+03  0.96121847384E+03  0.50400001928E-02 0.  1.
</event>
<event>
 5   0  0.9410666E-04  0.1198996E+04  0.7818609E-02  0.9113736E-01
       -2   -1    0    0    0  501  0.00000000000E+00  0.00000000000E+00  0.51005273140E+03  0.51005273141E+03  0.25500000920E-02 0. -1.
        2   -1    0    0  501    0  0.00000000000E+00  0.00000000000E+00 -0.70462905967E+03  0.70462905967E+03  0.25500000920E-02 0.  1.
    10030    2    1    2    0    0  0.00000000000E+00  0.00000000000E+00 -0.19457632827E+03  0.12146817911E+04  0.11989962077E+04 0.  0.
        2    1    3    3  502    0 -0.15590718340E+03 -0.52703571918E+03  0.14526894397E+03  0.56848638085E+03  0.25500000920E-02 0. -1.
       -2    1    3    3    0  502  0.15590718340E+03  0.52703571918E+03 -0.33984527224E+03  0.64619541023E+03  0.25500000920E-02 0.  1.
</event>
<event>
 5   0  0.9298693E-04  0.1198981E+04  0.7818609E-02  0.9113749E-01
       -2   -1    0    0    0  501  0.00000000000E+00  0.00000000000E+00  0.37950185923E+03  0.37950185924E+03  0.25500000920E-02 0. -1.
        2   -1    0    0  501    0  0.00000000000E+00  0.00000000000E+00 -0.94700139649E+03  0.94700139650E+03  0.25500000920E-02 0.  1.
    10030    2    1    2    0    0  0.00000000000E+00  0.00000000000E+00 -0.56749953726E+03  0.13265032557E+04  0.11989808850E+04 0.  0.
        1    1    3    3  502    0 -0.29344083411E+03 -0.40322486200E+03 -0.65183820453E+03  0.82072581132E+03  0.50400001928E-02 0.  1.
       -1    1    3    3    0  502  0.29344083411E+03  0.40322486200E+03  0.84338667266E+02  0.50577744441E+03  0.50400001928E-02 0. -1.
</event>
<event>
 5   0  0.9050363E-04  0.1232648E+04  0.7818609E-02  0.9084751E-01
        2   -1    0    0  501    0  0.00000000000E+00  0.00000000000E+00  0.14072044532E+04  0.14072044532E+04  0.25500000920E-02 0.  1.
       -2   -1    0    0    0  501  0.00000000000E+00  0.00000000000E+00 -0.26993593069E+03  0.26993593070E+03  0.25500000920E-02 0. -1.
    10030    2    1    2    0    0  0.00000000000E+00  0.00000000000E+00  0.11372685225E+04  0.16771403839E+04  0.12326476281E+04 0.  0.
        3    1    3    3  502    0 -0.47030098074E+03 -0.38246127298E+03  0.72011613561E+03  0.94129001736E+03  0.10100000352E+00 0. -1.
       -3    1    3    3    0  502  0.47030098074E+03  0.38246127298E+03  0.41715238685E+03  0.73585036650E+03  0.10100000352E+00 0.  1.
</event>
<event>
 5   0  0.5052959E-04  0.1213906E+04  0.7818609E-02  0.9100771E-01
       -1   -1    0    0    0  501  0.00000000000E+00  0.00000000000E+00  0.27603044532E+03  0.27603044537E+03  0.50400001928E-02 0.  1.
        1   -1    0    0  501    0  0.00000000000E+00  0.00000000000E+00 -0.13346053176E+04  0.13346053176E+04  0.50400001928E-02 0. -1.
    10030    2    1    2    0    0  0.00000000000E+00  0.00000000000E+00 -0.10585748723E+04  0.16106357630E+04  0.12139055980E+04 0.  0.
        2    1    3    3  502    0  0.10154611034E+03  0.29552410723E+03  0.16110038147E+03  0.35156712502E+03  0.25500000920E-02 0.  1.
       -2    1    3    3    0  502 -0.10154611034E+03 -0.29552410723E+03 -0.12196752538E+04  0.12590686380E+04  0.25500000920E-02 0. -1.
</event>
<event>
 5   0  0.9050363E-04  0.1203631E+04  0.7818609E-02  0.9109685E-01
        2   -1    0    0  501    0  0.00000000000E+00  0.00000000000E+00  0.10230366113E+04  0.10230366113E+04  0.25500000920E-02 0. -1.
       -2   -1    0    0    0  501  0.00000000000E+00  0.00000000000E+00 -0.35402611812E+03  0.35402611813E+03  0.25500000920E-02 0.  1.
    10030    2    1    2    0    0  0.00000000000E+00  0.00000000000E+00  0.66901049321E+03  0.13770627295E+04  0.12036306414E+04 0.  0.
        3    1    3    3  502    0  0.80846581229E+02  0.56366587975E+03  0.11169734353E+03  0.58028587820E+03  0.10100000352E+00 0. -1.
       -3    1    3    3    0  502 -0.80846581229E+02 -0.56366587975E+03  0.55731314968E+03  0.79677685125E+03  0.10100000352E+00 0.  1.
</event>
<event>
 5   0  0.9070772E-04  0.1200609E+04  0.7818609E-02  0.9112324E-01
       -2   -1    0    0    0  501  0.00000000000E+00  0.00000000000E+00  0.75663036541E+03  0.75663036541E+03  0.25500000920E-02 0. -1.
        2   -1    0    0  501    0  0.00000000000E+00  0.00000000000E+00 -0.47627681375E+03  0.47627681375E+03  0.25500000920E-02 0.  1.
    10030    2    1    2    0    0  0.00000000000E+00  0.00000000000E+00  0.28035355166E+03  0.12329071792E+04  0.12006090115E+04 0.  0.
        4    1    3    3  502    0  0.33690525990E+03 -0.47935199249E+03  0.27438458894E+03  0.64697140771E+03  0.12699999809E+01 0. -1.
       -4    1    3    3    0  502 -0.33690525990E+03  0.47935199249E+03  0.59689627263E+01  0.58593577145E+03  0.12699999809E+01 0.  1.
</event>
<event>
 5   0  0.5001586E-04  0.1201531E+04  0.7818609E-02  0.9111518E-01
       -1   -1    0    0    0  501  0.00000000000E+00  0.00000000000E+00  0.34520181321E+03  0.34520181324E+03  0.50400001928E-02 0.  1.
        1   -1    0    0  501    0  0.00000000000E+00  0.00000000000E+00 -0.10455302033E+04  0.10455302033E+04  0.50400001928E-02 0. -1.
    10030    2    1    2    0    0  0.00000000000E+00  0.00000000000E+00 -0.70032839009E+03  0.13907320166E+04  0.12015305605E+04 0.  0.
        1    1    3    3  502    0 -0.57336780740E+03  0.53355258150E+02 -0.54836330153E+03  0.79517277156E+03  0.50400001928E-02 0.  1.
       -1    1    3    3    0  502  0.57336780740E+03 -0.53355258150E+02 -0.15196508856E+03  0.59555924500E+03  0.50400001928E-02 0. -1.
</event>
<event>
 5   0  0.5052959E-04  0.1199601E+04  0.7818609E-02  0.9113206E-01
        1   -1    0    0  501    0  0.00000000000E+00  0.00000000000E+00  0.11354333277E+04  0.11354333277E+04  0.50400001928E-02 0.  1.
       -1   -1    0    0    0  501  0.00000000000E+00  0.00000000000E+00 -0.31684876019E+03  0.31684876023E+03  0.50400001928E-02 0. -1.
    10030    2    1    2    0    0  0.00000000000E+00  0.00000000000E+00  0.81858456748E+03  0.14522820879E+04  0.11996010040E+04 0.  0.
        2    1    3    3  502    0 -0.42371239001E+03  0.42339649155E+03  0.44687792526E+03  0.74732634009E+03  0.25500000920E-02 0. -1.
       -2    1    3    3    0  502  0.42371239001E+03 -0.42339649155E+03  0.37170664223E+03  0.70495574782E+03  0.25500000920E-02 0.  1.
</event>
<event>
 5   0  0.5157631E-04  0.1204078E+04  0.7818609E-02  0.9109295E-01
        1   -1    0    0  501    0  0.00000000000E+00  0.00000000000E+00  0.67326489393E+03  0.67326489395E+03  0.50400001928E-02 0. -1.
       -1   -1    0    0    0  501  0.00000000000E+00  0.00000000000E+00 -0.53834789840E+03  0.53834789842E+03  0.50400001928E-02 0.  1.
    10030    2    1    2    0    0  0.00000000000E+00  0.00000000000E+00  0.13491699553E+03  0.12116127924E+04  0.12040776399E+04 0.  0.
        5    1    3    3  502    0 -0.81734535934E+02 -0.29597154520E+03  0.58853011482E+03  0.66382940277E+03  0.46999998093E+01 0. -1.
       -5    1    3    3    0  502  0.81734535934E+02  0.29597154520E+03 -0.45361311929E+03  0.54778338960E+03  0.46999998093E+01 0.  1.
</event>
<event>
 5   0  0.3453625E-04  0.1197116E+04  0.7818609E-02  0.9115385E-01
        3   -1    0    0  501    0  0.00000000000E+00  0.00000000000E+00  0.11217206535E+04  0.11217206580E+04  0.10100000352E+00 0.  1.
       -3   -1    0    0    0  501  0.00000000000E+00  0.00000000000E+00 -0.31939480440E+03  0.31939482036E+03  0.10100000352E+00 0. -1.
    10030    2    1    2    0    0  0.00000000000E+00  0.00000000000E+00  0.80232584906E+03  0.14411154784E+04  0.11971161405E+04 0.  0.
        4    1    3    3  502    0  0.57499144582E+03 -0.11793477437E+03  0.54230503872E+03  0.79913712321E+03  0.12699999809E+01 0. -1.
       -4    1    3    3    0  502 -0.57499144582E+03  0.11793477437E+03  0.26002081034E+03  0.64197835515E+03  0.12699999809E+01 0.  1.
</event>
<event>
 5   0  0.5003507E-04  0.1205690E+04  0.7818609E-02  0.9107890E-01
       -1   -1    0    0    0  501  0.00000000000E+00  0.00000000000E+00  0.28660786003E+03  0.28660786007E+03  0.50400001928E-02 0.  1.
        1   -1    0    0  501    0  0.00000000000E+00  0.00000000000E+00 -0.12680126574E+04  0.12680126574E+04  0.50400001928E-02 0. -1.
    10030    2    1    2    0    0  0.00000000000E+00  0.00000000000E+00 -0.98140479736E+03  0.15546205175E+04  0.12056904980E+04 0.  0.
        3    1    3    3  502    0 -0.20713677701E+03 -0.22210806360E+02  0.23872057518E+03  0.31683826714E+03  0.10100000352E+00 0.  1.
       -3    1    3    3    0  502  0.20713677701E+03  0.22210806360E+02 -0.12201253725E+04  0.12377822503E+04  0.10100000352E+00 0. -1.
</event>
<event>
 5   0  0.9070772E-04  0.1198139E+04  0.7818609E-02  0.9114487E-01
       -2   -1    0    0    0  501  0.00000000000E+00  0.00000000000E+00  0.29974034068E+03  0.29974034069E+03  0.25500000920E-02 0. -1.
        2   -1    0    0  501    0  0.00000000000E+00  0.00000000000E+00 -0.11973178773E+04  0.11973178773E+04  0.25500000920E-02 0.  1.
    10030    2    1    2    0    0  0.00000000000E+00  0.00000000000E+00 -0.89757753663E+03  0.14970582180E+04  0.11981393382E+04 0.  0.
        4    1    3    3  502    0 -0.11051962149E+03  0.43310210386E+02  0.28489728542E+03  0.30863965590E+03  0.12699999809E+01 0. -1.
       -4    1    3    3    0  502  0.11051962149E+03 -0.43310210386E+02 -0.11824748220E+04  0.11884185621E+04  0.12699999809E+01 0.  1.
</event>
<event>
 5   0  0.5001586E-04  0.1199710E+04  0.7818609E-02  0.9113111E-01
        1   -1    0    0  501    0  0.00000000000E+00  0.00000000000E+00  0.55788303510E+03  0.55788303512E+03  0.50400001928E-02 0. -1.
       -1   -1    0    0    0  501  0.00000000000E+00  0.00000000000E+00 -0.64498453609E+03  0.64498453611E+03  0.50400001928E-02 0.  1.
    10030    2    1    2    0    0  0.00000000000E+00  0.00000000000E+00 -0.87101500989E+02  0.12028675712E+04  0.11997098493E+04 0.  0.
        1    1    3    3  502    0  0.40733548758E+03 -0.44003660939E+03 -0.60071788760E+02  0.60263009954E+03  0.50400001928E-02 0.  1.
       -1    1    3    3    0  502 -0.40733548758E+03  0.44003660939E+03 -0.27029712229E+02  0.60023747168E+03  0.50400001928E-02 0. -1.
</event>
<event>
 5   0  0.9145224E-04  0.1156247E+04  0.7818609E-02  0.9152040E-01
       -2   -1    0    0    0  501  0.00000000000E+00  0.00000000000E+00  0.16065110362E+03  0.16065110364E+03  0.25500000920E-02 0. -1.
        2   -1    0    0  501    0  0.00000000000E+00  0.00000000000E+00 -0.20804517639E+04  0.20804517639E+04  0.25500000920E-02 0.  1.
    10030    2    1    2    0    0  0.00000000000E+00  0.00000000000E+00 -0.19198006602E+04  0.22411028675E+04  0.11562471568E+04 0.  0.
        5    1    3    3  502    0  0.12460849825E+03 -0.41299262139E+03 -0.17058508941E+04  0.17595566334E+04  0.46999998093E+01 0.  1.
       -5    1    3    3    0  502 -0.12460849825E+03  0.41299262139E+03 -0.21394976614E+03  0.48154623411E+03  0.46999998093E+01 0. -1.
</event>
<event>
 5   0  0.9145224E-04  0.1202058E+04  0.7818609E-02  0.9111057E-01
       -2   -1    0    0    0  501  0.00000000000E+00  0.00000000000E+00  0.62516791548E+03  0.62516791548E+03  0.25500000920E-02 0.  1.
        2   -1    0    0  501    0  0.00000000000E+00  0.00000000000E+00 -0.57782177215E+03  0.57782177215E+03  0.25500000920E-02 0. -1.
    10030    2    1    2    0    0  0.00000000000E+00  0.00000000000E+00  0.47346143331E+02  0.12029896876E+04  0.12020576239E+04 0.  0.
        5    1    3    3  502    0  0.26008612080E+03 -0.23689306508E+03  0.51133976577E+03  0.62068797360E+03  0.46999998093E+01 0.  1.
       -5    1    3    3    0  502 -0.26008612080E+03  0.23689306508E+03 -0.46399362244E+03  0.58230171404E+03  0.46999998093E+01 0. -1.
</event>
<event>
 5   0  0.9145224E-04  0.1198010E+04  0.7818609E-02  0.9114600E-01
       -2   -1    0    0    0  501  0.00000000000E+00  0.00000000000E+00  0.38336686308E+03  0.38336686309E+03  0.25500000920E-02 0. -1.
        2   -1    0    0  501    0  0.00000000000E+00  0.00000000000E+00 -0.93593642059E+03  0.93593642059E+03  0.25500000920E-02 0.  1.
    10030    2    1    2    0    0  0.00000000000E+00  0.00000000000E+00 -0.55256955751E+03  0.13193032837E+04  0.11980100327E+04 0.  0.
        5    1    3    3  502    0  0.34192129518E+03 -0.22130342143E+03 -0.75995548831E+03  0.86222955798E+03  0.46999998093E+01 0.  1.
       -5    1    3    3    0  502 -0.34192129518E+03  0.22130342143E+03  0.20738593080E+03  0.45707372570E+03  0.46999998093E+01 0. -1.
</event>
<event>
 5   0  0.9410666E-04  0.1198463E+04  0.7818609E-02  0.9114203E-01
        2   -1    0    0  501    0  0.00000000000E+00  0.00000000000E+00  0.48660673437E+03  0.48660673437E+03  0.25500000920E-02 0.  1.
       -2   -1    0    0    0  501  0.00000000000E+00  0.00000000000E+00 -0.73792344355E+03  0.73792344355E+03  0.25500000920E-02 0. -1.
    10030    2    1    2    0    0  0.00000000000E+00  0.00000000000E+00 -0.25131670918E+03  0.12245301779E+04  0.11984632111E+04 0.  0.
        2    1    3    3  502    0 -0.14889119685E+03  0.57415275380E+03 -0.21270850755E+03  0.63013084545E+03  0.25500000920E-02 0. -1.
       -2    1    3    3    0  502  0.14889119685E+03 -0.57415275380E+03 -0.38608201629E+02  0.59439933247E+03  0.25500000920E-02 0.  1.
</event>
<event>
 5   0  0.5447074E-04  0.1196778E+04  0.7818609E-02  0.9115681E-01
       -1   -1    0    0    0  501  0.00000000000E+00  0.00000000000E+00  0.96984245266E+03  0.96984245268E+03  0.50400001928E-02 0.  1.
        1   -1    0    0  501    0  0.00000000000E+00  0.00000000000E+00 -0.36920374037E+03  0.36920374041E+03  0.50400001928E-02 0. -1.
    10030    2    1    2    0    0  0.00000000000E+00  0.00000000000E+00  0.60063871229E+03  0.13390461931E+04  0.11967781100E+04 0.  0.
        4    1    3    3  502    0  0.18489780774E+03 -0.55697719330E+03  0.43107500265E+03  0.72817447358E+03  0.12699999809E+01 0.  1.
       -4    1    3    3    0  502 -0.18489780774E+03  0.55697719330E+03  0.16956370965E+03  0.61087171951E+03  0.12699999809E+01 0. -1.
</event>
<event>
 5   0  0.9298693E-04  0.1188094E+04  0.7818609E-02  0.9123342E-01
       -2   -1    0    0    0  501  0.00000000000E+00  0.00000000000E+00  0.19016565845E+03  0.19016565847E+03  0.25500000920E-02 0.  1.
        2   -1    0    0  501    0  0.00000000000E+00  0.00000000000E+00 -0.18557082313E+04  0.18557082313E+04  0.25500000920E-02 0. -1.
    10030    2    1    2    0    0  0.00000000000E+00  0.00000000000E+00 -0.16655425729E+04  0.20458738898E+04  0.11880942348E+04 0.  0.
        1    1    3    3  502    0  0.12248473205E+03 -0.40164288098E+03 -0.10918644471E+03  0.43386771390E+03  0.50400001928E-02 0.  1.
       -1    1    3    3    0  502 -0.12248473205E+03  0.40164288098E+03 -0.15563561281E+04  0.16120061759E+04  0.50400001928E-02 0. -1.
</event>
<event>
 5   0  0.9145224E-04  0.1203706E+04  0.7818609E-02  0.9109619E-01
        2   -1    0    0  501    0  0.00000000000E+00  0.00000000000E+00  0.15116875749E+04  0.15116875749E+04  0.25500000920E-02 0.  1.
       -2   -1    0    0    0  501  0.00000000000E+00  0.00000000000E+00 -0.23961758655E+03  0.23961758656E+03  0.25500000920E-02 0. -1.
    10030    2    1    2    0    0  0.00000000000E+00  0.00000000000E+00  0.12720699883E+04  0.17513051614E+04  0.12037058250E+04 0.  0.
        5    1    3    3  502    0 -0.33827084745E+03  0.53720147832E+02  0.13560285392E+04  0.13986237914E+04  0.46999998093E+01 0.  1.
       -5    1    3    3    0  502  0.33827084745E+03 -0.53720147832E+02 -0.83958550931E+02  0.35268137006E+03  0.46999998093E+01 0. -1.
</event>
<event>
 5   0  0.9070772E-04  0.1198053E+04  0.7818609E-02  0.9114563E-01
       -2   -1    0    0    0  501  0.00000000000E+00  0.00000000000E+00  0.12580239582E+03  0.12580239584E+03  0.25500000920E-02 0. -1.
        2   -1    0    0  501    0  0.00000000000E+00  0.00000000000E+00 -0.28523517041E+04  0.28523517041E+04  0.25500000920E-02 0.  1.
    10030    2    1    2    0    0  0.00000000000E+00  0.00000000000E+00 -0.27265493083E+04  0.29781540999E+04  0.11980528838E+04 0.  0.
        4    1    3    3  502    0  0.16434748575E+03 -0.27484700302E+03 -0.10484595404E+03  0.33696477282E+03  0.12699999809E+01 0. -1.
       -4    1    3    3    0  502 -0.16434748575E+03  0.27484700302E+03 -0.26217033542E+04  0.26411893271E+04  0.12699999809E+01 0.  1.
</event>
<event>
 5   0  0.9145224E-04  0.1195488E+04  0.7818609E-02  0.9116815E-01
        2   -1    0    0  501    0  0.00000000000E+00  0.00000000000E+00  0.40125537150E+03  0.40125537151E+03  0.25500000920E-02 0. -1.
       -2   -1    0    0    0  501  0.00000000000E+00  0.00000000000E+00 -0.89045010457E+03  0.89045010458E+03  0.25500000920E-02 0.  1.
    10030    2    1    2    0    0  0.00000000000E+00  0.00000000000E+00 -0.48919473307E+03  0.12917054761E+04  0.11954879966E+04 0.  0.
        5    1    3    3  502    0 -0.56615311130E+03  0.13862350360E+03 -0.10154042175E+03  0.59167420802E+03  0.46999998093E+01 0. -1.
       -5    1    3    3    0  502  0.56615311130E+03 -0.13862350360E+03 -0.38765431131E+03  0.70003126806E+03  0.46999998093E+01 0.  1.
</event>
<event>
 5   0  0.9145224E-04  0.1212989E+04  0.7818609E-02  0.9101563E-01
        2   -1    0    0  501    0  0.00000000000E+00  0.00000000000E+00  0.59743371497E+03  0.59743371498E+03  0.25500000920E-02 0.  1.
       -2   -1    0    0    0  501  0.00000000000E+00  0.00000000000E+00 -0.61569225463E+03  0.61569225464E+03  0.25500000920E-02 0. -1.
    10030    2    1    2    0    0  0.00000000000E+00  0.00000000000E+00 -0.18258539664E+02  0.12131259696E+04  0.12129885588E+04 0.  0.
        5    1    3    3  502    0 -0.52164594906E+03  0.99184515416E+02 -0.30218320854E+03  0.61097368666E+03  0.46999998093E+01 0.  1.
       -5    1    3    3    0  502  0.52164594906E+03 -0.99184515416E+02  0.28392466888E+03  0.60215228295E+03  0.46999998093E+01 0. -1.
</event>
<event>
 5   0  0.5447074E-04  0.1203638E+04  0.7818609E-02  0.9109678E-01
       -1   -1    0    0    0  501  0.00000000000E+00  0.00000000000E+00  0.31496507696E+03  0.31496507700E+03  0.50400001928E-02 0. -1.
        1   -1    0    0  501    0  0.00000000000E+00  0.00000000000E+00 -0.11499250951E+04  0.11499250951E+04  0.50400001928E-02 0.  1.
    10030    2    1    2    0    0  0.00000000000E+00  0.00000000000E+00 -0.83496001813E+03  0.14648901721E+04  0.12036382282E+04 0.  0.
        4    1    3    3  502    0 -0.46588062651E+03 -0.34900179021E+03 -0.23155516506E+03  0.62647140006E+03  0.12699999809E+01 0. -1.
       -4    1    3    3    0  502  0.46588062651E+03  0.34900179021E+03 -0.60340485307E+03  0.83841877206E+03  0.12699999809E+01 0.  1.
</event>
<event>
 5   0  0.5003507E-04  0.1203357E+04  0.7818609E-02  0.9109923E-01
        1   -1    0    0  501    0  0.00000000000E+00  0.00000000000E+00  0.43334458964E+03  0.43334458967E+03  0.50400001928E-02 0.  1.
       -1   -1    0    0    0  501  0.00000000000E+00  0.00000000000E+00 -0.83540195445E+03  0.83540195447E+03  0.50400001928E-02 0. -1.
    10030    2    1    2    0    0  0.00000000000E+00  0.00000000000E+00 -0.40205736481E+03  0.12687465441E+04  0.12033568335E+04 0.  0.
        3    1    3    3  502    0 -0.26409054296E+03 -0.49826534145E+03  0.20143336007E+02  0.56428532637E+03  0.10100000352E+00 0. -1.
       -3    1    3    3    0  502  0.26409054296E+03  0.49826534145E+03 -0.42220070082E+03  0.70446121777E+03  0.10100000352E+00 0.  1.
</event>
<event>
 5   0  0.5157631E-04  0.1205048E+04  0.7818609E-02  0.9108449E-01
        1   -1    0    0  501    0  0.00000000000E+00  0.00000000000E+00  0.50545186295E+03  0.50545186298E+03  0.50400001928E-02 0. -1.
       -1   -1    0    0    0  501  0.00000000000E+00  0.00000000000E+00 -0.71823897709E+03  0.71823897711E+03  0.50400001928E-02 0.  1.
    10030    2    1    2    0    0  0.00000000000E+00  0.00000000000E+00 -0.21278711414E+03  0.12236908401E+04  0.12050480970E+04 0.  0.
        5    1    3    3  502    0 -0.31913939047E+03  0.39914020936E+03 -0.43047073275E+03  0.66819907140E+03  0.46999998093E+01 0.  1.
       -5    1    3    3    0  502  0.31913939047E+03 -0.39914020936E+03  0.21768361861E+03  0.55549176869E+03  0.46999998093E+01 0. -1.
</event>
<event>
 5   0  0.9298693E-04  0.1198050E+04  0.7818609E-02  0.9114565E-01
       -2   -1    0    0    0  501  0.00000000000E+00  0.00000000000E+00  0.33362985412E+03  0.33362985413E+03  0.25500000920E-02 0.  1.
        2   -1    0    0  501    0  0.00000000000E+00  0.00000000000E+00 -0.10755362011E+04  0.10755362011E+04  0.25500000920E-02 0. -1.
    10030    2    1    2    0    0  0.00000000000E+00  0.00000000000E+00 -0.74190634699E+03  0.14091660552E+04  0.11980500589E+04 0.  0.
        1    1    3    3  502    0  0.53819391890E+03  0.19036581913E+03 -0.58442638255E+03  0.81697370586E+03  0.50400001928E-02 0.  1.
       -1    1    3    3    0  502 -0.53819391890E+03 -0.19036581913E+03 -0.15747996445E+03  0.59219234938E+03  0.50400001928E-02 0. -1.
</event>
<event>
 5   0  0.9145224E-04  0.1201914E+04  0.7818609E-02  0.9111183E-01
       -2   -1    0    0    0  501  0.00000000000E+00  0.00000000000E+00  0.70075032420E+03  0.70075032421E+03  0.25500000920E-02 0. -1.
        2   -1    0    0  501    0  0.00000000000E+00  0.00000000000E+00 -0.51537515254E+03  0.51537515255E+03  0.25500000920E-02 0.  1.
    10030    2    1    2    0    0  0.00000000000E+00  0.00000000000E+00  0.18537517166E+03  0.12161254768E+04  0.12019139823E+04 0.  0.
        5    1    3    3  502    0  0.37797851958E+03 -0.20749286224E+03  0.51621321112E+03  0.67262115524E+03  0.46999998093E+01 0. -1.
       -5    1    3    3    0  502 -0.37797851958E+03  0.20749286224E+03 -0.33083803946E+03  0.54350432151E+03  0.46999998093E+01 0.  1.
</event>
<event>
 5   0  0.5157631E-04  0.1210097E+04  0.7818609E-02  0.9104064E-01
       -1   -1    0    0    0  501  0.00000000000E+00  0.00000000000E+00  0.10086926111E+04  0.10086926111E+04  0.50400001928E-02 0.  1.
        1   -1    0    0  501    0  0.00000000000E+00  0.00000000000E+00 -0.36292885829E+03  0.36292885832E+03  0.50400001928E-02 0. -1.
    10030    2    1    2    0    0  0.00000000000E+00  0.00000000000E+00  0.64576375278E+03  0.13716214694E+04  0.12100969510E+04 0.  0.
        5    1    3    3  502    0  0.26042306096E+03 -0.47258113771E+02  0.93957042158E+03  0.97614966430E+03  0.46999998093E+01 0.  1.
       -5    1    3    3    0  502 -0.26042306096E+03  0.47258113771E+02 -0.29380666881E+03  0.39547180510E+03  0.46999998093E+01 0. -1.
</event>
<event>
 5   0  0.5001586E-04  0.1200941E+04  0.7818609E-02  0.9112033E-01
       -1   -1    0    0    0  501  0.00000000000E+00  0.00000000000E+00  0.31520566519E+03  0.31520566523E+03  0.50400001928E-02 0. -1.
        1   -1    0    0  501    0  0.00000000000E+00  0.00000000000E+00 -0.11439043130E+04  0.11439043131E+04  0.50400001928E-02 0.  1.
    10030    2    1    2    0    0  0.00000000000E+00  0.00000000000E+00 -0.82869864785E+03  0.14591099783E+04  0.12009414972E+04 0.  0.
        1    1    3    3  502    0 -0.32743514416E+03 -0.24658455361E+03 -0.94748164192E+03  0.10323464426E+04  0.50400001928E-02 0.  1.
       -1    1    3    3    0  502  0.32743514416E+03  0.24658455361E+03  0.11878299406E+03  0.42676353571E+03  0.50400001928E-02 0. -1.
</event>
<event>
 5   0  0.9070772E-04  0.1200093E+04  0.7818609E-02  0.9112775E-01
        2   -1    0    0  501    0  0.00000000000E+00  0.00000000000E+00  0.21352391248E+04  0.21352391248E+04  0.25500000920E-02 0.  1.
       -2   -1    0    0    0  501  0.00000000000E+00  0.00000000000E+00 -0.16862565729E+03  0.16862565731E+03  0.25500000920E-02 0. -1.
    10030    2    1    2    0    0  0.00000000000E+00  0.00000000000E+00  0.19666134675E+04  0.23038647821E+04  0.12000934979E+04 0.  0.
        4    1    3    3  502    0  0.43162172863E+03  0.36522449856E+03  0.59759593775E+03  0.82268388138E+03  0.12699999809E+01 0. -1.
       -4    1    3    3    0  502 -0.43162172863E+03 -0.36522449856E+03  0.13690175298E+04  0.14811809008E+04  0.12699999809E+01 0.  1.
</event>
<event>
 5   0  0.5001586E-04  0.1205394E+04  0.7818609E-02  0.9108148E-01
        1   -1    0    0  501    0  0.00000000000E+00  0.00000000000E+00  0.92559940017E+03  0.92559940019E+03  0.50400001928E-02 0. -1.
       -1   -1    0    0    0  501  0.00000000000E+00  0.00000000000E+00 -0.39244137880E+03  0.39244137883E+03  0.50400001928E-02 0.  1.
    10030    2    1    2    0    0  0.00000000000E+00  0.00000000000E+00  0.53315802137E+03  0.13180407790E+04  0.12053937197E+04 0.  0.
        1    1    3    3  502    0  0.16779515849E+03 -0.16617572420E+03  0.87290204007E+03  0.90428289717E+03  0.50400001928E-02 0. -1.
       -1    1    3    3    0  502 -0.16779515849E+03  0.16617572420E+03 -0.33974401870E+03  0.41375788185E+03  0.50400001928E-02 0.  1.
</event>
<event>
 5   0  0.9070772E-04  0.1198950E+04  0.7818609E-02  0.9113776E-01
       -2   -1    0    0    0  501  0.00000000000E+00  0.00000000000E+00  0.42291672865E+03  0.42291672865E+03  0.25500000920E-02 0. -1.
        2   -1    0    0  501    0  0.00000000000E+00  0.00000000000E+00 -0.84974196625E+03  0.84974196625E+03  0.25500000920E-02 0.  1.
    10030    2    1    2    0    0  0.00000000000E+00  0.00000000000E+00 -0.42682523760E+03  0.12726586949E+04  0.11989496946E+04 0.  0.
        4    1    3    3  502    0  0.44597942813E+03  0.12661370768E+02 -0.63841562081E+03  0.77886717636E+03  0.12699999809E+01 0.  1.
       -4    1    3    3    0  502 -0.44597942813E+03 -0.12661370768E+02  0.21159038321E+03  0.49379151854E+03  0.12699999809E+01 0. -1.
</event>
<event>
 5   0  0.9298693E-04  0.1204282E+04  0.7818609E-02  0.9109117E-01
       -2   -1    0    0    0  501  0.00000000000E+00  0.00000000000E+00  0.62311735578E+03  0.62311735578E+03  0.25500000920E-02 0. -1.
        2   -1    0    0  501    0  0.00000000000E+00  0.00000000000E+00 -0.58187095146E+03  0.58187095147E+03  0.25500000920E-02 0.  1.
    10030    2    1    2    0    0  0.00000000000E+00  0.00000000000E+00  0.41246404316E+02  0.12049883072E+04  0.12042821740E+04 0.  0.
        1    1    3    3  502    0  0.52504815186E+02  0.57711541803E+03  0.18428844622E+03  0.60809636801E+03  0.50400001928E-02 0. -1.
       -1    1    3    3    0  502 -0.52504815186E+02 -0.57711541803E+03 -0.14304204190E+03  0.59689193924E+03  0.50400001928E-02 0.  1.
</event>
<event>
 5   0  0.3453625E-04  0.1202590E+04  0.7818609E-02  0.9110593E-01
        4   -1    0    0  501    0  0.00000000000E+00  0.00000000000E+00  0.41283360745E+03  0.41283556090E+03  0.12699999809E+01 0. -1.
       -4   -1    0    0    0  501  0.00000000000E+00  0.00000000000E+00 -0.87578571329E+03  0.87578663412E+03  0.12699999809E+01 0.  1.
    10030    2    1    2    0    0  0.00000000000E+00  0.00000000000E+00 -0.46295210584E+03  0.12886221950E+04  0.12025899173E+04 0.  0.
        3    1    3    3  502    0 -0.32397766129E+02  0.56152541665E+03 -0.45927632852E+03  0.72615092435E+03  0.10100000352E+00 0. -1.
       -3    1    3    3    0  502  0.32397766129E+02 -0.56152541665E+03 -0.36757773149E+01  0.56247127067E+03  0.10100000352E+00 0.  1.
</event>
<event>
 5   0  0.5001586E-04  0.1180881E+04  0.7818609E-02  0.9129758E-01
        1   -1    0    0  501    0  0.00000000000E+00  0.00000000000E+00  0.12861565871E+04  0.12861565871E+04  0.50400001928E-02 0. -1.
       -1   -1    0    0    0  501  0.00000000000E+00  0.00000000000E+00 -0.27105579210E+03  0.27105579214E+03  0.50400001928E-02 0.  1.
    10030    2    1    2    0    0  0.00000000000E+00  0.00000000000E+00  0.10151007950E+04  0.15572123792E+04  0.11808813531E+04 0.  0.
        1    1    3    3  502    0 -0.35162143644E+03 -0.10569706771E+03 -0.10220589105E+03  0.38112405969E+03  0.50400001928E-02 0.  1.
       -1    1    3    3    0  502  0.35162143644E+03  0.10569706771E+03  0.11173066860E+04  0.11760883195E+04  0.50400001928E-02 0. -1.
</event>
<event>
 5   0  0.3453625E-04  0.1199926E+04  0.7818609E-02  0.9112921E-01
        3   -1    0    0  501    0  0.00000000000E+00  0.00000000000E+00  0.83404732990E+03  0.83404733601E+03  0.10100000352E+00 0.  1.
       -3   -1    0    0    0  501  0.00000000000E+00  0.00000000000E+00 -0.43157684857E+03  0.43157686039E+03  0.10100000352E+00 0. -1.
    10030    2    1    2    0    0  0.00000000000E+00  0.00000000000E+00  0.40247048133E+03  0.12656241964E+04  0.11999258803E+04 0.  0.
        2    1    3    3  502    0  0.42225891563E+02 -0.55148000147E+03  0.44643345740E+03  0.71078551605E+03  0.25500000920E-02 0.  1.
       -2    1    3    3    0  502 -0.42225891563E+02  0.55148000147E+03 -0.43962976072E+02  0.55483868035E+03  0.25500000920E-02 0. -1.
</event>
<event>
 5   0  0.9070772E-04  0.1191025E+04  0.7818609E-02  0.9120749E-01
       -2   -1    0    0    0  501  0.00000000000E+00  0.00000000000E+00  0.19782437489E+04  0.19782437489E+04  0.25500000920E-02 0. -1.
        2   -1    0    0  501    0  0.00000000000E+00  0.00000000000E+00 -0.17926769118E+03  0.17926769120E+03  0.25500000920E-02 0.  1.
    10030    2    1    2    0    0  0.00000000000E+00  0.00000000000E+00  0.17989760577E+04  0.21575114401E+04  0.11910250870E+04 0.  0.
        4    1    3    3  502    0 -0.12109610867E+03 -0.51728469575E+03  0.13868583119E+04  0.14851347798E+04  0.12699999809E+01 0. -1.
       -4    1    3    3    0  502  0.12109610867E+03  0.51728469575E+03  0.41211774581E+03  0.67237666029E+03  0.12699999809E+01 0.  1.
</event>
<event>
 5   0  0.5447074E-04  0.1195043E+04  0.7818609E-02  0.9117207E-01
        1   -1    0    0  501    0  0.00000000000E+00  0.00000000000E+00  0.55077476339E+03  0.55077476342E+03  0.50400001928E-02 0. -1.
       -1   -1    0    0    0  501  0.00000000000E+00  0.00000000000E+00 -0.64823569343E+03  0.64823569345E+03  0.50400001928E-02 0.  1.
    10030    2    1    2    0    0  0.00000000000E+00  0.00000000000E+00 -0.97460930041E+02  0.11990104569E+04  0.11950428623E+04 0.  0.
        4    1    3    3  502    0 -0.35437803108E+02 -0.49115067485E+03  0.29083878968E+03  0.57190352139E+03  0.12699999809E+01 0.  1.
       -4    1    3    3    0  502  0.35437803108E+02  0.49115067485E+03 -0.38829971972E+03  0.62710693548E+03  0.12699999809E+01 0. -1.
</event>
<event>
 5   0  0.9070772E-04  0.1200739E+04  0.7818609E-02  0.9112210E-01
       -2   -1    0    0    0  501  0.00000000000E+00  0.00000000000E+00  0.52257940263E+03  0.52257940263E+03  0.25500000920E-02 0.  1.
        2   -1    0    0  501    0  0.00000000000E+00  0.00000000000E+00 -0.68973870393E+03  0.68973870394E+03  0.25500000920E-02 0. -1.
    10030    2    1    2    0    0  0.00000000000E+00  0.00000000000E+00 -0.16715930130E+03  0.12123181066E+04  0.12007385059E+04 0.  0.
        4    1    3    3  502    0  0.48689326484E+03  0.22148006993E+03 -0.35883148376E+03  0.64411188419E+03  0.12699999809E+01 0. -1.
       -4    1    3    3    0  502 -0.48689326484E+03 -0.22148006993E+03  0.19167218246E+03  0.56820622238E+03  0.12699999809E+01 0.  1.
</event>
<event>
 5   0  0.5052959E-04  0.1199428E+04  0.7818609E-02  0.9113357E-01
        1   -1    0    0  501    0  0.00000000000E+00  0.00000000000E+00  0.88681044045E+03  0.88681044047E+03  0.50400001928E-02 0. -1.
       -1   -1    0    0    0  501  0.00000000000E+00  0.00000000000E+00 -0.40556248734E+03  0.40556248737E+03  0.50400001928E-02 0.  1.
    10030    2    1    2    0    0  0.00000000000E+00  0.00000000000E+00  0.48124795311E+03  0.12923729278E+04  0.11994282772E+04 0.  0.
        2    1    3    3  502    0 -0.50651917813E+03 -0.52338166808E+02  0.58196259573E+03  0.77329258651E+03  0.25500000920E-02 0. -1.
       -2    1    3    3    0  502  0.50651917813E+03  0.52338166808E+02 -0.10071464261E+03  0.51908034133E+03  0.25500000920E-02 0.  1.
</event>
<event>
 5   0  0.9298693E-04  0.1200651E+04  0.7818609E-02  0.9112287E-01
        2   -1    0    0  501    0  0.00000000000E+00  0.00000000000E+00  0.16955296062E+04  0.16955296062E+04  0.25500000920E-02 0. -1.
       -2   -1    0    0    0  501  0.00000000000E+00  0.00000000000E+00 -0.21255331857E+03  0.21255331858E+03  0.25500000920E-02 0.  1.
    10030    2    1    2    0    0  0.00000000000E+00  0.00000000000E+00  0.14829762877E+04  0.19080829248E+04  0.12006505646E+04 0.  0.
        1    1    3    3  502    0 -0.22874884891E+02  0.55435338238E+03  0.11058276591E+04  0.12372088525E+04  0.50400001928E-02 0. -1.
       -1    1    3    3    0  502  0.22874884891E+02 -0.55435338238E+03  0.37714862853E+03  0.67087407235E+03  0.50400001928E-02 0.  1.
</event>
<event>
 5   0  0.5003507E-04  0.1203816E+04  0.7818609E-02  0.9109523E-01
       -1   -1    0    0    0  501  0.00000000000E+00  0.00000000000E+00  0.39944822340E+03  0.39944822343E+03  0.50400001928E-02 0. -1.
        1   -1    0    0  501    0  0.00000000000E+00  0.00000000000E+00 -0.90698419725E+03  0.90698419726E+03  0.50400001928E-02 0.  1.
    10030    2    1    2    0    0  0.00000000000E+00  0.00000000000E+00 -0.50753597385E+03  0.13064324207E+04  0.12038159764E+04 0.  0.
        3    1    3    3  502    0 -0.87802465032E+02  0.45640504558E+02  0.39055993821E+03  0.40290123363E+03  0.10100000352E+00 0. -1.
       -3    1    3    3    0  502  0.87802465032E+02 -0.45640504558E+02 -0.89809591207E+03  0.90353118706E+03  0.10100000352E+00 0.  1.
</event>
<event>
 5   0  0.5001586E-04  0.1203427E+04  0.7818609E-02  0.9109862E-01
        1   -1    0    0  501    0  0.00000000000E+00  0.00000000000E+00  0.70588584820E+03  0.70588584821E+03  0.50400001928E-02 0. -1.
       -1   -1    0    0    0  501  0.00000000000E+00  0.00000000000E+00 -0.51291451402E+03  0.51291451404E+03  0.50400001928E-02 0.  1.
    10030    2    1    2    0    0  0.00000000000E+00  0.00000000000E+00  0.19297133418E+03  0.12188003623E+04  0.12034269347E+04 0.  0.
        1    1    3    3  502    0  0.47143649170E+03 -0.37295485680E+03  0.12349858931E+03  0.61367710769E+03  0.50400001928E-02 0.  1.
       -1    1    3    3    0  502 -0.47143649170E+03  0.37295485680E+03  0.69472744872E+02  0.60512325457E+03  0.50400001928E-02 0. -1.
</event>
<event>
 5   0  0.5003507E-04  0.1200455E+04  0.7818609E-02  0.9112459E-01
        1   -1    0    0  501    0  0.00000000000E+00  0.00000000000E+00  0.61508652864E+03  0.61508652866E+03  0.50400001928E-02 0.  1.
       -1   -1    0    0    0  501  0.00000000000E+00  0.00000000000E+00 -0.58572723411E+03  0.58572723413E+03  0.50400001928E-02 0. -1.
    10030    2    1    2    0    0  0.00000000000E+00  0.00000000000E+00  0.29359294532E+02  0.12008137628E+04  0.12004547991E+04 0.  0.
        3    1    3    3  502    0 -0.20121345620E+03 -0.56485646102E+03 -0.12221599313E+02  0.59974915940E+03  0.10100000352E+00 0.  1.
       -3    1    3    3    0  502  0.20121345620E+03  0.56485646102E+03  0.41580893845E+02  0.60106460339E+03  0.10100000352E+00 0. -1.
</event>
<event>
 5   0  0.9050363E-04  0.1205588E+04  0.7818609E-02  0.9107980E-01
       -2   -1    0    0    0  501  0.00000000000E+00  0.00000000000E+00  0.31767338407E+03  0.31767338408E+03  0.25500000920E-02 0. -1.
        2   -1    0    0  501    0  0.00000000000E+00  0.00000000000E+00 -0.11438179222E+04  0.11438179222E+04  0.25500000920E-02 0.  1.
    10030    2    1    2    0    0  0.00000000000E+00  0.00000000000E+00 -0.82614453817E+03  0.14614913063E+04  0.12055878402E+04 0.  0.
        3    1    3    3  502    0  0.42918991275E+03  0.83829991977E+02  0.89877328189E+02  0.44644080580E+03  0.10100000352E+00 0. -1.
       -3    1    3    3    0  502 -0.42918991275E+03 -0.83829991977E+02 -0.91602186636E+03  0.10150505005E+04  0.10100000352E+00 0.  1.
</event>
<event>
 5   0  0.9410666E-04  0.1198010E+04  0.7818609E-02  0.9114600E-01
       -2   -1    0    0    0  501  0.00000000000E+00  0.00000000000E+00  0.46811179618E+03  0.46811179618E+03  0.25500000920E-02 0. -1.
        2   -1    0    0  501    0  0.00000000000E+00  0.00000000000E+00 -0.76649907559E+03  0.76649907560E+03  0.25500000920E-02 0.  1.
    10030    2    1    2    0    0  0.00000000000E+00  0.00000000000E+00 -0.29838727942E+03  0.12346108718E+04  0.11980104491E+04 0.  0.
        2    1    3    3  502    0  0.47120525654E+02 -0.36486167089E+03 -0.63635426936E+03  0.73504499111E+03  0.25500000920E-02 0.  1.
       -2    1    3    3    0  502 -0.47120525654E+02  0.36486167089E+03  0.33796698994E+03  0.49956588066E+03  0.25500000920E-02 0. -1.
</event>
<event>
 5   0  0.5447074E-04  0.1197241E+04  0.7818609E-02  0.9115275E-01
       -1   -1    0    0    0  501  0.00000000000E+00  0.00000000000E+00  0.23013673595E+03  0.23013673600E+03  0.50400001928E-02 0.  1.
        1   -1    0    0  501    0  0.00000000000E+00  0.00000000000E+00 -0.15571015362E+04  0.15571015362E+04  0.50400001928E-02 0. -1.
    10030    2    1    2    0    0  0.00000000000E+00  0.00000000000E+00 -0.13269648003E+04  0.17872382722E+04  0.11972406026E+04 0.  0.
        4    1    3    3  502    0  0.53236648124E+03 -0.17268590519E+03 -0.34642477446E+03  0.65821442514E+03  0.12699999809E+01 0.  1.
       -4    1    3    3    0  502 -0.53236648124E+03  0.17268590519E+03 -0.98054002581E+03  0.11290238471E+04  0.12699999809E+01 0. -1.
</event>
<event>
 5   0  0.9298693E-04  0.1219534E+04  0.7818609E-02  0.9095928E-01
        2   -1    0    0  501    0  0.00000000000E+00  0.00000000000E+00  0.34759374776E+03  0.34759374777E+03  0.25500000920E-02 0.  1.
       -2   -1    0    0    0  501  0.00000000000E+00  0.00000000000E+00 -0.10696850076E+04  0.10696850076E+04  0.25500000920E-02 0. -1.
    10030    2    1    2    0    0  0.00000000000E+00  0.00000000000E+00 -0.72209125979E+03  0.14172787553E+04  0.12195340433E+04 0.  0.
        1    1    3    3  502    0  0.30192688191E+03  0.10717844806E+03 -0.96398504469E+03  0.10158317913E+04  0.50400001928E-02 0. -1.
       -1    1    3    3    0  502 -0.30192688191E+03 -0.10717844806E+03  0.24189378490E+03  0.40144696405E+03  0.50400001928E-02 0.  1.
</event>
<event>
 5   0  0.3453625E-04  0.1193853E+04  0.7818609E-02  0.9118254E-01
       -4   -1    0    0    0  501  0.00000000000E+00  0.00000000000E+00  0.37859745945E+03  0.37859958955E+03  0.12699999809E+01 0. -1.
        4   -1    0    0  501    0  0.00000000000E+00  0.00000000000E+00 -0.94115607508E+03  0.94115693195E+03  0.12699999809E+01 0.  1.
    10030    2    1    2    0    0  0.00000000000E+00  0.00000000000E+00 -0.56255861563E+03  0.13197565215E+04  0.11938530395E+04 0.  0.
        2    1    3    3  502    0  0.30567189997E+03 -0.24875445880E+03 -0.77689920278E+03  0.87114089704E+03  0.25500000920E-02 0.  1.
       -2    1    3    3    0  502 -0.30567189997E+03  0.24875445880E+03  0.21434058715E+03  0.44861562446E+03  0.25500000920E-02 0. -1.
</event>
<event>
 5   0  0.5447074E-04  0.1197396E+04  0.7818609E-02  0.9115139E-01
        1   -1    0    0  501    0  0.00000000000E+00  0.00000000000E+00  0.83819523866E+03  0.83819523868E+03  0.50400001928E-02 0. -1.
       -1   -1    0    0    0  501  0.00000000000E+00  0.00000000000E+00 -0.42763235834E+03  0.42763235837E+03  0.50400001928E-02 0.  1.
    10030    2    1    2    0    0  0.00000000000E+00  0.00000000000E+00  0.41056288032E+03  0.12658275971E+04  0.11973961862E+04 0.  0.
        4    1    3    3  502    0  0.12766394868E+03 -0.26578315618E+03 -0.34555266942E+03  0.45425436723E+03  0.12699999809E+01 0.  1.
       -4    1    3    3    0  502 -0.12766394868E+03  0.26578315618E+03  0.75611554974E+03  0.81157322982E+03  0.12699999809E+01 0. -1.
</event>
<event>
 5   0  0.9298693E-04  0.1252801E+04  0.7818609E-02  0.9067855E-01
        2   -1    0    0  501    0  0.00000000000E+00  0.00000000000E+00  0.13669365423E+04  0.13669365423E+04  0.25500000920E-02 0. -1.
       -2   -1    0    0    0  501  0.00000000000E+00  0.00000000000E+00 -0.28704883809E+03  0.28704883810E+03  0.25500000920E-02 0.  1.
    10030    2    1    2    0    0  0.00000000000E+00  0.00000000000E+00  0.10798877042E+04  0.16539853804E+04  0.12528009359E+04 0.  0.
        1    1    3    3  502    0  0.23756956776E+02  0.58736914821E+03  0.82558572544E+03  0.10134883815E+04  0.50400001928E-02 0.  1.
       -1    1    3    3    0  502 -0.23756956776E+02 -0.58736914821E+03  0.25430197880E+03  0.64049699899E+03  0.50400001928E-02 0. -1.
</event>
<event>
 5   0  0.5001586E-04  0.1197718E+04  0.7818609E-02  0.9114857E-01
        1   -1    0    0  501    0  0.00000000000E+00  0.00000000000E+00  0.48645404052E+03  0.48645404055E+03  0.50400001928E-02 0.  1.
       -1   -1    0    0    0  501  0.00000000000E+00  0.00000000000E+00 -0.73723704270E+03  0.73723704271E+03  0.50400001928E-02 0. -1.
    10030    2    1    2    0    0  0.00000000000E+00  0.00000000000E+00 -0.25078300218E+03  0.12236910833E+04  0.11977177268E+04 0.  0.
        1    1    3    3  502    0  0.16820908053E+03  0.12869775109E+03  0.44691168483E+03  0.49455784289E+03  0.50400001928E-02 0.  1.
       -1    1    3    3    0  502 -0.16820908053E+03 -0.12869775109E+03 -0.69769468700E+03  0.72913324037E+03  0.50400001928E-02 0. -1.
</event>
<event>
 5   0  0.9298693E-04  0.1210867E+04  0.7818609E-02  0.9103398E-01
       -2   -1    0    0    0  501  0.00000000000E+00  0.00000000000E+00  0.54391172732E+03  0.54391172733E+03  0.25500000920E-02 0. -1.
        2   -1    0    0  501    0  0.00000000000E+00  0.00000000000E+00 -0.67391361747E+03  0.67391361747E+03  0.25500000920E-02 0.  1.
    10030    2    1    2    0    0  0.00000000000E+00  0.00000000000E+00 -0.13000189014E+03  0.12178253448E+04  0.12108666644E+04 0.  0.
        1    1    3    3  502    0  0.42106838570E+03 -0.26556782265E+03 -0.41154556675E+03  0.64590603605E+03  0.50400001928E-02 0. -1.
       -1    1    3    3    0  502 -0.42106838570E+03  0.26556782265E+03  0.28154367661E+03  0.57191930875E+03  0.50400001928E-02 0.  1.
</event>
<event>
 5   0  0.5447074E-04  0.1197668E+04  0.7818609E-02  0.9114900E-01
       -1   -1    0    0    0  501  0.00000000000E+00  0.00000000000E+00  0.26357888848E+03  0.26357888853E+03  0.50400001928E-02 0. -1.
        1   -1    0    0  501    0  0.00000000000E+00  0.00000000000E+00 -0.13605122473E+04  0.13605122474E+04  0.50400001928E-02 0.  1.
    10030    2    1    2    0    0  0.00000000000E+00  0.00000000000E+00 -0.10969333589E+04  0.16240911359E+04  0.11976682445E+04 0.  0.
        4    1    3    3  502    0 -0.19495371514E+02 -0.51557330642E+03 -0.96067912686E+03  0.10904594910E+04  0.12699999809E+01 0.  1.
       -4    1    3    3    0  502  0.19495371514E+02  0.51557330642E+03 -0.13625423200E+03  0.53363164490E+03  0.12699999809E+01 0. -1.
</event>
<event>
 5   0  0.9410666E-04  0.1198335E+04  0.7818609E-02  0.9114316E-01
       -2   -1    0    0    0  501  0.00000000000E+00  0.00000000000E+00  0.34539375892E+03  0.34539375893E+03  0.25500000920E-02 0.  1.
        2   -1    0    0  501    0  0.00000000000E+00  0.00000000000E+00 -0.10393976082E+04  0.10393976082E+04  0.25500000920E-02 0. -1.
    10030    2    1    2    0    0  0.00000000000E+00  0.00000000000E+00 -0.69400384932E+03  0.13847913672E+04  0.11983345892E+04 0.  0.
        2    1    3    3  502    0  0.25286660362E+03 -0.30249528569E+03  0.17437135710E+03  0.43110356908E+03  0.25500000920E-02 0.  1.
       -2    1    3    3    0  502 -0.25286660362E+03  0.30249528569E+03 -0.86837520642E+03  0.95368779809E+03  0.25500000920E-02 0. -1.
</event>
<event>
 5   0  0.9410666E-04  0.1200384E+04  0.7818609E-02  0.9112520E-01
       -2   -1    0    0    0  501  0.00000000000E+00  0.00000000000E+00  0.61207471979E+03  0.61207471979E+03  0.25500000920E-02 0. -1.
        2   -1    0    0  501    0  0.00000000000E+00  0.00000000000E+00 -0.58854015103E+03  0.58854015103E+03  0.25500000920E-02 0.  1.
    10030    2    1    2    0    0  0.00000000000E+00  0.00000000000E+00  0.23534568758E+02  0.12006148708E+04  0.12003841852E+04 0.  0.
        2    1    3    3  502    0  0.50263243337E+03 -0.32289699690E+03 -0.45938814619E+02  0.59917627488E+03  0.25500000920E-02 0. -1.
       -2    1    3    3    0  502 -0.50263243337E+03  0.32289699690E+03  0.69473383377E+02  0.60143859594E+03  0.25500000920E-02 0.  1.
</event>
<event>
 5   0  0.5447074E-04  0.1200456E+04  0.7818609E-02  0.9112458E-01
        1   -1    0    0  501    0  0.00000000000E+00  0.00000000000E+00  0.12127239829E+04  0.12127239829E+04  0.50400001928E-02 0.  1.
       -1   -1    0    0    0  501  0.00000000000E+00  0.00000000000E+00 -0.29707802145E+03  0.29707802150E+03  0.50400001928E-02 0. -1.
    10030    2    1    2    0    0  0.00000000000E+00  0.00000000000E+00  0.91564596141E+03  0.15098020044E+04  0.12004559824E+04 0.  0.
        4    1    3    3  502    0  0.23062359316E+03  0.51770139978E+03  0.70641989110E+03  0.90566696776E+03  0.12699999809E+01 0.  1.
       -4    1    3    3    0  502 -0.23062359316E+03 -0.51770139978E+03  0.20922607031E+03  0.60413503661E+03  0.12699999809E+01 0. -1.
</event>
<event>
 5   0  0.5157631E-04  0.1198298E+04  0.7818609E-02  0.9114347E-01
       -1   -1    0    0    0  501  0.00000000000E+00  0.00000000000E+00  0.19584159296E+03  0.19584159302E+03  0.50400001928E-02 0.  1.
        1   -1    0    0  501    0  0.00000000000E+00  0.00000000000E+00 -0.18330108804E+04  0.18330108804E+04  0.50400001928E-02 0. -1.
    10030    2    1    2    0    0  0.00000000000E+00  0.00000000000E+00 -0.16371692874E+04  0.20288524734E+04  0.11982984116E+04 0.  0.
        5    1    3    3  502    0  0.27356037430E+03 -0.51792977639E+03 -0.10318840623E+04  0.11865468131E+04  0.46999998093E+01 0.  1.
       -5    1    3    3    0  502 -0.27356037430E+03  0.51792977639E+03 -0.60528522515E+03  0.84230566033E+03  0.46999998093E+01 0. -1.
</event>
<event>
 5   0  0.5052959E-04  0.1199942E+04  0.7818609E-02  0.9112907E-01
       -1   -1    0    0    0  501  0.00000000000E+00  0.00000000000E+00  0.78781089491E+03  0.78781089493E+03  0.50400001928E-02 0. -1.
        1   -1    0    0  501    0  0.00000000000E+00  0.00000000000E+00 -0.45691813649E+03  0.45691813652E+03  0.50400001928E-02 0.  1.
    10030    2    1    2    0    0  0.00000000000E+00  0.00000000000E+00  0.33089275842E+03  0.12447290314E+04  0.11999418086E+04 0.  0.
        2    1    3    3  502    0  0.52923121797E+03 -0.13434540580E+03 -0.92492477786E+02  0.55379529484E+03  0.25500000920E-02 0.  1.
       -2    1    3    3    0  502 -0.52923121797E+03  0.13434540580E+03  0.42338523620E+03  0.69093373660E+03  0.25500000920E-02 0. -1.
</event>
<event>
 5   0  0.9050363E-04  0.1197288E+04  0.7818609E-02  0.9115233E-01
       -2   -1    0    0    0  501  0.00000000000E+00  0.00000000000E+00  0.11081880892E+04  0.11081880893E+04  0.25500000920E-02 0.  1.
        2   -1    0    0  501    0  0.00000000000E+00  0.00000000000E+00 -0.32338802832E+03  0.32338802833E+03  0.25500000920E-02 0. -1.
    10030    2    1    2    0    0  0.00000000000E+00  0.00000000000E+00  0.78480006092E+03  0.14315761176E+04  0.11972882046E+04 0.  0.
        3    1    3    3  502    0 -0.36251108002E+03 -0.15491120242E+03  0.93107173545E+03  0.10110916628E+04  0.10100000352E+00 0.  1.
       -3    1    3    3    0  502  0.36251108002E+03  0.15491120242E+03 -0.14627167453E+03  0.42048445481E+03  0.10100000352E+00 0. -1.
</event>
<event>
 5   0  0.5052959E-04  0.1208221E+04  0.7818609E-02  0.9105691E-01
        1   -1    0    0  501    0  0.00000000000E+00  0.00000000000E+00  0.19701785332E+04  0.19701785332E+04  0.50400001928E-02 0. -1.
       -1   -1    0    0    0  501  0.00000000000E+00  0.00000000000E+00 -0.18523682700E+03  0.18523682707E+03  0.50400001928E-02 0.  1.
    10030    2    1    2    0    0  0.00000000000E+00  0.00000000000E+00  0.17849417062E+04  0.21554153603E+04  0.12082212052E+04 0.  0.
        2    1    3    3  502    0 -0.44861500577E+02 -0.32922789772E+03  0.17925230724E+04  0.18230585640E+04  0.25500000920E-02 0. -1.
       -2    1    3    3    0  502  0.44861500577E+02  0.32922789772E+03 -0.75813662108E+01  0.33235679622E+03  0.25500000920E-02 0.  1.
</event>
<event>
 5   0  0.5001586E-04  0.1198810E+04  0.7818609E-02  0.9113899E-01
        1   -1    0    0  501    0  0.00000000000E+00  0.00000000000E+00  0.68241507017E+03  0.68241507019E+03  0.50400001928E-02 0. -1.
       -1   -1    0    0    0  501  0.00000000000E+00  0.00000000000E+00 -0.52649257845E+03  0.52649257848E+03  0.50400001928E-02 0.  1.
    10030    2    1    2    0    0  0.00000000000E+00  0.00000000000E+00  0.15592249172E+03  0.12089076487E+04  0.11988101933E+04 0.  0.
        1    1    3    3  502    0 -0.11516938205E+03  0.36748603765E+03 -0.38522935205E+03  0.54471242701E+03  0.50400001928E-02 0.  1.
       -1    1    3    3    0  502  0.11516938205E+03 -0.36748603765E+03  0.54115184378E+03  0.66419522166E+03  0.50400001928E-02 0. -1.
</event>
<event>
 5   0  0.9298693E-04  0.1195634E+04  0.7818609E-02  0.9116687E-01
       -2   -1    0    0    0  501  0.00000000000E+00  0.00000000000E+00  0.54446656611E+03  0.54446656612E+03  0.25500000920E-02 0. -1.
        2   -1    0    0  501    0  0.00000000000E+00  0.00000000000E+00 -0.65639498899E+03  0.65639498900E+03  0.25500000920E-02 0.  1.
    10030    2    1    2    0    0  0.00000000000E+00  0.00000000000E+00 -0.11192842288E+03  0.12008615551E+04  0.11956339334E+04 0.  0.
        1    1    3    3  502    0  0.28784066509E+03 -0.31460876730E+03  0.36485961598E+03  0.56120714923E+03  0.50400001928E-02 0. -1.
       -1    1    3    3    0  502 -0.28784066509E+03  0.31460876730E+03 -0.47678803886E+03  0.63965440589E+03  0.50400001928E-02 0.  1.
</event>
<event>
 5   0  0.5157631E-04  0.1199869E+04  0.7818609E-02  0.9112971E-01
       -1   -1    0    0    0  501  0.00000000000E+00  0.00000000000E+00  0.14065924661E+03  0.14065924670E+03  0.50400001928E-02 0. -1.
        1   -1    0    0  501    0  0.00000000000E+00  0.00000000000E+00 -0.25588175617E+04  0.25588175617E+04  0.50400001928E-02 0.  1.
    10030    2    1    2    0    0  0.00000000000E+00  0.00000000000E+00 -0.24181583151E+04  0.26994768084E+04  0.11998689104E+04 0.  0.
        5    1    3    3  502    0 -0.37716909172E+03  0.13296238442E+03 -0.22151334697E+04  0.22509495547E+04  0.46999998093E+01 0.  1.
       -5    1    3    3    0  502  0.37716909172E+03 -0.13296238442E+03 -0.20302484537E+03  0.44852725364E+03  0.46999998093E+01 0. -1.
</event>
<event>
 5   0  0.5157631E-04  0.1188552E+04  0.7818609E-02  0.9122936E-01
        1   -1    0    0  501    0  0.00000000000E+00  0.00000000000E+00  0.88521428248E+03  0.88521428249E+03  0.50400001928E-02 0. -1.
       -1   -1    0    0    0  501  0.00000000000E+00  0.00000000000E+00 -0.39895903290E+03  0.39895903294E+03  0.50400001928E-02 0.  1.
    10030    2    1    2    0    0  0.00000000000E+00  0.00000000000E+00  0.48625524958E+03  0.12841733154E+04  0.11885524542E+04 0.  0.
        5    1    3    3  502    0  0.48595070553E+03  0.33387483015E+03  0.16284161580E+03  0.61168617137E+03  0.46999998093E+01 0. -1.
       -5    1    3    3    0  502 -0.48595070553E+03 -0.33387483015E+03  0.32341363377E+03  0.67248714406E+03  0.46999998093E+01 0.  1.
</event>
<event>
 5   0  0.9410666E-04  0.1198544E+04  0.7818609E-02  0.9114132E-01
       -2   -1    0    0    0  501  0.00000000000E+00  0.00000000000E+00  0.49025000090E+03  0.49025000090E+03  0.25500000920E-02 0.  1.
        2   -1    0    0  501    0  0.00000000000E+00  0.00000000000E+00 -0.73253797548E+03  0.73253797548E+03  0.25500000920E-02 0. -1.
    10030    2    1    2    0    0  0.00000000000E+00  0.00000000000E+00 -0.24228797458E+03  0.12227879764E+04  0.11985436882E+04 0.  0.
        2    1    3    3  502    0  0.41262425670E+03  0.13210889517E+03 -0.54354209375E+03  0.69508959500E+03  0.25500000920E-02 0. -1.
       -2    1    3    3    0  502 -0.41262425670E+03 -0.13210889517E+03  0.30125411916E+03  0.52769838139E+03  0.25500000920E-02 0.  1.
</event>
<event>
 5   0  0.9410666E-04  0.1198073E+04  0.7818609E-02  0.9114544E-01
        2   -1    0    0  501    0  0.00000000000E+00  0.00000000000E+00  0.38586230008E+03  0.38586230009E+03  0.25500000920E-02 0.  1.
       -2   -1    0    0    0  501  0.00000000000E+00  0.00000000000E+00 -0.92998208551E+03  0.92998208552E+03  0.25500000920E-02 0. -1.
    10030    2    1    2    0    0  0.00000000000E+00  0.00000000000E+00 -0.54411978543E+03  0.13158443856E+04  0.11980734978E+04 0.  0.
        2    1    3    3  502    0 -0.26826818388E+03 -0.51626477364E+03 -0.42872806530E+03  0.72270664101E+03  0.25500000920E-02 0. -1.
       -2    1    3    3    0  502  0.26826818388E+03  0.51626477364E+03 -0.11539172013E+03  0.59313774459E+03  0.25500000920E-02 0.  1.
</event>
<event>
 5   0  0.5003507E-04  0.1202115E+04  0.7818609E-02  0.9111007E-01
       -1   -1    0    0    0  501  0.00000000000E+00  0.00000000000E+00  0.45753837930E+03  0.45753837933E+03  0.50400001928E-02 0. -1.
        1   -1    0    0  501    0  0.00000000000E+00  0.00000000000E+00 -0.78959567973E+03  0.78959567975E+03  0.50400001928E-02 0.  1.
    10030    2    1    2    0    0  0.00000000000E+00  0.00000000000E+00 -0.33205730043E+03  0.12471340591E+04  0.12021153483E+04 0.  0.
        3    1    3    3  502    0 -0.19582090090E+03 -0.19877469362E+03 -0.71833109832E+03  0.77062103597E+03  0.10100000352E+00 0.  1.
       -3    1    3    3    0  502  0.19582090090E+03  0.19877469362E+03  0.38627379789E+03  0.47651302311E+03  0.10100000352E+00 0. -1.
</event>
<event>
 5   0  0.9145224E-04  0.1201348E+04  0.7818609E-02  0.9111677E-01
        2   -1    0    0  501    0  0.00000000000E+00  0.00000000000E+00  0.10097161665E+04  0.10097161665E+04  0.25500000920E-02 0.  1.
       -2   -1    0    0    0  501  0.00000000000E+00  0.00000000000E+00 -0.35733729478E+03  0.35733729479E+03  0.25500000920E-02 0. -1.
    10030    2    1    2    0    0  0.00000000000E+00  0.00000000000E+00  0.65237887169E+03  0.13670534613E+04  0.12013479819E+04 0.  0.
        5    1    3    3  502    0  0.98952180617E+02  0.47708098835E+03 -0.73530228218E+02  0.49277437835E+03  0.46999998093E+01 0. -1.
       -5    1    3    3    0  502 -0.98952180617E+02 -0.47708098835E+03  0.72590909991E+03  0.87427908292E+03  0.46999998093E+01 0.  1.
</event>
<event>
 5   0  0.5447074E-04  0.1211963E+04  0.7818609E-02  0.9102449E-01
       -1   -1    0    0    0  501  0.00000000000E+00  0.00000000000E+00  0.29903940571E+03  0.29903940575E+03  0.50400001928E-02 0. -1.
        1   -1    0    0  501    0  0.00000000000E+00  0.00000000000E+00 -0.12279781443E+04  0.12279781443E+04  0.50400001928E-02 0.  1.
    10030    2    1    2    0    0  0.00000000000E+00  0.00000000000E+00 -0.92893873857E+03  0.15270175500E+04  0.12119634558E+04 0.  0.
        4    1    3    3  502    0 -0.24436442099E+03 -0.90404453405E+02 -0.11537978483E+04  0.11828516488E+04  0.12699999809E+01 0.  1.
       -4    1    3    3    0  502  0.24436442099E+03  0.90404453405E+02  0.22485910973E+03  0.34416590123E+03  0.12699999809E+01 0. -1.
</event>
<event>
 5   0  0.9410666E-04  0.1197700E+04  0.7818609E-02  0.9114872E-01
        2   -1    0    0  501    0  0.00000000000E+00  0.00000000000E+00  0.89642442835E+03  0.89642442835E+03  0.25500000920E-02 0.  1.
       -2   -1    0    0    0  501  0.00000000000E+00  0.00000000000E+00 -0.40005748780E+03  0.40005748781E+03  0.25500000920E-02 0. -1.
    10030    2    1    2    0    0  0.00000000000E+00  0.00000000000E+00  0.49636694054E+03  0.12964819162E+04  0.11976999705E+04 0.  0.
        2    1    3    3  502    0  0.22979681228E+03 -0.27636116704E+03 -0.27032071679E+03  0.44972809509E+03  0.25500000920E-02 0. -1.
       -2    1    3    3    0  502 -0.22979681228E+03  0.27636116704E+03  0.76668765733E+03  0.84675382107E+03  0.25500000920E-02 0.  1.
</event>
<event>
 5   0  0.5157631E-04  0.1194749E+04  0.7818609E-02  0.9117465E-01
       -1   -1    0    0    0  501  0.00000000000E+00  0.00000000000E+00  0.54490740451E+03  0.54490740454E+03  0.50400001928E-02 0. -1.
        1   -1    0    0  501    0  0.00000000000E+00  0.00000000000E+00 -0.65489353937E+03  0.65489353939E+03  0.50400001928E-02 0.  1.
    10030    2    1    2    0    0  0.00000000000E+00  0.00000000000E+00 -0.10998613486E+03  0.11998009439E+04  0.11947490762E+04 0.  0.
        5    1    3    3  502    0 -0.49774783245E+03  0.24734478105E+03  0.16479741440E+03  0.57975220846E+03  0.46999998093E+01 0. -1.
       -5    1    3    3    0  502  0.49774783245E+03 -0.24734478105E+03 -0.27478354926E+03  0.62004873547E+03  0.46999998093E+01 0.  1.
</event>
<event>
 5   0  0.5157631E-04  0.1188913E+04  0.7818609E-02  0.9122617E-01
        1   -1    0    0  501    0  0.00000000000E+00  0.00000000000E+00  0.10969835799E+04  0.10969835799E+04  0.50400001928E-02 0. -1.
       -1   -1    0    0    0  501  0.00000000000E+00  0.00000000000E+00 -0.32213644836E+03  0.32213644840E+03  0.50400001928E-02 0.  1.
    10030    2    1    2    0    0  0.00000000000E+00  0.00000000000E+00  0.77484713154E+03  0.14191200283E+04  0.11889127712E+04 0.  0.
        5    1    3    3  502    0  0.45668717010E+03 -0.23413843027E+03  0.74545702723E+03  0.90504820054E+03  0.46999998093E+01 0. -1.
       -5    1    3    3    0  502 -0.45668717010E+03  0.23413843027E+03  0.29390104309E+02  0.51407182776E+03  0.46999998093E+01 0.  1.
</event>
<event>
 5   0  0.5052959E-04  0.1197264E+04  0.7818609E-02  0.9115255E-01
        1   -1    0    0  501    0  0.00000000000E+00  0.00000000000E+00  0.10444092331E+04  0.10444092331E+04  0.50400001928E-02 0.  1.
       -1   -1    0    0    0  501  0.00000000000E+00  0.00000000000E+00 -0.34312223250E+03  0.34312223253E+03  0.50400001928E-02 0. -1.
    10030    2    1    2    0    0  0.00000000000E+00  0.00000000000E+00  0.70128700056E+03  0.13875314656E+04  0.11972635929E+04 0.  0.
        2    1    3    3  502    0 -0.46832595984E+03  0.47137240158E+02  0.77930082132E+03  0.91041797774E+03  0.25500000920E-02 0.  1.
       -2    1    3    3    0  502  0.46832595984E+03 -0.47137240158E+02 -0.78013820762E+02  0.47711348786E+03  0.25500000920E-02 0. -1.
</event>
<event>
 5   0  0.5157631E-04  0.1199093E+04  0.7818609E-02  0.9113651E-01
       -1   -1    0    0    0  501  0.00000000000E+00  0.00000000000E+00  0.74735245244E+03  0.74735245246E+03  0.50400001928E-02 0.  1.
        1   -1    0    0  501    0  0.00000000000E+00  0.00000000000E+00 -0.48097233539E+03  0.48097233542E+03  0.50400001928E-02 0. -1.
    10030    2    1    2    0    0  0.00000000000E+00  0.00000000000E+00  0.26638011705E+03  0.12283247879E+04  0.11990927478E+04 0.  0.
        5    1    3    3  502    0  0.33500337818E+03  0.23449374207E+03  0.58230634738E+03  0.71155980118E+03  0.46999998093E+01 0.  1.
       -5    1    3    3    0  502 -0.33500337818E+03 -0.23449374207E+03 -0.31592623034E+03  0.51676498669E+03  0.46999998093E+01 0. -1.
</event>
<event>
 5   0  0.9410666E-04  0.1204616E+04  0.7818609E-02  0.9108825E-01
       -2   -1    0    0    0  501  0.00000000000E+00  0.00000000000E+00  0.71770896375E+03  0.71770896376E+03  0.25500000920E-02 0.  1.
        2   -1    0    0  501    0  0.00000000000E+00  0.00000000000E+00 -0.50546275043E+03  0.50546275043E+03  0.25500000920E-02 0. -1.
    10030    2    1    2    0    0  0.00000000000E+00  0.00000000000E+00  0.21224621332E+03  0.12231717142E+04  0.12046163652E+04 0.  0.
        2    1    3    3  502    0  0.12597272341E+03 -0.57359887377E+03  0.24193822326E+03  0.63515265796E+03  0.25500000920E-02 0.  1.
       -2    1    3    3    0  502 -0.12597272341E+03  0.57359887377E+03 -0.29692009938E+02  0.58801905623E+03  0.25500000920E-02 0. -1.
</event>
<event>
 5   0  0.9410666E-04  0.1186001E+04  0.7818609E-02  0.9125199E-01
       -2   -1    0    0    0  501  0.00000000000E+00  0.00000000000E+00  0.64366710691E+03  0.64366710691E+03  0.25500000920E-02 0.  1.
        2   -1    0    0  501    0  0.00000000000E+00  0.00000000000E+00 -0.54632197102E+03  0.54632197102E+03  0.25500000920E-02 0. -1.
    10030    2    1    2    0    0  0.00000000000E+00  0.00000000000E+00  0.97345135889E+02  0.11899890779E+04  0.11860008137E+04 0.  0.
        2    1    3    3  502    0  0.27897633227E+03  0.31746847557E+03  0.46604670938E+03  0.62913715697E+03  0.25500000920E-02 0.  1.
       -2    1    3    3    0  502 -0.27897633227E+03 -0.31746847557E+03 -0.36870157349E+03  0.56085192097E+03  0.25500000920E-02 0. -1.
</event>
<event>
 5   0  0.5447074E-04  0.1198558E+04  0.7818609E-02  0.9114120E-01
        1   -1    0    0  501    0  0.00000000000E+00  0.00000000000E+00  0.13022620566E+04  0.13022620566E+04  0.50400001928E-02 0.  1.
       -1   -1    0    0    0  501  0.00000000000E+00  0.00000000000E+00 -0.27577784617E+03  0.27577784622E+03  0.50400001928E-02 0. -1.
    10030    2    1    2    0    0  0.00000000000E+00  0.00000000000E+00  0.10264842104E+04  0.15780399028E+04  0.11985575083E+04 0.  0.
        4    1    3    3  502    0 -0.18928847673E+02 -0.58859536446E+03  0.36704076683E+03  0.69391882936E+03  0.12699999809E+01 0.  1.
       -4    1    3    3    0  502  0.18928847673E+02  0.58859536446E+03  0.65944344360E+03  0.88412107347E+03  0.12699999809E+01 0. -1.
</event>
<event>
 5   0  0.9070772E-04  0.1198412E+04  0.7818609E-02  0.9114248E-01
        2   -1    0    0  501    0  0.00000000000E+00  0.00000000000E+00  0.66765318434E+03  0.66765318434E+03  0.25500000920E-02 0.  1.
       -2   -1    0    0    0  501  0.00000000000E+00  0.00000000000E+00 -0.53777606692E+03  0.53777606693E+03  0.25500000920E-02 0. -1.
    10030    2    1    2    0    0  0.00000000000E+00  0.00000000000E+00  0.12987711741E+03  0.12054292513E+04  0.11984121220E+04 0.  0.
        4    1    3    3  502    0  0.46682339301E+03 -0.37331955124E+03  0.10707325067E+03  0.60725436310E+03  0.12699999809E+01 0.  1.
       -4    1    3    3    0  502 -0.46682339301E+03  0.37331955124E+03  0.22803866741E+02  0.59817488817E+03  0.12699999809E+01 0. -1.
</event>
<event>
 5   0  0.3453625E-04  0.1194389E+04  0.7818609E-02  0.9117782E-01
       -3   -1    0    0    0  501  0.00000000000E+00  0.00000000000E+00  0.61127801588E+03  0.61127802423E+03  0.10100000352E+00 0. -1.
        3   -1    0    0  501    0  0.00000000000E+00  0.00000000000E+00 -0.58343584220E+03  0.58343585094E+03  0.10100000352E+00 0.  1.
    10030    2    1    2    0    0  0.00000000000E+00  0.00000000000E+00  0.27842173687E+02  0.11947138752E+04  0.11943894076E+04 0.  0.
        4    1    3    3  502    0 -0.41503829470E+03 -0.21448633054E+03 -0.35817288430E+03  0.58868548479E+03  0.12699999809E+01 0.  1.
       -4    1    3    3    0  502  0.41503829470E+03  0.21448633054E+03  0.38601505798E+03  0.60602839038E+03  0.12699999809E+01 0. -1.
</event>
<event>
 5   0  0.5157631E-04  0.1201774E+04  0.7818609E-02  0.9111305E-01
        1   -1    0    0  501    0  0.00000000000E+00  0.00000000000E+00  0.15015518622E+04  0.15015518622E+04  0.50400001928E-02 0. -1.
       -1   -1    0    0    0  501  0.00000000000E+00  0.00000000000E+00 -0.24046154532E+03  0.24046154537E+03  0.50400001928E-02 0.  1.
    10030    2    1    2    0    0  0.00000000000E+00  0.00000000000E+00  0.12610903168E+04  0.17420134075E+04  0.12017744900E+04 0.  0.
        5    1    3    3  502    0  0.39653535536E+03 -0.11590733867E+03  0.12629951063E+04  0.13288542162E+04  0.46999998093E+01 0. -1.
       -5    1    3    3    0  502 -0.39653535536E+03  0.11590733867E+03 -0.19047894793E+01  0.41315919139E+03  0.46999998093E+01 0.  1.
</event>
<event>
 5   0  0.5003507E-04  0.1200471E+04  0.7818609E-02  0.9112444E-01
       -1   -1    0    0    0  501  0.00000000000E+00  0.00000000000E+00  0.25467164383E+03  0.25467164387E+03  0.50400001928E-02 0.  1.
        1   -1    0    0  501    0  0.00000000000E+00  0.00000000000E+00 -0.14146959635E+04  0.14146959636E+04  0.50400001928E-02 0. -1.
    10030    2    1    2    0    0  0.00000000000E+00  0.00000000000E+00 -0.11600243197E+04  0.16693676074E+04  0.12004714850E+04 0.  0.
        3    1    3    3  502    0 -0.41195370916E+03  0.25938760413E+03 -0.91727446736E+02  0.49538038148E+03  0.10100000352E+00 0.  1.
       -3    1    3    3    0  502  0.41195370916E+03 -0.25938760413E+03 -0.10682968730E+04  0.11739872260E+04  0.10100000352E+00 0. -1.
</event>
<event>
 5   0  0.9410666E-04  0.1229001E+04  0.7818609E-02  0.9087844E-01
        2   -1    0    0  501    0  0.00000000000E+00  0.00000000000E+00  0.18103710383E+04  0.18103710383E+04  0.25500000920E-02 0. -1.
       -2   -1    0    0    0  501  0.00000000000E+00  0.00000000000E+00 -0.20858192551E+03  0.20858192552E+03  0.25500000920E-02 0.  1.
    10030    2    1    2    0    0  0.00000000000E+00  0.00000000000E+00  0.16017891128E+04  0.20189529638E+04  0.12290006950E+04 0.  0.
        2    1    3    3  502    0 -0.35943954947E+03  0.41248078660E+03  0.12604960341E+04  0.13741133290E+04  0.25500000920E-02 0. -1.
       -2    1    3    3    0  502  0.35943954947E+03 -0.41248078660E+03  0.34129307872E+03  0.64483963481E+03  0.25500000920E-02 0.  1.
</event>
<event>
 5   0  0.5001586E-04  0.1197717E+04  0.7818609E-02  0.9114857E-01
       -1   -1    0    0    0  501  0.00000000000E+00  0.00000000000E+00  0.81593036185E+03  0.81593036187E+03  0.50400001928E-02 0.  1.
        1   -1    0    0  501    0  0.00000000000E+00  0.00000000000E+00 -0.43953723525E+03  0.43953723528E+03  0.50400001928E-02 0. -1.
    10030    2    1    2    0    0  0.00000000000E+00  0.00000000000E+00  0.37639312660E+03  0.12554675971E+04  0.11977174549E+04 0.  0.
        1    1    3    3  502    0  0.25152536504E+03  0.48946063268E+02 -0.37916966653E+03  0.45763562188E+03  0.50400001928E-02 0. -1.
       -1    1    3    3    0  502 -0.25152536504E+03 -0.48946063268E+02  0.75556279314E+03  0.79783197527E+03  0.50400001928E-02 0.  1.
</event>
<event>
 5   0  0.9410666E-04  0.1206428E+04  0.7818609E-02  0.9107248E-01
        2   -1    0    0  501    0  0.00000000000E+00  0.00000000000E+00  0.20917791334E+04  0.20917791334E+04  0.25500000920E-02 0. -1.
       -2   -1    0    0    0  501  0.00000000000E+00  0.00000000000E+00 -0.17395111655E+03  0.17395111657E+03  0.25500000920E-02 0.  1.
    10030    2    1    2    0    0  0.00000000000E+00  0.00000000000E+00  0.19178280169E+04  0.22657302500E+04  0.12064283085E+04 0.  0.
        2    1    3    3  502    0 -0.12602807531E+03 -0.86978958020E+01 -0.14882961207E+03  0.19521522121E+03  0.25500000920E-02 0.  1.
       -2    1    3    3    0  502  0.12602807531E+03  0.86978958020E+01  0.20666576289E+04  0.20705150288E+04  0.25500000920E-02 0. -1.
</event>
<event>
 5   0  0.9410666E-04  0.1197865E+04  0.7818609E-02  0.9114727E-01
       -2   -1    0    0    0  501  0.00000000000E+00  0.00000000000E+00  0.72027091724E+03  0.72027091724E+03  0.25500000920E-02 0. -1.
        2   -1    0    0  501    0  0.00000000000E+00  0.00000000000E+00 -0.49803490624E+03  0.49803490625E+03  0.25500000920E-02 0.  1.
    10030    2    1    2    0    0  0.00000000000E+00  0.00000000000E+00  0.22223601099E+03  0.12183058235E+04  0.11978648651E+04 0.  0.
        2    1    3    3  502    0  0.48728537537E+02 -0.28068404090E+03 -0.42471386664E+03  0.51140968871E+03  0.25500000920E-02 0.  1.
       -2    1    3    3    0  502 -0.48728537537E+02  0.28068404090E+03  0.64694987763E+03  0.70689613478E+03  0.25500000920E-02 0. -1.
</event>
<event>
 5   0  0.5003507E-04  0.1171243E+04  0.7818609E-02  0.9138407E-01
        1   -1    0    0  501    0  0.00000000000E+00  0.00000000000E+00  0.48492598547E+03  0.48492598550E+03  0.50400001928E-02 0.  1.
       -1   -1    0    0    0  501  0.00000000000E+00  0.00000000000E+00 -0.70722621452E+03  0.70722621454E+03  0.50400001928E-02 0. -1.
    10030    2    1    2    0    0  0.00000000000E+00  0.00000000000E+00 -0.22230022906E+03  0.11921522000E+04  0.11712427059E+04 0.  0.
        3    1    3    3  502    0  0.16503339830E+03 -0.56151905410E+03 -0.90472719696E+02  0.59222039300E+03  0.10100000352E+00 0.  1.
       -3    1    3    3    0  502 -0.16503339830E+03  0.56151905410E+03 -0.13182750936E+03  0.59993180704E+03  0.10100000352E+00 0. -1.
</event>
<event>
 5   0  0.5001586E-04  0.1202179E+04  0.7818609E-02  0.9110952E-01
        1   -1    0    0  501    0  0.00000000000E+00  0.00000000000E+00  0.16665579078E+04  0.16665579078E+04  0.50400001928E-02 0. -1.
       -1   -1    0    0    0  501  0.00000000000E+00  0.00000000000E+00 -0.21679923661E+03  0.21679923666E+03  0.50400001928E-02 0.  1.
    10030    2    1    2    0    0  0.00000000000E+00  0.00000000000E+00  0.14497586712E+04  0.18833571445E+04  0.12021788257E+04 0.  0.
        1    1    3    3  502    0  0.59014680962E+03  0.97819863281E+02  0.63264148176E+03  0.87067630439E+03  0.50400001928E-02 0. -1.
       -1    1    3    3    0  502 -0.59014680962E+03 -0.97819863281E+02  0.81711718942E+03  0.10126808401E+04  0.50400001928E-02 0.  1.
</event>
<event>
 5   0  0.5003507E-04  0.1192030E+04  0.7818609E-02  0.9119861E-01
       -1   -1    0    0    0  501  0.00000000000E+00  0.00000000000E+00  0.54068674873E+03  0.54068674875E+03  0.50400001928E-02 0.  1.
        1   -1    0    0  501    0  0.00000000000E+00  0.00000000000E+00 -0.65700506740E+03  0.65700506742E+03  0.50400001928E-02 0. -1.
    10030    2    1    2    0    0  0.00000000000E+00  0.00000000000E+00 -0.11631831867E+03  0.11976918162E+04  0.11920300899E+04 0.  0.
        3    1    3    3  502    0 -0.23880915566E+03  0.65131245584E+02 -0.60291699266E+03  0.65175210181E+03  0.10100000352E+00 0. -1.
       -3    1    3    3    0  502  0.23880915566E+03 -0.65131245584E+02  0.48659867399E+03  0.54593971435E+03  0.10100000352E+00 0.  1.
</event>
<event>
 5   0  0.3453625E-04  0.1200649E+04  0.7818609E-02  0.9112289E-01
        3   -1    0    0  501    0  0.00000000000E+00  0.00000000000E+00  0.11960041288E+04  0.11960041331E+04  0.10100000352E+00 0.  1.
       -3   -1    0    0    0  501  0.00000000000E+00  0.00000000000E+00 -0.30132784812E+03  0.30132786504E+03  0.10100000352E+00 0. -1.
    10030    2    1    2    0    0  0.00000000000E+00  0.00000000000E+00  0.89467628071E+03  0.14973319981E+04  0.12006487685E+04 0.  0.
        2    1    3    3  502    0  0.35718316800E+03  0.21089751634E+03  0.98854580828E+03  0.10720449585E+04  0.25500000920E-02 0.  1.
       -2    1    3    3    0  502 -0.35718316800E+03 -0.21089751634E+03 -0.93869527562E+02  0.42528703967E+03  0.25500000920E-02 0. -1.
</event>
<event>
 5   0  0.5447074E-04  0.1227863E+04  0.7818609E-02  0.9088812E-01
       -1   -1    0    0    0  501  0.00000000000E+00  0.00000000000E+00  0.22727345872E+03  0.22727345878E+03  0.50400001928E-02 0. -1.
        1   -1    0    0  501    0  0.00000000000E+00  0.00000000000E+00 -0.16584066156E+04  0.16584066156E+04  0.50400001928E-02 0.  1.
    10030    2    1    2    0    0  0.00000000000E+00  0.00000000000E+00 -0.14311331569E+04  0.18856800744E+04  0.12278628711E+04 0.  0.
        4    1    3    3  502    0  0.39132676380E+03  0.15330260791E+03 -0.28295417910E+02  0.42123695141E+03  0.12699999809E+01 0. -1.
       -4    1    3    3    0  502 -0.39132676380E+03 -0.15330260791E+03 -0.14028377390E+04  0.14644431230E+04  0.12699999809E+01 0.  1.
</event>
<event>
 5   0  0.5447074E-04  0.1200747E+04  0.7818609E-02  0.9112203E-01
       -1   -1    0    0    0  501  0.00000000000E+00  0.00000000000E+00  0.36254647394E+03  0.36254647397E+03  0.50400001928E-02 0.  1.
        1   -1    0    0  501    0  0.00000000000E+00  0.00000000000E+00 -0.99421333026E+03  0.99421333027E+03  0.50400001928E-02 0. -1.
    10030    2    1    2    0    0  0.00000000000E+00  0.00000000000E+00 -0.63166685632E+03  0.13567598042E+04  0.12007473294E+04 0.  0.
        4    1    3    3  502    0 -0.51248530953E+03 -0.25678321570E+02 -0.66801335248E+03  0.84234435991E+03  0.12699999809E+01 0. -1.
       -4    1    3    3    0  502  0.51248530953E+03  0.25678321570E+02  0.36346496158E+02  0.51441544433E+03  0.12699999809E+01 0.  1.
</event>
<event>
 5   0  0.9298693E-04  0.1179161E+04  0.7818609E-02  0.9131295E-01
       -2   -1    0    0    0  501  0.00000000000E+00  0.00000000000E+00  0.91525044974E+03  0.91525044975E+03  0.25500000920E-02 0. -1.
        2   -1    0    0  501    0  0.00000000000E+00  0.00000000000E+00 -0.37979232244E+03  0.37979232244E+03  0.25500000920E-02 0.  1.
    10030    2    1    2    0    0  0.00000000000E+00  0.00000000000E+00  0.53545812731E+03  0.12950427722E+04  0.11791608778E+04 0.  0.
        1    1    3    3  502    0 -0.17876003240E+03 -0.43593363701E+02 -0.34745151418E+03  0.39316419633E+03  0.50400001928E-02 0.  1.
       -1    1    3    3    0  502  0.17876003240E+03  0.43593363701E+02  0.88290964149E+03  0.90187857586E+03  0.50400001928E-02 0. -1.
</event>
<event>
 5   0  0.9050363E-04  0.1219406E+04  0.7818609E-02  0.9096038E-01
       -2   -1    0    0    0  501  0.00000000000E+00  0.00000000000E+00  0.60391946472E+03  0.60391946472E+03  0.25500000920E-02 0.  1.
        2   -1    0    0  501    0  0.00000000000E+00  0.00000000000E+00 -0.61554179372E+03  0.61554179373E+03  0.25500000920E-02 0. -1.
    10030    2    1    2    0    0  0.00000000000E+00  0.00000000000E+00 -0.11622329005E+02  0.12194612585E+04  0.12194058727E+04 0.  0.
        3    1    3    3  502    0 -0.12967434116E+03 -0.46919905518E+03  0.36132193876E+03  0.60623159087E+03  0.10100000352E+00 0.  1.
       -3    1    3    3    0  502  0.12967434116E+03  0.46919905518E+03 -0.37294426776E+03  0.61322966758E+03  0.10100000352E+00 0. -1.
</event>
<event>
 5   0  0.5157631E-04  0.1199850E+04  0.7818609E-02  0.9112988E-01
        1   -1    0    0  501    0  0.00000000000E+00  0.00000000000E+00  0.64355381820E+03  0.64355381822E+03  0.50400001928E-02 0.  1.
       -1   -1    0    0    0  501  0.00000000000E+00  0.00000000000E+00 -0.55925352851E+03  0.55925352853E+03  0.50400001928E-02 0. -1.
    10030    2    1    2    0    0  0.00000000000E+00  0.00000000000E+00  0.84300289691E+02  0.12028073468E+04  0.11998495633E+04 0.  0.
        5    1    3    3  502    0  0.39665992563E+03 -0.24211740951E+03  0.42246342668E+03  0.62805841565E+03  0.46999998093E+01 0.  1.
       -5    1    3    3    0  502 -0.39665992563E+03  0.24211740951E+03 -0.33816313699E+03  0.57474893110E+03  0.46999998093E+01 0. -1.
</event>
<event>
 5   0  0.9410666E-04  0.1197834E+04  0.7818609E-02  0.9114754E-01
       -2   -1    0    0    0  501  0.00000000000E+00  0.00000000000E+00  0.27924652244E+03  0.27924652245E+03  0.25500000920E-02 0.  1.
        2   -1    0    0  501    0  0.00000000000E+00  0.00000000000E+00 -0.12845342740E+04  0.12845342740E+04  0.25500000920E-02 0. -1.
    10030    2    1    2    0    0  0.00000000000E+00  0.00000000000E+00 -0.10052877515E+04  0.15637807964E+04  0.11978342606E+04 0.  0.
        2    1    3    3  502    0 -0.35440474835E+03  0.29595268845E+03 -0.46464798612E+01  0.46174918434E+03  0.25500000920E-02 0.  1.
       -2    1    3    3    0  502  0.35440474835E+03 -0.29595268845E+03 -0.10006412717E+04  0.11020316121E+04  0.25500000920E-02 0. -1.
</event>
<event>
 5   0  0.9070772E-04  0.1202456E+04  0.7818609E-02  0.9110709E-01
        2   -1    0    0  501    0  0.00000000000E+00  0.00000000000E+00  0.11868161818E+04  0.11868161818E+04  0.25500000920E-02 0. -1.
       -2   -1    0    0    0  501  0.00000000000E+00  0.00000000000E+00 -0.30457569343E+03  0.30457569344E+03  0.25500000920E-02 0.  1.
    10030    2    1    2    0    0  0.00000000000E+00  0.00000000000E+00  0.88224048839E+03  0.14913918753E+04  0.12024564218E+04 0.  0.
        4    1    3    3  502    0  0.41951153566E+03 -0.38177827889E+03  0.19390391682E+03  0.59945385531E+03  0.12699999809E+01 0.  1.
       -4    1    3    3    0  502 -0.41951153566E+03  0.38177827889E+03  0.68833657157E+03  0.89193801996E+03  0.12699999809E+01 0. -1.
</event>
<event>
 5   0  0.5447074E-04  0.1202691E+04  0.7818609E-02  0.9110504E-01
       -1   -1    0    0    0  501  0.00000000000E+00  0.00000000000E+00  0.44098923864E+03  0.44098923867E+03  0.50400001928E-02 0. -1.
        1   -1    0    0  501    0  0.00000000000E+00  0.00000000000E+00 -0.82001249113E+03  0.82001249114E+03  0.50400001928E-02 0.  1.
    10030    2    1    2    0    0  0.00000000000E+00  0.00000000000E+00 -0.37902325249E+03  0.12610017298E+04  0.12026914553E+04 0.  0.
        4    1    3    3  502    0 -0.79384604135E+02  0.53664857234E+03  0.82531801420E+02  0.54873191698E+03  0.12699999809E+01 0. -1.
       -4    1    3    3    0  502  0.79384604135E+02 -0.53664857234E+03 -0.46155505391E+03  0.71226981282E+03  0.12699999809E+01 0.  1.
</event>
<event>
 5   0  0.9145224E-04  0.1207131E+04  0.7818609E-02  0.9106638E-01
        2   -1    0    0  501    0  0.00000000000E+00  0.00000000000E+00  0.31688484786E+03  0.31688484787E+03  0.25500000920E-02 0. -1.
       -2   -1    0    0    0  501  0.00000000000E+00  0.00000000000E+00 -0.11496007015E+04  0.11496007015E+04  0.25500000920E-02 0.  1.
    10030    2    1    2    0    0  0.00000000000E+00  0.00000000000E+00 -0.83271585362E+03  0.14664855494E+04  0.12071305537E+04 0.  0.
        5    1    3    3  502    0 -0.13772539230E+03 -0.54199806275E+03 -0.69215558159E+03  0.88984921354E+03  0.46999998093E+01 0.  1.
       -5    1    3    3    0  502  0.13772539230E+03  0.54199806275E+03 -0.14056027203E+03  0.57663633581E+03  0.46999998093E+01 0. -1.
</event>
<event>
 5   0  0.9050363E-04  0.1201711E+04  0.7818609E-02  0.9111360E-01
        2   -1    0    0  501    0  0.00000000000E+00  0.00000000000E+00  0.26534688095E+04  0.26534688095E+04  0.25500000920E-02 0.  1.
       -2   -1    0    0    0  501  0.00000000000E+00  0.00000000000E+00 -0.13605871914E+03  0.13605871916E+03  0.25500000920E-02 0. -1.
    10030    2    1    2    0    0  0.00000000000E+00  0.00000000000E+00  0.25174100904E+04  0.27895275287E+04  0.12017113922E+04 0.  0.
        3    1    3    3  502    0 -0.48503414019E+03 -0.26054334277E+03  0.18172003411E+04  0.18987780388E+04  0.10100000352E+00 0.  1.
       -3    1    3    3    0  502  0.48503414019E+03  0.26054334277E+03  0.70020974930E+03  0.89074948994E+03  0.10100000352E+00 0. -1.
</event>
<event>
 5   0  0.5447074E-04  0.1200392E+04  0.7818609E-02  0.9112514E-01
       -1   -1    0    0    0  501  0.00000000000E+00  0.00000000000E+00  0.37434233548E+03  0.37434233551E+03  0.50400001928E-02 0. -1.
        1   -1    0    0  501    0  0.00000000000E+00  0.00000000000E+00 -0.96231435765E+03  0.96231435767E+03  0.50400001928E-02 0.  1.
    10030    2    1    2    0    0  0.00000000000E+00  0.00000000000E+00 -0.58797202218E+03  0.13366566932E+04  0.12003916097E+04 0.  0.
        4    1    3    3  502    0 -0.39569940292E+03  0.60039869366E+02 -0.79202901305E+03  0.88740879745E+03  0.12699999809E+01 0.  1.
       -4    1    3    3    0  502  0.39569940292E+03 -0.60039869366E+02  0.20405699087E+03  0.44924789572E+03  0.12699999809E+01 0. -1.
</event>
<event>
 5   0  0.5003507E-04  0.1198856E+04  0.7818609E-02  0.9113858E-01
       -1   -1    0    0    0  501  0.00000000000E+00  0.00000000000E+00  0.38187100569E+03  0.38187100573E+03  0.50400001928E-02 0.  1.
        1   -1    0    0  501    0  0.00000000000E+00  0.00000000000E+00 -0.94093040263E+03  0.94093040264E+03  0.50400001928E-02 0. -1.
    10030    2    1    2    0    0  0.00000000000E+00  0.00000000000E+00 -0.55905939694E+03  0.13228014084E+04  0.11988561868E+04 0.  0.
        3    1    3    3  502    0  0.20048959847E+03 -0.54096788457E+03 -0.10000737625E+03  0.58552866432E+03  0.10100000352E+00 0. -1.
       -3    1    3    3    0  502 -0.20048959847E+03  0.54096788457E+03 -0.45905202068E+03  0.73727274405E+03  0.10100000352E+00 0.  1.
</event>
<event>
 5   0  0.9070772E-04  0.1199433E+04  0.7818609E-02  0.9113353E-01
        2   -1    0    0  501    0  0.00000000000E+00  0.00000000000E+00  0.93760040800E+03  0.93760040800E+03  0.25500000920E-02 0.  1.
       -2   -1    0    0    0  501  0.00000000000E+00  0.00000000000E+00 -0.38359628225E+03  0.38359628226E+03  0.25500000920E-02 0. -1.
    10030    2    1    2    0    0  0.00000000000E+00  0.00000000000E+00  0.55400412575E+03  0.13211966903E+04  0.11994332508E+04 0.  0.
        4    1    3    3  502    0 -0.29117960011E+03 -0.50969784842E+03  0.41227343978E+03  0.71732033169E+03  0.12699999809E+01 0. -1.
       -4    1    3    3    0  502  0.29117960011E+03  0.50969784842E+03  0.14173068596E+03  0.60387635858E+03  0.12699999809E+01 0.  1.
</event>
<event>
 5   0  0.9050363E-04  0.1252418E+04  0.7818609E-02  0.9068173E-01
        2   -1    0    0  501    0  0.00000000000E+00  0.00000000000E+00  0.17173842871E+04  0.17173842871E+04  0.25500000920E-02 0.  1.
       -2   -1    0    0    0  501  0.00000000000E+00  0.00000000000E+00 -0.22833442383E+03  0.22833442384E+03  0.25500000920E-02 0. -1.
    10030    2    1    2    0    0  0.00000000000E+00  0.00000000000E+00  0.14890498633E+04  0.19457187109E+04  0.12524183833E+04 0.  0.
        3    1    3    3  502    0 -0.11072816207E+03 -0.69316223093E+02 -0.20692999629E+03  0.24471513690E+03  0.10100000352E+00 0. -1.
       -3    1    3    3    0  502  0.11072816207E+03  0.69316223093E+02  0.16959798596E+04  0.17010035741E+04  0.10100000352E+00 0.  1.
</event>
<event>
 5   0  0.9410666E-04  0.1198648E+04  0.7818609E-02  0.9114041E-01
        2   -1    0    0  501    0  0.00000000000E+00  0.00000000000E+00  0.18135911827E+04  0.18135911827E+04  0.25500000920E-02 0.  1.
       -2   -1    0    0    0  501  0.00000000000E+00  0.00000000000E+00 -0.19805407922E+03  0.19805407924E+03  0.25500000920E-02 0. -1.
    10030    2    1    2    0    0  0.00000000000E+00  0.00000000000E+00  0.16155371035E+04  0.20116452620E+04  0.11986477911E+04 0.  0.
        2    1    3    3  502    0 -0.48196841637E+03  0.30017975278E+03  0.11296612228E+04  0.12643322018E+04  0.25500000920E-02 0. -1.
       -2    1    3    3    0  502  0.48196841637E+03 -0.30017975278E+03  0.48587588074E+03  0.74731306014E+03  0.25500000920E-02 0.  1.
</event>
<event>
 5   0  0.9410666E-04  0.1199207E+04  0.7818609E-02  0.9113551E-01
       -2   -1    0    0    0  501  0.00000000000E+00  0.00000000000E+00  0.25886437432E+03  0.25886437433E+03  0.25500000920E-02 0. -1.
        2   -1    0    0  501    0  0.00000000000E+00  0.00000000000E+00 -0.13888533025E+04  0.13888533025E+04  0.25500000920E-02 0.  1.
    10030    2    1    2    0    0  0.00000000000E+00  0.00000000000E+00 -0.11299889282E+04  0.16477176769E+04  0.11992074736E+04 0.  0.
        2    1    3    3  502    0 -0.47717531245E+03 -0.12691856619E+03 -0.10323988270E+04  0.11444002530E+04  0.25500000920E-02 0.  1.
       -2    1    3    3    0  502  0.47717531245E+03  0.12691856619E+03 -0.97590101254E+02  0.50331742382E+03  0.25500000920E-02 0. -1.
</event>
<event>
 5   0  0.9070772E-04  0.1206037E+04  0.7818609E-02  0.9107588E-01
       -2   -1    0    0    0  501  0.00000000000E+00  0.00000000000E+00  0.27230503461E+03  0.27230503462E+03  0.25500000920E-02 0. -1.
        2   -1    0    0  501    0  0.00000000000E+00  0.00000000000E+00 -0.13353829869E+04  0.13353829869E+04  0.25500000920E-02 0.  1.
    10030    2    1    2    0    0  0.00000000000E+00  0.00000000000E+00 -0.10630779523E+04  0.16076880216E+04  0.12060373302E+04 0.  0.
        4    1    3    3  502    0 -0.45201505142E+03 -0.32501493364E+03 -0.84038179279E+03  0.10080652183E+04  0.12699999809E+01 0.  1.
       -4    1    3    3    0  502  0.45201505142E+03  0.32501493364E+03 -0.22269615954E+03  0.59962280325E+03  0.12699999809E+01 0. -1.
</event>
<event>
 5   0  0.9145224E-04  0.1201652E+04  0.7818609E-02  0.9111412E-01
       -2   -1    0    0    0  501  0.00000000000E+00  0.00000000000E+00  0.28297714380E+03  0.28297714381E+03  0.25500000920E-02 0. -1.
        2   -1    0    0  501    0  0.00000000000E+00  0.00000000000E+00 -0.12756925379E+04  0.12756925379E+04  0.25500000920E-02 0.  1.
    10030    2    1    2    0    0  0.00000000000E+00  0.00000000000E+00 -0.99271539406E+03  0.15586696817E+04  0.12016519142E+04 0.  0.
        5    1    3    3  502    0  0.36664941692E+03 -0.46234704390E+02 -0.11108085052E+04  0.11706780378E+04  0.46999998093E+01 0.  1.
       -5    1    3    3    0  502 -0.36664941692E+03  0.46234704390E+02  0.11809311118E+03  0.38799164389E+03  0.46999998093E+01 0. -1.
</event>
<event>
 5   0  0.9145224E-04  0.1198477E+04  0.7818609E-02  0.9114191E-01
        2   -1    0    0  501    0  0.00000000000E+00  0.00000000000E+00  0.28008943026E+04  0.28008943026E+04  0.25500000920E-02 0. -1.
       -2   -1    0    0    0  501  0.00000000000E+00  0.00000000000E+00 -0.12820429191E+03  0.12820429194E+03  0.25500000920E-02 0.  1.
    10030    2    1    2    0    0  0.00000000000E+00  0.00000000000E+00  0.26726900107E+04  0.29290985945E+04  0.11984768180E+04 0.  0.
        5    1    3    3  502    0  0.30362723472E+03  0.44589129373E+03  0.19739294039E+04  0.20463205822E+04  0.46999998093E+01 0. -1.
       -5    1    3    3    0  502 -0.30362723472E+03 -0.44589129373E+03  0.69876060677E+03  0.88277801234E+03  0.46999998093E+01 0.  1.
</event>
<event>
 5   0  0.9050363E-04  0.1199628E+04  0.7818609E-02  0.9113182E-01
        2   -1    0    0  501    0  0.00000000000E+00  0.00000000000E+00  0.70708925241E+03  0.70708925242E+03  0.25500000920E-02 0.  1.
       -2   -1    0    0    0  501  0.00000000000E+00  0.00000000000E+00 -0.50881405574E+03  0.50881405575E+03  0.25500000920E-02 0. -1.
    10030    2    1    2    0    0  0.00000000000E+00  0.00000000000E+00  0.19827519667E+03  0.12159033082E+04  0.11996281929E+04 0.  0.
        3    1    3    3  502    0 -0.10114444188E+03 -0.16491912735E+03 -0.47632241517E+03  0.51411240997E+03  0.10100000352E+00 0. -1.
       -3    1    3    3    0  502  0.10114444188E+03  0.16491912735E+03  0.67459761184E+03  0.70179089820E+03  0.10100000352E+00 0.  1.
</event>
<event>
 5   0  0.5001586E-04  0.1198837E+04  0.7818609E-02  0.9113875E-01
       -1   -1    0    0    0  501  0.00000000000E+00  0.00000000000E+00  0.26202423625E+03  0.26202423630E+03  0.50400001928E-02 0.  1.
        1   -1    0    0  501    0  0.00000000000E+00  0.00000000000E+00 -0.13712566910E+04  0.13712566911E+04  0.50400001928E-02 0. -1.
    10030    2    1    2    0    0  0.00000000000E+00  0.00000000000E+00 -0.11092324548E+04  0.16332809273E+04  0.11988369150E+04 0.  0.
        1    1    3    3  502    0  0.72471198470E+01  0.35007887737E+02 -0.13698029634E+04  0.13702694011E+04  0.50400001928E-02 0. -1.
       -1    1    3    3    0  502 -0.72471198470E+01 -0.35007887737E+02  0.26057050863E+03  0.26301152625E+03  0.50400001928E-02 0.  1.
</event>
<event>
 5   0  0.5001586E-04  0.1205003E+04  0.7818609E-02  0.9108489E-01
       -1   -1    0    0    0  501  0.00000000000E+00  0.00000000000E+00  0.44806498311E+03  0.44806498314E+03  0.50400001928E-02 0. -1.
        1   -1    0    0  501    0  0.00000000000E+00  0.00000000000E+00 -0.81016821089E+03  0.81016821091E+03  0.50400001928E-02 0.  1.
    10030    2    1    2    0    0  0.00000000000E+00  0.00000000000E+00 -0.36210322778E+03  0.12582331940E+04  0.12050029141E+04 0.  0.
        1    1    3    3  502    0 -0.16761310846E+03  0.41200618930E+03 -0.60540896066E+03  0.75124114891E+03  0.50400001928E-02 0.  1.
       -1    1    3    3    0  502  0.16761310846E+03 -0.41200618930E+03  0.24330573288E+03  0.50699204513E+03  0.50400001928E-02 0. -1.
</event>
<event>
 5   0  0.9410666E-04  0.1205291E+04  0.7818609E-02  0.9108237E-01
        2   -1    0    0  501    0  0.00000000000E+00  0.00000000000E+00  0.13829984370E+04  0.13829984370E+04  0.25500000920E-02 0. -1.
       -2   -1    0    0    0  501  0.00000000000E+00  0.00000000000E+00 -0.26260470148E+03  0.26260470149E+03  0.25500000920E-02 0.  1.
    10030    2    1    2    0    0  0.00000000000E+00  0.00000000000E+00  0.11203937355E+04  0.16456031385E+04  0.12052914862E+04 0.  0.
        2    1    3    3  502    0 -0.53477829969E+03  0.10336679707E+03  0.20809005686E+03  0.58307289109E+03  0.25500000920E-02 0.  1.
       -2    1    3    3    0  502  0.53477829969E+03 -0.10336679707E+03  0.91230367864E+03  0.10625302474E+04  0.25500000920E-02 0. -1.
</event>
<event>
 5   0  0.9070772E-04  0.1197560E+04  0.7818609E-02  0.9114995E-01
       -2   -1    0    0    0  501  0.00000000000E+00  0.00000000000E+00  0.60323465617E+03  0.60323465617E+03  0.25500000920E-02 0. -1.
        2   -1    0    0  501    0  0.00000000000E+00  0.00000000000E+00 -0.59435831466E+03  0.59435831467E+03  0.25500000920E-02 0.  1.
    10030    2    1    2    0    0  0.00000000000E+00  0.00000000000E+00  0.88763415066E+01  0.11975929708E+04  0.11975600755E+04 0.  0.
        4    1    3    3  502    0 -0.59257544683E+02  0.53034664383E+03 -0.26715150787E+03  0.59678351207E+03  0.12699999809E+01 0.  1.
       -4    1    3    3    0  502  0.59257544683E+02 -0.53034664383E+03  0.27602784938E+03  0.60080945877E+03  0.12699999809E+01 0. -1.
</event>
<event>
 5   0  0.5157631E-04  0.1198840E+04  0.7818609E-02  0.9113873E-01
       -1   -1    0    0    0  501  0.00000000000E+00  0.00000000000E+00  0.32936970560E+03  0.32936970564E+03  0.50400001928E-02 0.  1.
        1   -1    0    0  501    0  0.00000000000E+00  0.00000000000E+00 -0.10908843582E+04  0.10908843582E+04  0.50400001928E-02 0. -1.
    10030    2    1    2    0    0  0.00000000000E+00  0.00000000000E+00 -0.76151465258E+03  0.14202540638E+04  0.11988398724E+04 0.  0.
        5    1    3    3  502    0 -0.59890819626E+03  0.82037215316E+01 -0.35364262977E+03  0.69558861993E+03  0.46999998093E+01 0. -1.
       -5    1    3    3    0  502  0.59890819626E+03 -0.82037215316E+01 -0.40787202281E+03  0.72466544390E+03  0.46999998093E+01 0.  1.
</event>
<event>
 5   0  0.3453625E-04  0.1214798E+04  0.7818609E-02  0.9100002E-01
       -3   -1    0    0    0  501  0.00000000000E+00  0.00000000000E+00  0.26141739218E+03  0.26141741169E+03  0.10100000352E+00 0. -1.
        3   -1    0    0  501    0  0.00000000000E+00  0.00000000000E+00 -0.14112810039E+04  0.14112810075E+04  0.10100000352E+00 0.  1.
    10030    2    1    2    0    0  0.00000000000E+00  0.00000000000E+00 -0.11498636117E+04  0.16726984192E+04  0.12147977922E+04 0.  0.
        3    1    3    3  502    0 -0.18734494071E+03  0.48651368677E+03 -0.14577889359E+03  0.54133648523E+03  0.10100000352E+00 0. -1.
       -3    1    3    3    0  502  0.18734494071E+03 -0.48651368677E+03 -0.10040847181E+04  0.11313619340E+04  0.10100000352E+00 0.  1.
</event>
<event>
 5   0  0.9298693E-04  0.1202558E+04  0.7818609E-02  0.9110621E-01
        2   -1    0    0  501    0  0.00000000000E+00  0.00000000000E+00  0.25982430962E+03  0.25982430963E+03  0.25500000920E-02 0. -1.
       -2   -1    0    0    0  501  0.00000000000E+00  0.00000000000E+00 -0.13914641709E+04  0.13914641709E+04  0.25500000920E-02 0.  1.
    10030    2    1    2    0    0  0.00000000000E+00  0.00000000000E+00 -0.11316398613E+04  0.16512884805E+04  0.12025576370E+04 0.  0.
        1    1    3    3  502    0 -0.47506109891E+03  0.36688096221E+03 -0.51724215992E+03  0.79235354492E+03  0.50400001928E-02 0. -1.
       -1    1    3    3    0  502  0.47506109891E+03 -0.36688096221E+03 -0.61439770136E+03  0.85893493560E+03  0.50400001928E-02 0.  1.
</event>
<event>
 5   0  0.5157631E-04  0.1209602E+04  0.7818609E-02  0.9104493E-01
        1   -1    0    0  501    0  0.00000000000E+00  0.00000000000E+00  0.19176327761E+04  0.19176327761E+04  0.50400001928E-02 0. -1.
       -1   -1    0    0    0  501  0.00000000000E+00  0.00000000000E+00 -0.19074786242E+03  0.19074786248E+03  0.50400001928E-02 0.  1.
    10030    2    1    2    0    0  0.00000000000E+00  0.00000000000E+00  0.17268849137E+04  0.21083806386E+04  0.12096021710E+04 0.  0.
        5    1    3    3  502    0  0.55848946215E+03 -0.20085833150E+03  0.66086207020E+03  0.88826534014E+03  0.46999998093E+01 0.  1.
       -5    1    3    3    0  502 -0.55848946215E+03  0.20085833150E+03  0.10660228435E+04  0.12201152984E+04  0.46999998093E+01 0. -1.
</event>
<event>
 5   0  0.5447074E-04  0.1200429E+04  0.7818609E-02  0.9112481E-01
        1   -1    0    0  501    0  0.00000000000E+00  0.00000000000E+00  0.10125793362E+04  0.10125793362E+04  0.50400001928E-02 0. -1.
       -1   -1    0    0    0  501  0.00000000000E+00  0.00000000000E+00 -0.35578173989E+03  0.35578173993E+03  0.50400001928E-02 0.  1.
    10030    2    1    2    0    0  0.00000000000E+00  0.00000000000E+00  0.65679759629E+03  0.13683610761E+04  0.12004286535E+04 0.  0.
        4    1    3    3  502    0 -0.16744076129E+03  0.30116179860E+03 -0.23179928297E+03  0.41529189489E+03  0.12699999809E+01 0.  1.
       -4    1    3    3    0  502  0.16744076129E+03 -0.30116179860E+03  0.88859687925E+03  0.95306918122E+03  0.12699999809E+01 0. -1.
</event>
<event>
 5   0  0.5001586E-04  0.1195048E+04  0.7818609E-02  0.9117202E-01
       -1   -1    0    0    0  501  0.00000000000E+00  0.00000000000E+00  0.24646342176E+03  0.24646342181E+03  0.50400001928E-02 0.  1.
        1   -1    0    0  501    0  0.00000000000E+00  0.00000000000E+00 -0.14486319944E+04  0.14486319944E+04  0.50400001928E-02 0. -1.
    10030    2    1    2    0    0  0.00000000000E+00  0.00000000000E+00 -0.12021685726E+04  0.16950954162E+04  0.11950477785E+04 0.  0.
        1    1    3    3  502    0  0.44772707624E+03 -0.21082039444E+03 -0.10760582889E+04  0.11844012051E+04  0.50400001928E-02 0. -1.
       -1    1    3    3    0  502 -0.44772707624E+03  0.21082039444E+03 -0.12611028366E+03  0.51069421104E+03  0.50400001928E-02 0.  1.
</event>
<event>
 5   0  0.5001586E-04  0.1199946E+04  0.7818609E-02  0.9112904E-01
        1   -1    0    0  501    0  0.00000000000E+00  0.00000000000E+00  0.13347043605E+04  0.13347043605E+04  0.50400001928E-02 0. -1.
       -1   -1    0    0    0  501  0.00000000000E+00  0.00000000000E+00 -0.26969836180E+03  0.26969836185E+03  0.50400001928E-02 0.  1.
    10030    2    1    2    0    0  0.00000000000E+00  0.00000000000E+00  0.10650059987E+04  0.16044027223E+04  0.11999459647E+04 0.  0.
        1    1    3    3  502    0  0.31926710770E+03 -0.48440360634E+03  0.73698719725E+03  0.93793841420E+03  0.50400001928E-02 0. -1.
       -1    1    3    3    0  502 -0.31926710770E+03  0.48440360634E+03  0.32801880140E+03  0.66646430811E+03  0.50400001928E-02 0.  1.
</event>
<event>
 5   0  0.5001586E-04  0.1197751E+04  0.7818609E-02  0.9114827E-01
        1   -1    0    0  501    0  0.00000000000E+00  0.00000000000E+00  0.14345964371E+04  0.14345964372E+04  0.50400001928E-02 0.  1.
       -1   -1    0    0    0  501  0.00000000000E+00  0.00000000000E+00 -0.25000195914E+03  0.25000195919E+03  0.50400001928E-02 0. -1.
    10030    2    1    2    0    0  0.00000000000E+00  0.00000000000E+00  0.11845944780E+04  0.16845983963E+04  0.11977510925E+04 0.  0.
        1    1    3    3  502    0  0.50182562068E+03  0.71833551147E+02  0.14385029402E+03  0.52695532995E+03  0.50400001928E-02 0.  1.
       -1    1    3    3    0  502 -0.50182562068E+03 -0.71833551147E+02  0.10407441840E+04  0.11576430664E+04  0.50400001928E-02 0. -1.
</event>
<event>
 5   0  0.5052959E-04  0.1201898E+04  0.7818609E-02  0.9111197E-01
       -1   -1    0    0    0  501  0.00000000000E+00  0.00000000000E+00  0.61349866074E+03  0.61349866077E+03  0.50400001928E-02 0.  1.
        1   -1    0    0  501    0  0.00000000000E+00  0.00000000000E+00 -0.58865578668E+03  0.58865578671E+03  0.50400001928E-02 0. -1.
    10030    2    1    2    0    0  0.00000000000E+00  0.00000000000E+00  0.24842874061E+02  0.12021544475E+04  0.12018977274E+04 0.  0.
        2    1    3    3  502    0  0.51358392992E+03 -0.11486404198E+03 -0.27777384072E+03  0.59508025325E+03  0.25500000920E-02 0. -1.
       -2    1    3    3    0  502 -0.51358392992E+03  0.11486404198E+03  0.30261671478E+03  0.60707419422E+03  0.25500000920E-02 0.  1.
</event>
<event>
 5   0  0.5157631E-04  0.1196044E+04  0.7818609E-02  0.9116326E-01
       -1   -1    0    0    0  501  0.00000000000E+00  0.00000000000E+00  0.54586568239E+03  0.54586568241E+03  0.50400001928E-02 0. -1.
        1   -1    0    0  501    0  0.00000000000E+00  0.00000000000E+00 -0.65516189120E+03  0.65516189122E+03  0.50400001928E-02 0.  1.
    10030    2    1    2    0    0  0.00000000000E+00  0.00000000000E+00 -0.10929620881E+03  0.12010275736E+04  0.11960441344E+04 0.  0.
        5    1    3    3  502    0 -0.31143688859E+03 -0.22974506289E+03 -0.51243418158E+03  0.64217334883E+03  0.46999998093E+01 0.  1.
       -5    1    3    3    0  502  0.31143688859E+03  0.22974506289E+03  0.40313797276E+03  0.55885422480E+03  0.46999998093E+01 0. -1.
</event>
<event>
 5   0  0.9050363E-04  0.1195005E+04  0.7818609E-02  0.9117240E-01
       -2   -1    0    0    0  501  0.00000000000E+00  0.00000000000E+00  0.25947815686E+03  0.25947815687E+03  0.25500000920E-02 0. -1.
        2   -1    0    0  501    0  0.00000000000E+00  0.00000000000E+00 -0.13758737188E+04  0.13758737188E+04  0.25500000920E-02 0.  1.
    10030    2    1    2    0    0  0.00000000000E+00  0.00000000000E+00 -0.11163955620E+04  0.16353518757E+04  0.11950048981E+04 0.  0.
        3    1    3    3  502    0  0.22403675048E+03  0.45465985549E+03 -0.99117095484E+03  0.11132510596E+04  0.10100000352E+00 0.  1.
       -3    1    3    3    0  502 -0.22403675048E+03 -0.45465985549E+03 -0.12522460715E+03  0.52210081612E+03  0.10100000352E+00 0. -1.
</event>
<event>
 5   0  0.5003507E-04  0.1203544E+04  0.7818609E-02  0.9109760E-01
       -1   -1    0    0    0  501  0.00000000000E+00  0.00000000000E+00  0.75446785480E+03  0.75446785482E+03  0.50400001928E-02 0.  1.
        1   -1    0    0  501    0  0.00000000000E+00  0.00000000000E+00 -0.47998006310E+03  0.47998006313E+03  0.50400001928E-02 0. -1.
    10030    2    1    2    0    0  0.00000000000E+00  0.00000000000E+00  0.27448779170E+03  0.12344479179E+04  0.12035439811E+04 0.  0.
        3    1    3    3  502    0  0.41431565793E+03 -0.43493014114E+03  0.17433637309E+03  0.62547172060E+03  0.10100000352E+00 0. -1.
       -3    1    3    3    0  502 -0.41431565793E+03  0.43493014114E+03  0.10015141862E+03  0.60897619735E+03  0.10100000352E+00 0.  1.
</event>
<event>
 5   0  0.5052959E-04  0.1200852E+04  0.7818609E-02  0.9112111E-01
        1   -1    0    0  501    0  0.00000000000E+00  0.00000000000E+00  0.11334454199E+04  0.11334454199E+04  0.50400001928E-02 0.  1.
       -1   -1    0    0    0  501  0.00000000000E+00  0.00000000000E+00 -0.31806671823E+03  0.31806671827E+03  0.50400001928E-02 0. -1.
    10030    2    1    2    0    0  0.00000000000E+00  0.00000000000E+00  0.81537870166E+03  0.14515121382E+04  0.12008518061E+04 0.  0.
        2    1    3    3  502    0 -0.59813113640E+03 -0.52180242837E+02  0.41404308720E+03  0.72932524442E+03  0.25500000920E-02 0. -1.
       -2    1    3    3    0  502  0.59813113640E+03  0.52180242837E+02  0.40133561446E+03  0.72218689376E+03  0.25500000920E-02 0.  1.
</event>
<event>
 5   0  0.9145224E-04  0.1200539E+04  0.7818609E-02  0.9112385E-01
        2   -1    0    0  501    0  0.00000000000E+00  0.00000000000E+00  0.44827754223E+03  0.44827754224E+03  0.25500000920E-02 0. -1.
       -2   -1    0    0    0  501  0.00000000000E+00  0.00000000000E+00 -0.80379588241E+03  0.80379588242E+03  0.25500000920E-02 0.  1.
    10030    2    1    2    0    0  0.00000000000E+00  0.00000000000E+00 -0.35551834018E+03  0.12520734247E+04  0.12005392832E+04 0.  0.
        5    1    3    3  502    0 -0.53006049944E+03  0.13372072264E+03 -0.43630422240E+03  0.69944894683E+03  0.46999998093E+01 0.  1.
       -5    1    3    3    0  502  0.53006049944E+03 -0.13372072264E+03  0.80785882224E+02  0.55262447783E+03  0.46999998093E+01 0. -1.
</event>
<event>
 5   0  0.9050363E-04  0.1225745E+04  0.7818609E-02  0.9090616E-01
        2   -1    0    0  501    0  0.00000000000E+00  0.00000000000E+00  0.20322707834E+04  0.20322707834E+04  0.25500000920E-02 0. -1.
       -2   -1    0    0    0  501  0.00000000000E+00  0.00000000000E+00 -0.18482417019E+03  0.18482417021E+03  0.25500000920E-02 0.  1.
    10030    2    1    2    0    0  0.00000000000E+00  0.00000000000E+00  0.18474466132E+04  0.22170949536E+04  0.12257450977E+04 0.  0.
        3    1    3    3  502    0  0.39482636497E+03  0.31002404654E+03  0.15596556327E+04  0.16384530725E+04  0.10100000352E+00 0. -1.
       -3    1    3    3    0  502 -0.39482636497E+03 -0.31002404654E+03  0.28779098047E+03  0.57864188109E+03  0.10100000352E+00 0.  1.
</event>
<event>
 5   0  0.5001586E-04  0.1203846E+04  0.7818609E-02  0.9109497E-01
        1   -1    0    0  501    0  0.00000000000E+00  0.00000000000E+00  0.52750715154E+03  0.52750715156E+03  0.50400001928E-02 0. -1.
       -1   -1    0    0    0  501  0.00000000000E+00  0.00000000000E+00 -0.68683684443E+03  0.68683684445E+03  0.50400001928E-02 0.  1.
    10030    2    1    2    0    0  0.00000000000E+00  0.00000000000E+00 -0.15932969290E+03  0.12143439960E+04  0.12038460822E+04 0.  0.
        1    1    3    3  502    0 -0.43627679680E+03 -0.30095190773E+03 -0.36746293966E+03  0.64493294709E+03  0.50400001928E-02 0.  1.
       -1    1    3    3    0  502  0.43627679680E+03  0.30095190773E+03  0.20813324676E+03  0.56941104892E+03  0.50400001928E-02 0. -1.
</event>
<event>
 5   0  0.9070772E-04  0.1198798E+04  0.7818609E-02  0.9113909E-01
       -2   -1    0    0    0  501  0.00000000000E+00  0.00000000000E+00  0.31434633537E+03  0.31434633538E+03  0.25500000920E-02 0. -1.
        2   -1    0    0  501    0  0.00000000000E+00  0.00000000000E+00 -0.11429401232E+04  0.11429401233E+04  0.25500000920E-02 0.  1.
    10030    2    1    2    0    0  0.00000000000E+00  0.00000000000E+00 -0.82859378788E+03  0.14572864586E+04  0.11987977966E+04 0.  0.
        4    1    3    3  502    0  0.25826655956E+03  0.52955381435E+03 -0.28031023937E+03  0.65246019133E+03  0.12699999809E+01 0. -1.
       -4    1    3    3    0  502 -0.25826655956E+03 -0.52955381435E+03 -0.54828354851E+03  0.80482626730E+03  0.12699999809E+01 0.  1.
</event>
<event>
 5   0  0.9298693E-04  0.1200044E+04  0.7818609E-02  0.9112818E-01
       -2   -1    0    0    0  501  0.00000000000E+00  0.00000000000E+00  0.70094409658E+03  0.70094409659E+03  0.25500000920E-02 0.  1.
        2   -1    0    0  501    0  0.00000000000E+00  0.00000000000E+00 -0.51363065064E+03  0.51363065065E+03  0.25500000920E-02 0. -1.
    10030    2    1    2    0    0  0.00000000000E+00  0.00000000000E+00  0.18731344594E+03  0.12145747472E+04  0.12000439532E+04 0.  0.
        1    1    3    3  502    0 -0.55113162438E+03  0.21719073808E+03  0.19025074420E+03  0.62218424103E+03  0.50400001928E-02 0. -1.
       -1    1    3    3    0  502  0.55113162438E+03 -0.21719073808E+03 -0.29372982590E+01  0.59239050621E+03  0.50400001928E-02 0.  1.
</event>
<event>
 5   0  0.9050363E-04  0.1199853E+04  0.7818609E-02  0.9112986E-01
        2   -1    0    0  501    0  0.00000000000E+00  0.00000000000E+00  0.37623034016E+03  0.37623034017E+03  0.25500000920E-02 0.  1.
       -2   -1    0    0    0  501  0.00000000000E+00  0.00000000000E+00 -0.95662561783E+03  0.95662561784E+03  0.25500000920E-02 0. -1.
    10030    2    1    2    0    0  0.00000000000E+00  0.00000000000E+00 -0.58039527767E+03  0.13328559580E+04  0.11998526270E+04 0.  0.
        3    1    3    3  502    0  0.33927181861E+03 -0.39295302294E+03 -0.62418145031E+03  0.81186201922E+03  0.10100000352E+00 0. -1.
       -3    1    3    3    0  502 -0.33927181861E+03  0.39295302294E+03  0.43786172643E+02  0.52099393879E+03  0.10100000352E+00 0.  1.
</event>
<event>
 5   0  0.5157631E-04  0.1193287E+04  0.7818609E-02  0.9118753E-01
       -1   -1    0    0    0  501  0.00000000000E+00  0.00000000000E+00  0.14040291916E+03  0.14040291925E+03  0.50400001928E-02 0. -1.
        1   -1    0    0  501    0  0.00000000000E+00  0.00000000000E+00 -0.25354404225E+04  0.25354404225E+04  0.50400001928E-02 0.  1.
    10030    2    1    2    0    0  0.00000000000E+00  0.00000000000E+00 -0.23950375033E+04  0.26758433417E+04  0.11932866157E+04 0.  0.
        5    1    3    3  502    0 -0.34051902940E+03 -0.20535898282E+03 -0.21949159978E+04  0.22306509921E+04  0.46999998093E+01 0.  1.
       -5    1    3    3    0  502  0.34051902940E+03  0.20535898282E+03 -0.20012150556E+03  0.44519234966E+03  0.46999998093E+01 0. -1.
</event>
<event>
 5   0  0.5052959E-04  0.1201077E+04  0.7818609E-02  0.9111914E-01
       -1   -1    0    0    0  501  0.00000000000E+00  0.00000000000E+00  0.66943846486E+03  0.66943846488E+03  0.50400001928E-02 0. -1.
        1   -1    0    0  501    0  0.00000000000E+00  0.00000000000E+00 -0.53873003439E+03  0.53873003442E+03  0.50400001928E-02 0.  1.
    10030    2    1    2    0    0  0.00000000000E+00  0.00000000000E+00  0.13070843046E+03  0.12081684993E+04  0.12010771952E+04 0.  0.
        2    1    3    3  502    0  0.42451427577E+03  0.48790605107E+02  0.48980965634E+03  0.65000491762E+03  0.25500000920E-02 0. -1.
       -2    1    3    3    0  502 -0.42451427577E+03 -0.48790605107E+02 -0.35910122587E+03  0.55816358168E+03  0.25500000920E-02 0.  1.
</event>
<event>
 5   0  0.5001586E-04  0.1200273E+04  0.7818609E-02  0.9112618E-01
       -1   -1    0    0    0  501  0.00000000000E+00  0.00000000000E+00  0.83889185485E+03  0.83889185487E+03  0.50400001928E-02 0.  1.
        1   -1    0    0  501    0  0.00000000000E+00  0.00000000000E+00 -0.42933269400E+03  0.42933269403E+03  0.50400001928E-02 0. -1.
    10030    2    1    2    0    0  0.00000000000E+00  0.00000000000E+00  0.40955916085E+03  0.12682245489E+04  0.12002728024E+04 0.  0.
        1    1    3    3  502    0  0.11158322641E+03  0.57737217196E+03  0.78187489293E+02  0.59323075180E+03  0.50400001928E-02 0. -1.
       -1    1    3    3    0  502 -0.11158322641E+03 -0.57737217196E+03  0.33137167156E+03  0.67499379709E+03  0.50400001928E-02 0.  1.
</event>
<event>
 5   0  0.9410666E-04  0.1200813E+04  0.7818609E-02  0.9112146E-01
       -2   -1    0    0    0  501  0.00000000000E+00  0.00000000000E+00  0.70585853541E+03  0.70585853541E+03  0.25500000920E-02 0.  1.
        2   -1    0    0  501    0  0.00000000000E+00  0.00000000000E+00 -0.51070819337E+03  0.51070819338E+03  0.25500000920E-02 0. -1.
    10030    2    1    2    0    0  0.00000000000E+00  0.00000000000E+00  0.19515034204E+03  0.12165667288E+04  0.12008126205E+04 0.  0.
        2    1    3    3  502    0  0.22465771181E+01  0.24472080099E+03  0.65303307169E+03  0.69738476487E+03  0.25500000920E-02 0.  1.
       -2    1    3    3    0  502 -0.22465771181E+01 -0.24472080099E+03 -0.45788272965E+03  0.51918196393E+03  0.25500000920E-02 0. -1.
</event>
<event>
 5   0  0.9070772E-04  0.1198832E+04  0.7818609E-02  0.9113879E-01
       -2   -1    0    0    0  501  0.00000000000E+00  0.00000000000E+00  0.58543733638E+03  0.58543733638E+03  0.25500000920E-02 0.  1.
        2   -1    0    0  501    0  0.00000000000E+00  0.00000000000E+00 -0.61372843262E+03  0.61372843263E+03  0.25500000920E-02 0. -1.
    10030    2    1    2    0    0  0.00000000000E+00  0.00000000000E+00 -0.28291096246E+02  0.11991657690E+04  0.11988319963E+04 0.  0.
        4    1    3    3  502    0 -0.56699191129E+03 -0.14497059041E+03  0.11551162814E+03  0.59652397159E+03  0.12699999809E+01 0. -1.
       -4    1    3    3    0  502  0.56699191129E+03  0.14497059041E+03 -0.14380272439E+03  0.60264179741E+03  0.12699999809E+01 0.  1.
</event>
<event>
 5   0  0.5052959E-04  0.1196090E+04  0.7818609E-02  0.9116286E-01
        1   -1    0    0  501    0  0.00000000000E+00  0.00000000000E+00  0.16464621407E+04  0.16464621407E+04  0.50400001928E-02 0. -1.
       -1   -1    0    0    0  501  0.00000000000E+00  0.00000000000E+00 -0.21722818880E+03  0.21722818886E+03  0.50400001928E-02 0.  1.
    10030    2    1    2    0    0  0.00000000000E+00  0.00000000000E+00  0.14292339519E+04  0.18636903295E+04  0.11960902789E+04 0.  0.
        2    1    3    3  502    0  0.27343658256E+02  0.33632559416E+03  0.14839644841E+04  0.15218453177E+04  0.25500000920E-02 0. -1.
       -2    1    3    3    0  502 -0.27343658256E+02 -0.33632559416E+03 -0.54730532247E+02  0.34184501181E+03  0.25500000920E-02 0.  1.
</event>
<event>
 5   0  0.5157631E-04  0.1196423E+04  0.7818609E-02  0.9115993E-01
       -1   -1    0    0    0  501  0.00000000000E+00  0.00000000000E+00  0.65927014448E+03  0.65927014450E+03  0.50400001928E-02 0. -1.
        1   -1    0    0  501    0  0.00000000000E+00  0.00000000000E+00 -0.54280791419E+03  0.54280791422E+03  0.50400001928E-02 0.  1.
    10030    2    1    2    0    0  0.00000000000E+00  0.00000000000E+00  0.11646223029E+03  0.12020780587E+04  0.11964230891E+04 0.  0.
        5    1    3    3  502    0  0.55782206239E+03 -0.16449236940E+03 -0.82472828813E+02  0.58740705679E+03  0.46999998093E+01 0.  1.
       -5    1    3    3    0  502 -0.55782206239E+03  0.16449236940E+03  0.19893505910E+03  0.61467100193E+03  0.46999998093E+01 0. -1.
</event>
<event>
 5   0  0.5052959E-04  0.1185414E+04  0.7818609E-02  0.9125720E-01
        1   -1    0    0  501    0  0.00000000000E+00  0.00000000000E+00  0.73714599341E+03  0.73714599343E+03  0.50400001928E-02 0. -1.
       -1   -1    0    0    0  501  0.00000000000E+00  0.00000000000E+00 -0.47657023033E+03  0.47657023036E+03  0.50400001928E-02 0.  1.
    10030    2    1    2    0    0  0.00000000000E+00  0.00000000000E+00  0.26057576308E+03  0.12137162238E+04  0.11854144185E+04 0.  0.
        2    1    3    3  502    0 -0.15945135329E+02  0.25620958987E+03  0.67727507467E+03  0.72429215657E+03  0.25500000920E-02 0. -1.
       -2    1    3    3    0  502  0.15945135329E+02 -0.25620958987E+03 -0.41669931159E+03  0.48942406722E+03  0.25500000920E-02 0.  1.
</event>
<event>
 5   0  0.3453625E-04  0.1199871E+04  0.7818609E-02  0.9112970E-01
        3   -1    0    0  501    0  0.00000000000E+00  0.00000000000E+00  0.34641848559E+03  0.34641850031E+03  0.10100000352E+00 0.  1.
       -3   -1    0    0    0  501  0.00000000000E+00  0.00000000000E+00 -0.10389816971E+04  0.10389817020E+04  0.10100000352E+00 0. -1.
    10030    2    1    2    0    0  0.00000000000E+00  0.00000000000E+00 -0.69256321149E+03  0.13854002023E+04  0.11998707925E+04 0.  0.
        1    1    3    3  502    0  0.27462534812E+03 -0.15988732730E+02  0.26930518059E+03  0.38496753334E+03  0.50400001928E-02 0.  1.
       -1    1    3    3    0  502 -0.27462534812E+03  0.15988732730E+02 -0.96186839208E+03  0.10004326690E+04  0.50400001928E-02 0. -1.
</event>
<event>
 5   0  0.9410666E-04  0.1185423E+04  0.7818609E-02  0.9125713E-01
        2   -1    0    0  501    0  0.00000000000E+00  0.00000000000E+00  0.10630082423E+04  0.10630082423E+04  0.25500000920E-02 0.  1.
       -2   -1    0    0    0  501  0.00000000000E+00  0.00000000000E+00 -0.33048345864E+03  0.33048345865E+03  0.25500000920E-02 0. -1.
    10030    2    1    2    0    0  0.00000000000E+00  0.00000000000E+00  0.73252478362E+03  0.13934917009E+04  0.11854225246E+04 0.  0.
        2    1    3    3  502    0  0.37649726122E+03 -0.14842582627E+03 -0.14278969148E+03  0.42914951895E+03  0.25500000920E-02 0. -1.
       -2    1    3    3    0  502 -0.37649726122E+03  0.14842582627E+03  0.87531447510E+03  0.96434218198E+03  0.25500000920E-02 0.  1.
</event>
<event>
 5   0  0.9050363E-04  0.1198548E+04  0.7818609E-02  0.9114129E-01
        2   -1    0    0  501    0  0.00000000000E+00  0.00000000000E+00  0.12088978631E+04  0.12088978631E+04  0.25500000920E-02 0.  1.
       -2   -1    0    0    0  501  0.00000000000E+00  0.00000000000E+00 -0.29707156810E+03  0.29707156812E+03  0.25500000920E-02 0. -1.
    10030    2    1    2    0    0  0.00000000000E+00  0.00000000000E+00  0.91182629498E+03  0.15059694312E+04  0.11985477610E+04 0.  0.
        3    1    3    3  502    0 -0.31959816245E+03  0.22986793423E+03 -0.11180428322E+03  0.40924621021E+03  0.10100000352E+00 0. -1.
       -3    1    3    3    0  502  0.31959816245E+03 -0.22986793423E+03  0.10236305782E+04  0.10967232210E+04  0.10100000352E+00 0.  1.
</event>
<event>
 5   0  0.9410666E-04  0.1202921E+04  0.7818609E-02  0.9110304E-01
       -2   -1    0    0    0  501  0.00000000000E+00  0.00000000000E+00  0.17157312391E+03  0.17157312393E+03  0.25500000920E-02 0. -1.
        2   -1    0    0  501    0  0.00000000000E+00  0.00000000000E+00 -0.21084576845E+04  0.21084576845E+04  0.25500000920E-02 0.  1.
    10030    2    1    2    0    0  0.00000000000E+00  0.00000000000E+00 -0.19368845606E+04  0.22800308085E+04  0.12029208978E+04 0.  0.
        2    1    3    3  502    0 -0.15356740548E+03  0.49337950887E+03 -0.38501121359E+03  0.64439112533E+03  0.25500000920E-02 0. -1.
       -2    1    3    3    0  502  0.15356740548E+03 -0.49337950887E+03 -0.15518733470E+04  0.16356396831E+04  0.25500000920E-02 0.  1.
</event>
<event>
 5   0  0.5003507E-04  0.1193734E+04  0.7818609E-02  0.9118359E-01
        1   -1    0    0  501    0  0.00000000000E+00  0.00000000000E+00  0.96324864768E+03  0.96324864769E+03  0.50400001928E-02 0. -1.
       -1   -1    0    0    0  501  0.00000000000E+00  0.00000000000E+00 -0.36984226766E+03  0.36984226769E+03  0.50400001928E-02 0.  1.
    10030    2    1    2    0    0  0.00000000000E+00  0.00000000000E+00  0.59340638002E+03  0.13330909154E+04  0.11937337462E+04 0.  0.
        3    1    3    3  502    0 -0.38835376175E+02 -0.58702319235E+03  0.18421886551E+03  0.61647466729E+03  0.10100000352E+00 0.  1.
       -3    1    3    3    0  502  0.38835376175E+02  0.58702319235E+03  0.40918751451E+03  0.71661624809E+03  0.10100000352E+00 0. -1.
</event>
<event>
 5   0  0.5157631E-04  0.1206574E+04  0.7818609E-02  0.9107121E-01
       -1   -1    0    0    0  501  0.00000000000E+00  0.00000000000E+00  0.65946056479E+03  0.65946056481E+03  0.50400001928E-02 0. -1.
        1   -1    0    0  501    0  0.00000000000E+00  0.00000000000E+00 -0.55189880468E+03  0.55189880471E+03  0.50400001928E-02 0.  1.
    10030    2    1    2    0    0  0.00000000000E+00  0.00000000000E+00  0.10756176010E+03  0.12113593695E+04  0.12065744858E+04 0.  0.
        5    1    3    3  502    0  0.36831674373E+03 -0.46823633869E+03  0.14918886862E+03  0.61415136660E+03  0.46999998093E+01 0. -1.
       -5    1    3    3    0  502 -0.36831674373E+03  0.46823633869E+03 -0.41627108519E+02  0.59720800291E+03  0.46999998093E+01 0.  1.
</event>
<event>
 5   0  0.9145224E-04  0.1199876E+04  0.7818609E-02  0.9112965E-01
       -2   -1    0    0    0  501  0.00000000000E+00  0.00000000000E+00  0.61319077969E+03  0.61319077970E+03  0.25500000920E-02 0. -1.
        2   -1    0    0  501    0  0.00000000000E+00  0.00000000000E+00 -0.58697205811E+03  0.58697205812E+03  0.25500000920E-02 0.  1.
    10030    2    1    2    0    0  0.00000000000E+00  0.00000000000E+00  0.26218721579E+02  0.12001628378E+04  0.11998764169E+04 0.  0.
        5    1    3    3  502    0  0.43161518777E+03  0.20359119004E+03  0.37673805233E+03  0.60802524047E+03  0.46999998093E+01 0.  1.
       -5    1    3    3    0  502 -0.43161518777E+03 -0.20359119004E+03 -0.35051933075E+03  0.59213759735E+03  0.46999998093E+01 0. -1.
</event>
<event>
 5   0  0.5157631E-04  0.1202079E+04  0.7818609E-02  0.9111038E-01
       -1   -1    0    0    0  501  0.00000000000E+00  0.00000000000E+00  0.32244373061E+03  0.32244373065E+03  0.50400001928E-02 0. -1.
        1   -1    0    0  501    0  0.00000000000E+00  0.00000000000E+00 -0.11203465744E+04  0.11203465744E+04  0.50400001928E-02 0.  1.
    10030    2    1    2    0    0  0.00000000000E+00  0.00000000000E+00 -0.79790284376E+03  0.14427903050E+04  0.12020794134E+04 0.  0.
        5    1    3    3  502    0 -0.57644144116E+01 -0.28846081404E+02 -0.11194599686E+04  0.11198562569E+04  0.46999998093E+01 0.  1.
       -5    1    3    3    0  502  0.57644144116E+01  0.28846081404E+02  0.32155712484E+03  0.32293404810E+03  0.46999998093E+01 0. -1.
</event>
<event>
 5   0  0.5052959E-04  0.1201735E+04  0.7818609E-02  0.9111339E-01
        1   -1    0    0  501    0  0.00000000000E+00  0.00000000000E+00  0.84305291884E+03  0.84305291885E+03  0.50400001928E-02 0. -1.
       -1   -1    0    0    0  501  0.00000000000E+00  0.00000000000E+00 -0.42825523458E+03  0.42825523461E+03  0.50400001928E-02 0.  1.
    10030    2    1    2    0    0  0.00000000000E+00  0.00000000000E+00  0.41479768425E+03  0.12713081535E+04  0.12017351215E+04 0.  0.
        2    1    3    3  502    0 -0.34431610155E+03 -0.45251006852E+03  0.19306820274E+01  0.56861469154E+03  0.25500000920E-02 0.  1.
       -2    1    3    3    0  502  0.34431610155E+03  0.45251006852E+03  0.41286700222E+03  0.70269346192E+03  0.25500000920E-02 0. -1.
</event>
<event>
 5   0  0.9145224E-04  0.1197841E+04  0.7818609E-02  0.9114749E-01
        2   -1    0    0  501    0  0.00000000000E+00  0.00000000000E+00  0.22803163825E+04  0.22803163825E+04  0.25500000920E-02 0.  1.
       -2   -1    0    0    0  501  0.00000000000E+00  0.00000000000E+00 -0.15730516904E+03  0.15730516906E+03  0.25500000920E-02 0. -1.
    10030    2    1    2    0    0  0.00000000000E+00  0.00000000000E+00  0.21230112134E+04  0.24376215515E+04  0.11978406472E+04 0.  0.
        5    1    3    3  502    0 -0.38497819003E+03 -0.38183392673E+03  0.54396325636E+03  0.76806475552E+03  0.46999998093E+01 0. -1.
       -5    1    3    3    0  502  0.38497819003E+03  0.38183392673E+03  0.15790479571E+04  0.16695567960E+04  0.46999998093E+01 0.  1.
</event>
<event>
 5   0  0.5001586E-04  0.1201475E+04  0.7818609E-02  0.9111566E-01
        1   -1    0    0  501    0  0.00000000000E+00  0.00000000000E+00  0.15226302157E+04  0.15226302157E+04  0.50400001928E-02 0.  1.
       -1   -1    0    0    0  501  0.00000000000E+00  0.00000000000E+00 -0.23701461223E+03  0.23701461228E+03  0.50400001928E-02 0. -1.
    10030    2    1    2    0    0  0.00000000000E+00  0.00000000000E+00  0.12856156035E+04  0.17596448280E+04  0.12014751103E+04 0.  0.
        1    1    3    3  502    0 -0.49469884583E+01 -0.44868904383E+03  0.12277918882E+04  0.13072181347E+04  0.50400001928E-02 0.  1.
       -1    1    3    3    0  502  0.49469884583E+01  0.44868904383E+03  0.57823715219E+02  0.45242669331E+03  0.50400001928E-02 0. -1.
</event>
<event>
 5   0  0.9050363E-04  0.1192816E+04  0.7818609E-02  0.9119168E-01
        2   -1    0    0  501    0  0.00000000000E+00  0.00000000000E+00  0.11307668941E+04  0.11307668941E+04  0.25500000920E-02 0. -1.
       -2   -1    0    0    0  501  0.00000000000E+00  0.00000000000E+00 -0.31456763947E+03  0.31456763948E+03  0.25500000920E-02 0.  1.
    10030    2    1    2    0    0  0.00000000000E+00  0.00000000000E+00  0.81619925461E+03  0.14453345336E+04  0.11928162854E+04 0.  0.
        3    1    3    3  502    0 -0.35666371511E+03  0.18597058800E+03 -0.12547276661E+03  0.42135197951E+03  0.10100000352E+00 0.  1.
       -3    1    3    3    0  502  0.35666371511E+03 -0.18597058800E+03  0.94167202121E+03  0.10239825541E+04  0.10100000352E+00 0. -1.
</event>
<event>
 5   0  0.9298693E-04  0.1200156E+04  0.7818609E-02  0.9112720E-01
        2   -1    0    0  501    0  0.00000000000E+00  0.00000000000E+00  0.22734905483E+04  0.22734905483E+04  0.25500000920E-02 0. -1.
       -2   -1    0    0    0  501  0.00000000000E+00  0.00000000000E+00 -0.15838809475E+03  0.15838809477E+03  0.25500000920E-02 0.  1.
    10030    2    1    2    0    0  0.00000000000E+00  0.00000000000E+00  0.21151024536E+04  0.24318786431E+04  0.12001563838E+04 0.  0.
        1    1    3    3  502    0  0.46035119197E+03 -0.36107138660E+03  0.13278789066E+04  0.14510541536E+04  0.50400001928E-02 0.  1.
       -1    1    3    3    0  502 -0.46035119197E+03  0.36107138660E+03  0.78722354696E+03  0.98082448944E+03  0.50400001928E-02 0. -1.
</event>
<event>
 5   0  0.9050363E-04  0.1203228E+04  0.7818609E-02  0.9110036E-01
        2   -1    0    0  501    0  0.00000000000E+00  0.00000000000E+00  0.17359944557E+04  0.17359944557E+04  0.25500000920E-02 0. -1.
       -2   -1    0    0    0  501  0.00000000000E+00  0.00000000000E+00 -0.20849111194E+03  0.20849111195E+03  0.25500000920E-02 0.  1.
    10030    2    1    2    0    0  0.00000000000E+00  0.00000000000E+00  0.15275033437E+04  0.19444855676E+04  0.12032280156E+04 0.  0.
        3    1    3    3  502    0  0.57239189709E+03 -0.35284311220E+02  0.46990488886E+03  0.74140952331E+03  0.10100000352E+00 0.  1.
       -3    1    3    3    0  502 -0.57239189709E+03  0.35284311220E+02  0.10575984549E+04  0.12030760443E+04  0.10100000352E+00 0. -1.
</event>
<event>
 5   0  0.5052959E-04  0.1205707E+04  0.7818609E-02  0.9107876E-01
        1   -1    0    0  501    0  0.00000000000E+00  0.00000000000E+00  0.48770829166E+03  0.48770829169E+03  0.50400001928E-02 0. -1.
       -1   -1    0    0    0  501  0.00000000000E+00  0.00000000000E+00 -0.74518405592E+03  0.74518405594E+03  0.50400001928E-02 0.  1.
    10030    2    1    2    0    0  0.00000000000E+00  0.00000000000E+00 -0.25747576426E+03  0.12328923476E+04  0.12057071666E+04 0.  0.
        2    1    3    3  502    0 -0.26114892634E+03  0.54314750337E+03 -0.14405803891E+03  0.61964561704E+03  0.25500000920E-02 0.  1.
       -2    1    3    3    0  502  0.26114892634E+03 -0.54314750337E+03 -0.11341772535E+03  0.61324673058E+03  0.25500000920E-02 0. -1.
</event>
<event>
 5   0  0.9070772E-04  0.1200823E+04  0.7818609E-02  0.9112137E-01
       -2   -1    0    0    0  501  0.00000000000E+00  0.00000000000E+00  0.32293914153E+03  0.32293914154E+03  0.25500000920E-02 0. -1.
        2   -1    0    0  501    0  0.00000000000E+00  0.00000000000E+00 -0.11162899051E+04  0.11162899051E+04  0.25500000920E-02 0.  1.
    10030    2    1    2    0    0  0.00000000000E+00  0.00000000000E+00 -0.79335076359E+03  0.14392290467E+04  0.12008225575E+04 0.  0.
        4    1    3    3  502    0 -0.26714142660E+03 -0.42567389320E+02  0.24576178161E+03  0.36548186089E+03  0.12699999809E+01 0. -1.
       -4    1    3    3    0  502  0.26714142660E+03  0.42567389320E+02 -0.10391125452E+04  0.10737471858E+04  0.12699999809E+01 0.  1.
</event>
<event>
 5   0  0.5157631E-04  0.1199878E+04  0.7818609E-02  0.9112964E-01
       -1   -1    0    0    0  501  0.00000000000E+00  0.00000000000E+00  0.45048890897E+03  0.45048890900E+03  0.50400001928E-02 0. -1.
        1   -1    0    0  501    0  0.00000000000E+00  0.00000000000E+00 -0.79896889565E+03  0.79896889567E+03  0.50400001928E-02 0.  1.
    10030    2    1    2    0    0  0.00000000000E+00  0.00000000000E+00 -0.34847998668E+03  0.12494578047E+04  0.11998777040E+04 0.  0.
        5    1    3    3  502    0 -0.46856015017E+03 -0.37461078896E+03 -0.17919897841E+03  0.62611198790E+03  0.46999998093E+01 0.  1.
       -5    1    3    3    0  502  0.46856015017E+03  0.37461078896E+03 -0.16928100827E+03  0.62334581677E+03  0.46999998093E+01 0. -1.
</event>
<event>
 5   0  0.3453625E-04  0.1126644E+04  0.7818609E-02  0.9179605E-01
        4   -1    0    0  501    0  0.00000000000E+00  0.00000000000E+00  0.53743134770E+03  0.53743284826E+03  0.12699999809E+01 0.  1.
       -4   -1    0    0    0  501  0.00000000000E+00  0.00000000000E+00 -0.59045658855E+03  0.59045795436E+03  0.12699999809E+01 0. -1.
    10030    2    1    2    0    0  0.00000000000E+00  0.00000000000E+00 -0.53025240847E+02  0.11278908026E+04  0.11266436821E+04 0.  0.
        5    1    3    3  502    0  0.77177717599E+02  0.13801345207E+03  0.51473850172E+03  0.53849970121E+03  0.46999998093E+01 0.  1.
       -5    1    3    3    0  502 -0.77177717599E+02 -0.13801345207E+03 -0.56776374257E+03  0.58939110141E+03  0.46999998093E+01 0. -1.
</event>
<event>
 5   0  0.3453625E-04  0.1199191E+04  0.7818609E-02  0.9113565E-01
        3   -1    0    0  501    0  0.00000000000E+00  0.00000000000E+00  0.72419331340E+03  0.72419332044E+03  0.10100000352E+00 0.  1.
       -3   -1    0    0    0  501  0.00000000000E+00  0.00000000000E+00 -0.49643496090E+03  0.49643497117E+03  0.10100000352E+00 0. -1.
    10030    2    1    2    0    0  0.00000000000E+00  0.00000000000E+00  0.22775835250E+03  0.12206282916E+04  0.11991912104E+04 0.  0.
        1    1    3    3  502    0  0.51130617964E+03 -0.24332749131E+03 -0.86806723126E+02  0.57286794689E+03  0.50400001928E-02 0. -1.
       -1    1    3    3    0  502 -0.51130617964E+03  0.24332749131E+03  0.31456507562E+03  0.64776034472E+03  0.50400001928E-02 0.  1.
</event>
<event>
 5   0  0.5052959E-04  0.1198788E+04  0.7818609E-02  0.9113918E-01
       -1   -1    0    0    0  501  0.00000000000E+00  0.00000000000E+00  0.26622669919E+03  0.26622669924E+03  0.50400001928E-02 0. -1.
        1   -1    0    0  501    0  0.00000000000E+00  0.00000000000E+00 -0.13495013872E+04  0.13495013872E+04  0.50400001928E-02 0.  1.
    10030    2    1    2    0    0  0.00000000000E+00  0.00000000000E+00 -0.10832746880E+04  0.16157280865E+04  0.11987882214E+04 0.  0.
        2    1    3    3  502    0  0.51186091071E+03 -0.27685086248E+03 -0.73520198571E+03  0.93764063039E+03  0.25500000920E-02 0.  1.
       -2    1    3    3    0  502 -0.51186091071E+03  0.27685086248E+03 -0.34807270231E+03  0.67808745606E+03  0.25500000920E-02 0. -1.
</event>
<event>
 5   0  0.5003507E-04  0.1194864E+04  0.7818609E-02  0.9117364E-01
        1   -1    0    0  501    0  0.00000000000E+00  0.00000000000E+00  0.11133925094E+04  0.11133925094E+04  0.50400001928E-02 0. -1.
       -1   -1    0    0    0  501  0.00000000000E+00  0.00000000000E+00 -0.32057436866E+03  0.32057436870E+03  0.50400001928E-02 0.  1.
    10030    2    1    2    0    0  0.00000000000E+00  0.00000000000E+00  0.79281814070E+03  0.14339668781E+04  0.11948641777E+04 0.  0.
        3    1    3    3  502    0  0.56132637490E+03 -0.20155414204E+03  0.35459911531E+03  0.69386736060E+03  0.10100000352E+00 0.  1.
       -3    1    3    3    0  502 -0.56132637490E+03  0.20155414204E+03  0.43821902540E+03  0.74009951747E+03  0.10100000352E+00 0. -1.
</event>
<event>
 5   0  0.5157631E-04  0.1222964E+04  0.7818609E-02  0.9092990E-01
        1   -1    0    0  501    0  0.00000000000E+00  0.00000000000E+00  0.11971495951E+04  0.11971495951E+04  0.50400001928E-02 0. -1.
       -1   -1    0    0    0  501  0.00000000000E+00  0.00000000000E+00 -0.31233377692E+03  0.31233377696E+03  0.50400001928E-02 0.  1.
    10030    2    1    2    0    0  0.00000000000E+00  0.00000000000E+00  0.88481581816E+03  0.15094833721E+04  0.12229640299E+04 0.  0.
        5    1    3    3  502    0  0.50139819633E+02  0.51127056198E+03  0.33086230973E+02  0.51480906921E+03  0.46999998093E+01 0.  1.
       -5    1    3    3    0  502 -0.50139819633E+02 -0.51127056198E+03  0.85172958719E+03  0.99467430285E+03  0.46999998093E+01 0. -1.
</event>
<event>
 5   0  0.9145224E-04  0.1200830E+04  0.7818609E-02  0.9112131E-01
        2   -1    0    0  501    0  0.00000000000E+00  0.00000000000E+00  0.16463754761E+03  0.16463754763E+03  0.25500000920E-02 0. -1.
       -2   -1    0    0    0  501  0.00000000000E+00  0.00000000000E+00 -0.21896460032E+04  0.21896460032E+04  0.25500000920E-02 0.  1.
    10030    2    1    2    0    0  0.00000000000E+00  0.00000000000E+00 -0.20250084556E+04  0.23542835508E+04  0.12008296268E+04 0.  0.
        5    1    3    3  502    0 -0.19953635020E+03 -0.46435583187E+03 -0.16478993946E+04  0.17236692253E+04  0.46999998093E+01 0. -1.
       -5    1    3    3    0  502  0.19953635020E+03  0.46435583187E+03 -0.37710906098E+03  0.63061432549E+03  0.46999998093E+01 0.  1.
</event>
<event>
 5   0  0.5001586E-04  0.1227861E+04  0.7818609E-02  0.9088813E-01
        1   -1    0    0  501    0  0.00000000000E+00  0.00000000000E+00  0.16025123249E+04  0.16025123250E+04  0.50400001928E-02 0.  1.
       -1   -1    0    0    0  501  0.00000000000E+00  0.00000000000E+00 -0.23519994688E+03  0.23519994693E+03  0.50400001928E-02 0. -1.
    10030    2    1    2    0    0  0.00000000000E+00  0.00000000000E+00  0.13673123781E+04  0.18377122719E+04  0.12278612524E+04 0.  0.
        1    1    3    3  502    0 -0.21941912042E+02  0.15505214743E+03  0.15721182723E+04  0.15798982493E+04  0.50400001928E-02 0.  1.
       -1    1    3    3    0  502  0.21941912042E+02 -0.15505214743E+03 -0.20480589423E+03  0.25781402263E+03  0.50400001928E-02 0. -1.
</event>
<event>
 5   0  0.5157631E-04  0.1154055E+04  0.7818609E-02  0.9154051E-01
       -1   -1    0    0    0  501  0.00000000000E+00  0.00000000000E+00  0.13253730348E+03  0.13253730357E+03  0.50400001928E-02 0.  1.
        1   -1    0    0  501    0  0.00000000000E+00  0.00000000000E+00 -0.25122036424E+04  0.25122036424E+04  0.50400001928E-02 0. -1.
    10030    2    1    2    0    0  0.00000000000E+00  0.00000000000E+00 -0.23796663389E+04  0.26447409460E+04  0.11540549323E+04 0.  0.
        5    1    3    3  502    0  0.43520766567E+03 -0.87816831065E+02 -0.20344121663E+04  0.20822998008E+04  0.46999998093E+01 0. -1.
       -5    1    3    3    0  502 -0.43520766567E+03  0.87816831065E+02 -0.34525417267E+03  0.56244114521E+03  0.46999998093E+01 0.  1.
</event>
<event>
 5   0  0.5447074E-04  0.1200944E+04  0.7818609E-02  0.9112031E-01
       -1   -1    0    0    0  501  0.00000000000E+00  0.00000000000E+00  0.52226225922E+03  0.52226225924E+03  0.50400001928E-02 0.  1.
        1   -1    0    0  501    0  0.00000000000E+00  0.00000000000E+00 -0.69039394281E+03  0.69039394283E+03  0.50400001928E-02 0. -1.
    10030    2    1    2    0    0  0.00000000000E+00  0.00000000000E+00 -0.16813168359E+03  0.12126562021E+04  0.12009441292E+04 0.  0.
        4    1    3    3  502    0 -0.19344826519E+03 -0.46206853482E+03 -0.41840753666E+03  0.65268372265E+03  0.12699999809E+01 0. -1.
       -4    1    3    3    0  502  0.19344826519E+03  0.46206853482E+03  0.25027585307E+03  0.55997247942E+03  0.12699999809E+01 0.  1.
</event>
<event>
 5   0  0.5052959E-04  0.1200237E+04  0.7818609E-02  0.9112649E-01
       -1   -1    0    0    0  501  0.00000000000E+00  0.00000000000E+00  0.20208054093E+03  0.20208054099E+03  0.50400001928E-02 0. -1.
        1   -1    0    0  501    0  0.00000000000E+00  0.00000000000E+00 -0.17821707630E+04  0.17821707630E+04  0.50400001928E-02 0.  1.
    10030    2    1    2    0    0  0.00000000000E+00  0.00000000000E+00 -0.15800902221E+04  0.19842513040E+04  0.12002366965E+04 0.  0.
        2    1    3    3  502    0  0.30681078722E+03  0.20144081749E+03 -0.51052746219E+01  0.36706583325E+03  0.25500000920E-02 0. -1.
       -2    1    3    3    0  502 -0.30681078722E+03 -0.20144081749E+03 -0.15749849474E+04  0.16171854707E+04  0.25500000920E-02 0.  1.
</event>
<event>
 5   0  0.9410666E-04  0.1199874E+04  0.7818609E-02  0.9112966E-01
        2   -1    0    0  501    0  0.00000000000E+00  0.00000000000E+00  0.46701069466E+03  0.46701069467E+03  0.25500000920E-02 0.  1.
       -2   -1    0    0    0  501  0.00000000000E+00  0.00000000000E+00 -0.77069901221E+03  0.77069901221E+03  0.25500000920E-02 0. -1.
    10030    2    1    2    0    0  0.00000000000E+00  0.00000000000E+00 -0.30368831754E+03  0.12377097069E+04  0.11998744619E+04 0.  0.
        2    1    3    3  502    0 -0.36965744952E+03 -0.37986599880E+03 -0.44173947955E+03  0.68998447434E+03  0.25500000920E-02 0. -1.
       -2    1    3    3    0  502  0.36965744952E+03  0.37986599880E+03  0.13805116201E+03  0.54772523254E+03  0.25500000920E-02 0.  1.
</event>
<event>
 5   0  0.9050363E-04  0.1195615E+04  0.7818609E-02  0.9116703E-01
        2   -1    0    0  501    0  0.00000000000E+00  0.00000000000E+00  0.96663982928E+03  0.96663982928E+03  0.25500000920E-02 0.  1.
       -2   -1    0    0    0  501  0.00000000000E+00  0.00000000000E+00 -0.36970755099E+03  0.36970755100E+03  0.25500000920E-02 0. -1.
    10030    2    1    2    0    0  0.00000000000E+00  0.00000000000E+00  0.59693227829E+03  0.13363473803E+04  0.11956153963E+04 0.  0.
        3    1    3    3  502    0  0.12794142629E+02 -0.36435175877E+03 -0.23106992987E+03  0.43163551394E+03  0.10100000352E+00 0. -1.
       -3    1    3    3    0  502 -0.12794142629E+02  0.36435175877E+03  0.82800220815E+03  0.90471186635E+03  0.10100000352E+00 0.  1.
</event>
<event>
 5   0  0.9070772E-04  0.1198681E+04  0.7818609E-02  0.9114012E-01
        2   -1    0    0  501    0  0.00000000000E+00  0.00000000000E+00  0.16979150529E+04  0.16979150529E+04  0.25500000920E-02 0. -1.
       -2   -1    0    0    0  501  0.00000000000E+00  0.00000000000E+00 -0.21155878196E+03  0.21155878197E+03  0.25500000920E-02 0.  1.
    10030    2    1    2    0    0  0.00000000000E+00  0.00000000000E+00  0.14863562710E+04  0.19094738349E+04  0.11986806756E+04 0.  0.
        4    1    3    3  502    0 -0.92284502435E+02  0.32963069889E+02 -0.19870831575E+03  0.22156173184E+03  0.12699999809E+01 0.  1.
       -4    1    3    3    0  502  0.92284502435E+02 -0.32963069889E+02  0.16850645867E+04  0.16879121031E+04  0.12699999809E+01 0. -1.
</event>
<event>
 5   0  0.5157631E-04  0.1203491E+04  0.7818609E-02  0.9109806E-01
        1   -1    0    0  501    0  0.00000000000E+00  0.00000000000E+00  0.69925063109E+03  0.69925063111E+03  0.50400001928E-02 0. -1.
       -1   -1    0    0    0  501  0.00000000000E+00  0.00000000000E+00 -0.51783672606E+03  0.51783672609E+03  0.50400001928E-02 0.  1.
    10030    2    1    2    0    0  0.00000000000E+00  0.00000000000E+00  0.18141390503E+03  0.12170873572E+04  0.12034910179E+04 0.  0.
        5    1    3    3  502    0  0.48241027644E+02 -0.59638978604E+03  0.26208738184E+02  0.59892984697E+03  0.46999998093E+01 0.  1.
       -5    1    3    3    0  502 -0.48241027644E+02  0.59638978604E+03  0.15520516685E+03  0.61815751023E+03  0.46999998093E+01 0. -1.
</event>
<event>
 5   0  0.9298693E-04  0.1187572E+04  0.7818609E-02  0.9123805E-01
        2   -1    0    0  501    0  0.00000000000E+00  0.00000000000E+00  0.21361329068E+04  0.21361329068E+04  0.25500000920E-02 0. -1.
       -2   -1    0    0    0  501  0.00000000000E+00  0.00000000000E+00 -0.16505619051E+03  0.16505619053E+03  0.25500000920E-02 0.  1.
    10030    2    1    2    0    0  0.00000000000E+00  0.00000000000E+00  0.19710767163E+04  0.23011890973E+04  0.11875722463E+04 0.  0.
        1    1    3    3  502    0  0.39297683131E+03 -0.11057483446E+03  0.15001146219E+03  0.43492645675E+03  0.50400001928E-02 0.  1.
       -1    1    3    3    0  502 -0.39297683131E+03  0.11057483446E+03  0.18210652541E+04  0.18662626406E+04  0.50400001928E-02 0. -1.
</event>
<event>
 5   0  0.9145224E-04  0.1203421E+04  0.7818609E-02  0.9109867E-01
       -2   -1    0    0    0  501  0.00000000000E+00  0.00000000000E+00  0.42291987594E+03  0.42291987594E+03  0.25500000920E-02 0. -1.
        2   -1    0    0  501    0  0.00000000000E+00  0.00000000000E+00 -0.85608569655E+03  0.85608569655E+03  0.25500000920E-02 0.  1.
    10030    2    1    2    0    0  0.00000000000E+00  0.00000000000E+00 -0.43316582061E+03  0.12790055725E+04  0.12034212173E+04 0.  0.
        5    1    3    3  502    0 -0.52795800908E+03  0.17113724272E+03  0.30404935928E+02  0.55585444617E+03  0.46999998093E+01 0.  1.
       -5    1    3    3    0  502  0.52795800908E+03 -0.17113724272E+03 -0.46357075654E+03  0.72315112633E+03  0.46999998093E+01 0. -1.
</event>
<event>
 5   0  0.5447074E-04  0.1202201E+04  0.7818609E-02  0.9110932E-01
        1   -1    0    0  501    0  0.00000000000E+00  0.00000000000E+00  0.45988429921E+03  0.45988429924E+03  0.50400001928E-02 0.  1.
       -1   -1    0    0    0  501  0.00000000000E+00  0.00000000000E+00 -0.78568037570E+03  0.78568037572E+03  0.50400001928E-02 0. -1.
    10030    2    1    2    0    0  0.00000000000E+00  0.00000000000E+00 -0.32579607649E+03  0.12455646750E+04  0.12022014291E+04 0.  0.
        4    1    3    3  502    0 -0.22523966171E+03 -0.21758432220E+03  0.36868215390E+03  0.48373958488E+03  0.12699999809E+01 0.  1.
       -4    1    3    3    0  502  0.22523966171E+03  0.21758432220E+03 -0.69447823039E+03  0.76182509007E+03  0.12699999809E+01 0. -1.
</event>
<event>
 5   0  0.5052959E-04  0.1196474E+04  0.7818609E-02  0.9115948E-01
        1   -1    0    0  501    0  0.00000000000E+00  0.00000000000E+00  0.12964289777E+04  0.12964289778E+04  0.50400001928E-02 0. -1.
       -1   -1    0    0    0  501  0.00000000000E+00  0.00000000000E+00 -0.27605650637E+03  0.27605650642E+03  0.50400001928E-02 0.  1.
    10030    2    1    2    0    0  0.00000000000E+00  0.00000000000E+00  0.10203724714E+04  0.15724854842E+04  0.11964742444E+04 0.  0.
        2    1    3    3  502    0 -0.17397716030E+03  0.28027429056E+03  0.11660904897E+04  0.12118534402E+04  0.25500000920E-02 0. -1.
       -2    1    3    3    0  502  0.17397716030E+03 -0.28027429056E+03 -0.14571801837E+03  0.36063204397E+03  0.25500000920E-02 0.  1.
</event>
<event>
 5   0  0.5052959E-04  0.1204023E+04  0.7818609E-02  0.9109342E-01
        1   -1    0    0  501    0  0.00000000000E+00  0.00000000000E+00  0.59436271754E+03  0.59436271756E+03  0.50400001928E-02 0. -1.
       -1   -1    0    0    0  501  0.00000000000E+00  0.00000000000E+00 -0.60975871568E+03  0.60975871570E+03  0.50400001928E-02 0.  1.
    10030    2    1    2    0    0  0.00000000000E+00  0.00000000000E+00 -0.15395998140E+02  0.12041214333E+04  0.12040230020E+04 0.  0.
        2    1    3    3  502    0  0.53901669878E+03  0.29707414869E+02 -0.27417111948E+03  0.60546786441E+03  0.25500000920E-02 0.  1.
       -2    1    3    3    0  502 -0.53901669878E+03 -0.29707414869E+02  0.25877512134E+03  0.59865356885E+03  0.25500000920E-02 0. -1.
</event>
<event>
 5   0  0.5003507E-04  0.1181011E+04  0.7818609E-02  0.9129642E-01
       -1   -1    0    0    0  501  0.00000000000E+00  0.00000000000E+00  0.76246210129E+03  0.76246210131E+03  0.50400001928E-02 0.  1.
        1   -1    0    0  501    0  0.00000000000E+00  0.00000000000E+00 -0.45732985268E+03  0.45732985270E+03  0.50400001928E-02 0. -1.
    10030    2    1    2    0    0  0.00000000000E+00  0.00000000000E+00  0.30513224862E+03  0.12197919540E+04  0.11810108898E+04 0.  0.
        3    1    3    3  502    0  0.16361120879E+03  0.55553115625E+03  0.27173770955E+03  0.63970687522E+03  0.10100000352E+00 0. -1.
       -3    1    3    3    0  502 -0.16361120879E+03 -0.55553115625E+03  0.33394539063E+02  0.58008507880E+03  0.10100000352E+00 0.  1.
</event>
<event>
 5   0  0.5052959E-04  0.1200823E+04  0.7818609E-02  0.9112136E-01
        1   -1    0    0  501    0  0.00000000000E+00  0.00000000000E+00  0.15239590865E+04  0.15239590865E+04  0.50400001928E-02 0. -1.
       -1   -1    0    0    0  501  0.00000000000E+00  0.00000000000E+00 -0.23655097481E+03  0.23655097486E+03  0.50400001928E-02 0.  1.
    10030    2    1    2    0    0  0.00000000000E+00  0.00000000000E+00  0.12874081117E+04  0.17605100614E+04  0.12008230636E+04 0.  0.
        2    1    3    3  502    0  0.45886001067E+03 -0.21284154844E+03  0.11179551059E+04  0.12270605743E+04  0.25500000920E-02 0. -1.
       -2    1    3    3    0  502 -0.45886001067E+03  0.21284154844E+03  0.16945300584E+03  0.53344948714E+03  0.25500000920E-02 0.  1.
</event>
<event>
 5   0  0.9410666E-04  0.1191225E+04  0.7818609E-02  0.9120572E-01
        2   -1    0    0  501    0  0.00000000000E+00  0.00000000000E+00  0.68077456961E+03  0.68077456962E+03  0.25500000920E-02 0. -1.
       -2   -1    0    0    0  501  0.00000000000E+00  0.00000000000E+00 -0.52110355621E+03  0.52110355622E+03  0.25500000920E-02 0.  1.
    10030    2    1    2    0    0  0.00000000000E+00  0.00000000000E+00  0.15967101340E+03  0.12018781258E+04  0.11912246626E+04 0.  0.
        2    1    3    3  502    0  0.21395614054E+03  0.17486619308E+03 -0.45251822720E+03  0.53021520302E+03  0.25500000920E-02 0.  1.
       -2    1    3    3    0  502 -0.21395614054E+03 -0.17486619308E+03  0.61218924061E+03  0.67166292281E+03  0.25500000920E-02 0. -1.
</event>
<event>
 5   0  0.9410666E-04  0.1215227E+04  0.7818609E-02  0.9099632E-01
       -2   -1    0    0    0  501  0.00000000000E+00  0.00000000000E+00  0.18915655168E+03  0.18915655170E+03  0.25500000920E-02 0. -1.
        2   -1    0    0  501    0  0.00000000000E+00  0.00000000000E+00 -0.19517910236E+04  0.19517910236E+04  0.25500000920E-02 0.  1.
    10030    2    1    2    0    0  0.00000000000E+00  0.00000000000E+00 -0.17626344719E+04  0.21409475753E+04  0.12152268260E+04 0.  0.
        2    1    3    3  502    0 -0.51929867376E+03 -0.31082342559E+02 -0.14344024640E+04  0.15258268752E+04  0.25500000920E-02 0. -1.
       -2    1    3    3    0  502  0.51929867376E+03  0.31082342559E+02 -0.32823200795E+03  0.61512070006E+03  0.25500000920E-02 0.  1.
</event>
<event>
 5   0  0.9050363E-04  0.1199543E+04  0.7818609E-02  0.9113256E-01
       -2   -1    0    0    0  501  0.00000000000E+00  0.00000000000E+00  0.62208478846E+03  0.62208478847E+03  0.25500000920E-02 0.  1.
        2   -1    0    0  501    0  0.00000000000E+00  0.00000000000E+00 -0.57825880263E+03  0.57825880263E+03  0.25500000920E-02 0. -1.
    10030    2    1    2    0    0  0.00000000000E+00  0.00000000000E+00  0.43825985837E+02  0.12003435911E+04  0.11995432546E+04 0.  0.
        3    1    3    3  502    0  0.65307446526E+02  0.42318942699E+03  0.44215943279E+03  0.61551549769E+03  0.10100000352E+00 0.  1.
       -3    1    3    3    0  502 -0.65307446526E+02 -0.42318942699E+03 -0.39833344695E+03  0.58482809342E+03  0.10100000352E+00 0. -1.
</event>
<event>
 5   0  0.5001586E-04  0.1191849E+04  0.7818609E-02  0.9120021E-01
       -1   -1    0    0    0  501  0.00000000000E+00  0.00000000000E+00  0.54469094279E+03  0.54469094281E+03  0.50400001928E-02 0.  1.
        1   -1    0    0  501    0  0.00000000000E+00  0.00000000000E+00 -0.65197706022E+03  0.65197706024E+03  0.50400001928E-02 0. -1.
    10030    2    1    2    0    0  0.00000000000E+00  0.00000000000E+00 -0.10728611743E+03  0.11966680031E+04  0.11918489831E+04 0.  0.
        1    1    3    3  502    0 -0.10278982946E+03 -0.46799166436E+03  0.30211153817E+03  0.56643916573E+03  0.50400001928E-02 0.  1.
       -1    1    3    3    0  502  0.10278982946E+03  0.46799166436E+03 -0.40939765560E+03  0.63022883732E+03  0.50400001928E-02 0. -1.
</event>
<event>
 5   0  0.5052959E-04  0.1194365E+04  0.7818609E-02  0.9117803E-01
        1   -1    0    0  501    0  0.00000000000E+00  0.00000000000E+00  0.68441763431E+03  0.68441763433E+03  0.50400001928E-02 0. -1.
       -1   -1    0    0    0  501  0.00000000000E+00  0.00000000000E+00 -0.52106668744E+03  0.52106668746E+03  0.50400001928E-02 0.  1.
    10030    2    1    2    0    0  0.00000000000E+00  0.00000000000E+00  0.16335094687E+03  0.12054843218E+04  0.11943654877E+04 0.  0.
        2    1    3    3  502    0 -0.27178618570E+03  0.37931710644E+03  0.45780817822E+03  0.65371058277E+03  0.25500000920E-02 0. -1.
       -2    1    3    3    0  502  0.27178618570E+03 -0.37931710644E+03 -0.29445723135E+03  0.55177373902E+03  0.25500000920E-02 0.  1.
</event>
<event>
 5   0  0.5052959E-04  0.1202906E+04  0.7818609E-02  0.9110317E-01
       -1   -1    0    0    0  501  0.00000000000E+00  0.00000000000E+00  0.11210448240E+04  0.11210448241E+04  0.50400001928E-02 0. -1.
        1   -1    0    0  501    0  0.00000000000E+00  0.00000000000E+00 -0.32268621991E+03  0.32268621995E+03  0.50400001928E-02 0.  1.
    10030    2    1    2    0    0  0.00000000000E+00  0.00000000000E+00  0.79835860414E+03  0.14437310440E+04  0.12029060091E+04 0.  0.
        2    1    3    3  502    0  0.39541585389E+03  0.32729287762E+03  0.77542206349E+03  0.92992134173E+03  0.25500000920E-02 0. -1.
       -2    1    3    3    0  502 -0.39541585389E+03 -0.32729287762E+03  0.22936540650E+02  0.51380970228E+03  0.25500000920E-02 0.  1.
</event>
<event>
 5   0  0.9050363E-04  0.1206386E+04  0.7818609E-02  0.9107285E-01
        2   -1    0    0  501    0  0.00000000000E+00  0.00000000000E+00  0.18540493887E+04  0.18540493887E+04  0.25500000920E-02 0. -1.
       -2   -1    0    0    0  501  0.00000000000E+00  0.00000000000E+00 -0.19624164666E+03  0.19624164668E+03  0.25500000920E-02 0.  1.
    10030    2    1    2    0    0  0.00000000000E+00  0.00000000000E+00  0.16578077420E+04  0.20502910354E+04  0.12063858505E+04 0.  0.
        3    1    3    3  502    0 -0.36955798894E+03 -0.32202683109E+03  0.14263256768E+04  0.15082040093E+04  0.10100000352E+00 0. -1.
       -3    1    3    3    0  502  0.36955798894E+03  0.32202683109E+03  0.23148206525E+03  0.54208702610E+03  0.10100000352E+00 0.  1.
</event>
<event>
 5   0  0.9410666E-04  0.1204845E+04  0.7818609E-02  0.9108626E-01
        2   -1    0    0  501    0  0.00000000000E+00  0.00000000000E+00  0.72013264310E+03  0.72013264310E+03  0.25500000920E-02 0. -1.
       -2   -1    0    0    0  501  0.00000000000E+00  0.00000000000E+00 -0.50395308543E+03  0.50395308544E+03  0.25500000920E-02 0.  1.
    10030    2    1    2    0    0  0.00000000000E+00  0.00000000000E+00  0.21617955767E+03  0.12240857285E+04  0.12048453302E+04 0.  0.
        2    1    3    3  502    0 -0.31690990613E+03 -0.47174536644E+03  0.31112477827E+03  0.64789984336E+03  0.25500000920E-02 0. -1.
       -2    1    3    3    0  502  0.31690990613E+03  0.47174536644E+03 -0.94945220603E+02  0.57618588518E+03  0.25500000920E-02 0.  1.
</event>
<event>
 5   0  0.9410666E-04  0.1203098E+04  0.7818609E-02  0.9110149E-01
        2   -1    0    0  501    0  0.00000000000E+00  0.00000000000E+00  0.10629831391E+04  0.10629831391E+04  0.25500000920E-02 0. -1.
       -2   -1    0    0    0  501  0.00000000000E+00  0.00000000000E+00 -0.34042042499E+03  0.34042042500E+03  0.25500000920E-02 0.  1.
    10030    2    1    2    0    0  0.00000000000E+00  0.00000000000E+00  0.72256271410E+03  0.14034035641E+04  0.12030979544E+04 0.  0.
        2    1    3    3  502    0 -0.11950654232E+03 -0.11183898589E+03  0.10365090826E+04  0.10493525865E+04  0.25500000920E-02 0. -1.
       -2    1    3    3    0  502  0.11950654232E+03  0.11183898589E+03 -0.31394636852E+03  0.35405097760E+03  0.25500000920E-02 0.  1.
</event>
<event>
 5   0  0.5447074E-04  0.1196029E+04  0.7818609E-02  0.9116339E-01
       -1   -1    0    0    0  501  0.00000000000E+00  0.00000000000E+00  0.25573638995E+03  0.25573639000E+03  0.50400001928E-02 0. -1.
        1   -1    0    0  501    0  0.00000000000E+00  0.00000000000E+00 -0.13983986348E+04  0.13983986348E+04  0.50400001928E-02 0.  1.
    10030    2    1    2    0    0  0.00000000000E+00  0.00000000000E+00 -0.11426622449E+04  0.16541350248E+04  0.11960291278E+04 0.  0.
        4    1    3    3  502    0  0.14202615636E+02 -0.55886104493E+03 -0.27764664574E+03  0.62419280244E+03  0.12699999809E+01 0. -1.
       -4    1    3    3    0  502 -0.14202615636E+02  0.55886104493E+03 -0.86501559912E+03  0.10299422224E+04  0.12699999809E+01 0.  1.
</event>
<event>
 5   0  0.3453625E-04  0.1192374E+04  0.7818609E-02  0.9119558E-01
        3   -1    0    0  501    0  0.00000000000E+00  0.00000000000E+00  0.42865590436E+03  0.42865591626E+03  0.10100000352E+00 0.  1.
       -3   -1    0    0    0  501  0.00000000000E+00  0.00000000000E+00 -0.82919435834E+03  0.82919436449E+03  0.10100000352E+00 0. -1.
    10030    2    1    2    0    0  0.00000000000E+00  0.00000000000E+00 -0.40053845398E+03  0.12578502808E+04  0.11923742180E+04 0.  0.
        2    1    3    3  502    0 -0.40546022003E+03 -0.27947517615E+03  0.15424207445E+03  0.51603777153E+03  0.25500000920E-02 0.  1.
       -2    1    3    3    0  502  0.40546022003E+03  0.27947517615E+03 -0.55478052843E+03  0.74181250922E+03  0.25500000920E-02 0. -1.
</event>
<event>
 5   0  0.9298693E-04  0.1173721E+04  0.7818609E-02  0.9136175E-01
       -2   -1    0    0    0  501  0.00000000000E+00  0.00000000000E+00  0.28534881234E+03  0.28534881235E+03  0.25500000920E-02 0.  1.
        2   -1    0    0  501    0  0.00000000000E+00  0.00000000000E+00 -0.12069613179E+04  0.12069613179E+04  0.25500000920E-02 0. -1.
    10030    2    1    2    0    0  0.00000000000E+00  0.00000000000E+00 -0.92161250554E+03  0.14923101302E+04  0.11737205436E+04 0.  0.
        1    1    3    3  502    0  0.49247275032E+03  0.42316979200E+00 -0.86662211887E+03  0.99677654759E+03  0.50400001928E-02 0. -1.
       -1    1    3    3    0  502 -0.49247275032E+03 -0.42316979200E+00 -0.54990386674E+02  0.49553358265E+03  0.50400001928E-02 0.  1.
</event>
<event>
 5   0  0.9050363E-04  0.1192687E+04  0.7818609E-02  0.9119282E-01
        2   -1    0    0  501    0  0.00000000000E+00  0.00000000000E+00  0.39213757359E+03  0.39213757360E+03  0.25500000920E-02 0.  1.
       -2   -1    0    0    0  501  0.00000000000E+00  0.00000000000E+00 -0.90688953490E+03  0.90688953491E+03  0.25500000920E-02 0. -1.
    10030    2    1    2    0    0  0.00000000000E+00  0.00000000000E+00 -0.51475196131E+03  0.12990271085E+04  0.11926868185E+04 0.  0.
        3    1    3    3  502    0  0.38680880752E+03  0.42003879893E+03 -0.70079026803E+02  0.57529533840E+03  0.10100000352E+00 0.  1.
       -3    1    3    3    0  502 -0.38680880752E+03 -0.42003879893E+03 -0.44467293451E+03  0.72373177011E+03  0.10100000352E+00 0. -1.
</event>
<event>
 5   0  0.5052959E-04  0.1199019E+04  0.7818609E-02  0.9113716E-01
        1   -1    0    0  501    0  0.00000000000E+00  0.00000000000E+00  0.36903646453E+03  0.36903646457E+03  0.50400001928E-02 0. -1.
       -1   -1    0    0    0  501  0.00000000000E+00  0.00000000000E+00 -0.97391892110E+03  0.97391892112E+03  0.50400001928E-02 0.  1.
    10030    2    1    2    0    0  0.00000000000E+00  0.00000000000E+00 -0.60488245657E+03  0.13429553857E+04  0.11990189246E+04 0.  0.
        2    1    3    3  502    0  0.43302174239E+03  0.18054316113E+03  0.11560419345E+03  0.48318525636E+03  0.25500000920E-02 0.  1.
       -2    1    3    3    0  502 -0.43302174239E+03 -0.18054316113E+03 -0.72048665002E+03  0.85977012932E+03  0.25500000920E-02 0. -1.
</event>
<event>
 5   0  0.9050363E-04  0.1205094E+04  0.7818609E-02  0.9108409E-01
       -2   -1    0    0    0  501  0.00000000000E+00  0.00000000000E+00  0.55392706156E+03  0.55392706157E+03  0.25500000920E-02 0.  1.
        2   -1    0    0  501    0  0.00000000000E+00  0.00000000000E+00 -0.65543467617E+03  0.65543467618E+03  0.25500000920E-02 0. -1.
    10030    2    1    2    0    0  0.00000000000E+00  0.00000000000E+00 -0.10150761461E+03  0.12093617377E+04  0.12050941942E+04 0.  0.
        3    1    3    3  502    0  0.12664839215E+03 -0.57362198312E+03 -0.18532191386E+03  0.61597582478E+03  0.10100000352E+00 0.  1.
       -3    1    3    3    0  502 -0.12664839215E+03  0.57362198312E+03  0.83814299243E+02  0.59338591297E+03  0.10100000352E+00 0. -1.
</event>
<event>
 5   0  0.9410666E-04  0.1198021E+04  0.7818609E-02  0.9114591E-01
        2   -1    0    0  501    0  0.00000000000E+00  0.00000000000E+00  0.10546050593E+04  0.10546050593E+04  0.25500000920E-02 0. -1.
       -2   -1    0    0    0  501  0.00000000000E+00  0.00000000000E+00 -0.34023477038E+03  0.34023477039E+03  0.25500000920E-02 0.  1.
    10030    2    1    2    0    0  0.00000000000E+00  0.00000000000E+00  0.71437028895E+03  0.13948398297E+04  0.11980205511E+04 0.  0.
        2    1    3    3  502    0 -0.13267330956E+03  0.44436338267E+03  0.79862084566E+03  0.92350218086E+03  0.25500000920E-02 0. -1.
       -2    1    3    3    0  502  0.13267330956E+03 -0.44436338267E+03 -0.84250556709E+02  0.47133764887E+03  0.25500000920E-02 0.  1.
</event>
<event>
 5   0  0.9145224E-04  0.1194700E+04  0.7818609E-02  0.9117508E-01
       -2   -1    0    0    0  501  0.00000000000E+00  0.00000000000E+00  0.20167724123E+03  0.20167724124E+03  0.25500000920E-02 0. -1.
        2   -1    0    0  501    0  0.00000000000E+00  0.00000000000E+00 -0.17692975381E+04  0.17692975381E+04  0.25500000920E-02 0.  1.
    10030    2    1    2    0    0  0.00000000000E+00  0.00000000000E+00 -0.15676202969E+04  0.19709747794E+04  0.11947000400E+04 0.  0.
        5    1    3    3  502    0 -0.18420041190E+03 -0.50888531785E+03 -0.12008808173E+04  0.13172057113E+04  0.46999998093E+01 0. -1.
       -5    1    3    3    0  502  0.18420041190E+03  0.50888531785E+03 -0.36673947954E+03  0.65376906804E+03  0.46999998093E+01 0.  1.
</event>
<event>
 5   0  0.5157631E-04  0.1195032E+04  0.7818609E-02  0.9117216E-01
       -1   -1    0    0    0  501  0.00000000000E+00  0.00000000000E+00  0.30188176719E+03  0.30188176724E+03  0.50400001928E-02 0. -1.
        1   -1    0    0  501    0  0.00000000000E+00  0.00000000000E+00 -0.11826668235E+04  0.11826668235E+04  0.50400001928E-02 0.  1.
    10030    2    1    2    0    0  0.00000000000E+00  0.00000000000E+00 -0.88078505628E+03  0.14845485907E+04  0.11950323020E+04 0.  0.
        5    1    3    3  502    0  0.47652215738E+03  0.26530718028E+03 -0.13726373499E+03  0.56242749694E+03  0.46999998093E+01 0. -1.
       -5    1    3    3    0  502 -0.47652215738E+03 -0.26530718028E+03 -0.74352132129E+03  0.92212109378E+03  0.46999998093E+01 0.  1.
</event>
<event>
 5   0  0.5157631E-04  0.1197665E+04  0.7818609E-02  0.9114903E-01
        1   -1    0    0  501    0  0.00000000000E+00  0.00000000000E+00  0.12691324144E+04  0.12691324144E+04  0.50400001928E-02 0. -1.
       -1   -1    0    0    0  501  0.00000000000E+00  0.00000000000E+00 -0.28255547357E+03  0.28255547361E+03  0.50400001928E-02 0.  1.
    10030    2    1    2    0    0  0.00000000000E+00  0.00000000000E+00  0.98657694079E+03  0.15516878880E+04  0.11976649121E+04 0.  0.
        5    1    3    3  502    0 -0.50409341637E+03 -0.20551943359E+03  0.17009075455E+03  0.57035196572E+03  0.46999998093E+01 0. -1.
       -5    1    3    3    0  502  0.50409341637E+03  0.20551943359E+03  0.81648618624E+03  0.98133592227E+03  0.46999998093E+01 0.  1.
</event>
<event>
 5   0  0.9298693E-04  0.1199011E+04  0.7818609E-02  0.9113723E-01
       -2   -1    0    0    0  501  0.00000000000E+00  0.00000000000E+00  0.57868705696E+03  0.57868705697E+03  0.25500000920E-02 0.  1.
        2   -1    0    0  501    0  0.00000000000E+00  0.00000000000E+00 -0.62107258292E+03  0.62107258293E+03  0.25500000920E-02 0. -1.
    10030    2    1    2    0    0  0.00000000000E+00  0.00000000000E+00 -0.42385525959E+02  0.11997596399E+04  0.11990107008E+04 0.  0.
        1    1    3    3  502    0  0.21042056495E+03  0.68507060171E+02 -0.57870919450E+03  0.61957595440E+03  0.50400001928E-02 0. -1.
       -1    1    3    3    0  502 -0.21042056495E+03 -0.68507060171E+02  0.53632366854E+03  0.58018368549E+03  0.50400001928E-02 0.  1.
</event>
<event>
 5   0  0.5052959E-04  0.1200298E+04  0.7818609E-02  0.9112595E-01
       -1   -1    0    0    0  501  0.00000000000E+00  0.00000000000E+00  0.53176385975E+03  0.53176385977E+03  0.50400001928E-02 0. -1.
        1   -1    0    0  501    0  0.00000000000E+00  0.00000000000E+00 -0.67732887082E+03  0.67732887084E+03  0.50400001928E-02 0.  1.
    10030    2    1    2    0    0  0.00000000000E+00  0.00000000000E+00 -0.14556501107E+03  0.12090927306E+04  0.12002983207E+04 0.  0.
        2    1    3    3  502    0  0.29113967830E+03 -0.47801324269E+03 -0.29097992433E+03  0.63081557434E+03  0.25500000920E-02 0.  1.
       -2    1    3    3    0  502 -0.29113967830E+03  0.47801324269E+03  0.14541491326E+03  0.57827715627E+03  0.25500000920E-02 0. -1.
</event>
<event>
 5   0  0.9410666E-04  0.1208492E+04  0.7818609E-02  0.9105456E-01
        2   -1    0    0  501    0  0.00000000000E+00  0.00000000000E+00  0.12237838368E+04  0.12237838368E+04  0.25500000920E-02 0. -1.
       -2   -1    0    0    0  501  0.00000000000E+00  0.00000000000E+00 -0.29834798065E+03  0.29834798067E+03  0.25500000920E-02 0.  1.
    10030    2    1    2    0    0  0.00000000000E+00  0.00000000000E+00  0.92543585612E+03  0.15221318174E+04  0.12084923442E+04 0.  0.
        2    1    3    3  502    0  0.20203854995E+03 -0.52876304490E+03  0.19641303910E+03  0.59915608588E+03  0.25500000920E-02 0. -1.
       -2    1    3    3    0  502 -0.20203854995E+03  0.52876304490E+03  0.72902281701E+03  0.92297573156E+03  0.25500000920E-02 0.  1.
</event>
<event>
 5   0  0.5001586E-04  0.1184964E+04  0.7818609E-02  0.9126120E-01
        1   -1    0    0  501    0  0.00000000000E+00  0.00000000000E+00  0.35968826806E+03  0.35968826810E+03  0.50400001928E-02 0.  1.
       -1   -1    0    0    0  501  0.00000000000E+00  0.00000000000E+00 -0.97594277067E+03  0.97594277068E+03  0.50400001928E-02 0. -1.
    10030    2    1    2    0    0  0.00000000000E+00  0.00000000000E+00 -0.61625450261E+03  0.13356310388E+04  0.11849644129E+04 0.  0.
        1    1    3    3  502    0 -0.24380882003E+03  0.28808807980E+03 -0.82292416542E+03  0.90534063452E+03  0.50400001928E-02 0. -1.
       -1    1    3    3    0  502  0.24380882003E+03 -0.28808807980E+03  0.20666966281E+03  0.43029040426E+03  0.50400001928E-02 0.  1.
</event>
<event>
 5   0  0.9070772E-04  0.1197934E+04  0.7818609E-02  0.9114667E-01
       -2   -1    0    0    0  501  0.00000000000E+00  0.00000000000E+00  0.41316347038E+03  0.41316347039E+03  0.25500000920E-02 0. -1.
        2   -1    0    0  501    0  0.00000000000E+00  0.00000000000E+00 -0.86832771562E+03  0.86832771563E+03  0.25500000920E-02 0.  1.
    10030    2    1    2    0    0  0.00000000000E+00  0.00000000000E+00 -0.45516424525E+03  0.12814911860E+04  0.11979337084E+04 0.  0.
        4    1    3    3  502    0  0.46283565950E+02 -0.11100363196E+03 -0.85527708072E+03  0.86369234829E+03  0.12699999809E+01 0.  1.
       -4    1    3    3    0  502 -0.46283565950E+02  0.11100363196E+03  0.40011283548E+03  0.41779883772E+03  0.12699999809E+01 0. -1.
</event>
<event>
 5   0  0.5447074E-04  0.1208774E+04  0.7818609E-02  0.9105211E-01
       -1   -1    0    0    0  501  0.00000000000E+00  0.00000000000E+00  0.35030302859E+03  0.35030302862E+03  0.50400001928E-02 0. -1.
        1   -1    0    0  501    0  0.00000000000E+00  0.00000000000E+00 -0.10427646854E+04  0.10427646855E+04  0.50400001928E-02 0.  1.
    10030    2    1    2    0    0  0.00000000000E+00  0.00000000000E+00 -0.69246165686E+03  0.13930677141E+04  0.12087739697E+04 0.  0.
        4    1    3    3  502    0 -0.20744602615E+03  0.42550809805E+03  0.86811814514E+02  0.48127840105E+03  0.12699999809E+01 0. -1.
       -4    1    3    3    0  502  0.20744602615E+03 -0.42550809805E+03 -0.77927347137E+03  0.91178931303E+03  0.12699999809E+01 0.  1.
</event>
<event>
 5   0  0.3453625E-04  0.1199669E+04  0.7818609E-02  0.9113146E-01
        4   -1    0    0  501    0  0.00000000000E+00  0.00000000000E+00  0.84802238452E+03  0.84802333550E+03  0.12699999809E+01 0.  1.
       -4   -1    0    0    0  501  0.00000000000E+00  0.00000000000E+00 -0.42428112213E+03  0.42428302287E+03  0.12699999809E+01 0. -1.
    10030    2    1    2    0    0  0.00000000000E+00  0.00000000000E+00  0.42374126240E+03  0.12723063584E+04  0.11996694595E+04 0.  0.
        4    1    3    3  502    0 -0.35754593417E+03  0.47962804424E+03  0.25831648521E+03  0.65162195735E+03  0.12699999809E+01 0.  1.
       -4    1    3    3    0  502  0.35754593417E+03 -0.47962804424E+03  0.16542477719E+03  0.62068440102E+03  0.12699999809E+01 0. -1.
</event>
<event>
 5   0  0.5447074E-04  0.1233656E+04  0.7818609E-02  0.9083897E-01
       -1   -1    0    0    0  501  0.00000000000E+00  0.00000000000E+00  0.31149116166E+03  0.31149116170E+03  0.50400001928E-02 0. -1.
        1   -1    0    0  501    0  0.00000000000E+00  0.00000000000E+00 -0.12214686723E+04  0.12214686723E+04  0.50400001928E-02 0.  1.
    10030    2    1    2    0    0  0.00000000000E+00  0.00000000000E+00 -0.90997751064E+03  0.15329598340E+04  0.12336558608E+04 0.  0.
        4    1    3    3  502    0  0.40835883679E+03  0.17578859745E+03 -0.98629443567E+03  0.10818673196E+04  0.12699999809E+01 0.  1.
       -4    1    3    3    0  502 -0.40835883679E+03 -0.17578859745E+03  0.76316925035E+02  0.45109251437E+03  0.12699999809E+01 0. -1.
</event>
<event>
 5   0  0.5157631E-04  0.1200537E+04  0.7818609E-02  0.9112386E-01
       -1   -1    0    0    0  501  0.00000000000E+00  0.00000000000E+00  0.68587801357E+03  0.68587801359E+03  0.50400001928E-02 0. -1.
        1   -1    0    0  501    0  0.00000000000E+00  0.00000000000E+00 -0.52534494394E+03  0.52534494397E+03  0.50400001928E-02 0.  1.
    10030    2    1    2    0    0  0.00000000000E+00  0.00000000000E+00  0.16053306963E+03  0.12112229576E+04  0.12005374573E+04 0.  0.
        5    1    3    3  502    0  0.38160820682E+03 -0.16452855627E+02  0.54742666352E+03  0.66752794841E+03  0.46999998093E+01 0. -1.
       -5    1    3    3    0  502 -0.38160820682E+03  0.16452855627E+02 -0.38689359390E+03  0.54369500914E+03  0.46999998093E+01 0.  1.
</event>
<event>
 5   0  0.9298693E-04  0.1204549E+04  0.7818609E-02  0.9108884E-01
       -2   -1    0    0    0  501  0.00000000000E+00  0.00000000000E+00  0.11187854023E+04  0.11187854023E+04  0.25500000920E-02 0.  1.
        2   -1    0    0  501    0  0.00000000000E+00  0.00000000000E+00 -0.32422155523E+03  0.32422155524E+03  0.25500000920E-02 0. -1.
    10030    2    1    2    0    0  0.00000000000E+00  0.00000000000E+00  0.79456384709E+03  0.14430069576E+04  0.12045486177E+04 0.  0.
        1    1    3    3  502    0  0.47277483536E+03  0.36478828688E+03  0.30335197280E+03  0.66978276973E+03  0.50400001928E-02 0. -1.
       -1    1    3    3    0  502 -0.47277483536E+03 -0.36478828688E+03  0.49121187429E+03  0.77322418784E+03  0.50400001928E-02 0.  1.
</event>
<event>
 5   0  0.5003507E-04  0.1202373E+04  0.7818609E-02  0.9110782E-01
       -1   -1    0    0    0  501  0.00000000000E+00  0.00000000000E+00  0.13530470765E+03  0.13530470774E+03  0.50400001928E-02 0. -1.
        1   -1    0    0  501    0  0.00000000000E+00  0.00000000000E+00 -0.26711932088E+04  0.26711932088E+04  0.50400001928E-02 0.  1.
    10030    2    1    2    0    0  0.00000000000E+00  0.00000000000E+00 -0.25358885012E+04  0.28064979166E+04  0.12023726815E+04 0.  0.
        3    1    3    3  502    0  0.35533890041E+03  0.39446434532E+03 -0.19263069821E+04  0.19981307398E+04  0.10100000352E+00 0.  1.
       -3    1    3    3    0  502 -0.35533890041E+03 -0.39446434532E+03 -0.60958151910E+03  0.80836717678E+03  0.10100000352E+00 0. -1.
</event>
<event>
 5   0  0.9298693E-04  0.1197323E+04  0.7818609E-02  0.9115203E-01
        2   -1    0    0  501    0  0.00000000000E+00  0.00000000000E+00  0.14392205171E+04  0.14392205171E+04  0.25500000920E-02 0. -1.
       -2   -1    0    0    0  501  0.00000000000E+00  0.00000000000E+00 -0.24902071783E+03  0.24902071784E+03  0.25500000920E-02 0.  1.
    10030    2    1    2    0    0  0.00000000000E+00  0.00000000000E+00  0.11901997992E+04  0.16882412349E+04  0.11973232250E+04 0.  0.
        1    1    3    3  502    0  0.45977278982E+03 -0.28065137629E+03  0.96343326081E+03  0.11037933961E+04  0.50400001928E-02 0. -1.
       -1    1    3    3    0  502 -0.45977278982E+03  0.28065137629E+03  0.22676653842E+03  0.58444783877E+03  0.50400001928E-02 0.  1.
</event>
<event>
 5   0  0.5003507E-04  0.1200186E+04  0.7818609E-02  0.9112694E-01
        1   -1    0    0  501    0  0.00000000000E+00  0.00000000000E+00  0.81126132302E+03  0.81126132304E+03  0.50400001928E-02 0. -1.
       -1   -1    0    0    0  501  0.00000000000E+00  0.00000000000E+00 -0.44389105717E+03  0.44389105720E+03  0.50400001928E-02 0.  1.
    10030    2    1    2    0    0  0.00000000000E+00  0.00000000000E+00  0.36737026585E+03  0.12551523802E+04  0.12001860628E+04 0.  0.
        3    1    3    3  502    0 -0.22413447297E+03 -0.55536349403E+03  0.14390679144E+03  0.61593347636E+03  0.10100000352E+00 0. -1.
       -3    1    3    3    0  502  0.22413447297E+03  0.55536349403E+03  0.22346347441E+03  0.63921890388E+03  0.10100000352E+00 0.  1.
</event>
<event>
 5   0  0.5157631E-04  0.1201027E+04  0.7818609E-02  0.9111958E-01
        1   -1    0    0  501    0  0.00000000000E+00  0.00000000000E+00  0.81452156883E+03  0.81452156885E+03  0.50400001928E-02 0. -1.
       -1   -1    0    0    0  501  0.00000000000E+00  0.00000000000E+00 -0.44273382098E+03  0.44273382101E+03  0.50400001928E-02 0.  1.
    10030    2    1    2    0    0  0.00000000000E+00  0.00000000000E+00  0.37178774785E+03  0.12572553899E+04  0.12010266383E+04 0.  0.
        5    1    3    3  502    0  0.10032858993E+03  0.23832200620E+03  0.75323690222E+03  0.79639884823E+03  0.46999998093E+01 0. -1.
       -5    1    3    3    0  502 -0.10032858993E+03 -0.23832200620E+03 -0.38144915436E+03  0.46085654163E+03  0.46999998093E+01 0.  1.
</event>
<event>
 5   0  0.9070772E-04  0.1189467E+04  0.7818609E-02  0.9122127E-01
       -2   -1    0    0    0  501  0.00000000000E+00  0.00000000000E+00  0.15596185274E+03  0.15596185276E+03  0.25500000920E-02 0. -1.
        2   -1    0    0  501    0  0.00000000000E+00  0.00000000000E+00 -0.22679121378E+04  0.22679121378E+04  0.25500000920E-02 0.  1.
    10030    2    1    2    0    0  0.00000000000E+00  0.00000000000E+00 -0.21119502851E+04  0.24238739906E+04  0.11894667358E+04 0.  0.
        4    1    3    3  502    0 -0.39970885764E+02  0.28723374832E+02  0.15180139703E+03  0.15958690739E+03  0.12699999809E+01 0. -1.
       -4    1    3    3    0  502  0.39970885764E+02 -0.28723374832E+02 -0.22637516821E+04  0.22642870832E+04  0.12699999809E+01 0.  1.
</event>
<event>
 5   0  0.9410666E-04  0.1192121E+04  0.7818609E-02  0.9119781E-01
       -2   -1    0    0    0  501  0.00000000000E+00  0.00000000000E+00  0.50907778790E+03  0.50907778790E+03  0.25500000920E-02 0.  1.
        2   -1    0    0  501    0  0.00000000000E+00  0.00000000000E+00 -0.69790593083E+03  0.69790593083E+03  0.25500000920E-02 0. -1.
    10030    2    1    2    0    0  0.00000000000E+00  0.00000000000E+00 -0.18882814293E+03  0.12069837187E+04  0.11921214828E+04 0.  0.
        2    1    3    3  502    0  0.13581319281E+03 -0.50456435305E+03 -0.38479625358E+03  0.64892107878E+03  0.25500000920E-02 0.  1.
       -2    1    3    3    0  502 -0.13581319281E+03  0.50456435305E+03  0.19596811065E+03  0.55806263995E+03  0.25500000920E-02 0. -1.
</event>
<event>
 5   0  0.5447074E-04  0.1200468E+04  0.7818609E-02  0.9112447E-01
       -1   -1    0    0    0  501  0.00000000000E+00  0.00000000000E+00  0.33982453858E+03  0.33982453862E+03  0.50400001928E-02 0.  1.
        1   -1    0    0  501    0  0.00000000000E+00  0.00000000000E+00 -0.10601962921E+04  0.10601962921E+04  0.50400001928E-02 0. -1.
    10030    2    1    2    0    0  0.00000000000E+00  0.00000000000E+00 -0.72037175351E+03  0.14000208307E+04  0.12004677685E+04 0.  0.
        4    1    3    3  502    0  0.33809809826E+03  0.31748534777E+03 -0.80453586534E+03  0.92864785662E+03  0.12699999809E+01 0. -1.
       -4    1    3    3    0  502 -0.33809809826E+03 -0.31748534777E+03  0.84164111832E+02  0.47137297410E+03  0.12699999809E+01 0.  1.
</event>
<event>
 5   0  0.9145224E-04  0.1194637E+04  0.7818609E-02  0.9117564E-01
        2   -1    0    0  501    0  0.00000000000E+00  0.00000000000E+00  0.41527654223E+03  0.41527654224E+03  0.25500000920E-02 0.  1.
       -2   -1    0    0    0  501  0.00000000000E+00  0.00000000000E+00 -0.85916046998E+03  0.85916046999E+03  0.25500000920E-02 0. -1.
    10030    2    1    2    0    0  0.00000000000E+00  0.00000000000E+00 -0.44388392775E+03  0.12744370122E+04  0.11946366631E+04 0.  0.
        5    1    3    3  502    0  0.24478770717E+03  0.78833123613E+02  0.35317187207E+03  0.43690747783E+03  0.46999998093E+01 0.  1.
       -5    1    3    3    0  502 -0.24478770717E+03 -0.78833123613E+02 -0.79705579982E+03  0.83752953440E+03  0.46999998093E+01 0. -1.
</event>
<event>
 5   0  0.5001586E-04  0.1209017E+04  0.7818609E-02  0.9105000E-01
        1   -1    0    0  501    0  0.00000000000E+00  0.00000000000E+00  0.19545169500E+04  0.19545169500E+04  0.50400001928E-02 0.  1.
       -1   -1    0    0    0  501  0.00000000000E+00  0.00000000000E+00 -0.18696731166E+03  0.18696731172E+03  0.50400001928E-02 0. -1.
    10030    2    1    2    0    0  0.00000000000E+00  0.00000000000E+00  0.17675496383E+04  0.21414842617E+04  0.12090174189E+04 0.  0.
        1    1    3    3  502    0  0.25768709867E+03 -0.32935736798E+03  0.16569696265E+04  0.17089257620E+04  0.50400001928E-02 0.  1.
       -1    1    3    3    0  502 -0.25768709867E+03  0.32935736798E+03  0.11058001180E+03  0.43255849974E+03  0.50400001928E-02 0. -1.
</event>
<event>
 5   0  0.9070772E-04  0.1203469E+04  0.7818609E-02  0.9109825E-01
        2   -1    0    0  501    0  0.00000000000E+00  0.00000000000E+00  0.79374788039E+03  0.79374788039E+03  0.25500000920E-02 0.  1.
       -2   -1    0    0    0  501  0.00000000000E+00  0.00000000000E+00 -0.45617066640E+03  0.45617066640E+03  0.25500000920E-02 0. -1.
    10030    2    1    2    0    0  0.00000000000E+00  0.00000000000E+00  0.33757721399E+03  0.12499185468E+04  0.12034691513E+04 0.  0.
        4    1    3    3  502    0  0.97947142604E+02 -0.58268654242E+03  0.50527025523E+02  0.59301925995E+03  0.12699999809E+01 0. -1.
       -4    1    3    3    0  502 -0.97947142604E+02  0.58268654242E+03  0.28705018847E+03  0.65689928685E+03  0.12699999809E+01 0.  1.
</event>
<event>
 5   0  0.5052959E-04  0.1197782E+04  0.7818609E-02  0.9114800E-01
        1   -1    0    0  501    0  0.00000000000E+00  0.00000000000E+00  0.54146209304E+03  0.54146209306E+03  0.50400001928E-02 0.  1.
       -1   -1    0    0    0  501  0.00000000000E+00  0.00000000000E+00 -0.66241134087E+03  0.66241134089E+03  0.50400001928E-02 0. -1.
    10030    2    1    2    0    0  0.00000000000E+00  0.00000000000E+00 -0.12094924783E+03  0.12038734340E+04  0.11977823360E+04 0.  0.
        2    1    3    3  502    0  0.37788905699E+03  0.23868180769E+03  0.34017699931E+03  0.56168455167E+03  0.25500000920E-02 0.  1.
       -2    1    3    3    0  502 -0.37788905699E+03 -0.23868180769E+03 -0.46112624715E+03  0.64218888228E+03  0.25500000920E-02 0. -1.
</event>
<event>
 5   0  0.5052959E-04  0.1204034E+04  0.7818609E-02  0.9109333E-01
       -1   -1    0    0    0  501  0.00000000000E+00  0.00000000000E+00  0.35914516437E+03  0.35914516441E+03  0.50400001928E-02 0. -1.
        1   -1    0    0  501    0  0.00000000000E+00  0.00000000000E+00 -0.10091316197E+04  0.10091316197E+04  0.50400001928E-02 0.  1.
    10030    2    1    2    0    0  0.00000000000E+00  0.00000000000E+00 -0.64998645528E+03  0.13682767841E+04  0.12040344537E+04 0.  0.
        2    1    3    3  502    0  0.57294685389E+03  0.11397445549E+03 -0.49032610967E+03  0.76267815474E+03  0.25500000920E-02 0.  1.
       -2    1    3    3    0  502 -0.57294685389E+03 -0.11397445549E+03 -0.15966034561E+03  0.60559862934E+03  0.25500000920E-02 0. -1.
</event>
<event>
 5   0  0.9410666E-04  0.1201791E+04  0.7818609E-02  0.9111290E-01
        2   -1    0    0  501    0  0.00000000000E+00  0.00000000000E+00  0.74082449015E+03  0.74082449016E+03  0.25500000920E-02 0.  1.
       -2   -1    0    0    0  501  0.00000000000E+00  0.00000000000E+00 -0.48739658506E+03  0.48739658507E+03  0.25500000920E-02 0. -1.
    10030    2    1    2    0    0  0.00000000000E+00  0.00000000000E+00  0.25342790509E+03  0.12282210752E+04  0.12017908747E+04 0.  0.
        2    1    3    3  502    0  0.50927368027E+03 -0.31650796949E+03  0.86629561860E+02  0.60583962991E+03  0.25500000920E-02 0. -1.
       -2    1    3    3    0  502 -0.50927368027E+03  0.31650796949E+03  0.16679834323E+03  0.62238144532E+03  0.25500000920E-02 0.  1.
</event>
<event>
 5   0  0.5157631E-04  0.1199703E+04  0.7818609E-02  0.9113117E-01
       -1   -1    0    0    0  501  0.00000000000E+00  0.00000000000E+00  0.40737729724E+03  0.40737729727E+03  0.50400001928E-02 0. -1.
        1   -1    0    0  501    0  0.00000000000E+00  0.00000000000E+00 -0.88326423447E+03  0.88326423448E+03  0.50400001928E-02 0.  1.
    10030    2    1    2    0    0  0.00000000000E+00  0.00000000000E+00 -0.47588693723E+03  0.12906415318E+04  0.11997029576E+04 0.  0.
        5    1    3    3  502    0 -0.20299522668E+03  0.56437770689E+03 -0.22891388209E+03  0.64199136560E+03  0.46999998093E+01 0. -1.
       -5    1    3    3    0  502  0.20299522668E+03 -0.56437770689E+03 -0.24697305514E+03  0.64865016616E+03  0.46999998093E+01 0.  1.
</event>
<event>
 5   0  0.5001586E-04  0.1206903E+04  0.7818609E-02  0.9106836E-01
        1   -1    0    0  501    0  0.00000000000E+00  0.00000000000E+00  0.13509466161E+04  0.13509466161E+04  0.50400001928E-02 0. -1.
       -1   -1    0    0    0  501  0.00000000000E+00  0.00000000000E+00 -0.26955439074E+03  0.26955439078E+03  0.50400001928E-02 0.  1.
    10030    2    1    2    0    0  0.00000000000E+00  0.00000000000E+00  0.10813922254E+04  0.16205010069E+04  0.12069027998E+04 0.  0.
        1    1    3    3  502    0  0.35225436752E+03 -0.18904146764E+03 -0.66245746781E+02  0.40522625152E+03  0.50400001928E-02 0.  1.
       -1    1    3    3    0  502 -0.35225436752E+03  0.18904146764E+03  0.11476379721E+04  0.12152747554E+04  0.50400001928E-02 0. -1.
</event>
<event>
 5   0  0.5157631E-04  0.1198078E+04  0.7818609E-02  0.9114541E-01
        1   -1    0    0  501    0  0.00000000000E+00  0.00000000000E+00  0.10280453816E+04  0.10280453816E+04  0.50400001928E-02 0. -1.
       -1   -1    0    0    0  501  0.00000000000E+00  0.00000000000E+00 -0.34905819844E+03  0.34905819848E+03  0.50400001928E-02 0.  1.
    10030    2    1    2    0    0  0.00000000000E+00  0.00000000000E+00  0.67898718318E+03  0.13771035801E+04  0.11980779087E+04 0.  0.
        5    1    3    3  502    0  0.48398481102E+03  0.84631402312E+02 -0.54379151166E+02  0.49435104292E+03  0.46999998093E+01 0.  1.
       -5    1    3    3    0  502 -0.48398481102E+03 -0.84631402312E+02  0.73336633434E+03  0.88275253718E+03  0.46999998093E+01 0. -1.
</event>
<event>
 5   0  0.9410666E-04  0.1203421E+04  0.7818609E-02  0.9109868E-01
       -2   -1    0    0    0  501  0.00000000000E+00  0.00000000000E+00  0.34519392171E+03  0.34519392172E+03  0.25500000920E-02 0. -1.
        2   -1    0    0  501    0  0.00000000000E+00  0.00000000000E+00 -0.10488460098E+04  0.10488460098E+04  0.25500000920E-02 0.  1.
    10030    2    1    2    0    0  0.00000000000E+00  0.00000000000E+00 -0.70365208805E+03  0.13940399315E+04  0.12034205705E+04 0.  0.
        2    1    3    3  502    0  0.11620378289E+03 -0.47491708228E+03  0.54449260918E+02  0.49194946511E+03  0.25500000920E-02 0. -1.
       -2    1    3    3    0  502 -0.11620378289E+03  0.47491708228E+03 -0.75810134897E+03  0.90209046637E+03  0.25500000920E-02 0.  1.
</event>
<event>
 5   0  0.9410666E-04  0.1197616E+04  0.7818609E-02  0.9114946E-01
       -2   -1    0    0    0  501  0.00000000000E+00  0.00000000000E+00  0.27104366373E+03  0.27104366374E+03  0.25500000920E-02 0. -1.
        2   -1    0    0  501    0  0.00000000000E+00  0.00000000000E+00 -0.13229278264E+04  0.13229278264E+04  0.25500000920E-02 0.  1.
    10030    2    1    2    0    0  0.00000000000E+00  0.00000000000E+00 -0.10518841626E+04  0.15939714901E+04  0.11976163074E+04 0.  0.
        2    1    3    3  502    0  0.10948307654E+03 -0.17901958410E+03 -0.12723882211E+04  0.12895760314E+04  0.25500000920E-02 0.  1.
       -2    1    3    3    0  502 -0.10948307654E+03  0.17901958410E+03  0.22050405841E+03  0.30439545877E+03  0.25500000920E-02 0. -1.
</event>
<event>
 5   0  0.5001586E-04  0.1200083E+04  0.7818609E-02  0.9112784E-01
        1   -1    0    0  501    0  0.00000000000E+00  0.00000000000E+00  0.31072225128E+03  0.31072225132E+03  0.50400001928E-02 0. -1.
       -1   -1    0    0    0  501  0.00000000000E+00  0.00000000000E+00 -0.11587518951E+04  0.11587518951E+04  0.50400001928E-02 0.  1.
    10030    2    1    2    0    0  0.00000000000E+00  0.00000000000E+00 -0.84802964382E+03  0.14694741464E+04  0.12000833264E+04 0.  0.
        1    1    3    3  502    0 -0.36705142217E+03 -0.27430136859E+03  0.50352612481E+02  0.46098088132E+03  0.50400001928E-02 0. -1.
       -1    1    3    3    0  502  0.36705142217E+03  0.27430136859E+03 -0.89838225630E+03  0.10084932651E+04  0.50400001928E-02 0.  1.
</event>
<event>
 5   0  0.9050363E-04  0.1201496E+04  0.7818609E-02  0.9111548E-01
        2   -1    0    0  501    0  0.00000000000E+00  0.00000000000E+00  0.97921380809E+03  0.97921380809E+03  0.25500000920E-02 0.  1.
       -2   -1    0    0    0  501  0.00000000000E+00  0.00000000000E+00 -0.36855910870E+03  0.36855910871E+03  0.25500000920E-02 0. -1.
    10030    2    1    2    0    0  0.00000000000E+00  0.00000000000E+00  0.61065469939E+03  0.13477729168E+04  0.12014960147E+04 0.  0.
        3    1    3    3  502    0  0.48187780561E+03 -0.17616070612E+02 -0.96598375327E+02  0.49178023730E+03  0.10100000352E+00 0. -1.
       -3    1    3    3    0  502 -0.48187780561E+03  0.17616070612E+02  0.70725307471E+03  0.85599267951E+03  0.10100000352E+00 0.  1.
</event>
<event>
 5   0  0.9050363E-04  0.1196148E+04  0.7818609E-02  0.9116235E-01
       -2   -1    0    0    0  501  0.00000000000E+00  0.00000000000E+00  0.37945127738E+03  0.37945127739E+03  0.25500000920E-02 0. -1.
        2   -1    0    0  501    0  0.00000000000E+00  0.00000000000E+00 -0.94265794367E+03  0.94265794367E+03  0.25500000920E-02 0.  1.
    10030    2    1    2    0    0  0.00000000000E+00  0.00000000000E+00 -0.56320666629E+03  0.13221092211E+04  0.11961484203E+04 0.  0.
        3    1    3    3  502    0  0.46691153129E+03  0.26929106093E+03  0.48578130570E+01  0.53902473236E+03  0.10100000352E+00 0. -1.
       -3    1    3    3    0  502 -0.46691153129E+03 -0.26929106093E+03 -0.56806447934E+03  0.78308448870E+03  0.10100000352E+00 0.  1.
</event>
<event>
 5   0  0.9070772E-04  0.1200183E+04  0.7818609E-02  0.9112696E-01
        2   -1    0    0  501    0  0.00000000000E+00  0.00000000000E+00  0.58569597560E+03  0.58569597561E+03  0.25500000920E-02 0. -1.
       -2   -1    0    0    0  501  0.00000000000E+00  0.00000000000E+00 -0.61484110338E+03  0.61484110339E+03  0.25500000920E-02 0.  1.
    10030    2    1    2    0    0  0.00000000000E+00  0.00000000000E+00 -0.29145127778E+02  0.12005370790E+04  0.12001832525E+04 0.  0.
        4    1    3    3  502    0  0.52770620040E+03  0.17672860167E+03 -0.23914156567E+03  0.60572034300E+03  0.12699999809E+01 0.  1.
       -4    1    3    3    0  502 -0.52770620040E+03 -0.17672860167E+03  0.20999643789E+03  0.59481673600E+03  0.12699999809E+01 0. -1.
</event>
<event>
 5   0  0.5447074E-04  0.1200956E+04  0.7818609E-02  0.9112020E-01
       -1   -1    0    0    0  501  0.00000000000E+00  0.00000000000E+00  0.29375485544E+03  0.29375485548E+03  0.50400001928E-02 0.  1.
        1   -1    0    0  501    0  0.00000000000E+00  0.00000000000E+00 -0.12274653640E+04  0.12274653640E+04  0.50400001928E-02 0. -1.
    10030    2    1    2    0    0  0.00000000000E+00  0.00000000000E+00 -0.93371050853E+03  0.15212202195E+04  0.12009561367E+04 0.  0.
        4    1    3    3  502    0 -0.45946066353E+03  0.24400854736E+03 -0.84670555251E+03  0.99375861157E+03  0.12699999809E+01 0. -1.
       -4    1    3    3    0  502  0.45946066353E+03 -0.24400854736E+03 -0.87004956017E+02  0.52746160788E+03  0.12699999809E+01 0.  1.
</event>
<event>
 5   0  0.5447074E-04  0.1202748E+04  0.7818609E-02  0.9110454E-01
        1   -1    0    0  501    0  0.00000000000E+00  0.00000000000E+00  0.39495628860E+03  0.39495628863E+03  0.50400001928E-02 0. -1.
       -1   -1    0    0    0  501  0.00000000000E+00  0.00000000000E+00 -0.91567300555E+03  0.91567300557E+03  0.50400001928E-02 0.  1.
    10030    2    1    2    0    0  0.00000000000E+00  0.00000000000E+00 -0.52071671695E+03  0.13106292942E+04  0.12027482062E+04 0.  0.
        4    1    3    3  502    0 -0.47569548026E+03 -0.17928371805E+02  0.14008298730E+03  0.49621817045E+03  0.12699999809E+01 0. -1.
       -4    1    3    3    0  502  0.47569548026E+03  0.17928371805E+02 -0.66079970425E+03  0.81441112375E+03  0.12699999809E+01 0.  1.
</event>
<event>
 5   0  0.9145224E-04  0.1207966E+04  0.7818609E-02  0.9105912E-01
       -2   -1    0    0    0  501  0.00000000000E+00  0.00000000000E+00  0.52267387605E+03  0.52267387606E+03  0.25500000920E-02 0.  1.
        2   -1    0    0  501    0  0.00000000000E+00  0.00000000000E+00 -0.69794136171E+03  0.69794136172E+03  0.25500000920E-02 0. -1.
    10030    2    1    2    0    0  0.00000000000E+00  0.00000000000E+00 -0.17526748566E+03  0.12206152378E+04  0.12079664181E+04 0.  0.
        5    1    3    3  502    0 -0.56474981446E+03  0.19322218161E+03  0.55077074637E+01  0.59693348812E+03  0.46999998093E+01 0. -1.
       -5    1    3    3    0  502  0.56474981446E+03 -0.19322218161E+03 -0.18077519313E+03  0.62368174965E+03  0.46999998093E+01 0.  1.
</event>
<event>
 5   0  0.5447074E-04  0.1202074E+04  0.7818609E-02  0.9111043E-01
       -1   -1    0    0    0  501  0.00000000000E+00  0.00000000000E+00  0.24082008709E+04  0.24082008709E+04  0.50400001928E-02 0.  1.
        1   -1    0    0  501    0  0.00000000000E+00  0.00000000000E+00 -0.15000626868E+03  0.15000626876E+03  0.50400001928E-02 0. -1.
    10030    2    1    2    0    0  0.00000000000E+00  0.00000000000E+00  0.22581946022E+04  0.25582071396E+04  0.12020735867E+04 0.  0.
        4    1    3    3  502    0  0.33427203984E+03  0.20237101707E+03  0.21009749893E+04  0.21370047598E+04  0.12699999809E+01 0.  1.
       -4    1    3    3    0  502 -0.33427203984E+03 -0.20237101707E+03  0.15721961295E+03  0.42120237982E+03  0.12699999809E+01 0. -1.
</event>
<event>
 5   0  0.9050363E-04  0.1196252E+04  0.7818609E-02  0.9116144E-01
       -2   -1    0    0    0  501  0.00000000000E+00  0.00000000000E+00  0.35250378369E+03  0.35250378370E+03  0.25500000920E-02 0.  1.
        2   -1    0    0  501    0  0.00000000000E+00  0.00000000000E+00 -0.10148954801E+04  0.10148954801E+04  0.25500000920E-02 0. -1.
    10030    2    1    2    0    0  0.00000000000E+00  0.00000000000E+00 -0.66239169639E+03  0.13673992638E+04  0.11962516404E+04 0.  0.
        3    1    3    3  502    0 -0.40267978021E+03  0.23698280620E+03  0.95649526002E+02  0.47692839908E+03  0.10100000352E+00 0.  1.
       -3    1    3    3    0  502  0.40267978021E+03 -0.23698280620E+03 -0.75804122239E+03  0.89047086470E+03  0.10100000352E+00 0. -1.
</event>
<event>
 5   0  0.9145224E-04  0.1197142E+04  0.7818609E-02  0.9115362E-01
        2   -1    0    0  501    0  0.00000000000E+00  0.00000000000E+00  0.80451891791E+03  0.80451891791E+03  0.25500000920E-02 0. -1.
       -2   -1    0    0    0  501  0.00000000000E+00  0.00000000000E+00 -0.44534312392E+03  0.44534312392E+03  0.25500000920E-02 0.  1.
    10030    2    1    2    0    0  0.00000000000E+00  0.00000000000E+00  0.35917579399E+03  0.12498620418E+04  0.11971415424E+04 0.  0.
        5    1    3    3  502    0 -0.53751903522E+02  0.32891319050E+03  0.69866699400E+03  0.77410000163E+03  0.46999998093E+01 0. -1.
       -5    1    3    3    0  502  0.53751903522E+02 -0.32891319050E+03 -0.33949120001E+03  0.47576204020E+03  0.46999998093E+01 0.  1.
</event>
<event>
 5   0  0.5447074E-04  0.1202604E+04  0.7818609E-02  0.9110580E-01
        1   -1    0    0  501    0  0.00000000000E+00  0.00000000000E+00  0.10045711179E+04  0.10045711179E+04  0.50400001928E-02 0.  1.
       -1   -1    0    0    0  501  0.00000000000E+00  0.00000000000E+00 -0.35991899899E+03  0.35991899902E+03  0.50400001928E-02 0. -1.
    10030    2    1    2    0    0  0.00000000000E+00  0.00000000000E+00  0.64465211888E+03  0.13644901169E+04  0.12026042261E+04 0.  0.
        4    1    3    3  502    0 -0.40888723949E+03 -0.42279611347E+03  0.46411766087E+03  0.74923437202E+03  0.12699999809E+01 0.  1.
       -4    1    3    3    0  502  0.40888723949E+03  0.42279611347E+03  0.18053445802E+03  0.61525574489E+03  0.12699999809E+01 0. -1.
</event>
<event>
 5   0  0.5003507E-04  0.1185076E+04  0.7818609E-02  0.9126021E-01
        1   -1    0    0  501    0  0.00000000000E+00  0.00000000000E+00  0.51618382470E+03  0.51618382473E+03  0.50400001928E-02 0.  1.
       -1   -1    0    0    0  501  0.00000000000E+00  0.00000000000E+00 -0.68018639574E+03  0.68018639576E+03  0.50400001928E-02 0. -1.
    10030    2    1    2    0    0  0.00000000000E+00  0.00000000000E+00 -0.16400257104E+03  0.11963702205E+04  0.11850758884E+04 0.  0.
        3    1    3    3  502    0  0.22888242122E+03 -0.44245853606E+02 -0.63194651644E+03  0.67357350612E+03  0.10100000352E+00 0. -1.
       -3    1    3    3    0  502 -0.22888242122E+03  0.44245853606E+02  0.46794394541E+03  0.52279671436E+03  0.10100000352E+00 0.  1.
</event>
<event>
 5   0  0.5447074E-04  0.1202349E+04  0.7818609E-02  0.9110803E-01
       -1   -1    0    0    0  501  0.00000000000E+00  0.00000000000E+00  0.81413188239E+03  0.81413188241E+03  0.50400001928E-02 0.  1.
        1   -1    0    0  501    0  0.00000000000E+00  0.00000000000E+00 -0.44392138962E+03  0.44392138965E+03  0.50400001928E-02 0. -1.
    10030    2    1    2    0    0  0.00000000000E+00  0.00000000000E+00  0.37021049277E+03  0.12580532721E+04  0.12023486293E+04 0.  0.
        4    1    3    3  502    0  0.58608089205E+02 -0.59736449910E+03  0.14993718633E+03  0.61867764276E+03  0.12699999809E+01 0.  1.
       -4    1    3    3    0  502 -0.58608089205E+02  0.59736449910E+03  0.22027330644E+03  0.63937562929E+03  0.12699999809E+01 0. -1.
</event>
<event>
 5   0  0.9145224E-04  0.1196111E+04  0.7818609E-02  0.9116267E-01
       -2   -1    0    0    0  501  0.00000000000E+00  0.00000000000E+00  0.30353961630E+03  0.30353961631E+03  0.25500000920E-02 0. -1.
        2   -1    0    0  501    0  0.00000000000E+00  0.00000000000E+00 -0.11783320833E+04  0.11783320833E+04  0.25500000920E-02 0.  1.
    10030    2    1    2    0    0  0.00000000000E+00  0.00000000000E+00 -0.87479246703E+03  0.14818716996E+04  0.11961111461E+04 0.  0.
        5    1    3    3  502    0 -0.29799289180E+02  0.38767051089E+03 -0.10003459471E+04  0.10732616300E+04  0.46999998093E+01 0.  1.
       -5    1    3    3    0  502  0.29799289180E+02 -0.38767051089E+03  0.12555348005E+03  0.40861006963E+03  0.46999998093E+01 0. -1.
</event>
<event>
 5   0  0.5447074E-04  0.1203412E+04  0.7818609E-02  0.9109875E-01
       -1   -1    0    0    0  501  0.00000000000E+00  0.00000000000E+00  0.68377804583E+03  0.68377804585E+03  0.50400001928E-02 0.  1.
        1   -1    0    0  501    0  0.00000000000E+00  0.00000000000E+00 -0.52948460333E+03  0.52948460335E+03  0.50400001928E-02 0. -1.
    10030    2    1    2    0    0  0.00000000000E+00  0.00000000000E+00  0.15429344250E+03  0.12132626492E+04  0.12034117290E+04 0.  0.
        4    1    3    3  502    0 -0.15354529027E+03  0.35166956650E+02  0.66262017341E+03  0.68108734984E+03  0.12699999809E+01 0.  1.
       -4    1    3    3    0  502  0.15354529027E+03 -0.35166956650E+02 -0.50832673091E+03  0.53217529937E+03  0.12699999809E+01 0. -1.
</event>
<event>
 5   0  0.3453625E-04  0.1194481E+04  0.7818609E-02  0.9117701E-01
       -3   -1    0    0    0  501  0.00000000000E+00  0.00000000000E+00  0.45548087696E+03  0.45548088816E+03  0.10100000352E+00 0.  1.
        3   -1    0    0  501    0  0.00000000000E+00  0.00000000000E+00 -0.78311997521E+03  0.78311998172E+03  0.10100000352E+00 0. -1.
    10030    2    1    2    0    0  0.00000000000E+00  0.00000000000E+00 -0.32763909825E+03  0.12386008699E+04  0.11944809484E+04 0.  0.
        3    1    3    3  502    0 -0.17822371837E+03 -0.34013694863E+03 -0.63814215162E+03  0.74476993326E+03  0.10100000352E+00 0. -1.
       -3    1    3    3    0  502  0.17822371837E+03  0.34013694863E+03  0.31050305337E+03  0.49383093662E+03  0.10100000352E+00 0.  1.
</event>
<event>
 5   0  0.5052959E-04  0.1198143E+04  0.7818609E-02  0.9114484E-01
        1   -1    0    0  501    0  0.00000000000E+00  0.00000000000E+00  0.51728927573E+03  0.51728927575E+03  0.50400001928E-02 0.  1.
       -1   -1    0    0    0  501  0.00000000000E+00  0.00000000000E+00 -0.69378291539E+03  0.69378291540E+03  0.50400001928E-02 0. -1.
    10030    2    1    2    0    0  0.00000000000E+00  0.00000000000E+00 -0.17649363966E+03  0.12110721912E+04  0.11981426657E+04 0.  0.
        2    1    3    3  502    0 -0.40202807006E+03  0.36581364316E+03 -0.34283838657E+03  0.64263858424E+03  0.25500000920E-02 0.  1.
       -2    1    3    3    0  502  0.40202807006E+03 -0.36581364316E+03  0.16634474691E+03  0.56843360692E+03  0.25500000920E-02 0. -1.
</event>
<event>
 5   0  0.5157631E-04  0.1231989E+04  0.7818609E-02  0.9085308E-01
       -1   -1    0    0    0  501  0.00000000000E+00  0.00000000000E+00  0.14071895354E+04  0.14071895354E+04  0.50400001928E-02 0.  1.
        1   -1    0    0  501    0  0.00000000000E+00  0.00000000000E+00 -0.26965051266E+03  0.26965051270E+03  0.50400001928E-02 0. -1.
    10030    2    1    2    0    0  0.00000000000E+00  0.00000000000E+00  0.11375390227E+04  0.16768400481E+04  0.12319892527E+04 0.  0.
        5    1    3    3  502    0 -0.14302555355E+03 -0.22224789050E+03  0.13260712624E+04  0.13521603148E+04  0.46999998093E+01 0.  1.
       -5    1    3    3    0  502  0.14302555355E+03  0.22224789050E+03 -0.18853223973E+03  0.32467973330E+03  0.46999998093E+01 0. -1.
</event>
<event>
 5   0  0.9410666E-04  0.1186885E+04  0.7818609E-02  0.9124414E-01
        2   -1    0    0  501    0  0.00000000000E+00  0.00000000000E+00  0.68718812729E+03  0.68718812730E+03  0.25500000920E-02 0.  1.
       -2   -1    0    0    0  501  0.00000000000E+00  0.00000000000E+00 -0.51248552774E+03  0.51248552774E+03  0.25500000920E-02 0. -1.
    10030    2    1    2    0    0  0.00000000000E+00  0.00000000000E+00  0.17470259956E+03  0.11996736550E+04  0.11868849482E+04 0.  0.
        2    1    3    3  502    0 -0.12337726492E+03 -0.39391222698E+03 -0.34360549693E+03  0.53707869962E+03  0.25500000920E-02 0. -1.
       -2    1    3    3    0  502  0.12337726492E+03  0.39391222698E+03  0.51830809649E+03  0.66259495542E+03  0.25500000920E-02 0.  1.
</event>
<event>
 5   0  0.9070772E-04  0.1198327E+04  0.7818609E-02  0.9114322E-01
        2   -1    0    0  501    0  0.00000000000E+00  0.00000000000E+00  0.11583304964E+04  0.11583304964E+04  0.25500000920E-02 0. -1.
       -2   -1    0    0    0  501  0.00000000000E+00  0.00000000000E+00 -0.30992625221E+03  0.30992625222E+03  0.25500000920E-02 0.  1.
    10030    2    1    2    0    0  0.00000000000E+00  0.00000000000E+00  0.84840424416E+03  0.14682567486E+04  0.11983272167E+04 0.  0.
        4    1    3    3  502    0 -0.55650130302E+03  0.54459948019E+02  0.16045662232E+03  0.58172805223E+03  0.12699999809E+01 0.  1.
       -4    1    3    3    0  502  0.55650130302E+03 -0.54459948019E+02  0.68794762184E+03  0.88652869637E+03  0.12699999809E+01 0. -1.
</event>
<event>
 5   0  0.9050363E-04  0.1197967E+04  0.7818609E-02  0.9114638E-01
        2   -1    0    0  501    0  0.00000000000E+00  0.00000000000E+00  0.79004847813E+03  0.79004847813E+03  0.25500000920E-02 0.  1.
       -2   -1    0    0    0  501  0.00000000000E+00  0.00000000000E+00 -0.45412581695E+03  0.45412581695E+03  0.25500000920E-02 0. -1.
    10030    2    1    2    0    0  0.00000000000E+00  0.00000000000E+00  0.33592266118E+03  0.12441742951E+04  0.11979672960E+04 0.  0.
        3    1    3    3  502    0  0.24484230170E+03 -0.38866116239E+03 -0.23128270241E+03  0.51429267007E+03  0.10100000352E+00 0. -1.
       -3    1    3    3    0  502 -0.24484230170E+03  0.38866116239E+03  0.56720536359E+03  0.72988162502E+03  0.10100000352E+00 0.  1.
</event>
<event>
 5   0  0.5001586E-04  0.1200320E+04  0.7818609E-02  0.9112576E-01
       -1   -1    0    0    0  501  0.00000000000E+00  0.00000000000E+00  0.40653844827E+03  0.40653844830E+03  0.50400001928E-02 0.  1.
        1   -1    0    0  501    0  0.00000000000E+00  0.00000000000E+00 -0.88599767266E+03  0.88599767267E+03  0.50400001928E-02 0. -1.
    10030    2    1    2    0    0  0.00000000000E+00  0.00000000000E+00 -0.47945922439E+03  0.12925361210E+04  0.12003201557E+04 0.  0.
        1    1    3    3  502    0  0.25506970656E+03 -0.23200864265E+03 -0.76869523530E+03  0.84248497332E+03  0.50400001928E-02 0. -1.
       -1    1    3    3    0  502 -0.25506970656E+03  0.23200864265E+03  0.28923601091E+03  0.45005114765E+03  0.50400001928E-02 0.  1.
</event>
<event>
 5   0  0.5003507E-04  0.1202368E+04  0.7818609E-02  0.9110786E-01
        1   -1    0    0  501    0  0.00000000000E+00  0.00000000000E+00  0.18955660038E+04  0.18955660038E+04  0.50400001928E-02 0. -1.
       -1   -1    0    0    0  501  0.00000000000E+00  0.00000000000E+00 -0.19066720085E+03  0.19066720091E+03  0.50400001928E-02 0.  1.
    10030    2    1    2    0    0  0.00000000000E+00  0.00000000000E+00  0.17048988029E+04  0.20862332047E+04  0.12023681034E+04 0.  0.
        3    1    3    3  502    0 -0.27493049845E+03  0.13790245685E+03  0.17487078944E+04  0.17755515134E+04  0.10100000352E+00 0. -1.
       -3    1    3    3    0  502  0.27493049845E+03 -0.13790245685E+03 -0.43809091513E+02  0.31068169126E+03  0.10100000352E+00 0.  1.
</event>
<event>
 5   0  0.5157631E-04  0.1202281E+04  0.7818609E-02  0.9110862E-01
        1   -1    0    0  501    0  0.00000000000E+00  0.00000000000E+00  0.46266757789E+03  0.46266757791E+03  0.50400001928E-02 0. -1.
       -1   -1    0    0    0  501  0.00000000000E+00  0.00000000000E+00 -0.78105782519E+03  0.78105782521E+03  0.50400001928E-02 0.  1.
    10030    2    1    2    0    0  0.00000000000E+00  0.00000000000E+00 -0.31839024731E+03  0.12437254031E+04  0.12022813850E+04 0.  0.
        5    1    3    3  502    0 -0.14518585487E+03 -0.58251872406E+03 -0.19092904773E+03  0.62998649795E+03  0.46999998093E+01 0.  1.
       -5    1    3    3    0  502  0.14518585487E+03  0.58251872406E+03 -0.12746119957E+03  0.61373890518E+03  0.46999998093E+01 0. -1.
</event>
<event>
 5   0  0.5157631E-04  0.1180205E+04  0.7818609E-02  0.9130362E-01
       -1   -1    0    0    0  501  0.00000000000E+00  0.00000000000E+00  0.12655557028E+03  0.12655557038E+03  0.50400001928E-02 0. -1.
        1   -1    0    0  501    0  0.00000000000E+00  0.00000000000E+00 -0.27515249415E+04  0.27515249415E+04  0.50400001928E-02 0.  1.
    10030    2    1    2    0    0  0.00000000000E+00  0.00000000000E+00 -0.26249693712E+04  0.28780805119E+04  0.11802047420E+04 0.  0.
        5    1    3    3  502    0  0.29205694008E+01  0.10379948264E+03 -0.27290230044E+04  0.27310019243E+04  0.46999998093E+01 0.  1.
       -5    1    3    3    0  502 -0.29205694008E+01 -0.10379948264E+03  0.10405363320E+03  0.14707858750E+03  0.46999998093E+01 0. -1.
</event>
<event>
 5   0  0.9410666E-04  0.1200123E+04  0.7818609E-02  0.9112749E-01
        2   -1    0    0  501    0  0.00000000000E+00  0.00000000000E+00  0.15468193192E+04  0.15468193192E+04  0.25500000920E-02 0. -1.
       -2   -1    0    0    0  501  0.00000000000E+00  0.00000000000E+00 -0.23278349421E+03  0.23278349422E+03  0.25500000920E-02 0.  1.
    10030    2    1    2    0    0  0.00000000000E+00  0.00000000000E+00  0.13140358250E+04  0.17796028134E+04  0.12001233371E+04 0.  0.
        2    1    3    3  502    0  0.45960250048E+03 -0.30823072254E+03  0.10010690386E+04  0.11438443325E+04  0.25500000920E-02 0. -1.
       -2    1    3    3    0  502 -0.45960250048E+03  0.30823072254E+03  0.31296678636E+03  0.63575848098E+03  0.25500000920E-02 0.  1.
</event>
<event>
 5   0  0.9410666E-04  0.1200102E+04  0.7818609E-02  0.9112767E-01
        2   -1    0    0  501    0  0.00000000000E+00  0.00000000000E+00  0.10516151919E+04  0.10516151919E+04  0.25500000920E-02 0.  1.
       -2   -1    0    0    0  501  0.00000000000E+00  0.00000000000E+00 -0.34238896480E+03  0.34238896481E+03  0.25500000920E-02 0. -1.
    10030    2    1    2    0    0  0.00000000000E+00  0.00000000000E+00  0.70922622712E+03  0.13940041567E+04  0.12001023905E+04 0.  0.
        2    1    3    3  502    0  0.15942014672E+03 -0.24703154439E+03  0.96221810071E+03  0.10061327151E+04  0.25500000920E-02 0.  1.
       -2    1    3    3    0  502 -0.15942014672E+03  0.24703154439E+03 -0.25299187359E+03  0.38787144161E+03  0.25500000920E-02 0. -1.
</event>
<event>
 5   0  0.5003507E-04  0.1202493E+04  0.7818609E-02  0.9110678E-01
        1   -1    0    0  501    0  0.00000000000E+00  0.00000000000E+00  0.54806998784E+03  0.54806998787E+03  0.50400001928E-02 0. -1.
       -1   -1    0    0    0  501  0.00000000000E+00  0.00000000000E+00 -0.65958191854E+03  0.65958191856E+03  0.50400001928E-02 0.  1.
    10030    2    1    2    0    0  0.00000000000E+00  0.00000000000E+00 -0.11151193070E+03  0.12076519064E+04  0.12024925016E+04 0.  0.
        3    1    3    3  502    0 -0.20997908438E+03  0.12245845311E+03  0.49652146151E+03  0.55282986583E+03  0.10100000352E+00 0. -1.
       -3    1    3    3    0  502  0.20997908438E+03 -0.12245845311E+03 -0.60803339220E+03  0.65482204060E+03  0.10100000352E+00 0.  1.
</event>
<event>
 5   0  0.5001586E-04  0.1200830E+04  0.7818609E-02  0.9112130E-01
        1   -1    0    0  501    0  0.00000000000E+00  0.00000000000E+00  0.21403117372E+04  0.21403117372E+04  0.50400001928E-02 0. -1.
       -1   -1    0    0    0  501  0.00000000000E+00  0.00000000000E+00 -0.16843261202E+03  0.16843261210E+03  0.50400001928E-02 0.  1.
    10030    2    1    2    0    0  0.00000000000E+00  0.00000000000E+00  0.19718791252E+04  0.23087443493E+04  0.12008302070E+04 0.  0.
        1    1    3    3  502    0  0.43233024754E+03  0.12440766828E+02  0.17866241394E+04  0.18382301355E+04  0.50400001928E-02 0. -1.
       -1    1    3    3    0  502 -0.43233024754E+03 -0.12440766828E+02  0.18525498583E+03  0.47051421383E+03  0.50400001928E-02 0.  1.
</event>
<event>
 5   0  0.9050363E-04  0.1196316E+04  0.7818609E-02  0.9116087E-01
       -2   -1    0    0    0  501  0.00000000000E+00  0.00000000000E+00  0.36472138996E+03  0.36472138997E+03  0.25500000920E-02 0.  1.
        2   -1    0    0  501    0  0.00000000000E+00  0.00000000000E+00 -0.98100410812E+03  0.98100410812E+03  0.25500000920E-02 0. -1.
    10030    2    1    2    0    0  0.00000000000E+00  0.00000000000E+00 -0.61628271816E+03  0.13457254981E+04  0.11963163158E+04 0.  0.
        3    1    3    3  502    0 -0.39327480528E+03 -0.19624060527E+03 -0.76454463387E+03  0.88187524912E+03  0.10100000352E+00 0. -1.
       -3    1    3    3    0  502  0.39327480528E+03  0.19624060527E+03  0.14826191572E+03  0.46385024898E+03  0.10100000352E+00 0.  1.
</event>
<event>
 5   0  0.9145224E-04  0.1193941E+04  0.7818609E-02  0.9118176E-01
        2   -1    0    0  501    0  0.00000000000E+00  0.00000000000E+00  0.15074004344E+04  0.15074004344E+04  0.25500000920E-02 0. -1.
       -2   -1    0    0    0  501  0.00000000000E+00  0.00000000000E+00 -0.23641627336E+03  0.23641627337E+03  0.25500000920E-02 0.  1.
    10030    2    1    2    0    0  0.00000000000E+00  0.00000000000E+00  0.12709841610E+04  0.17438167078E+04  0.11939413607E+04 0.  0.
        5    1    3    3  502    0 -0.35688312295E+03  0.16479121280E+03 -0.20669666021E+02  0.39366360304E+03  0.46999998093E+01 0.  1.
       -5    1    3    3    0  502  0.35688312295E+03 -0.16479121280E+03  0.12916538271E+04  0.13501531047E+04  0.46999998093E+01 0. -1.
</event>
<event>
 5   0  0.5052959E-04  0.1199788E+04  0.7818609E-02  0.9113042E-01
        1   -1    0    0  501    0  0.00000000000E+00  0.00000000000E+00  0.91919882428E+03  0.91919882429E+03  0.50400001928E-02 0. -1.
       -1   -1    0    0    0  501  0.00000000000E+00  0.00000000000E+00 -0.39150710355E+03  0.39150710359E+03  0.50400001928E-02 0.  1.
    10030    2    1    2    0    0  0.00000000000E+00  0.00000000000E+00  0.52769172073E+03  0.13107059279E+04  0.11997880968E+04 0.  0.
        2    1    3    3  502    0  0.24515284367E+03 -0.38304670479E+03  0.69122644771E+03  0.82741688213E+03  0.25500000920E-02 0. -1.
       -2    1    3    3    0  502 -0.24515284367E+03  0.38304670479E+03 -0.16353472698E+03  0.48328904576E+03  0.25500000920E-02 0.  1.
</event>
<event>
 5   0  0.5052959E-04  0.1202361E+04  0.7818609E-02  0.9110792E-01
       -1   -1    0    0    0  501  0.00000000000E+00  0.00000000000E+00  0.12691684858E+04  0.12691684858E+04  0.50400001928E-02 0. -1.
        1   -1    0    0  501    0  0.00000000000E+00  0.00000000000E+00 -0.28476775079E+03  0.28476775083E+03  0.50400001928E-02 0.  1.
    10030    2    1    2    0    0  0.00000000000E+00  0.00000000000E+00  0.98440073501E+03  0.15539362366E+04  0.12023614350E+04 0.  0.
        2    1    3    3  502    0  0.82968684339E+01  0.21257126440E+03  0.12188977434E+04  0.12373225486E+04  0.25500000920E-02 0. -1.
       -2    1    3    3    0  502 -0.82968684339E+01 -0.21257126440E+03 -0.23449700840E+03  0.31661368800E+03  0.25500000920E-02 0.  1.
</event>
<event>
 5   0  0.5003507E-04  0.1210115E+04  0.7818609E-02  0.9104048E-01
        1   -1    0    0  501    0  0.00000000000E+00  0.00000000000E+00  0.99078475187E+03  0.99078475188E+03  0.50400001928E-02 0.  1.
       -1   -1    0    0    0  501  0.00000000000E+00  0.00000000000E+00 -0.36949980545E+03  0.36949980549E+03  0.50400001928E-02 0. -1.
    10030    2    1    2    0    0  0.00000000000E+00  0.00000000000E+00  0.62128494641E+03  0.13602845574E+04  0.12101153219E+04 0.  0.
        3    1    3    3  502    0  0.31526460527E+02 -0.24245177405E+03  0.93278409128E+03  0.96429401719E+03  0.10100000352E+00 0.  1.
       -3    1    3    3    0  502 -0.31526460527E+02  0.24245177405E+03 -0.31149914486E+03  0.39599054017E+03  0.10100000352E+00 0. -1.
</event>
<event>
 5   0  0.9050363E-04  0.1200649E+04  0.7818609E-02  0.9112288E-01
       -2   -1    0    0    0  501  0.00000000000E+00  0.00000000000E+00  0.41361037638E+03  0.41361037639E+03  0.25500000920E-02 0. -1.
        2   -1    0    0  501    0  0.00000000000E+00  0.00000000000E+00 -0.87132679531E+03  0.87132679531E+03  0.25500000920E-02 0.  1.
    10030    2    1    2    0    0  0.00000000000E+00  0.00000000000E+00 -0.45771641893E+03  0.12849371717E+04  0.12006494972E+04 0.  0.
        3    1    3    3  502    0 -0.29492085742E+03 -0.12145207984E+03 -0.77314904217E+03  0.83635421410E+03  0.10100000352E+00 0.  1.
       -3    1    3    3    0  502  0.29492085742E+03  0.12145207984E+03  0.31543262324E+03  0.44858295759E+03  0.10100000352E+00 0. -1.
</event>
<event>
 5   0  0.5157631E-04  0.1203586E+04  0.7818609E-02  0.9109724E-01
       -1   -1    0    0    0  501  0.00000000000E+00  0.00000000000E+00  0.34358881900E+03  0.34358881904E+03  0.50400001928E-02 0.  1.
        1   -1    0    0  501    0  0.00000000000E+00  0.00000000000E+00 -0.10540347200E+04  0.10540347200E+04  0.50400001928E-02 0. -1.
    10030    2    1    2    0    0  0.00000000000E+00  0.00000000000E+00 -0.71044590101E+03  0.13976235391E+04  0.12035855510E+04 0.  0.
        5    1    3    3  502    0 -0.91623349392E+02 -0.11593126746E+03 -0.10326189963E+04  0.10431485889E+04  0.46999998093E+01 0. -1.
       -5    1    3    3    0  502  0.91623349392E+02  0.11593126746E+03  0.32217309533E+03  0.35447495015E+03  0.46999998093E+01 0.  1.
</event>
<event>
 5   0  0.5052959E-04  0.1199278E+04  0.7818609E-02  0.9113489E-01
       -1   -1    0    0    0  501  0.00000000000E+00  0.00000000000E+00  0.69285533773E+03  0.69285533775E+03  0.50400001928E-02 0.  1.
        1   -1    0    0  501    0  0.00000000000E+00  0.00000000000E+00 -0.51896395512E+03  0.51896395515E+03  0.50400001928E-02 0. -1.
    10030    2    1    2    0    0  0.00000000000E+00  0.00000000000E+00  0.17389138261E+03  0.12118192929E+04  0.11992780269E+04 0.  0.
        2    1    3    3  502    0  0.37927036466E+03 -0.14098881462E+03  0.53411512884E+03  0.67007673160E+03  0.25500000920E-02 0.  1.
       -2    1    3    3    0  502 -0.37927036466E+03  0.14098881462E+03 -0.36022374624E+03  0.54174256130E+03  0.25500000920E-02 0. -1.
</event>
<event>
 5   0  0.9050363E-04  0.1200393E+04  0.7818609E-02  0.9112513E-01
       -2   -1    0    0    0  501  0.00000000000E+00  0.00000000000E+00  0.71029816465E+03  0.71029816465E+03  0.25500000920E-02 0.  1.
        2   -1    0    0  501    0  0.00000000000E+00  0.00000000000E+00 -0.50716137864E+03  0.50716137864E+03  0.25500000920E-02 0. -1.
    10030    2    1    2    0    0  0.00000000000E+00  0.00000000000E+00  0.20313678601E+03  0.12174595433E+04  0.12003929297E+04 0.  0.
        3    1    3    3  502    0 -0.80537283555E+02 -0.53124928080E+03  0.37280993130E+03  0.65398723801E+03  0.10100000352E+00 0.  1.
       -3    1    3    3    0  502  0.80537283555E+02  0.53124928080E+03 -0.16967314529E+03  0.56347230529E+03  0.10100000352E+00 0. -1.
</event>
<event>
 5   0  0.9145224E-04  0.1214415E+04  0.7818609E-02  0.9100332E-01
       -2   -1    0    0    0  501  0.00000000000E+00  0.00000000000E+00  0.87458395191E+03  0.87458395191E+03  0.25500000920E-02 0.  1.
        2   -1    0    0  501    0  0.00000000000E+00  0.00000000000E+00 -0.42157274207E+03  0.42157274208E+03  0.25500000920E-02 0. -1.
    10030    2    1    2    0    0  0.00000000000E+00  0.00000000000E+00  0.45301120984E+03  0.12961566940E+04  0.12144146817E+04 0.  0.
        5    1    3    3  502    0 -0.77374144402E+02  0.11003057364E+03  0.85846223499E+03  0.86894935656E+03  0.46999998093E+01 0.  1.
       -5    1    3    3    0  502  0.77374144402E+02 -0.11003057364E+03 -0.40545102515E+03  0.42720733743E+03  0.46999998093E+01 0. -1.
</event>
<event>
 5   0  0.9145224E-04  0.1200251E+04  0.7818609E-02  0.9112637E-01
       -2   -1    0    0    0  501  0.00000000000E+00  0.00000000000E+00  0.18482541677E+03  0.18482541679E+03  0.25500000920E-02 0.  1.
        2   -1    0    0  501    0  0.00000000000E+00  0.00000000000E+00 -0.19486000051E+04  0.19486000051E+04  0.25500000920E-02 0. -1.
    10030    2    1    2    0    0  0.00000000000E+00  0.00000000000E+00 -0.17637745883E+04  0.21334254219E+04  0.12002513205E+04 0.  0.
        5    1    3    3  502    0  0.45030942824E+02 -0.53442261861E+03 -0.13604672430E+04  0.14623708594E+04  0.46999998093E+01 0. -1.
       -5    1    3    3    0  502 -0.45030942824E+02  0.53442261861E+03 -0.40330734535E+03  0.67105456254E+03  0.46999998093E+01 0.  1.
</event>
<event>
 5   0  0.9145224E-04  0.1201567E+04  0.7818609E-02  0.9111486E-01
       -2   -1    0    0    0  501  0.00000000000E+00  0.00000000000E+00  0.48890497489E+03  0.48890497489E+03  0.25500000920E-02 0. -1.
        2   -1    0    0  501    0  0.00000000000E+00  0.00000000000E+00 -0.73826410587E+03  0.73826410587E+03  0.25500000920E-02 0.  1.
    10030    2    1    2    0    0  0.00000000000E+00  0.00000000000E+00 -0.24935913098E+03  0.12271690808E+04  0.12015673001E+04 0.  0.
        5    1    3    3  502    0  0.49788780683E+02  0.26707935357E+03 -0.67192154439E+03  0.72478338529E+03  0.46999998093E+01 0.  1.
       -5    1    3    3    0  502 -0.49788780683E+02 -0.26707935357E+03  0.42256241341E+03  0.50238569547E+03  0.46999998093E+01 0. -1.
</event>
<event>
 5   0  0.9410666E-04  0.1199285E+04  0.7818609E-02  0.9113483E-01
        2   -1    0    0  501    0  0.00000000000E+00  0.00000000000E+00  0.79240231409E+03  0.79240231409E+03  0.25500000920E-02 0. -1.
       -2   -1    0    0    0  501  0.00000000000E+00  0.00000000000E+00 -0.45377351160E+03  0.45377351161E+03  0.25500000920E-02 0.  1.
    10030    2    1    2    0    0  0.00000000000E+00  0.00000000000E+00  0.33862880248E+03  0.12461758257E+04  0.11992850882E+04 0.  0.
        2    1    3    3  502    0  0.27252020368E+03  0.41602783250E+03  0.51741216612E+03  0.71767803957E+03  0.25500000920E-02 0. -1.
       -2    1    3    3    0  502 -0.27252020368E+03 -0.41602783250E+03 -0.17878336364E+03  0.52849778613E+03  0.25500000920E-02 0.  1.
</event>
<event>
 5   0  0.9070772E-04  0.1201712E+04  0.7818609E-02  0.9111360E-01
        2   -1    0    0  501    0  0.00000000000E+00  0.00000000000E+00  0.99712535825E+03  0.99712535825E+03  0.25500000920E-02 0.  1.
       -2   -1    0    0    0  501  0.00000000000E+00  0.00000000000E+00 -0.36206857232E+03  0.36206857233E+03  0.25500000920E-02 0. -1.
    10030    2    1    2    0    0  0.00000000000E+00  0.00000000000E+00  0.63505678593E+03  0.13591939306E+04  0.12017117040E+04 0.  0.
        4    1    3    3  502    0 -0.39966045303E+02  0.58659777574E+03  0.17747964850E+03  0.61416192800E+03  0.12699999809E+01 0. -1.
       -4    1    3    3    0  502  0.39966045303E+02 -0.58659777574E+03  0.45757713743E+03  0.74503200259E+03  0.12699999809E+01 0.  1.
</event>
<event>
 5   0  0.9145224E-04  0.1195483E+04  0.7818609E-02  0.9116820E-01
        2   -1    0    0  501    0  0.00000000000E+00  0.00000000000E+00  0.97819114121E+03  0.97819114122E+03  0.25500000920E-02 0. -1.
       -2   -1    0    0    0  501  0.00000000000E+00  0.00000000000E+00 -0.36526053124E+03  0.36526053125E+03  0.25500000920E-02 0.  1.
    10030    2    1    2    0    0  0.00000000000E+00  0.00000000000E+00  0.61293060997E+03  0.13434516725E+04  0.11954825233E+04 0.  0.
        5    1    3    3  502    0  0.34618680855E+03  0.23505955675E+03  0.78611291100E+03  0.89055819601E+03  0.46999998093E+01 0. -1.
       -5    1    3    3    0  502 -0.34618680855E+03 -0.23505955675E+03 -0.17318230103E+03  0.45289347646E+03  0.46999998093E+01 0.  1.
</event>
<event>
 5   0  0.9145224E-04  0.1200870E+04  0.7818609E-02  0.9112095E-01
        2   -1    0    0  501    0  0.00000000000E+00  0.00000000000E+00  0.93315241137E+03  0.93315241137E+03  0.25500000920E-02 0. -1.
       -2   -1    0    0    0  501  0.00000000000E+00  0.00000000000E+00 -0.38634881016E+03  0.38634881017E+03  0.25500000920E-02 0.  1.
    10030    2    1    2    0    0  0.00000000000E+00  0.00000000000E+00  0.54680360121E+03  0.13195012215E+04  0.12008702242E+04 0.  0.
        5    1    3    3  502    0  0.18469156056E+03 -0.57108418967E+03  0.25595529651E+03  0.65252074913E+03  0.46999998093E+01 0.  1.
       -5    1    3    3    0  502 -0.18469156056E+03  0.57108418967E+03  0.29084830470E+03  0.66698047241E+03  0.46999998093E+01 0. -1.
</event>
<event>
 5   0  0.9298693E-04  0.1202270E+04  0.7818609E-02  0.9110872E-01
       -2   -1    0    0    0  501  0.00000000000E+00  0.00000000000E+00  0.11034794753E+04  0.11034794753E+04  0.25500000920E-02 0.  1.
        2   -1    0    0  501    0  0.00000000000E+00  0.00000000000E+00 -0.32747597913E+03  0.32747597914E+03  0.25500000920E-02 0. -1.
    10030    2    1    2    0    0  0.00000000000E+00  0.00000000000E+00  0.77600349616E+03  0.14309554544E+04  0.12022695565E+04 0.  0.
        1    1    3    3  502    0  0.52191018699E+03  0.29799741377E+03  0.37246869943E+03  0.70705419452E+03  0.50400001928E-02 0.  1.
       -1    1    3    3    0  502 -0.52191018699E+03 -0.29799741377E+03  0.40353479673E+03  0.72390125991E+03  0.50400001928E-02 0. -1.
</event>
<event>
 5   0  0.3453625E-04  0.1201415E+04  0.7818609E-02  0.9111619E-01
       -3   -1    0    0    0  501  0.00000000000E+00  0.00000000000E+00  0.19968908869E+03  0.19968911423E+03  0.10100000352E+00 0.  1.
        3   -1    0    0  501    0  0.00000000000E+00  0.00000000000E+00 -0.18070572626E+04  0.18070572654E+04  0.10100000352E+00 0. -1.
    10030    2    1    2    0    0  0.00000000000E+00  0.00000000000E+00 -0.16073681739E+04  0.20067463797E+04  0.12014152428E+04 0.  0.
        4    1    3    3  502    0 -0.20015608661E+03  0.19641143423E+03 -0.16910119225E+04  0.17141070111E+04  0.12699999809E+01 0. -1.
       -4    1    3    3    0  502  0.20015608661E+03 -0.19641143423E+03  0.83643748526E+02  0.29263936863E+03  0.12699999809E+01 0.  1.
</event>
<event>
 5   0  0.9298693E-04  0.1193188E+04  0.7818609E-02  0.9118840E-01
        2   -1    0    0  501    0  0.00000000000E+00  0.00000000000E+00  0.13402127115E+04  0.13402127115E+04  0.25500000920E-02 0. -1.
       -2   -1    0    0    0  501  0.00000000000E+00  0.00000000000E+00 -0.26557292583E+03  0.26557292584E+03  0.25500000920E-02 0.  1.
    10030    2    1    2    0    0  0.00000000000E+00  0.00000000000E+00  0.10746397856E+04  0.16057856373E+04  0.11931876819E+04 0.  0.
        1    1    3    3  502    0 -0.35791812736E+02  0.36584967276E+03  0.11696961609E+04  0.12260979348E+04  0.50400001928E-02 0. -1.
       -1    1    3    3    0  502  0.35791812736E+02 -0.36584967276E+03 -0.95056375267E+02  0.37968770249E+03  0.50400001928E-02 0.  1.
</event>
<event>
 5   0  0.5052959E-04  0.1217501E+04  0.7818609E-02  0.9097675E-01
       -1   -1    0    0    0  501  0.00000000000E+00  0.00000000000E+00  0.76224820919E+03  0.76224820920E+03  0.50400001928E-02 0.  1.
        1   -1    0    0  501    0  0.00000000000E+00  0.00000000000E+00 -0.48616307201E+03  0.48616307204E+03  0.50400001928E-02 0. -1.
    10030    2    1    2    0    0  0.00000000000E+00  0.00000000000E+00  0.27608513717E+03  0.12484112812E+04  0.12175006054E+04 0.  0.
        2    1    3    3  502    0 -0.29489056032E+03 -0.29605773026E+03  0.59196244988E+03  0.72458965235E+03  0.25500000920E-02 0.  1.
       -2    1    3    3    0  502  0.29489056032E+03  0.29605773026E+03 -0.31587731271E+03  0.52382162890E+03  0.25500000920E-02 0. -1.
</event>
<event>
 5   0  0.9050363E-04  0.1175953E+04  0.7818609E-02  0.9134169E-01
        2   -1    0    0  501    0  0.00000000000E+00  0.00000000000E+00  0.14593547227E+04  0.14593547227E+04  0.25500000920E-02 0. -1.
       -2   -1    0    0    0  501  0.00000000000E+00  0.00000000000E+00 -0.23689662437E+03  0.23689662439E+03  0.25500000920E-02 0.  1.
    10030    2    1    2    0    0  0.00000000000E+00  0.00000000000E+00  0.12224580983E+04  0.16962513471E+04  0.11759527330E+04 0.  0.
        3    1    3    3  502    0 -0.31096984351E+03 -0.40717126490E+03  0.19509947216E+03  0.54822850781E+03  0.10100000352E+00 0.  1.
       -3    1    3    3    0  502  0.31096984351E+03  0.40717126490E+03  0.10273586261E+04  0.11480228392E+04  0.10100000352E+00 0. -1.
</event>
<event>
 5   0  0.5447074E-04  0.1201614E+04  0.7818609E-02  0.9111445E-01
       -1   -1    0    0    0  501  0.00000000000E+00  0.00000000000E+00  0.32328821697E+03  0.32328821701E+03  0.50400001928E-02 0.  1.
        1   -1    0    0  501    0  0.00000000000E+00  0.00000000000E+00 -0.11165544145E+04  0.11165544145E+04  0.50400001928E-02 0. -1.
    10030    2    1    2    0    0  0.00000000000E+00  0.00000000000E+00 -0.79326619749E+03  0.14398426315E+04  0.12016137247E+04 0.  0.
        4    1    3    3  502    0 -0.44042415393E+03  0.33747634155E+02  0.91360749200E+02  0.45106622304E+03  0.12699999809E+01 0.  1.
       -4    1    3    3    0  502  0.44042415393E+03 -0.33747634155E+02 -0.88462694669E+03  0.98877640844E+03  0.12699999809E+01 0. -1.
</event>
<event>
 5   0  0.5001586E-04  0.1199121E+04  0.7818609E-02  0.9113626E-01
        1   -1    0    0  501    0  0.00000000000E+00  0.00000000000E+00  0.80292300880E+03  0.80292300881E+03  0.50400001928E-02 0.  1.
       -1   -1    0    0    0  501  0.00000000000E+00  0.00000000000E+00 -0.44770521963E+03  0.44770521966E+03  0.50400001928E-02 0. -1.
    10030    2    1    2    0    0  0.00000000000E+00  0.00000000000E+00  0.35521778917E+03  0.12506282285E+04  0.11991210481E+04 0.  0.
        1    1    3    3  502    0 -0.33807760817E+03  0.16468089831E+03 -0.30941444430E+03  0.48698415352E+03  0.50400001928E-02 0. -1.
       -1    1    3    3    0  502  0.33807760817E+03 -0.16468089831E+03  0.66463223346E+03  0.76364407495E+03  0.50400001928E-02 0.  1.
</event>
<event>
 5   0  0.5157631E-04  0.1204566E+04  0.7818609E-02  0.9108870E-01
        1   -1    0    0  501    0  0.00000000000E+00  0.00000000000E+00  0.20234773668E+04  0.20234773668E+04  0.50400001928E-02 0.  1.
       -1   -1    0    0    0  501  0.00000000000E+00  0.00000000000E+00 -0.17926794810E+03  0.17926794817E+03  0.50400001928E-02 0. -1.
    10030    2    1    2    0    0  0.00000000000E+00  0.00000000000E+00  0.18442094187E+04  0.22027453150E+04  0.12045657071E+04 0.  0.
        5    1    3    3  502    0  0.43396378302E+03  0.41232324875E+03  0.10432323638E+04  0.12027846363E+04  0.46999998093E+01 0. -1.
       -5    1    3    3    0  502 -0.43396378302E+03 -0.41232324875E+03  0.80097705490E+03  0.99996067868E+03  0.46999998093E+01 0.  1.
</event>
<event>
 5   0  0.9070772E-04  0.1198649E+04  0.7818609E-02  0.9114040E-01
        2   -1    0    0  501    0  0.00000000000E+00  0.00000000000E+00  0.14238981055E+04  0.14238981055E+04  0.25500000920E-02 0.  1.
       -2   -1    0    0    0  501  0.00000000000E+00  0.00000000000E+00 -0.25225811906E+03  0.25225811907E+03  0.25500000920E-02 0. -1.
    10030    2    1    2    0    0  0.00000000000E+00  0.00000000000E+00  0.11716399865E+04  0.16761562246E+04  0.11986490026E+04 0.  0.
        4    1    3    3  502    0 -0.16821560626E+03  0.86017927367E+02  0.13811634064E+04  0.13940263779E+04  0.12699999809E+01 0.  1.
       -4    1    3    3    0  502  0.16821560626E+03 -0.86017927367E+02 -0.20952341995E+03  0.28212984675E+03  0.12699999809E+01 0. -1.
</event>
<event>
 5   0  0.5052959E-04  0.1199164E+04  0.7818609E-02  0.9113588E-01
        1   -1    0    0  501    0  0.00000000000E+00  0.00000000000E+00  0.77175573627E+03  0.77175573629E+03  0.50400001928E-02 0. -1.
       -1   -1    0    0    0  501  0.00000000000E+00  0.00000000000E+00 -0.46581940221E+03  0.46581940224E+03  0.50400001928E-02 0.  1.
    10030    2    1    2    0    0  0.00000000000E+00  0.00000000000E+00  0.30593633406E+03  0.12375751385E+04  0.11991643686E+04 0.  0.
        2    1    3    3  502    0  0.35306833853E+03  0.11751003492E+03  0.63816879769E+03  0.73873220746E+03  0.25500000920E-02 0. -1.
       -2    1    3    3    0  502 -0.35306833853E+03 -0.11751003492E+03 -0.33223246363E+03  0.49884293107E+03  0.25500000920E-02 0.  1.
</event>
<event>
 5   0  0.9410666E-04  0.1197075E+04  0.7818609E-02  0.9115420E-01
        2   -1    0    0  501    0  0.00000000000E+00  0.00000000000E+00  0.18038877236E+04  0.18038877236E+04  0.25500000920E-02 0.  1.
       -2   -1    0    0    0  501  0.00000000000E+00  0.00000000000E+00 -0.19859738798E+03  0.19859738800E+03  0.25500000920E-02 0. -1.
    10030    2    1    2    0    0  0.00000000000E+00  0.00000000000E+00  0.16052903356E+04  0.20024851116E+04  0.11970754197E+04 0.  0.
        2    1    3    3  502    0  0.42284178885E+03  0.64004351703E+02  0.15031444105E+04  0.15627971251E+04  0.25500000920E-02 0.  1.
       -2    1    3    3    0  502 -0.42284178885E+03 -0.64004351703E+02  0.10214592511E+03  0.43968798648E+03  0.25500000920E-02 0. -1.
</event>
<event>
 5   0  0.9050363E-04  0.1198119E+04  0.7818609E-02  0.9114505E-01
       -2   -1    0    0    0  501  0.00000000000E+00  0.00000000000E+00  0.36924776683E+03  0.36924776684E+03  0.25500000920E-02 0. -1.
        2   -1    0    0  501    0  0.00000000000E+00  0.00000000000E+00 -0.97190095502E+03  0.97190095502E+03  0.25500000920E-02 0.  1.
    10030    2    1    2    0    0  0.00000000000E+00  0.00000000000E+00 -0.60265318818E+03  0.13411487219E+04  0.11981189544E+04 0.  0.
        3    1    3    3  502    0 -0.50946853694E+03  0.15666964076E+03  0.47547498617E+01  0.53303488095E+03  0.10100000352E+00 0. -1.
       -3    1    3    3    0  502  0.50946853694E+03 -0.15666964076E+03 -0.60740793804E+03  0.80811384091E+03  0.10100000352E+00 0.  1.
</event>
<event>
 5   0  0.9145224E-04  0.1207542E+04  0.7818609E-02  0.9106280E-01
       -2   -1    0    0    0  501  0.00000000000E+00  0.00000000000E+00  0.24192095252E+03  0.24192095254E+03  0.25500000920E-02 0. -1.
        2   -1    0    0  501    0  0.00000000000E+00  0.00000000000E+00 -0.15068542614E+04  0.15068542614E+04  0.25500000920E-02 0.  1.
    10030    2    1    2    0    0  0.00000000000E+00  0.00000000000E+00 -0.12649333088E+04  0.17487752139E+04  0.12075423276E+04 0.  0.
        5    1    3    3  502    0 -0.12563214046E+03  0.26531386808E+03 -0.13965161639E+04  0.14270439269E+04  0.46999998093E+01 0.  1.
       -5    1    3    3    0  502  0.12563214046E+03 -0.26531386808E+03  0.13158285503E+03  0.32173128702E+03  0.46999998093E+01 0. -1.
</event>
<event>
 5   0  0.5052959E-04  0.1204632E+04  0.7818609E-02  0.9108812E-01
        1   -1    0    0  501    0  0.00000000000E+00  0.00000000000E+00  0.15477329454E+04  0.15477329454E+04  0.50400001928E-02 0. -1.
       -1   -1    0    0    0  501  0.00000000000E+00  0.00000000000E+00 -0.23439749461E+03  0.23439749467E+03  0.50400001928E-02 0.  1.
    10030    2    1    2    0    0  0.00000000000E+00  0.00000000000E+00  0.13133354508E+04  0.17821304401E+04  0.12046322672E+04 0.  0.
        2    1    3    3  502    0  0.33170484982E+03 -0.18941299088E+03 -0.32292395092E+02  0.38333821529E+03  0.25500000920E-02 0.  1.
       -2    1    3    3    0  502 -0.33170484982E+03  0.18941299088E+03  0.13456278459E+04  0.13987922248E+04  0.25500000920E-02 0. -1.
</event>
<event>
 5   0  0.5447074E-04  0.1194548E+04  0.7818609E-02  0.9117642E-01
        1   -1    0    0  501    0  0.00000000000E+00  0.00000000000E+00  0.13752152861E+04  0.13752152861E+04  0.50400001928E-02 0.  1.
       -1   -1    0    0    0  501  0.00000000000E+00  0.00000000000E+00 -0.25940411955E+03  0.25940411960E+03  0.50400001928E-02 0. -1.
    10030    2    1    2    0    0  0.00000000000E+00  0.00000000000E+00  0.11158111666E+04  0.16346194057E+04  0.11945484679E+04 0.  0.
        4    1    3    3  502    0  0.15393063019E+02  0.58305017699E+03  0.73394814432E+03  0.93747850467E+03  0.12699999809E+01 0.  1.
       -4    1    3    3    0  502 -0.15393063019E+02 -0.58305017699E+03  0.38186302225E+03  0.69714090106E+03  0.12699999809E+01 0. -1.
</event>
<event>
 5   0  0.9070772E-04  0.1195072E+04  0.7818609E-02  0.9117181E-01
        2   -1    0    0  501    0  0.00000000000E+00  0.00000000000E+00  0.87894701898E+03  0.87894701898E+03  0.25500000920E-02 0.  1.
       -2   -1    0    0    0  501  0.00000000000E+00  0.00000000000E+00 -0.40622375776E+03  0.40622375777E+03  0.25500000920E-02 0. -1.
    10030    2    1    2    0    0  0.00000000000E+00  0.00000000000E+00  0.47272326121E+03  0.12851707767E+04  0.11950718153E+04 0.  0.
        4    1    3    3  502    0 -0.46540005891E+03  0.24666972144E+03  0.53977542690E+03  0.75418982405E+03  0.12699999809E+01 0.  1.
       -4    1    3    3    0  502  0.46540005891E+03 -0.24666972144E+03 -0.67052165682E+02  0.53098095270E+03  0.12699999809E+01 0. -1.
</event>
<event>
 5   0  0.9050363E-04  0.1202114E+04  0.7818609E-02  0.9111008E-01
       -2   -1    0    0    0  501  0.00000000000E+00  0.00000000000E+00  0.57151529306E+03  0.57151529306E+03  0.25500000920E-02 0. -1.
        2   -1    0    0  501    0  0.00000000000E+00  0.00000000000E+00 -0.63212587798E+03  0.63212587799E+03  0.25500000920E-02 0.  1.
    10030    2    1    2    0    0  0.00000000000E+00  0.00000000000E+00 -0.60610584926E+02  0.12036411711E+04  0.12021141483E+04 0.  0.
        3    1    3    3  502    0 -0.14757335039E+03  0.58189720492E+03 -0.47910991525E+00  0.60031865753E+03  0.10100000352E+00 0.  1.
       -3    1    3    3    0  502  0.14757335039E+03 -0.58189720492E+03 -0.60131475010E+02  0.60332251352E+03  0.10100000352E+00 0. -1.
</event>
<event>
 5   0  0.5001586E-04  0.1208231E+04  0.7818609E-02  0.9105683E-01
       -1   -1    0    0    0  501  0.00000000000E+00  0.00000000000E+00  0.23898826764E+03  0.23898826769E+03  0.50400001928E-02 0.  1.
        1   -1    0    0  501    0  0.00000000000E+00  0.00000000000E+00 -0.15270849218E+04  0.15270849218E+04  0.50400001928E-02 0. -1.
    10030    2    1    2    0    0  0.00000000000E+00  0.00000000000E+00 -0.12880966542E+04  0.17660731895E+04  0.12082307397E+04 0.  0.
        1    1    3    3  502    0 -0.15157425465E+03  0.52411325271E+03 -0.26488971383E+03  0.60649486136E+03  0.50400001928E-02 0.  1.
       -1    1    3    3    0  502  0.15157425465E+03 -0.52411325271E+03 -0.10232069404E+04  0.11595783282E+04  0.50400001928E-02 0. -1.
</event>
<event>
 5   0  0.5003507E-04  0.1190310E+04  0.7818609E-02  0.9121380E-01
       -1   -1    0    0    0  501  0.00000000000E+00  0.00000000000E+00  0.18653404927E+03  0.18653404934E+03  0.50400001928E-02 0. -1.
        1   -1    0    0  501    0  0.00000000000E+00  0.00000000000E+00 -0.18989011593E+04  0.18989011593E+04  0.50400001928E-02 0.  1.
    10030    2    1    2    0    0  0.00000000000E+00  0.00000000000E+00 -0.17123671100E+04  0.20854352086E+04  0.11903104175E+04 0.  0.
        3    1    3    3  502    0  0.59349902612E+03 -0.65785572291E+00 -0.77845698891E+03  0.97889571486E+03  0.10100000352E+00 0.  1.
       -3    1    3    3    0  502 -0.59349902612E+03  0.65785572291E+00 -0.93391012107E+03  0.11065394937E+04  0.10100000352E+00 0. -1.
</event>
<event>
 5   0  0.5052959E-04  0.1190114E+04  0.7818609E-02  0.9121554E-01
        1   -1    0    0  501    0  0.00000000000E+00  0.00000000000E+00  0.89017360108E+03  0.89017360110E+03  0.50400001928E-02 0.  1.
       -1   -1    0    0    0  501  0.00000000000E+00  0.00000000000E+00 -0.39777948924E+03  0.39777948928E+03  0.50400001928E-02 0. -1.
    10030    2    1    2    0    0  0.00000000000E+00  0.00000000000E+00  0.49239411184E+03  0.12879530904E+04  0.11901139448E+04 0.  0.
        2    1    3    3  502    0 -0.15785068658E+03 -0.41642985564E+03 -0.18091560881E+03  0.48068817485E+03  0.25500000920E-02 0.  1.
       -2    1    3    3    0  502  0.15785068658E+03  0.41642985564E+03  0.67330972064E+03  0.80726491553E+03  0.25500000920E-02 0. -1.
</event>
<event>
 5   0  0.5052959E-04  0.1154565E+04  0.7818609E-02  0.9153583E-01
       -1   -1    0    0    0  501  0.00000000000E+00  0.00000000000E+00  0.27985328963E+03  0.27985328967E+03  0.50400001928E-02 0.  1.
        1   -1    0    0  501    0  0.00000000000E+00  0.00000000000E+00 -0.11908197003E+04  0.11908197003E+04  0.50400001928E-02 0. -1.
    10030    2    1    2    0    0  0.00000000000E+00  0.00000000000E+00 -0.91096641070E+03  0.14706729900E+04  0.11545645249E+04 0.  0.
        2    1    3    3  502    0 -0.43384285212E+03  0.24591743958E+03 -0.85075605603E+02  0.50589807877E+03  0.25500000920E-02 0.  1.
       -2    1    3    3    0  502  0.43384285212E+03 -0.24591743958E+03 -0.82589080510E+03  0.96477491125E+03  0.25500000920E-02 0. -1.
</event>
<event>
 5   0  0.9145224E-04  0.1197669E+04  0.7818609E-02  0.9114899E-01
        2   -1    0    0  501    0  0.00000000000E+00  0.00000000000E+00  0.15589174835E+04  0.15589174835E+04  0.25500000920E-02 0. -1.
       -2   -1    0    0    0  501  0.00000000000E+00  0.00000000000E+00 -0.23003315437E+03  0.23003315438E+03  0.25500000920E-02 0.  1.
    10030    2    1    2    0    0  0.00000000000E+00  0.00000000000E+00  0.13288843292E+04  0.17889506379E+04  0.11976689128E+04 0.  0.
        5    1    3    3  502    0 -0.86072086205E+02 -0.34164198745E+03 -0.58809504675E+02  0.35722303880E+03  0.46999998093E+01 0.  1.
       -5    1    3    3    0  502  0.86072086205E+02  0.34164198745E+03  0.13876938338E+04  0.14317275991E+04  0.46999998093E+01 0. -1.
</event>
<event>
 5   0  0.5157631E-04  0.1198014E+04  0.7818609E-02  0.9114597E-01
        1   -1    0    0  501    0  0.00000000000E+00  0.00000000000E+00  0.50698509119E+03  0.50698509122E+03  0.50400001928E-02 0. -1.
       -1   -1    0    0    0  501  0.00000000000E+00  0.00000000000E+00 -0.70773180517E+03  0.70773180519E+03  0.50400001928E-02 0.  1.
    10030    2    1    2    0    0  0.00000000000E+00  0.00000000000E+00 -0.20074671398E+03  0.12147168964E+04  0.11980141465E+04 0.  0.
        5    1    3    3  502    0 -0.49605540580E+03  0.31613178654E+03  0.14238479730E+02  0.58841745078E+03  0.46999998093E+01 0. -1.
       -5    1    3    3    0  502  0.49605540580E+03 -0.31613178654E+03 -0.21498519371E+03  0.62629944563E+03  0.46999998093E+01 0.  1.
</event>
<event>
 5   0  0.5003507E-04  0.1200068E+04  0.7818609E-02  0.9112797E-01
        1   -1    0    0  501    0  0.00000000000E+00  0.00000000000E+00  0.83195524850E+03  0.83195524852E+03  0.50400001928E-02 0. -1.
       -1   -1    0    0    0  501  0.00000000000E+00  0.00000000000E+00 -0.43276433550E+03  0.43276433553E+03  0.50400001928E-02 0.  1.
    10030    2    1    2    0    0  0.00000000000E+00  0.00000000000E+00  0.39919091300E+03  0.12647195840E+04  0.12000675986E+04 0.  0.
        3    1    3    3  502    0  0.34842361925E+03  0.22147828387E+03  0.65847108097E+03  0.77719741595E+03  0.10100000352E+00 0. -1.
       -3    1    3    3    0  502 -0.34842361925E+03 -0.22147828387E+03 -0.25928016798E+03  0.48752216810E+03  0.10100000352E+00 0.  1.
</event>
<event>
 5   0  0.5157631E-04  0.1181476E+04  0.7818609E-02  0.9129227E-01
        1   -1    0    0  501    0  0.00000000000E+00  0.00000000000E+00  0.10735280601E+04  0.10735280601E+04  0.50400001928E-02 0. -1.
       -1   -1    0    0    0  501  0.00000000000E+00  0.00000000000E+00 -0.32506984477E+03  0.32506984481E+03  0.50400001928E-02 0.  1.
    10030    2    1    2    0    0  0.00000000000E+00  0.00000000000E+00  0.74845821528E+03  0.13985979049E+04  0.11814763643E+04 0.  0.
        5    1    3    3  502    0  0.56298776109E+03 -0.12213417903E+03  0.52892557730E+03  0.78208460741E+03  0.46999998093E+01 0.  1.
       -5    1    3    3    0  502 -0.56298776109E+03  0.12213417903E+03  0.21953263798E+03  0.61651329747E+03  0.46999998093E+01 0. -1.
</event>
<event>
 5   0  0.5001586E-04  0.1195314E+04  0.7818609E-02  0.9116968E-01
       -1   -1    0    0    0  501  0.00000000000E+00  0.00000000000E+00  0.76063453953E+03  0.76063453954E+03  0.50400001928E-02 0.  1.
        1   -1    0    0  501    0  0.00000000000E+00  0.00000000000E+00 -0.46959998520E+03  0.46959998523E+03  0.50400001928E-02 0. -1.
    10030    2    1    2    0    0  0.00000000000E+00  0.00000000000E+00  0.29103455432E+03  0.12302345248E+04  0.11953141320E+04 0.  0.
        1    1    3    3  502    0  0.44978447407E+03  0.28886476951E+03 -0.12958355205E+03  0.55003711254E+03  0.50400001928E-02 0. -1.
       -1    1    3    3    0  502 -0.44978447407E+03 -0.28886476951E+03  0.42061810637E+03  0.68019741224E+03  0.50400001928E-02 0.  1.
</event>
<event>
 5   0  0.9410666E-04  0.1200072E+04  0.7818609E-02  0.9112793E-01
       -2   -1    0    0    0  501  0.00000000000E+00  0.00000000000E+00  0.10250259693E+04  0.10250259693E+04  0.25500000920E-02 0. -1.
        2   -1    0    0  501    0  0.00000000000E+00  0.00000000000E+00 -0.35125288847E+03  0.35125288848E+03  0.25500000920E-02 0.  1.
    10030    2    1    2    0    0  0.00000000000E+00  0.00000000000E+00  0.67377308086E+03  0.13762788578E+04  0.12000722186E+04 0.  0.
        2    1    3    3  502    0 -0.37284209724E+03  0.19288493589E+03  0.82859117541E+03  0.92885906570E+03  0.25500000920E-02 0. -1.
       -2    1    3    3    0  502  0.37284209724E+03 -0.19288493589E+03 -0.15481809455E+03  0.44741979211E+03  0.25500000920E-02 0.  1.
</event>
<event>
 5   0  0.9298693E-04  0.1191470E+04  0.7818609E-02  0.9120355E-01
        2   -1    0    0  501    0  0.00000000000E+00  0.00000000000E+00  0.47581554163E+03  0.47581554164E+03  0.25500000920E-02 0. -1.
       -2   -1    0    0    0  501  0.00000000000E+00  0.00000000000E+00 -0.74587824211E+03  0.74587824212E+03  0.25500000920E-02 0.  1.
    10030    2    1    2    0    0  0.00000000000E+00  0.00000000000E+00 -0.27006270048E+03  0.12216937838E+04  0.11914704525E+04 0.  0.
        1    1    3    3  502    0  0.31366143794E+03  0.41427946010E+03  0.16371736913E+03  0.54480670489E+03  0.50400001928E-02 0. -1.
       -1    1    3    3    0  502 -0.31366143794E+03 -0.41427946010E+03 -0.43378006961E+03  0.67688707886E+03  0.50400001928E-02 0.  1.
</event>
<event>
 5   0  0.5157631E-04  0.1264687E+04  0.7818609E-02  0.9058047E-01
        1   -1    0    0  501    0  0.00000000000E+00  0.00000000000E+00  0.73559437749E+03  0.73559437751E+03  0.50400001928E-02 0. -1.
       -1   -1    0    0    0  501  0.00000000000E+00  0.00000000000E+00 -0.54358513438E+03  0.54358513440E+03  0.50400001928E-02 0.  1.
    10030    2    1    2    0    0  0.00000000000E+00  0.00000000000E+00  0.19200924311E+03  0.12791795119E+04  0.12646867890E+04 0.  0.
        5    1    3    3  502    0  0.57087654568E+03 -0.26578029234E+03  0.37928130282E+02  0.63087227492E+03  0.46999998093E+01 0.  1.
       -5    1    3    3    0  502 -0.57087654568E+03  0.26578029234E+03  0.15408111283E+03  0.64830723699E+03  0.46999998093E+01 0. -1.
</event>
<event>
 5   0  0.5052959E-04  0.1203389E+04  0.7818609E-02  0.9109896E-01
       -1   -1    0    0    0  501  0.00000000000E+00  0.00000000000E+00  0.77336294935E+03  0.77336294936E+03  0.50400001928E-02 0. -1.
        1   -1    0    0  501    0  0.00000000000E+00  0.00000000000E+00 -0.46813222494E+03  0.46813222496E+03  0.50400001928E-02 0.  1.
    10030    2    1    2    0    0  0.00000000000E+00  0.00000000000E+00  0.30523072441E+03  0.12414951743E+04  0.12033887455E+04 0.  0.
        2    1    3    3  502    0 -0.11906299103E+03 -0.45193439969E+03 -0.23835121098E+03  0.52462557814E+03  0.25500000920E-02 0.  1.
       -2    1    3    3    0  502  0.11906299103E+03  0.45193439969E+03  0.54358193539E+03  0.71686959619E+03  0.25500000920E-02 0. -1.
</event>
<event>
 5   0  0.5003507E-04  0.1207859E+04  0.7818609E-02  0.9106005E-01
       -1   -1    0    0    0  501  0.00000000000E+00  0.00000000000E+00  0.77669587153E+03  0.77669587155E+03  0.50400001928E-02 0.  1.
        1   -1    0    0  501    0  0.00000000000E+00  0.00000000000E+00 -0.46959303435E+03  0.46959303438E+03  0.50400001928E-02 0. -1.
    10030    2    1    2    0    0  0.00000000000E+00  0.00000000000E+00  0.30710283718E+03  0.12462889059E+04  0.12078592155E+04 0.  0.
        3    1    3    3  502    0 -0.10696518590E+03  0.47780463167E+03  0.51834212922E+03  0.71303393339E+03  0.10100000352E+00 0.  1.
       -3    1    3    3    0  502  0.10696518590E+03 -0.47780463167E+03 -0.21123929204E+03  0.53325497254E+03  0.10100000352E+00 0. -1.
</event>
<event>
 5   0  0.9410666E-04  0.1199296E+04  0.7818609E-02  0.9113473E-01
       -2   -1    0    0    0  501  0.00000000000E+00  0.00000000000E+00  0.14577574021E+03  0.14577574024E+03  0.25500000920E-02 0. -1.
        2   -1    0    0  501    0  0.00000000000E+00  0.00000000000E+00 -0.24666512130E+04  0.24666512130E+04  0.25500000920E-02 0.  1.
    10030    2    1    2    0    0  0.00000000000E+00  0.00000000000E+00 -0.23208754728E+04  0.26124269533E+04  0.11992963044E+04 0.  0.
        2    1    3    3  502    0  0.18582552119E+03  0.45966239400E+03 -0.42574248521E+03  0.65351151827E+03  0.25500000920E-02 0. -1.
       -2    1    3    3    0  502 -0.18582552119E+03 -0.45966239400E+03 -0.18951329876E+04  0.19589154350E+04  0.25500000920E-02 0.  1.
</event>
<event>
 5   0  0.9050363E-04  0.1280161E+04  0.7818609E-02  0.9045447E-01
        2   -1    0    0  501    0  0.00000000000E+00  0.00000000000E+00  0.85057291746E+03  0.85057291746E+03  0.25500000920E-02 0.  1.
       -2   -1    0    0    0  501  0.00000000000E+00  0.00000000000E+00 -0.48167897110E+03  0.48167897111E+03  0.25500000920E-02 0. -1.
    10030    2    1    2    0    0  0.00000000000E+00  0.00000000000E+00  0.36889394635E+03  0.13322518886E+04  0.12801610645E+04 0.  0.
        3    1    3    3  502    0 -0.98925936141E+02 -0.12073603609E+03  0.83046334035E+03  0.84500467521E+03  0.10100000352E+00 0.  1.
       -3    1    3    3    0  502  0.98925936141E+02  0.12073603609E+03 -0.46156939400E+03  0.48724721336E+03  0.10100000352E+00 0. -1.
</event>
<event>
 5   0  0.5001586E-04  0.1201110E+04  0.7818609E-02  0.9111885E-01
        1   -1    0    0  501    0  0.00000000000E+00  0.00000000000E+00  0.11233666011E+04  0.11233666011E+04  0.50400001928E-02 0. -1.
       -1   -1    0    0    0  501  0.00000000000E+00  0.00000000000E+00 -0.32105866341E+03  0.32105866345E+03  0.50400001928E-02 0.  1.
    10030    2    1    2    0    0  0.00000000000E+00  0.00000000000E+00  0.80230793767E+03  0.14444252645E+04  0.12011104520E+04 0.  0.
        1    1    3    3  502    0  0.23966279262E+03  0.32937149847E+03 -0.12953831049E+03  0.42743889865E+03  0.50400001928E-02 0.  1.
       -1    1    3    3    0  502 -0.23966279262E+03 -0.32937149847E+03  0.93184624816E+03  0.10169863659E+04  0.50400001928E-02 0. -1.
</event>
<event>
 5   0  0.9410666E-04  0.1201226E+04  0.7818609E-02  0.9111784E-01
       -2   -1    0    0    0  501  0.00000000000E+00  0.00000000000E+00  0.24597740144E+03  0.24597740145E+03  0.25500000920E-02 0. -1.
        2   -1    0    0  501    0  0.00000000000E+00  0.00000000000E+00 -0.14665411490E+04  0.14665411490E+04  0.25500000920E-02 0.  1.
    10030    2    1    2    0    0  0.00000000000E+00  0.00000000000E+00 -0.12205637476E+04  0.17125185505E+04  0.12012260086E+04 0.  0.
        2    1    3    3  502    0  0.51484988937E+03  0.30812436204E+03 -0.57189660847E+03  0.82890093609E+03  0.25500000920E-02 0.  1.
       -2    1    3    3    0  502 -0.51484988937E+03 -0.30812436204E+03 -0.64866713909E+03  0.88361761436E+03  0.25500000920E-02 0. -1.
</event>
<event>
 5   0  0.5447074E-04  0.1187010E+04  0.7818609E-02  0.9124303E-01
        1   -1    0    0  501    0  0.00000000000E+00  0.00000000000E+00  0.69610401465E+03  0.69610401466E+03  0.50400001928E-02 0. -1.
       -1   -1    0    0    0  501  0.00000000000E+00  0.00000000000E+00 -0.50602786526E+03  0.50602786528E+03  0.50400001928E-02 0.  1.
    10030    2    1    2    0    0  0.00000000000E+00  0.00000000000E+00  0.19007614939E+03  0.12021318799E+04  0.11870097364E+04 0.  0.
        4    1    3    3  502    0 -0.39313111975E+03 -0.29876553187E+03  0.42852557618E+03  0.65379561232E+03  0.12699999809E+01 0. -1.
       -4    1    3    3    0  502  0.39313111975E+03  0.29876553187E+03 -0.23844942680E+03  0.54833626762E+03  0.12699999809E+01 0.  1.
</event>
<event>
 5   0  0.3453625E-04  0.1192760E+04  0.7818609E-02  0.9119217E-01
        3   -1    0    0  501    0  0.00000000000E+00  0.00000000000E+00  0.59964081281E+03  0.59964082131E+03  0.10100000352E+00 0. -1.
       -3   -1    0    0    0  501  0.00000000000E+00  0.00000000000E+00 -0.59313739940E+03  0.59313740800E+03  0.10100000352E+00 0.  1.
    10030    2    1    2    0    0  0.00000000000E+00  0.00000000000E+00  0.65034134029E+01  0.11927782293E+04  0.11927604998E+04 0.  0.
        5    1    3    3  502    0 -0.46168704653E+03  0.17182781274E+03 -0.33285979965E+03  0.59455652581E+03  0.46999998093E+01 0.  1.
       -5    1    3    3    0  502  0.46168704653E+03 -0.17182781274E+03  0.33936321306E+03  0.59822170350E+03  0.46999998093E+01 0. -1.
</event>
<event>
 5   0  0.5003507E-04  0.1204578E+04  0.7818609E-02  0.9108859E-01
        1   -1    0    0  501    0  0.00000000000E+00  0.00000000000E+00  0.66769633960E+03  0.66769633962E+03  0.50400001928E-02 0. -1.
       -1   -1    0    0    0  501  0.00000000000E+00  0.00000000000E+00 -0.54328927112E+03  0.54328927114E+03  0.50400001928E-02 0.  1.
    10030    2    1    2    0    0  0.00000000000E+00  0.00000000000E+00  0.12440706848E+03  0.12109856108E+04  0.12045783622E+04 0.  0.
        3    1    3    3  502    0 -0.19372822022E+03 -0.56459361628E+03  0.14297810798E+03  0.61379094521E+03  0.10100000352E+00 0. -1.
       -3    1    3    3    0  502  0.19372822022E+03  0.56459361628E+03 -0.18571039499E+02  0.59719466555E+03  0.10100000352E+00 0.  1.
</event>
<event>
 5   0  0.9145224E-04  0.1198385E+04  0.7818609E-02  0.9114271E-01
       -2   -1    0    0    0  501  0.00000000000E+00  0.00000000000E+00  0.43473428530E+03  0.43473428531E+03  0.25500000920E-02 0.  1.
        2   -1    0    0  501    0  0.00000000000E+00  0.00000000000E+00 -0.82586441464E+03  0.82586441464E+03  0.25500000920E-02 0. -1.
    10030    2    1    2    0    0  0.00000000000E+00  0.00000000000E+00 -0.39113012934E+03  0.12605986999E+04  0.11983848732E+04 0.  0.
        5    1    3    3  502    0  0.85253983715E+02  0.48986439695E+03 -0.54724789031E+03  0.73941714383E+03  0.46999998093E+01 0.  1.
       -5    1    3    3    0  502 -0.85253983715E+02 -0.48986439695E+03  0.15611776097E+03  0.52118155611E+03  0.46999998093E+01 0. -1.
</event>
<event>
 5   0  0.9410666E-04  0.1190082E+04  0.7818609E-02  0.9121582E-01
       -2   -1    0    0    0  501  0.00000000000E+00  0.00000000000E+00  0.41892020516E+03  0.41892020516E+03  0.25500000920E-02 0.  1.
        2   -1    0    0  501    0  0.00000000000E+00  0.00000000000E+00 -0.84520620801E+03  0.84520620801E+03  0.25500000920E-02 0. -1.
    10030    2    1    2    0    0  0.00000000000E+00  0.00000000000E+00 -0.42628600285E+03  0.12641264132E+04  0.11900822796E+04 0.  0.
        2    1    3    3  502    0  0.73585694292E+02 -0.12106750280E+03  0.40074323587E+03  0.42504980383E+03  0.25500000920E-02 0.  1.
       -2    1    3    3    0  502 -0.73585694292E+02  0.12106750280E+03 -0.82702923872E+03  0.83907660934E+03  0.25500000920E-02 0. -1.
</event>
<event>
 5   0  0.3453625E-04  0.1200701E+04  0.7818609E-02  0.9112243E-01
        3   -1    0    0  501    0  0.00000000000E+00  0.00000000000E+00  0.16226121422E+04  0.16226121454E+04  0.10100000352E+00 0.  1.
       -3   -1    0    0    0  501  0.00000000000E+00  0.00000000000E+00 -0.22212366483E+03  0.22212368779E+03  0.10100000352E+00 0. -1.
    10030    2    1    2    0    0  0.00000000000E+00  0.00000000000E+00  0.14004884774E+04  0.18447358332E+04  0.12007007616E+04 0.  0.
        4    1    3    3  502    0  0.56492951163E+03 -0.11356193430E+03  0.44143192248E+03  0.72588251193E+03  0.12699999809E+01 0. -1.
       -4    1    3    3    0  502 -0.56492951163E+03  0.11356193430E+03  0.95905655493E+03  0.11188533213E+04  0.12699999809E+01 0.  1.
</event>
<event>
 5   0  0.5157631E-04  0.1257185E+04  0.7818609E-02  0.9064225E-01
       -1   -1    0    0    0  501  0.00000000000E+00  0.00000000000E+00  0.46174610939E+03  0.46174610941E+03  0.50400001928E-02 0.  1.
        1   -1    0    0  501    0  0.00000000000E+00  0.00000000000E+00 -0.85572621504E+03  0.85572621505E+03  0.50400001928E-02 0. -1.
    10030    2    1    2    0    0  0.00000000000E+00  0.00000000000E+00 -0.39398010565E+03  0.13174723245E+04  0.12571845537E+04 0.  0.
        5    1    3    3  502    0 -0.49174426236E+03  0.38145843063E+03 -0.10453689588E+03  0.63108874690E+03  0.46999998093E+01 0.  1.
       -5    1    3    3    0  502  0.49174426236E+03 -0.38145843063E+03 -0.28944320977E+03  0.68638357756E+03  0.46999998093E+01 0. -1.
</event>
<event>
 5   0  0.5052959E-04  0.1206014E+04  0.7818609E-02  0.9107608E-01
       -1   -1    0    0    0  501  0.00000000000E+00  0.00000000000E+00  0.12754322876E+04  0.12754322876E+04  0.50400001928E-02 0.  1.
        1   -1    0    0  501    0  0.00000000000E+00  0.00000000000E+00 -0.28509371900E+03  0.28509371905E+03  0.50400001928E-02 0. -1.
    10030    2    1    2    0    0  0.00000000000E+00  0.00000000000E+00  0.99033856856E+03  0.15605260066E+04  0.12060144846E+04 0.  0.
        2    1    3    3  502    0 -0.26963847055E+03 -0.57864509604E+02 -0.19871354966E+03  0.33991216674E+03  0.25500000920E-02 0. -1.
       -2    1    3    3    0  502  0.26963847055E+03  0.57864509604E+02  0.11890521182E+04  0.12206138399E+04  0.25500000920E-02 0.  1.
</event>
<event>
 5   0  0.5001586E-04  0.1201165E+04  0.7818609E-02  0.9111838E-01
       -1   -1    0    0    0  501  0.00000000000E+00  0.00000000000E+00  0.21767356574E+03  0.21767356580E+03  0.50400001928E-02 0. -1.
        1   -1    0    0  501    0  0.00000000000E+00  0.00000000000E+00 -0.16570649630E+04  0.16570649630E+04  0.50400001928E-02 0.  1.
    10030    2    1    2    0    0  0.00000000000E+00  0.00000000000E+00 -0.14393913973E+04  0.18747385288E+04  0.12011648334E+04 0.  0.
        1    1    3    3  502    0 -0.24872258108E+03  0.31411522045E+03 -0.21406440127E+02  0.40123500566E+03  0.50400001928E-02 0. -1.
       -1    1    3    3    0  502  0.24872258108E+03 -0.31411522045E+03 -0.14179849572E+04  0.14735035232E+04  0.50400001928E-02 0.  1.
</event>
<event>
 5   0  0.9410666E-04  0.1196440E+04  0.7818609E-02  0.9115978E-01
       -2   -1    0    0    0  501  0.00000000000E+00  0.00000000000E+00  0.19791162419E+03  0.19791162420E+03  0.25500000920E-02 0.  1.
        2   -1    0    0  501    0  0.00000000000E+00  0.00000000000E+00 -0.18082181909E+04  0.18082181909E+04  0.25500000920E-02 0. -1.
    10030    2    1    2    0    0  0.00000000000E+00  0.00000000000E+00 -0.16103065667E+04  0.20061298151E+04  0.11964403856E+04 0.  0.
        2    1    3    3  502    0  0.16783929410E+03  0.20439207089E+03 -0.17048680102E+04  0.17252597136E+04  0.25500000920E-02 0. -1.
       -2    1    3    3    0  502 -0.16783929410E+03 -0.20439207089E+03  0.94561443506E+02  0.28087010145E+03  0.25500000920E-02 0.  1.
</event>
<event>
 5   0  0.5001586E-04  0.1200317E+04  0.7818609E-02  0.9112579E-01
       -1   -1    0    0    0  501  0.00000000000E+00  0.00000000000E+00  0.29487546319E+03  0.29487546323E+03  0.50400001928E-02 0. -1.
        1   -1    0    0  501    0  0.00000000000E+00  0.00000000000E+00 -0.12215003322E+04  0.12215003322E+04  0.50400001928E-02 0.  1.
    10030    2    1    2    0    0  0.00000000000E+00  0.00000000000E+00 -0.92662486900E+03  0.15163757954E+04  0.12003174185E+04 0.  0.
        1    1    3    3  502    0 -0.21891393768E+03 -0.26667833387E+03  0.15706246166E+03  0.37909004571E+03  0.50400001928E-02 0.  1.
       -1    1    3    3    0  502  0.21891393768E+03  0.26667833387E+03 -0.10836873307E+04  0.11372857497E+04  0.50400001928E-02 0. -1.
</event>
<event>
 5   0  0.3453625E-04  0.1200584E+04  0.7818609E-02  0.9112345E-01
       -4   -1    0    0    0  501  0.00000000000E+00  0.00000000000E+00  0.34921350393E+03  0.34921581325E+03  0.12699999809E+01 0. -1.
        4   -1    0    0  501    0  0.00000000000E+00  0.00000000000E+00 -0.10318858950E+04  0.10318866766E+04  0.12699999809E+01 0.  1.
    10030    2    1    2    0    0  0.00000000000E+00  0.00000000000E+00 -0.68267239111E+03  0.13811024898E+04  0.12005842302E+04 0.  0.
        2    1    3    3  502    0 -0.58190149842E+03 -0.95745567888E+02 -0.21234176325E+03  0.62678991062E+03  0.25500000920E-02 0. -1.
       -2    1    3    3    0  502  0.58190149842E+03  0.95745567888E+02 -0.47033062786E+03  0.75431257920E+03  0.25500000920E-02 0.  1.
</event>
<event>
 5   0  0.5003507E-04  0.1189869E+04  0.7818609E-02  0.9121771E-01
        1   -1    0    0  501    0  0.00000000000E+00  0.00000000000E+00  0.40993623807E+03  0.40993623810E+03  0.50400001928E-02 0.  1.
       -1   -1    0    0    0  501  0.00000000000E+00  0.00000000000E+00 -0.86341939652E+03  0.86341939653E+03  0.50400001928E-02 0. -1.
    10030    2    1    2    0    0  0.00000000000E+00  0.00000000000E+00 -0.45348315845E+03  0.12733556346E+04  0.11898687311E+04 0.  0.
        3    1    3    3  502    0 -0.22788921451E+03 -0.12602950444E+03 -0.79918468462E+03  0.84054333643E+03  0.10100000352E+00 0. -1.
       -3    1    3    3    0  502  0.22788921451E+03  0.12602950444E+03  0.34570152618E+03  0.43281229821E+03  0.10100000352E+00 0.  1.
</event>
<event>
 5   0  0.3453625E-04  0.1194820E+04  0.7818609E-02  0.9117402E-01
       -3   -1    0    0    0  501  0.00000000000E+00  0.00000000000E+00  0.46946190261E+03  0.46946191347E+03  0.10100000352E+00 0.  1.
        3   -1    0    0  501    0  0.00000000000E+00  0.00000000000E+00 -0.76022988922E+03  0.76022989593E+03  0.10100000352E+00 0. -1.
    10030    2    1    2    0    0  0.00000000000E+00  0.00000000000E+00 -0.29076798662E+03  0.12296918094E+04  0.11948204568E+04 0.  0.
        2    1    3    3  502    0  0.38216384210E+03 -0.45497101344E+03 -0.20925285432E+03  0.62994807907E+03  0.25500000920E-02 0. -1.
       -2    1    3    3    0  502 -0.38216384210E+03  0.45497101344E+03 -0.81515132299E+02  0.59974373034E+03  0.25500000920E-02 0.  1.
</event>
<event>
 5   0  0.5157631E-04  0.1202972E+04  0.7818609E-02  0.9110259E-01
       -1   -1    0    0    0  501  0.00000000000E+00  0.00000000000E+00  0.13729957183E+04  0.13729957183E+04  0.50400001928E-02 0. -1.
        1   -1    0    0  501    0  0.00000000000E+00  0.00000000000E+00 -0.26350062551E+03  0.26350062556E+03  0.50400001928E-02 0.  1.
    10030    2    1    2    0    0  0.00000000000E+00  0.00000000000E+00  0.11094950928E+04  0.16364963439E+04  0.12029717048E+04 0.  0.
        5    1    3    3  502    0 -0.33308317364E+03 -0.47302751582E+03  0.77854404501E+03  0.96997543851E+03  0.46999998093E+01 0.  1.
       -5    1    3    3    0  502  0.33308317364E+03  0.47302751582E+03  0.33095104781E+03  0.66652090540E+03  0.46999998093E+01 0. -1.
</event>
<event>
 5   0  0.9410666E-04  0.1200744E+04  0.7818609E-02  0.9112205E-01
        2   -1    0    0  501    0  0.00000000000E+00  0.00000000000E+00  0.41266645384E+03  0.41266645385E+03  0.25500000920E-02 0. -1.
       -2   -1    0    0    0  501  0.00000000000E+00  0.00000000000E+00 -0.87345780417E+03  0.87345780417E+03  0.25500000920E-02 0.  1.
    10030    2    1    2    0    0  0.00000000000E+00  0.00000000000E+00 -0.46079135033E+03  0.12861242580E+04  0.12007443269E+04 0.  0.
        2    1    3    3  502    0 -0.21229323042E+02 -0.25692941181E+03 -0.81115171764E+03  0.85113483999E+03  0.25500000920E-02 0.  1.
       -2    1    3    3    0  502  0.21229323042E+02  0.25692941181E+03  0.35036036731E+03  0.43498941803E+03  0.25500000920E-02 0. -1.
</event>
<event>
 5   0  0.3453625E-04  0.1210128E+04  0.7818609E-02  0.9104037E-01
       -3   -1    0    0    0  501  0.00000000000E+00  0.00000000000E+00  0.32883314306E+04  0.32883314321E+04  0.10100000352E+00 0.  1.
        3   -1    0    0  501    0  0.00000000000E+00  0.00000000000E+00 -0.11133376955E+03  0.11133381536E+03  0.10100000352E+00 0. -1.
    10030    2    1    2    0    0  0.00000000000E+00  0.00000000000E+00  0.31769976610E+04  0.33996652475E+04  0.12101279506E+04 0.  0.
        4    1    3    3  502    0  0.64242197196E+02 -0.24483175968E+03  0.44557715945E+02  0.25701488945E+03  0.12699999809E+01 0. -1.
       -4    1    3    3    0  502 -0.64242197196E+02  0.24483175968E+03  0.31324399451E+04  0.31426503580E+04  0.12699999809E+01 0.  1.
</event>
<event>
 5   0  0.5001586E-04  0.1201471E+04  0.7818609E-02  0.9111570E-01
        1   -1    0    0  501    0  0.00000000000E+00  0.00000000000E+00  0.13783898244E+04  0.13783898245E+04  0.50400001928E-02 0. -1.
       -1   -1    0    0    0  501  0.00000000000E+00  0.00000000000E+00 -0.26181486595E+03  0.26181486600E+03  0.50400001928E-02 0.  1.
    10030    2    1    2    0    0  0.00000000000E+00  0.00000000000E+00  0.11165749585E+04  0.16402046905E+04  0.12014706774E+04 0.  0.
        1    1    3    3  502    0  0.52758498220E+02 -0.18953881644E+03 -0.21658541997E+03  0.29260496619E+03  0.50400001928E-02 0.  1.
       -1    1    3    3    0  502 -0.52758498220E+02  0.18953881644E+03  0.13331603785E+04  0.13475997243E+04  0.50400001928E-02 0. -1.
</event>
<event>
 5   0  0.9410666E-04  0.1202317E+04  0.7818609E-02  0.9110831E-01
        2   -1    0    0  501    0  0.00000000000E+00  0.00000000000E+00  0.78864888781E+03  0.78864888781E+03  0.25500000920E-02 0. -1.
       -2   -1    0    0    0  501  0.00000000000E+00  0.00000000000E+00 -0.45824123741E+03  0.45824123741E+03  0.25500000920E-02 0.  1.
    10030    2    1    2    0    0  0.00000000000E+00  0.00000000000E+00  0.33040765040E+03  0.12468901252E+04  0.12023168338E+04 0.  0.
        2    1    3    3  502    0  0.40797664108E+03  0.42965647323E+03  0.59738986201E+02  0.59549842245E+03  0.25500000920E-02 0.  1.
       -2    1    3    3    0  502 -0.40797664108E+03 -0.42965647323E+03  0.27066866420E+03  0.65139170278E+03  0.25500000920E-02 0. -1.
</event>
<event>
 5   0  0.5052959E-04  0.1202880E+04  0.7818609E-02  0.9110339E-01
        1   -1    0    0  501    0  0.00000000000E+00  0.00000000000E+00  0.71380979040E+03  0.71380979042E+03  0.50400001928E-02 0. -1.
       -1   -1    0    0    0  501  0.00000000000E+00  0.00000000000E+00 -0.50675989601E+03  0.50675989604E+03  0.50400001928E-02 0.  1.
    10030    2    1    2    0    0  0.00000000000E+00  0.00000000000E+00  0.20704989439E+03  0.12205696865E+04  0.12028801689E+04 0.  0.
        2    1    3    3  502    0 -0.84542475234E+02  0.19908640699E+03  0.67297966114E+03  0.70688361976E+03  0.25500000920E-02 0. -1.
       -2    1    3    3    0  502  0.84542475234E+02 -0.19908640699E+03 -0.46592976675E+03  0.51368606670E+03  0.25500000920E-02 0.  1.
</event>
<event>
 5   0  0.5052959E-04  0.1201384E+04  0.7818609E-02  0.9111646E-01
        1   -1    0    0  501    0  0.00000000000E+00  0.00000000000E+00  0.61609995717E+03  0.61609995719E+03  0.50400001928E-02 0. -1.
       -1   -1    0    0    0  501  0.00000000000E+00  0.00000000000E+00 -0.58566937983E+03  0.58566937985E+03  0.50400001928E-02 0.  1.
    10030    2    1    2    0    0  0.00000000000E+00  0.00000000000E+00  0.30430577336E+02  0.12017693370E+04  0.12013840016E+04 0.  0.
        2    1    3    3  502    0  0.49776003758E+03 -0.73356489435E+02 -0.31304335867E+03  0.59257267399E+03  0.25500000920E-02 0.  1.
       -2    1    3    3    0  502 -0.49776003758E+03  0.73356489435E+02  0.34347393600E+03  0.60919666305E+03  0.25500000920E-02 0. -1.
</event>
<event>
 5   0  0.5447074E-04  0.1201942E+04  0.7818609E-02  0.9111159E-01
        1   -1    0    0  501    0  0.00000000000E+00  0.00000000000E+00  0.97818191972E+03  0.97818191973E+03  0.50400001928E-02 0.  1.
       -1   -1    0    0    0  501  0.00000000000E+00  0.00000000000E+00 -0.36922176937E+03  0.36922176940E+03  0.50400001928E-02 0. -1.
    10030    2    1    2    0    0  0.00000000000E+00  0.00000000000E+00  0.60896015035E+03  0.13474036891E+04  0.12019418608E+04 0.  0.
        4    1    3    3  502    0 -0.42144816298E+03  0.95493132466E+02  0.77266892816E+03  0.88530016258E+03  0.12699999809E+01 0.  1.
       -4    1    3    3    0  502  0.42144816298E+03 -0.95493132466E+02 -0.16370877781E+03  0.46210352655E+03  0.12699999809E+01 0. -1.
</event>
<event>
 5   0  0.5447074E-04  0.1200167E+04  0.7818609E-02  0.9112711E-01
        1   -1    0    0  501    0  0.00000000000E+00  0.00000000000E+00  0.77757903493E+03  0.77757903494E+03  0.50400001928E-02 0.  1.
       -1   -1    0    0    0  501  0.00000000000E+00  0.00000000000E+00 -0.46310402389E+03  0.46310402391E+03  0.50400001928E-02 0. -1.
    10030    2    1    2    0    0  0.00000000000E+00  0.00000000000E+00  0.31447501104E+03  0.12406830589E+04  0.12001666218E+04 0.  0.
        4    1    3    3  502    0  0.18785802581E+03  0.30159014935E+03 -0.34266927415E+03  0.49363053025E+03  0.12699999809E+01 0. -1.
       -4    1    3    3    0  502 -0.18785802581E+03 -0.30159014935E+03  0.65714428519E+03  0.74705252861E+03  0.12699999809E+01 0.  1.
</event>
<event>
 5   0  0.5157631E-04  0.1200687E+04  0.7818609E-02  0.9112255E-01
        1   -1    0    0  501    0  0.00000000000E+00  0.00000000000E+00  0.85963930212E+03  0.85963930213E+03  0.50400001928E-02 0. -1.
       -1   -1    0    0    0  501  0.00000000000E+00  0.00000000000E+00 -0.41925995180E+03  0.41925995183E+03  0.50400001928E-02 0.  1.
    10030    2    1    2    0    0  0.00000000000E+00  0.00000000000E+00  0.44037935031E+03  0.12788992540E+04  0.12006870240E+04 0.  0.
        5    1    3    3  502    0  0.39291682665E+03  0.40179474688E+03 -0.46723394923E+01  0.56202008152E+03  0.46999998093E+01 0.  1.
       -5    1    3    3    0  502 -0.39291682665E+03 -0.40179474688E+03  0.44505168981E+03  0.71687917244E+03  0.46999998093E+01 0. -1.
</event>
<event>
 5   0  0.5003507E-04  0.1199574E+04  0.7818609E-02  0.9113230E-01
        1   -1    0    0  501    0  0.00000000000E+00  0.00000000000E+00  0.39071305647E+03  0.39071305651E+03  0.50400001928E-02 0. -1.
       -1   -1    0    0    0  501  0.00000000000E+00  0.00000000000E+00 -0.92073759640E+03  0.92073759641E+03  0.50400001928E-02 0.  1.
    10030    2    1    2    0    0  0.00000000000E+00  0.00000000000E+00 -0.53002453992E+03  0.13114506529E+04  0.11995735918E+04 0.  0.
        3    1    3    3  502    0  0.28820693737E+03 -0.69556636824E+02  0.30499972578E+03  0.42535421404E+03  0.10100000352E+00 0. -1.
       -3    1    3    3    0  502 -0.28820693737E+03  0.69556636824E+02 -0.83502426570E+03  0.88609643888E+03  0.10100000352E+00 0.  1.
</event>
<event>
 5   0  0.9145224E-04  0.1196449E+04  0.7818609E-02  0.9115970E-01
        2   -1    0    0  501    0  0.00000000000E+00  0.00000000000E+00  0.49716781147E+03  0.49716781147E+03  0.25500000920E-02 0.  1.
       -2   -1    0    0    0  501  0.00000000000E+00  0.00000000000E+00 -0.71982284769E+03  0.71982284769E+03  0.25500000920E-02 0. -1.
    10030    2    1    2    0    0  0.00000000000E+00  0.00000000000E+00 -0.22265503622E+03  0.12169906592E+04  0.11964493300E+04 0.  0.
        5    1    3    3  502    0 -0.15104516167E+03 -0.50674762824E+03 -0.39584915141E+03  0.66055010428E+03  0.46999998093E+01 0.  1.
       -5    1    3    3    0  502  0.15104516167E+03  0.50674762824E+03  0.17319411519E+03  0.55644055489E+03  0.46999998093E+01 0. -1.
</event>
<event>
 5   0  0.5157631E-04  0.1197367E+04  0.7818609E-02  0.9115165E-01
       -1   -1    0    0    0  501  0.00000000000E+00  0.00000000000E+00  0.11059176157E+04  0.11059176157E+04  0.50400001928E-02 0. -1.
        1   -1    0    0  501    0  0.00000000000E+00  0.00000000000E+00 -0.32409444919E+03  0.32409444923E+03  0.50400001928E-02 0.  1.
    10030    2    1    2    0    0  0.00000000000E+00  0.00000000000E+00  0.78182316649E+03  0.14300120649E+04  0.11973667116E+04 0.  0.
        5    1    3    3  502    0  0.37747445560E+03  0.44929654995E+03  0.53245128647E+03  0.79238930892E+03  0.46999998093E+01 0.  1.
       -5    1    3    3    0  502 -0.37747445560E+03 -0.44929654995E+03  0.24937188002E+03  0.63762275600E+03  0.46999998093E+01 0. -1.
</event>
<event>
 5   0  0.9298693E-04  0.1161266E+04  0.7818609E-02  0.9147453E-01
       -2   -1    0    0    0  501  0.00000000000E+00  0.00000000000E+00  0.17402109468E+03  0.17402109470E+03  0.25500000920E-02 0.  1.
        2   -1    0    0  501    0  0.00000000000E+00  0.00000000000E+00 -0.19373195504E+04  0.19373195504E+04  0.25500000920E-02 0. -1.
    10030    2    1    2    0    0  0.00000000000E+00  0.00000000000E+00 -0.17632984557E+04  0.21113406451E+04  0.11612656353E+04 0.  0.
        1    1    3    3  502    0  0.12173599431E+02  0.57293083990E+03 -0.10515894171E+04  0.11975968629E+04  0.50400001928E-02 0. -1.
       -1    1    3    3    0  502 -0.12173599431E+02 -0.57293083990E+03 -0.71170903861E+03  0.91374378219E+03  0.50400001928E-02 0.  1.
</event>
<event>
 5   0  0.5003507E-04  0.1202010E+04  0.7818609E-02  0.9111099E-01
        1   -1    0    0  501    0  0.00000000000E+00  0.00000000000E+00  0.36960578121E+03  0.36960578124E+03  0.50400001928E-02 0. -1.
       -1   -1    0    0    0  501  0.00000000000E+00  0.00000000000E+00 -0.97727667914E+03  0.97727667915E+03  0.50400001928E-02 0.  1.
    10030    2    1    2    0    0  0.00000000000E+00  0.00000000000E+00 -0.60767089793E+03  0.13468824604E+04  0.12020101671E+04 0.  0.
        3    1    3    3  502    0  0.46849170680E+03 -0.37143708570E+03 -0.23515254573E+03  0.64245366988E+03  0.10100000352E+00 0. -1.
       -3    1    3    3    0  502 -0.46849170680E+03  0.37143708570E+03 -0.37251835220E+03  0.70442879051E+03  0.10100000352E+00 0.  1.
</event>
<event>
 5   0  0.5052959E-04  0.1195650E+04  0.7818609E-02  0.9116673E-01
        1   -1    0    0  501    0  0.00000000000E+00  0.00000000000E+00  0.34297210420E+03  0.34297210423E+03  0.50400001928E-02 0. -1.
       -1   -1    0    0    0  501  0.00000000000E+00  0.00000000000E+00 -0.10420518010E+04  0.10420518010E+04  0.50400001928E-02 0.  1.
    10030    2    1    2    0    0  0.00000000000E+00  0.00000000000E+00 -0.69907969675E+03  0.13850239052E+04  0.11956499469E+04 0.  0.
        2    1    3    3  502    0 -0.52292275739E+03 -0.26757522531E+03 -0.47827183730E+03  0.75748839051E+03  0.25500000920E-02 0.  1.
       -2    1    3    3    0  502  0.52292275739E+03  0.26757522531E+03 -0.22080785946E+03  0.62753551469E+03  0.25500000920E-02 0. -1.
</event>
<event>
 5   0  0.3453625E-04  0.1199502E+04  0.7818609E-02  0.9113292E-01
        3   -1    0    0  501    0  0.00000000000E+00  0.00000000000E+00  0.35073546405E+03  0.35073547859E+03  0.10100000352E+00 0. -1.
       -3   -1    0    0    0  501  0.00000000000E+00  0.00000000000E+00 -0.10255630447E+04  0.10255630496E+04  0.10100000352E+00 0.  1.
    10030    2    1    2    0    0  0.00000000000E+00  0.00000000000E+00 -0.67482758061E+03  0.13762985282E+04  0.11995021364E+04 0.  0.
        5    1    3    3  502    0  0.29400122277E+03  0.37180529480E+03 -0.75899758097E+03  0.89486049983E+03  0.46999998093E+01 0.  1.
       -5    1    3    3    0  502 -0.29400122277E+03 -0.37180529480E+03  0.84170000359E+02  0.48143802840E+03  0.46999998093E+01 0. -1.
</event>
<event>
 5   0  0.9298693E-04  0.1198606E+04  0.7818609E-02  0.9114078E-01
       -2   -1    0    0    0  501  0.00000000000E+00  0.00000000000E+00  0.29364829424E+03  0.29364829426E+03  0.25500000920E-02 0.  1.
        2   -1    0    0  501    0  0.00000000000E+00  0.00000000000E+00 -0.12231090213E+04  0.12231090213E+04  0.25500000920E-02 0. -1.
    10030    2    1    2    0    0  0.00000000000E+00  0.00000000000E+00 -0.92946072706E+03  0.15167573156E+04  0.11986056529E+04 0.  0.
        1    1    3    3  502    0 -0.45410434830E+03  0.10869689611E+03 -0.94013336053E+03  0.10497030580E+04  0.50400001928E-02 0. -1.
       -1    1    3    3    0  502  0.45410434830E+03 -0.10869689611E+03  0.10672633472E+02  0.46705425756E+03  0.50400001928E-02 0.  1.
</event>
<event>
 5   0  0.9145224E-04  0.1197007E+04  0.7818609E-02  0.9115481E-01
       -2   -1    0    0    0  501  0.00000000000E+00  0.00000000000E+00  0.18382993043E+03  0.18382993045E+03  0.25500000920E-02 0. -1.
        2   -1    0    0  501    0  0.00000000000E+00  0.00000000000E+00 -0.19485738552E+04  0.19485738552E+04  0.25500000920E-02 0.  1.
    10030    2    1    2    0    0  0.00000000000E+00  0.00000000000E+00 -0.17647439248E+04  0.21324037857E+04  0.11970065936E+04 0.  0.
        5    1    3    3  502    0 -0.48828485865E+03  0.14393200475E+03 -0.14430201910E+04  0.15301855727E+04  0.46999998093E+01 0.  1.
       -5    1    3    3    0  502  0.48828485865E+03 -0.14393200475E+03 -0.32172373376E+03  0.60221821298E+03  0.46999998093E+01 0. -1.
</event>
<event>
 5   0  0.9298693E-04  0.1195575E+04  0.7818609E-02  0.9116738E-01
        2   -1    0    0  501    0  0.00000000000E+00  0.00000000000E+00  0.27255163926E+04  0.27255163926E+04  0.25500000920E-02 0. -1.
       -2   -1    0    0    0  501  0.00000000000E+00  0.00000000000E+00 -0.13111276689E+03  0.13111276691E+03  0.25500000920E-02 0.  1.
    10030    2    1    2    0    0  0.00000000000E+00  0.00000000000E+00  0.25944036257E+04  0.28566291595E+04  0.11955751678E+04 0.  0.
        1    1    3    3  502    0 -0.35330758751E+03 -0.38962565162E+03  0.19760234971E+04  0.20448235280E+04  0.50400001928E-02 0. -1.
       -1    1    3    3    0  502  0.35330758751E+03  0.38962565162E+03  0.61838012866E+03  0.81180563151E+03  0.50400001928E-02 0.  1.
</event>
<event>
 5   0  0.9050363E-04  0.1207052E+04  0.7818609E-02  0.9106706E-01
        2   -1    0    0  501    0  0.00000000000E+00  0.00000000000E+00  0.30938096190E+03  0.30938096191E+03  0.25500000920E-02 0.  1.
       -2   -1    0    0    0  501  0.00000000000E+00  0.00000000000E+00 -0.11773306539E+04  0.11773306539E+04  0.25500000920E-02 0. -1.
    10030    2    1    2    0    0  0.00000000000E+00  0.00000000000E+00 -0.86794969201E+03  0.14867116158E+04  0.12070520953E+04 0.  0.
        3    1    3    3  502    0 -0.13142958619E+03  0.56608243084E+03 -0.23339254890E+03  0.62625485763E+03  0.10100000352E+00 0.  1.
       -3    1    3    3    0  502  0.13142958619E+03 -0.56608243084E+03 -0.63455714311E+03  0.86045675819E+03  0.10100000352E+00 0. -1.
</event>
<event>
 5   0  0.9410666E-04  0.1211245E+04  0.7818609E-02  0.9103070E-01
       -2   -1    0    0    0  501  0.00000000000E+00  0.00000000000E+00  0.23486378434E+03  0.23486378435E+03  0.25500000920E-02 0. -1.
        2   -1    0    0  501    0  0.00000000000E+00  0.00000000000E+00 -0.15616654086E+04  0.15616654086E+04  0.25500000920E-02 0.  1.
    10030    2    1    2    0    0  0.00000000000E+00  0.00000000000E+00 -0.13268016243E+04  0.17965291930E+04  0.12112450582E+04 0.  0.
        2    1    3    3  502    0  0.98737879213E+02 -0.64825533045E+02  0.21761407305E+03  0.24760331848E+03  0.25500000920E-02 0. -1.
       -2    1    3    3    0  502 -0.98737879213E+02  0.64825533045E+02 -0.15444156973E+04  0.15489258745E+04  0.25500000920E-02 0.  1.
</event>
<event>
 5   0  0.9298693E-04  0.1210741E+04  0.7818609E-02  0.9103506E-01
        2   -1    0    0  501    0  0.00000000000E+00  0.00000000000E+00  0.18161917456E+04  0.18161917456E+04  0.25500000920E-02 0.  1.
       -2   -1    0    0    0  501  0.00000000000E+00  0.00000000000E+00 -0.20178130131E+03  0.20178130133E+03  0.25500000920E-02 0. -1.
    10030    2    1    2    0    0  0.00000000000E+00  0.00000000000E+00  0.16144104443E+04  0.20179730469E+04  0.12107411513E+04 0.  0.
        1    1    3    3  502    0 -0.14535563299E+03 -0.35358001996E+02  0.17848999933E+04  0.17911578474E+04  0.50400001928E-02 0.  1.
       -1    1    3    3    0  502  0.14535563299E+03  0.35358001996E+02 -0.17048954904E+03  0.22681519946E+03  0.50400001928E-02 0. -1.
</event>
<event>
 5   0  0.5157631E-04  0.1220898E+04  0.7818609E-02  0.9094759E-01
       -1   -1    0    0    0  501  0.00000000000E+00  0.00000000000E+00  0.12751646152E+03  0.12751646162E+03  0.50400001928E-02 0. -1.
        1   -1    0    0  501    0  0.00000000000E+00  0.00000000000E+00 -0.29223506205E+04  0.29223506205E+04  0.50400001928E-02 0.  1.
    10030    2    1    2    0    0  0.00000000000E+00  0.00000000000E+00 -0.27948341590E+04  0.30498670821E+04  0.12208977199E+04 0.  0.
        5    1    3    3  502    0 -0.10547334091E+03 -0.10590787459E+03 -0.28758858745E+04  0.28797713029E+04  0.46999998093E+01 0.  1.
       -5    1    3    3    0  502  0.10547334091E+03  0.10590787459E+03  0.81051715519E+02  0.17009577928E+03  0.46999998093E+01 0. -1.
</event>
<event>
 5   0  0.5157631E-04  0.1198337E+04  0.7818609E-02  0.9114313E-01
        1   -1    0    0  501    0  0.00000000000E+00  0.00000000000E+00  0.15079441055E+04  0.15079441055E+04  0.50400001928E-02 0. -1.
       -1   -1    0    0    0  501  0.00000000000E+00  0.00000000000E+00 -0.23807441252E+03  0.23807441257E+03  0.50400001928E-02 0.  1.
    10030    2    1    2    0    0  0.00000000000E+00  0.00000000000E+00  0.12698696930E+04  0.17460185181E+04  0.11983370262E+04 0.  0.
        5    1    3    3  502    0 -0.45153584105E+03  0.29163886344E+03  0.10205482828E+04  0.11534637966E+04  0.46999998093E+01 0. -1.
       -5    1    3    3    0  502  0.45153584105E+03 -0.29163886344E+03  0.24932141014E+03  0.59255472150E+03  0.46999998093E+01 0.  1.
</event>
<event>
 5   0  0.9410666E-04  0.1199586E+04  0.7818609E-02  0.9113219E-01
        2   -1    0    0  501    0  0.00000000000E+00  0.00000000000E+00  0.11878100033E+04  0.11878100033E+04  0.25500000920E-02 0. -1.
       -2   -1    0    0    0  501  0.00000000000E+00  0.00000000000E+00 -0.30286969095E+03  0.30286969096E+03  0.25500000920E-02 0.  1.
    10030    2    1    2    0    0  0.00000000000E+00  0.00000000000E+00  0.88494031234E+03  0.14906796943E+04  0.11995860096E+04 0.  0.
        2    1    3    3  502    0 -0.46738074691E+03  0.27481059217E+03  0.76119782376E+03  0.93455216605E+03  0.25500000920E-02 0. -1.
       -2    1    3    3    0  502  0.46738074691E+03 -0.27481059217E+03  0.12374248858E+03  0.55612752822E+03  0.25500000920E-02 0.  1.
</event>
<event>
 5   0  0.5003507E-04  0.1202881E+04  0.7818609E-02  0.9110339E-01
       -1   -1    0    0    0  501  0.00000000000E+00  0.00000000000E+00  0.47196886316E+03  0.47196886319E+03  0.50400001928E-02 0. -1.
        1   -1    0    0  501    0  0.00000000000E+00  0.00000000000E+00 -0.76642880584E+03  0.76642880586E+03  0.50400001928E-02 0.  1.
    10030    2    1    2    0    0  0.00000000000E+00  0.00000000000E+00 -0.29445994268E+03  0.12383976690E+04  0.12028807625E+04 0.  0.
        3    1    3    3  502    0  0.34734699272E+03 -0.43131580654E+03 -0.38877906620E+03  0.67663315825E+03  0.10100000352E+00 0.  1.
       -3    1    3    3    0  502 -0.34734699272E+03  0.43131580654E+03  0.94319123527E+02  0.56176451080E+03  0.10100000352E+00 0. -1.
</event>
<event>
 5   0  0.5157631E-04  0.1197646E+04  0.7818609E-02  0.9114919E-01
        1   -1    0    0  501    0  0.00000000000E+00  0.00000000000E+00  0.71102191166E+03  0.71102191168E+03  0.50400001928E-02 0.  1.
       -1   -1    0    0    0  501  0.00000000000E+00  0.00000000000E+00 -0.50432942206E+03  0.50432942208E+03  0.50400001928E-02 0. -1.
    10030    2    1    2    0    0  0.00000000000E+00  0.00000000000E+00  0.20669248961E+03  0.12153513338E+04  0.11976464751E+04 0.  0.
        5    1    3    3  502    0  0.81452791982E+02 -0.36126793743E+03 -0.37416077563E+03  0.52646695619E+03  0.46999998093E+01 0. -1.
       -5    1    3    3    0  502 -0.81452791982E+02  0.36126793743E+03  0.58085326523E+03  0.68888437758E+03  0.46999998093E+01 0.  1.
</event>
<event>
 5   0  0.3453625E-04  0.1198768E+04  0.7818609E-02  0.9113936E-01
       -4   -1    0    0    0  501  0.00000000000E+00  0.00000000000E+00  0.10338008542E+04  0.10338016343E+04  0.12699999809E+01 0. -1.
        4   -1    0    0  501    0  0.00000000000E+00  0.00000000000E+00 -0.34751264952E+03  0.34751497015E+03  0.12699999809E+01 0.  1.
    10030    2    1    2    0    0  0.00000000000E+00  0.00000000000E+00  0.68628820467E+03  0.13813166044E+04  0.11987677264E+04 0.  0.
        1    1    3    3  502    0 -0.10615750907E+03  0.49589414965E+03  0.71129831821E+03  0.87357067368E+03  0.50400001928E-02 0. -1.
       -1    1    3    3    0  502  0.10615750907E+03 -0.49589414965E+03 -0.25010113544E+02  0.50774593075E+03  0.50400001928E-02 0.  1.
</event>
<event>
 5   0  0.9050363E-04  0.1192652E+04  0.7818609E-02  0.9119313E-01
       -2   -1    0    0    0  501  0.00000000000E+00  0.00000000000E+00  0.31543746389E+03  0.31543746390E+03  0.25500000920E-02 0. -1.
        2   -1    0    0  501    0  0.00000000000E+00  0.00000000000E+00 -0.11273382781E+04  0.11273382781E+04  0.25500000920E-02 0.  1.
    10030    2    1    2    0    0  0.00000000000E+00  0.00000000000E+00 -0.81190081423E+03  0.14427757420E+04  0.11926520489E+04 0.  0.
        3    1    3    3  502    0 -0.37043380298E+03 -0.34756302709E+03 -0.78384717102E+03  0.93404371307E+03  0.10100000352E+00 0.  1.
       -3    1    3    3    0  502  0.37043380298E+03  0.34756302709E+03 -0.28053643207E+02  0.50873202896E+03  0.10100000352E+00 0. -1.
</event>
<event>
 5   0  0.5157631E-04  0.1199499E+04  0.7818609E-02  0.9113295E-01
        1   -1    0    0  501    0  0.00000000000E+00  0.00000000000E+00  0.63262523089E+03  0.63262523091E+03  0.50400001928E-02 0.  1.
       -1   -1    0    0    0  501  0.00000000000E+00  0.00000000000E+00 -0.56858235810E+03  0.56858235812E+03  0.50400001928E-02 0. -1.
    10030    2    1    2    0    0  0.00000000000E+00  0.00000000000E+00  0.64042872784E+02  0.12012075890E+04  0.11994991381E+04 0.  0.
        5    1    3    3  502    0 -0.44103979500E+03 -0.23388591756E+03 -0.30080526026E+03  0.58285900337E+03  0.46999998093E+01 0. -1.
       -5    1    3    3    0  502  0.44103979500E+03  0.23388591756E+03  0.36484813305E+03  0.61834858566E+03  0.46999998093E+01 0.  1.
</event>
<event>
 5   0  0.9410666E-04  0.1196596E+04  0.7818609E-02  0.9115841E-01
        2   -1    0    0  501    0  0.00000000000E+00  0.00000000000E+00  0.20015893183E+04  0.20015893183E+04  0.25500000920E-02 0. -1.
       -2   -1    0    0    0  501  0.00000000000E+00  0.00000000000E+00 -0.17883823429E+03  0.17883823431E+03  0.25500000920E-02 0.  1.
    10030    2    1    2    0    0  0.00000000000E+00  0.00000000000E+00  0.18227510840E+04  0.21804275526E+04  0.11965963388E+04 0.  0.
        2    1    3    3  502    0 -0.51359298449E+03  0.10113551858E+03  0.38339718830E+03  0.64884478177E+03  0.25500000920E-02 0.  1.
       -2    1    3    3    0  502  0.51359298449E+03 -0.10113551858E+03  0.14393538957E+04  0.15315827709E+04  0.25500000920E-02 0. -1.
</event>
<event>
 5   0  0.5001586E-04  0.1197730E+04  0.7818609E-02  0.9114846E-01
       -1   -1    0    0    0  501  0.00000000000E+00  0.00000000000E+00  0.40455236490E+03  0.40455236493E+03  0.50400001928E-02 0.  1.
        1   -1    0    0  501    0  0.00000000000E+00  0.00000000000E+00 -0.88650907579E+03  0.88650907581E+03  0.50400001928E-02 0. -1.
    10030    2    1    2    0    0  0.00000000000E+00  0.00000000000E+00 -0.48195671089E+03  0.12910614407E+04  0.11977300917E+04 0.  0.
        1    1    3    3  502    0 -0.42540068763E+03  0.39517887575E+03 -0.39905963194E+03  0.70454288638E+03  0.50400001928E-02 0.  1.
       -1    1    3    3    0  502  0.42540068763E+03 -0.39517887575E+03 -0.82897078954E+02  0.58651855436E+03  0.50400001928E-02 0. -1.
</event>
<event>
 5   0  0.3453625E-04  0.1198065E+04  0.7818609E-02  0.9114552E-01
        3   -1    0    0  501    0  0.00000000000E+00  0.00000000000E+00  0.31680962593E+03  0.31680964203E+03  0.10100000352E+00 0.  1.
       -3   -1    0    0    0  501  0.00000000000E+00  0.00000000000E+00 -0.11326665040E+04  0.11326665085E+04  0.10100000352E+00 0. -1.
    10030    2    1    2    0    0  0.00000000000E+00  0.00000000000E+00 -0.81585687804E+03  0.14494761505E+04  0.11980645498E+04 0.  0.
        3    1    3    3  502    0 -0.51455678470E+03 -0.14264921209E+03 -0.79432562571E+02  0.53983981382E+03  0.10100000352E+00 0.  1.
       -3    1    3    3    0  502  0.51455678470E+03  0.14264921209E+03 -0.73642431547E+03  0.90963633668E+03  0.10100000352E+00 0. -1.
</event>
<event>
 5   0  0.9050363E-04  0.1200955E+04  0.7818609E-02  0.9112021E-01
       -2   -1    0    0    0  501  0.00000000000E+00  0.00000000000E+00  0.73162625521E+03  0.73162625522E+03  0.25500000920E-02 0. -1.
        2   -1    0    0  501    0  0.00000000000E+00  0.00000000000E+00 -0.49283824842E+03  0.49283824842E+03  0.25500000920E-02 0.  1.
    10030    2    1    2    0    0  0.00000000000E+00  0.00000000000E+00  0.23878800679E+03  0.12244645036E+04  0.12009552900E+04 0.  0.
        3    1    3    3  502    0  0.40216865024E+02  0.19013346156E+03  0.69867550913E+03  0.72520039072E+03  0.10100000352E+00 0. -1.
       -3    1    3    3    0  502 -0.40216865024E+02 -0.19013346156E+03 -0.45988750234E+03  0.49926411292E+03  0.10100000352E+00 0.  1.
</event>
<event>
 5   0  0.5052959E-04  0.1159520E+04  0.7818609E-02  0.9149046E-01
        1   -1    0    0  501    0  0.00000000000E+00  0.00000000000E+00  0.18384463736E+04  0.18384463736E+04  0.50400001928E-02 0. -1.
       -1   -1    0    0    0  501  0.00000000000E+00  0.00000000000E+00 -0.18282907621E+03  0.18282907628E+03  0.50400001928E-02 0.  1.
    10030    2    1    2    0    0  0.00000000000E+00  0.00000000000E+00  0.16556172974E+04  0.20212754499E+04  0.11595196457E+04 0.  0.
        2    1    3    3  502    0 -0.76096724678E+02  0.50981273597E+03  0.36521391070E+03  0.63172853176E+03  0.25500000920E-02 0.  1.
       -2    1    3    3    0  502  0.76096724678E+02 -0.50981273597E+03  0.12904033867E+04  0.13895469181E+04  0.25500000920E-02 0. -1.
</event>
<event>
 5   0  0.5003507E-04  0.1198457E+04  0.7818609E-02  0.9114208E-01
       -1   -1    0    0    0  501  0.00000000000E+00  0.00000000000E+00  0.34377296791E+03  0.34377296794E+03  0.50400001928E-02 0. -1.
        1   -1    0    0  501    0  0.00000000000E+00  0.00000000000E+00 -0.10445114644E+04  0.10445114644E+04  0.50400001928E-02 0.  1.
    10030    2    1    2    0    0  0.00000000000E+00  0.00000000000E+00 -0.70073849649E+03  0.13882844324E+04  0.11984570183E+04 0.  0.
        3    1    3    3  502    0  0.21711186452E+03 -0.51564117071E+03 -0.10178277605E+03  0.56866784888E+03  0.10100000352E+00 0. -1.
       -3    1    3    3    0  502 -0.21711186452E+03  0.51564117071E+03 -0.59895572044E+03  0.81961658347E+03  0.10100000352E+00 0.  1.
</event>
<event>
 5   0  0.5157631E-04  0.1197401E+04  0.7818609E-02  0.9115134E-01
        1   -1    0    0  501    0  0.00000000000E+00  0.00000000000E+00  0.10127549217E+04  0.10127549218E+04  0.50400001928E-02 0. -1.
       -1   -1    0    0    0  501  0.00000000000E+00  0.00000000000E+00 -0.35392797226E+03  0.35392797230E+03  0.50400001928E-02 0.  1.
    10030    2    1    2    0    0  0.00000000000E+00  0.00000000000E+00  0.65882694949E+03  0.13666828941E+04  0.11974010120E+04 0.  0.
        5    1    3    3  502    0  0.25975040322E+02 -0.35068981557E+03 -0.22360823791E+03  0.41675026517E+03  0.46999998093E+01 0.  1.
       -5    1    3    3    0  502 -0.25975040322E+02  0.35068981557E+03  0.88243518740E+03  0.94993262889E+03  0.46999998093E+01 0. -1.
</event>
<event>
 5   0  0.5052959E-04  0.1198582E+04  0.7818609E-02  0.9114098E-01
       -1   -1    0    0    0  501  0.00000000000E+00  0.00000000000E+00  0.43273155710E+03  0.43273155713E+03  0.50400001928E-02 0.  1.
        1   -1    0    0  501    0  0.00000000000E+00  0.00000000000E+00 -0.82996025068E+03  0.82996025069E+03  0.50400001928E-02 0. -1.
    10030    2    1    2    0    0  0.00000000000E+00  0.00000000000E+00 -0.39722869358E+03  0.12626918078E+04  0.11985824822E+04 0.  0.
        2    1    3    3  502    0 -0.28573933660E+03  0.51634481209E+03 -0.30855656011E+03  0.66593249226E+03  0.25500000920E-02 0. -1.
       -2    1    3    3    0  502  0.28573933660E+03 -0.51634481209E+03 -0.88672133463E+02  0.59675931557E+03  0.25500000920E-02 0.  1.
</event>
<event>
 5   0  0.9070772E-04  0.1199976E+04  0.7818609E-02  0.9112878E-01
       -2   -1    0    0    0  501  0.00000000000E+00  0.00000000000E+00  0.38827641710E+03  0.38827641711E+03  0.25500000920E-02 0.  1.
        2   -1    0    0  501    0  0.00000000000E+00  0.00000000000E+00 -0.92713741160E+03  0.92713741160E+03  0.25500000920E-02 0. -1.
    10030    2    1    2    0    0  0.00000000000E+00  0.00000000000E+00 -0.53886099450E+03  0.13154138287E+04  0.11999759870E+04 0.  0.
        4    1    3    3  502    0  0.13417376600E+03  0.27273630797E+03 -0.83649164010E+03  0.89000425281E+03  0.12699999809E+01 0. -1.
       -4    1    3    3    0  502 -0.13417376600E+03 -0.27273630797E+03  0.29763064560E+03  0.42540957590E+03  0.12699999809E+01 0.  1.
</event>
<event>
 5   0  0.5447074E-04  0.1204561E+04  0.7818609E-02  0.9108874E-01
        1   -1    0    0  501    0  0.00000000000E+00  0.00000000000E+00  0.14581184191E+04  0.14581184191E+04  0.50400001928E-02 0.  1.
       -1   -1    0    0    0  501  0.00000000000E+00  0.00000000000E+00 -0.24877369411E+03  0.24877369416E+03  0.50400001928E-02 0. -1.
    10030    2    1    2    0    0  0.00000000000E+00  0.00000000000E+00  0.12093447250E+04  0.17068921133E+04  0.12045605101E+04 0.  0.
        4    1    3    3  502    0  0.14371923366E+03 -0.52036829486E+03  0.98305118474E+03  0.11215300376E+04  0.12699999809E+01 0.  1.
       -4    1    3    3    0  502 -0.14371923366E+03  0.52036829486E+03  0.22629354025E+03  0.58536207571E+03  0.12699999809E+01 0. -1.
</event>
<event>
 5   0  0.5157631E-04  0.1198603E+04  0.7818609E-02  0.9114080E-01
        1   -1    0    0  501    0  0.00000000000E+00  0.00000000000E+00  0.43952088497E+03  0.43952088500E+03  0.50400001928E-02 0.  1.
       -1   -1    0    0    0  501  0.00000000000E+00  0.00000000000E+00 -0.81716734808E+03  0.81716734809E+03  0.50400001928E-02 0. -1.
    10030    2    1    2    0    0  0.00000000000E+00  0.00000000000E+00 -0.37764646310E+03  0.12566882331E+04  0.11986027132E+04 0.  0.
        5    1    3    3  502    0  0.46224238381E+02  0.44885406390E+03 -0.60231235517E+03  0.75260143109E+03  0.46999998093E+01 0. -1.
       -5    1    3    3    0  502 -0.46224238381E+02 -0.44885406390E+03  0.22466589207E+03  0.50408680200E+03  0.46999998093E+01 0.  1.
</event>
<event>
 5   0  0.3453625E-04  0.1199631E+04  0.7818609E-02  0.9113179E-01
        4   -1    0    0  501    0  0.00000000000E+00  0.00000000000E+00  0.99308923580E+03  0.99309004787E+03  0.12699999809E+01 0. -1.
       -4   -1    0    0    0  501  0.00000000000E+00  0.00000000000E+00 -0.36228031078E+03  0.36228253681E+03  0.12699999809E+01 0.  1.
    10030    2    1    2    0    0  0.00000000000E+00  0.00000000000E+00  0.63080892502E+03  0.13553725847E+04  0.11996311697E+04 0.  0.
        5    1    3    3  502    0  0.39578456493E+03  0.13872289386E+01 -0.19378084042E+03  0.44070449323E+03  0.46999998093E+01 0.  1.
       -5    1    3    3    0  502 -0.39578456493E+03 -0.13872289386E+01  0.82458976545E+03  0.91466809145E+03  0.46999998093E+01 0. -1.
</event>
<event>
 5   0  0.9298693E-04  0.1193273E+04  0.7818609E-02  0.9118765E-01
       -2   -1    0    0    0  501  0.00000000000E+00  0.00000000000E+00  0.34502572216E+03  0.34502572217E+03  0.25500000920E-02 0.  1.
        2   -1    0    0  501    0  0.00000000000E+00  0.00000000000E+00 -0.10317356026E+04  0.10317356026E+04  0.25500000920E-02 0. -1.
    10030    2    1    2    0    0  0.00000000000E+00  0.00000000000E+00 -0.68670988048E+03  0.13767613248E+04  0.11932733490E+04 0.  0.
        1    1    3    3  502    0 -0.42023621093E+03  0.32427662155E+03 -0.29026525863E+02  0.53159791148E+03  0.50400001928E-02 0.  1.
       -1    1    3    3    0  502  0.42023621093E+03 -0.32427662155E+03 -0.65768335462E+03  0.84516341333E+03  0.50400001928E-02 0. -1.
</event>
<event>
 5   0  0.9050363E-04  0.1195792E+04  0.7818609E-02  0.9116547E-01
       -2   -1    0    0    0  501  0.00000000000E+00  0.00000000000E+00  0.35127241684E+03  0.35127241685E+03  0.25500000920E-02 0. -1.
        2   -1    0    0  501    0  0.00000000000E+00  0.00000000000E+00 -0.10176712991E+04  0.10176712991E+04  0.25500000920E-02 0.  1.
    10030    2    1    2    0    0  0.00000000000E+00  0.00000000000E+00 -0.66639888223E+03  0.13689437159E+04  0.11957923846E+04 0.  0.
        3    1    3    3  502    0  0.30608979442E+03 -0.49662861926E+03 -0.48311542138E+03  0.75745063752E+03  0.10100000352E+00 0.  1.
       -3    1    3    3    0  502 -0.30608979442E+03  0.49662861926E+03 -0.18328346085E+03  0.61149307840E+03  0.10100000352E+00 0. -1.
</event>
<event>
 5   0  0.9050363E-04  0.1200941E+04  0.7818609E-02  0.9112033E-01
       -2   -1    0    0    0  501  0.00000000000E+00  0.00000000000E+00  0.50114291832E+03  0.50114291833E+03  0.25500000920E-02 0. -1.
        2   -1    0    0  501    0  0.00000000000E+00  0.00000000000E+00 -0.71948544438E+03  0.71948544439E+03  0.25500000920E-02 0.  1.
    10030    2    1    2    0    0  0.00000000000E+00  0.00000000000E+00 -0.21834252606E+03  0.12206283627E+04  0.12009413563E+04 0.  0.
        3    1    3    3  502    0 -0.32032368676E+03  0.19063029036E+03  0.36930900003E+03  0.52472499427E+03  0.10100000352E+00 0. -1.
       -3    1    3    3    0  502  0.32032368676E+03 -0.19063029036E+03 -0.58765152609E+03  0.69590336845E+03  0.10100000352E+00 0.  1.
</event>
<event>
 5   0  0.5447074E-04  0.1165438E+04  0.7818609E-02  0.9143659E-01
        1   -1    0    0  501    0  0.00000000000E+00  0.00000000000E+00  0.55032207056E+03  0.55032207059E+03  0.50400001928E-02 0. -1.
       -1   -1    0    0    0  501  0.00000000000E+00  0.00000000000E+00 -0.61702270480E+03  0.61702270483E+03  0.50400001928E-02 0.  1.
    10030    2    1    2    0    0  0.00000000000E+00  0.00000000000E+00 -0.66700634242E+02  0.11673447754E+04  0.11654376217E+04 0.  0.
        4    1    3    3  502    0 -0.31951812139E+03 -0.79180764596E+02  0.44826724203E+03  0.55615335705E+03  0.12699999809E+01 0. -1.
       -4    1    3    3    0  502  0.31951812139E+03  0.79180764596E+02 -0.51496787627E+03  0.61119141836E+03  0.12699999809E+01 0.  1.
</event>
<event>
 5   0  0.9298693E-04  0.1199956E+04  0.7818609E-02  0.9112895E-01
       -2   -1    0    0    0  501  0.00000000000E+00  0.00000000000E+00  0.26791125982E+03  0.26791125983E+03  0.25500000920E-02 0.  1.
        2   -1    0    0  501    0  0.00000000000E+00  0.00000000000E+00 -0.13436297333E+04  0.13436297333E+04  0.25500000920E-02 0. -1.
    10030    2    1    2    0    0  0.00000000000E+00  0.00000000000E+00 -0.10757184735E+04  0.16115409931E+04  0.11999558902E+04 0.  0.
        1    1    3    3  502    0 -0.51771109950E+03 -0.15890991166E+03 -0.19102077943E+03  0.57425262800E+03  0.50400001928E-02 0.  1.
       -1    1    3    3    0  502  0.51771109950E+03  0.15890991166E+03 -0.88469769406E+03  0.10372883651E+04  0.50400001928E-02 0. -1.
</event>
<event>
 5   0  0.5052959E-04  0.1202514E+04  0.7818609E-02  0.9110659E-01
       -1   -1    0    0    0  501  0.00000000000E+00  0.00000000000E+00  0.22990267889E+03  0.22990267894E+03  0.50400001928E-02 0.  1.
        1   -1    0    0  501    0  0.00000000000E+00  0.00000000000E+00 -0.15724473984E+04  0.15724473984E+04  0.50400001928E-02 0. -1.
    10030    2    1    2    0    0  0.00000000000E+00  0.00000000000E+00 -0.13425447195E+04  0.18023500774E+04  0.12025138159E+04 0.  0.
        2    1    3    3  502    0 -0.24304818629E+03 -0.48282810011E+03 -0.10658759583E+04  0.11951095990E+04  0.25500000920E-02 0. -1.
       -2    1    3    3    0  502  0.24304818629E+03  0.48282810011E+03 -0.27666876120E+03  0.60724047835E+03  0.25500000920E-02 0.  1.
</event>
<event>
 5   0  0.5001586E-04  0.1197332E+04  0.7818609E-02  0.9115195E-01
       -1   -1    0    0    0  501  0.00000000000E+00  0.00000000000E+00  0.74523823069E+03  0.74523823071E+03  0.50400001928E-02 0.  1.
        1   -1    0    0  501    0  0.00000000000E+00  0.00000000000E+00 -0.48092104936E+03  0.48092104938E+03  0.50400001928E-02 0. -1.
    10030    2    1    2    0    0  0.00000000000E+00  0.00000000000E+00  0.26431718134E+03  0.12261592801E+04  0.11973316198E+04 0.  0.
        1    1    3    3  502    0  0.49552952499E+03 -0.21677056896E+03 -0.13065578138E+03  0.55642602647E+03  0.50400001928E-02 0. -1.
       -1    1    3    3    0  502 -0.49552952499E+03  0.21677056896E+03  0.39497296271E+03  0.66973325362E+03  0.50400001928E-02 0.  1.
</event>
<event>
 5   0  0.5157631E-04  0.1207403E+04  0.7818609E-02  0.9106402E-01
        1   -1    0    0  501    0  0.00000000000E+00  0.00000000000E+00  0.51754417118E+03  0.51754417121E+03  0.50400001928E-02 0.  1.
       -1   -1    0    0    0  501  0.00000000000E+00  0.00000000000E+00 -0.70420115424E+03  0.70420115426E+03  0.50400001928E-02 0. -1.
    10030    2    1    2    0    0  0.00000000000E+00  0.00000000000E+00 -0.18665698306E+03  0.12217453255E+04  0.12074025058E+04 0.  0.
        5    1    3    3  502    0  0.54681024591E+03 -0.10299872251E+03  0.14359588038E+03  0.57467560304E+03  0.46999998093E+01 0. -1.
       -5    1    3    3    0  502 -0.54681024591E+03  0.10299872251E+03 -0.33025286344E+03  0.64706972242E+03  0.46999998093E+01 0.  1.
</event>
<event>
 5   0  0.9410666E-04  0.1202312E+04  0.7818609E-02  0.9110836E-01
       -2   -1    0    0    0  501  0.00000000000E+00  0.00000000000E+00  0.45770271250E+03  0.45770271251E+03  0.25500000920E-02 0.  1.
        2   -1    0    0  501    0  0.00000000000E+00  0.00000000000E+00 -0.78957000981E+03  0.78957000981E+03  0.25500000920E-02 0. -1.
    10030    2    1    2    0    0  0.00000000000E+00  0.00000000000E+00 -0.33186729731E+03  0.12472727223E+04  0.12023116654E+04 0.  0.
        2    1    3    3  502    0 -0.14639452839E+03 -0.86535911574E+02  0.43222945946E+03  0.46448049213E+03  0.25500000920E-02 0.  1.
       -2    1    3    3    0  502  0.14639452839E+03  0.86535911574E+02 -0.76409675677E+03  0.78279223019E+03  0.25500000920E-02 0. -1.
</event>
<event>
 5   0  0.9298693E-04  0.1199017E+04  0.7818609E-02  0.9113717E-01
        2   -1    0    0  501    0  0.00000000000E+00  0.00000000000E+00  0.13695019787E+04  0.13695019787E+04  0.25500000920E-02 0.  1.
       -2   -1    0    0    0  501  0.00000000000E+00  0.00000000000E+00 -0.26243890749E+03  0.26243890750E+03  0.25500000920E-02 0. -1.
    10030    2    1    2    0    0  0.00000000000E+00  0.00000000000E+00  0.11070630712E+04  0.16319408862E+04  0.11990172694E+04 0.  0.
        1    1    3    3  502    0  0.51562655060E+03  0.19160299651E+03  0.22907183460E+03  0.59586605322E+03  0.50400001928E-02 0. -1.
       -1    1    3    3    0  502 -0.51562655060E+03 -0.19160299651E+03  0.87799123660E+03  0.10360748330E+04  0.50400001928E-02 0.  1.
</event>
<event>
 5   0  0.9145224E-04  0.1201294E+04  0.7818609E-02  0.9111724E-01
       -2   -1    0    0    0  501  0.00000000000E+00  0.00000000000E+00  0.67849540408E+03  0.67849540408E+03  0.25500000920E-02 0.  1.
        2   -1    0    0  501    0  0.00000000000E+00  0.00000000000E+00 -0.53173094857E+03  0.53173094858E+03  0.25500000920E-02 0. -1.
    10030    2    1    2    0    0  0.00000000000E+00  0.00000000000E+00  0.14676445551E+03  0.12102263527E+04  0.12012943100E+04 0.  0.
        5    1    3    3  502    0  0.21498983026E+02  0.55875282284E+03 -0.14753801136E+03  0.57832212313E+03  0.46999998093E+01 0. -1.
       -5    1    3    3    0  502 -0.21498983026E+02 -0.55875282284E+03  0.29430246686E+03  0.63190422953E+03  0.46999998093E+01 0.  1.
</event>
<event>
 5   0  0.3453625E-04  0.1198224E+04  0.7818609E-02  0.9114412E-01
        3   -1    0    0  501    0  0.00000000000E+00  0.00000000000E+00  0.47038580754E+03  0.47038581838E+03  0.10100000352E+00 0. -1.
       -3   -1    0    0    0  501  0.00000000000E+00  0.00000000000E+00 -0.76306561548E+03  0.76306562217E+03  0.10100000352E+00 0.  1.
    10030    2    1    2    0    0  0.00000000000E+00  0.00000000000E+00 -0.29267980794E+03  0.12334514405E+04  0.11982240968E+04 0.  0.
        4    1    3    3  502    0 -0.37072590976E+03 -0.45245113029E+03 -0.27970142955E+03  0.64837044046E+03  0.12699999809E+01 0.  1.
       -4    1    3    3    0  502  0.37072590976E+03  0.45245113029E+03 -0.12978378397E+02  0.58508100009E+03  0.12699999809E+01 0. -1.
</event>
<event>
 5   0  0.3453625E-04  0.1200652E+04  0.7818609E-02  0.9112286E-01
       -4   -1    0    0    0  501  0.00000000000E+00  0.00000000000E+00  0.14914550293E+04  0.14914555700E+04  0.12699999809E+01 0.  1.
        4   -1    0    0  501    0  0.00000000000E+00  0.00000000000E+00 -0.24163525313E+03  0.24163859057E+03  0.12699999809E+01 0. -1.
    10030    2    1    2    0    0  0.00000000000E+00  0.00000000000E+00  0.12498197762E+04  0.17330941606E+04  0.12006522796E+04 0.  0.
        5    1    3    3  502    0  0.32126012234E+03  0.48882916490E+03  0.81968275833E+03  0.10070074146E+04  0.46999998093E+01 0. -1.
       -5    1    3    3    0  502 -0.32126012234E+03 -0.48882916490E+03  0.43013701787E+03  0.72608674606E+03  0.46999998093E+01 0.  1.
</event>
<event>
 5   0  0.9070772E-04  0.1201098E+04  0.7818609E-02  0.9111896E-01
       -2   -1    0    0    0  501  0.00000000000E+00  0.00000000000E+00  0.41357685638E+03  0.41357685639E+03  0.25500000920E-02 0.  1.
        2   -1    0    0  501    0  0.00000000000E+00  0.00000000000E+00 -0.87204854300E+03  0.87204854300E+03  0.25500000920E-02 0. -1.
    10030    2    1    2    0    0  0.00000000000E+00  0.00000000000E+00 -0.45847168661E+03  0.12856253994E+04  0.12010979894E+04 0.  0.
        4    1    3    3  502    0 -0.59100281360E+03 -0.66812313921E+02 -0.31820759117E+03  0.67454124778E+03  0.12699999809E+01 0. -1.
       -4    1    3    3    0  502  0.59100281360E+03  0.66812313921E+02 -0.14026409544E+03  0.61108415161E+03  0.12699999809E+01 0.  1.
</event>
<event>
 5   0  0.9298693E-04  0.1211192E+04  0.7818609E-02  0.9103116E-01
        2   -1    0    0  501    0  0.00000000000E+00  0.00000000000E+00  0.10238466220E+04  0.10238466220E+04  0.25500000920E-02 0.  1.
       -2   -1    0    0    0  501  0.00000000000E+00  0.00000000000E+00 -0.35820460272E+03  0.35820460273E+03  0.25500000920E-02 0. -1.
    10030    2    1    2    0    0  0.00000000000E+00  0.00000000000E+00  0.66564201927E+03  0.13820512247E+04  0.12111920946E+04 0.  0.
        1    1    3    3  502    0  0.60094774928E+03  0.62818237944E+02  0.37934302385E+03  0.71343216787E+03  0.50400001928E-02 0.  1.
       -1    1    3    3    0  502 -0.60094774928E+03 -0.62818237944E+02  0.28629899543E+03  0.66861905686E+03  0.50400001928E-02 0. -1.
</event>
<event>
 5   0  0.5001586E-04  0.1202070E+04  0.7818609E-02  0.9111047E-01
        1   -1    0    0  501    0  0.00000000000E+00  0.00000000000E+00  0.14294929857E+04  0.14294929857E+04  0.50400001928E-02 0. -1.
       -1   -1    0    0    0  501  0.00000000000E+00  0.00000000000E+00 -0.25270695174E+03  0.25270695179E+03  0.50400001928E-02 0.  1.
    10030    2    1    2    0    0  0.00000000000E+00  0.00000000000E+00  0.11767860340E+04  0.16821999375E+04  0.12020695737E+04 0.  0.
        1    1    3    3  502    0 -0.54485441779E+01  0.74570551035E+02  0.14229593406E+04  0.14249223624E+04  0.50400001928E-02 0. -1.
       -1    1    3    3    0  502  0.54485441779E+01 -0.74570551035E+02 -0.24617330666E+03  0.25727757511E+03  0.50400001928E-02 0.  1.
</event>
<event>
 5   0  0.5157631E-04  0.1200369E+04  0.7818609E-02  0.9112533E-01
        1   -1    0    0  501    0  0.00000000000E+00  0.00000000000E+00  0.46695570834E+03  0.46695570836E+03  0.50400001928E-02 0. -1.
       -1   -1    0    0    0  501  0.00000000000E+00  0.00000000000E+00 -0.77142557943E+03  0.77142557945E+03  0.50400001928E-02 0.  1.
    10030    2    1    2    0    0  0.00000000000E+00  0.00000000000E+00 -0.30446987110E+03  0.12383812878E+04  0.12003692397E+04 0.  0.
        5    1    3    3  502    0  0.30696068652E+02  0.18075137542E+03  0.43733920218E+03  0.47423725719E+03  0.46999998093E+01 0. -1.
       -5    1    3    3    0  502 -0.30696068652E+02 -0.18075137542E+03 -0.74180907328E+03  0.76414403063E+03  0.46999998093E+01 0.  1.
</event>
<event>
 5   0  0.9145224E-04  0.1199967E+04  0.7818609E-02  0.9112886E-01
       -2   -1    0    0    0  501  0.00000000000E+00  0.00000000000E+00  0.47335167539E+03  0.47335167540E+03  0.25500000920E-02 0. -1.
        2   -1    0    0  501    0  0.00000000000E+00  0.00000000000E+00 -0.76049150089E+03  0.76049150090E+03  0.25500000920E-02 0.  1.
    10030    2    1    2    0    0  0.00000000000E+00  0.00000000000E+00 -0.28713982550E+03  0.12338431763E+04  0.11999665430E+04 0.  0.
        5    1    3    3  502    0  0.63135243952E+01  0.18247542694E+03 -0.73121170533E+03  0.75367751064E+03  0.46999998093E+01 0.  1.
       -5    1    3    3    0  502 -0.63135243952E+01 -0.18247542694E+03  0.44407187983E+03  0.48016566566E+03  0.46999998093E+01 0. -1.
</event>
<event>
 5   0  0.9145224E-04  0.1195596E+04  0.7818609E-02  0.9116720E-01
       -2   -1    0    0    0  501  0.00000000000E+00  0.00000000000E+00  0.20809527822E+03  0.20809527824E+03  0.25500000920E-02 0.  1.
        2   -1    0    0  501    0  0.00000000000E+00  0.00000000000E+00 -0.17173011284E+04  0.17173011284E+04  0.25500000920E-02 0. -1.
    10030    2    1    2    0    0  0.00000000000E+00  0.00000000000E+00 -0.15092058502E+04  0.19253964066E+04  0.11955956777E+04 0.  0.
        5    1    3    3  502    0  0.30994206567E+03 -0.50992798654E+03 -0.81152874141E+03  0.10073190278E+04  0.46999998093E+01 0.  1.
       -5    1    3    3    0  502 -0.30994206567E+03  0.50992798654E+03 -0.69767710875E+03  0.91807737888E+03  0.46999998093E+01 0. -1.
</event>
<event>
 5   0  0.9145224E-04  0.1200346E+04  0.7818609E-02  0.9112553E-01
       -2   -1    0    0    0  501  0.00000000000E+00  0.00000000000E+00  0.38798040362E+03  0.38798040362E+03  0.25500000920E-02 0.  1.
        2   -1    0    0  501    0  0.00000000000E+00  0.00000000000E+00 -0.92841755915E+03  0.92841755915E+03  0.25500000920E-02 0. -1.
    10030    2    1    2    0    0  0.00000000000E+00  0.00000000000E+00 -0.54043715553E+03  0.13163979628E+04  0.12003463156E+04 0.  0.
        5    1    3    3  502    0 -0.58157975047E+03  0.14588643225E+03 -0.29856036772E+03  0.66983448735E+03  0.46999998093E+01 0.  1.
       -5    1    3    3    0  502  0.58157975047E+03 -0.14588643225E+03 -0.24187678781E+03  0.64656347542E+03  0.46999998093E+01 0. -1.
</event>
<event>
 5   0  0.9070772E-04  0.1183364E+04  0.7818609E-02  0.9127544E-01
        2   -1    0    0  501    0  0.00000000000E+00  0.00000000000E+00  0.53668745906E+03  0.53668745906E+03  0.25500000920E-02 0.  1.
       -2   -1    0    0    0  501  0.00000000000E+00  0.00000000000E+00 -0.65231160268E+03  0.65231160268E+03  0.25500000920E-02 0. -1.
    10030    2    1    2    0    0  0.00000000000E+00  0.00000000000E+00 -0.11562414362E+03  0.11889990617E+04  0.11833637760E+04 0.  0.
        4    1    3    3  502    0 -0.28523480451E+03 -0.34029068590E+03 -0.45073597357E+03  0.63270939252E+03  0.12699999809E+01 0. -1.
       -4    1    3    3    0  502  0.28523480451E+03  0.34029068590E+03  0.33511182995E+03  0.55628966922E+03  0.12699999809E+01 0.  1.
</event>
<event>
 5   0  0.9070772E-04  0.1198547E+04  0.7818609E-02  0.9114129E-01
       -2   -1    0    0    0  501  0.00000000000E+00  0.00000000000E+00  0.27888182986E+03  0.27888182987E+03  0.25500000920E-02 0.  1.
        2   -1    0    0  501    0  0.00000000000E+00  0.00000000000E+00 -0.12877454232E+04  0.12877454232E+04  0.25500000920E-02 0. -1.
    10030    2    1    2    0    0  0.00000000000E+00  0.00000000000E+00 -0.10088635933E+04  0.15666272530E+04  0.11985471205E+04 0.  0.
        4    1    3    3  502    0 -0.24690159766E+03 -0.16509665826E+03 -0.11847670688E+04  0.12214302787E+04  0.12699999809E+01 0. -1.
       -4    1    3    3    0  502  0.24690159766E+03  0.16509665826E+03  0.17590347551E+03  0.34519697434E+03  0.12699999809E+01 0.  1.
</event>
<event>
 5   0  0.5157631E-04  0.1192844E+04  0.7818609E-02  0.9119143E-01
        1   -1    0    0  501    0  0.00000000000E+00  0.00000000000E+00  0.81550631358E+03  0.81550631360E+03  0.50400001928E-02 0.  1.
       -1   -1    0    0    0  501  0.00000000000E+00  0.00000000000E+00 -0.43619460272E+03  0.43619460275E+03  0.50400001928E-02 0. -1.
    10030    2    1    2    0    0  0.00000000000E+00  0.00000000000E+00  0.37931171087E+03  0.12517009163E+04  0.11928444199E+04 0.  0.
        5    1    3    3  502    0  0.20744436142E+03  0.54012473331E+03  0.37847420890E+02  0.57984688313E+03  0.46999998093E+01 0.  1.
       -5    1    3    3    0  502 -0.20744436142E+03 -0.54012473331E+03  0.34146428998E+03  0.67185403321E+03  0.46999998093E+01 0. -1.
</event>
<event>
 5   0  0.9050363E-04  0.1201379E+04  0.7818609E-02  0.9111651E-01
        2   -1    0    0  501    0  0.00000000000E+00  0.00000000000E+00  0.96324451265E+03  0.96324451265E+03  0.25500000920E-02 0.  1.
       -2   -1    0    0    0  501  0.00000000000E+00  0.00000000000E+00 -0.37459608650E+03  0.37459608651E+03  0.25500000920E-02 0. -1.
    10030    2    1    2    0    0  0.00000000000E+00  0.00000000000E+00  0.58864842614E+03  0.13378405992E+04  0.12013785828E+04 0.  0.
        3    1    3    3  502    0  0.22257494812E+03 -0.49316029561E+02  0.91319853333E+03  0.94122433553E+03  0.10100000352E+00 0.  1.
       -3    1    3    3    0  502 -0.22257494812E+03  0.49316029561E+02 -0.32455010719E+03  0.39661626364E+03  0.10100000352E+00 0. -1.
</event>
<event>
 5   0  0.9070772E-04  0.1203544E+04  0.7818609E-02  0.9109760E-01
        2   -1    0    0  501    0  0.00000000000E+00  0.00000000000E+00  0.18249776874E+04  0.18249776874E+04  0.25500000920E-02 0. -1.
       -2   -1    0    0    0  501  0.00000000000E+00  0.00000000000E+00 -0.19842947654E+03  0.19842947656E+03  0.25500000920E-02 0.  1.
    10030    2    1    2    0    0  0.00000000000E+00  0.00000000000E+00  0.16265482109E+04  0.20234071640E+04  0.12035437129E+04 0.  0.
        4    1    3    3  502    0  0.16378553264E+01  0.32166047246E+02  0.18235253549E+04  0.18238102067E+04  0.12699999809E+01 0. -1.
       -4    1    3    3    0  502 -0.16378553264E+01 -0.32166047246E+02 -0.19697714405E+03  0.19959695725E+03  0.12699999809E+01 0.  1.
</event>
<event>
 5   0  0.5003507E-04  0.1204494E+04  0.7818609E-02  0.9108932E-01
       -1   -1    0    0    0  501  0.00000000000E+00  0.00000000000E+00  0.56443572731E+03  0.56443572733E+03  0.50400001928E-02 0.  1.
        1   -1    0    0  501    0  0.00000000000E+00  0.00000000000E+00 -0.64259124564E+03  0.64259124566E+03  0.50400001928E-02 0. -1.
    10030    2    1    2    0    0  0.00000000000E+00  0.00000000000E+00 -0.78155518335E+02  0.12070269730E+04  0.12044940135E+04 0.  0.
        3    1    3    3  502    0  0.50532490707E+02  0.58309942354E+03 -0.18130217320E+03  0.61272257879E+03  0.10100000352E+00 0. -1.
       -3    1    3    3    0  502 -0.50532490707E+02 -0.58309942354E+03  0.10314665487E+03  0.59430439420E+03  0.10100000352E+00 0.  1.
</event>
<event>
 5   0  0.9145224E-04  0.1195283E+04  0.7818609E-02  0.9116996E-01
       -2   -1    0    0    0  501  0.00000000000E+00  0.00000000000E+00  0.28594327367E+03  0.28594327368E+03  0.25500000920E-02 0.  1.
        2   -1    0    0  501    0  0.00000000000E+00  0.00000000000E+00 -0.12491119439E+04  0.12491119439E+04  0.25500000920E-02 0. -1.
    10030    2    1    2    0    0  0.00000000000E+00  0.00000000000E+00 -0.96316867027E+03  0.15350552176E+04  0.11952826585E+04 0.  0.
        5    1    3    3  502    0 -0.96652449725E+02  0.35107395037E+03  0.12699624250E+03  0.38567440967E+03  0.46999998093E+01 0.  1.
       -5    1    3    3    0  502  0.96652449725E+02 -0.35107395037E+03 -0.10901649128E+04  0.11493808080E+04  0.46999998093E+01 0. -1.
</event>
<event>
 5   0  0.9410666E-04  0.1200281E+04  0.7818609E-02  0.9112610E-01
        2   -1    0    0  501    0  0.00000000000E+00  0.00000000000E+00  0.14260639883E+04  0.14260639883E+04  0.25500000920E-02 0. -1.
       -2   -1    0    0    0  501  0.00000000000E+00  0.00000000000E+00 -0.25256151586E+03  0.25256151588E+03  0.25500000920E-02 0.  1.
    10030    2    1    2    0    0  0.00000000000E+00  0.00000000000E+00  0.11735024725E+04  0.16786255042E+04  0.12002814380E+04 0.  0.
        2    1    3    3  502    0  0.22744724621E+03 -0.47195667682E+03  0.17735415794E+03  0.55310925859E+03  0.25500000920E-02 0.  1.
       -2    1    3    3    0  502 -0.22744724621E+03  0.47195667682E+03  0.99614831451E+03  0.11255162456E+04  0.25500000920E-02 0. -1.
</event>
<event>
 5   0  0.5001586E-04  0.1197371E+04  0.7818609E-02  0.9115161E-01
        1   -1    0    0  501    0  0.00000000000E+00  0.00000000000E+00  0.35462974469E+03  0.35462974473E+03  0.50400001928E-02 0.  1.
       -1   -1    0    0    0  501  0.00000000000E+00  0.00000000000E+00 -0.10107007078E+04  0.10107007078E+04  0.50400001928E-02 0. -1.
    10030    2    1    2    0    0  0.00000000000E+00  0.00000000000E+00 -0.65607096306E+03  0.13653304525E+04  0.11973713442E+04 0.  0.
        1    1    3    3  502    0 -0.25819896727E+03 -0.48817884496E+03 -0.59163163206E+03  0.80932890684E+03  0.50400001928E-02 0. -1.
       -1    1    3    3    0  502  0.25819896727E+03  0.48817884496E+03 -0.64439330998E+02  0.55600154565E+03  0.50400001928E-02 0.  1.
</event>
<event>
 5   0  0.9145224E-04  0.1203158E+04  0.7818609E-02  0.9110096E-01
        2   -1    0    0  501    0  0.00000000000E+00  0.00000000000E+00  0.94519946314E+03  0.94519946314E+03  0.25500000920E-02 0. -1.
       -2   -1    0    0    0  501  0.00000000000E+00  0.00000000000E+00 -0.38287957610E+03  0.38287957611E+03  0.25500000920E-02 0.  1.
    10030    2    1    2    0    0  0.00000000000E+00  0.00000000000E+00  0.56231988703E+03  0.13280790393E+04  0.12031584597E+04 0.  0.
        5    1    3    3  502    0  0.43461629137E+03 -0.96191219284E+02  0.72780969034E+03  0.85315479647E+03  0.46999998093E+01 0. -1.
       -5    1    3    3    0  502 -0.43461629137E+03  0.96191219284E+02 -0.16548980330E+03  0.47492424278E+03  0.46999998093E+01 0.  1.
</event>
<event>
 5   0  0.3453625E-04  0.1198574E+04  0.7818609E-02  0.9114106E-01
        4   -1    0    0  501    0  0.00000000000E+00  0.00000000000E+00  0.51543458088E+03  0.51543614548E+03  0.12699999809E+01 0. -1.
       -4   -1    0    0    0  501  0.00000000000E+00  0.00000000000E+00 -0.69677742125E+03  0.69677857865E+03  0.12699999809E+01 0.  1.
    10030    2    1    2    0    0  0.00000000000E+00  0.00000000000E+00 -0.18134284037E+03  0.12122147241E+04  0.11985738657E+04 0.  0.
        4    1    3    3  502    0  0.33737587379E+03  0.40150929503E+03 -0.38399110039E+03  0.64998690163E+03  0.12699999809E+01 0.  1.
       -4    1    3    3    0  502 -0.33737587379E+03 -0.40150929503E+03  0.20264826002E+03  0.56222782251E+03  0.12699999809E+01 0. -1.
</event>
<event>
 5   0  0.9050363E-04  0.1199117E+04  0.7818609E-02  0.9113630E-01
       -2   -1    0    0    0  501  0.00000000000E+00  0.00000000000E+00  0.24571616297E+03  0.24571616298E+03  0.25500000920E-02 0. -1.
        2   -1    0    0  501    0  0.00000000000E+00  0.00000000000E+00 -0.14629502451E+04  0.14629502451E+04  0.25500000920E-02 0.  1.
    10030    2    1    2    0    0  0.00000000000E+00  0.00000000000E+00 -0.12172340822E+04  0.17086664081E+04  0.11991172101E+04 0.  0.
        3    1    3    3  502    0  0.35340297260E+03 -0.18700943052E+03  0.28003454323E+02  0.40081216524E+03  0.10100000352E+00 0. -1.
       -3    1    3    3    0  502 -0.35340297260E+03  0.18700943052E+03 -0.12452375365E+04  0.13078542429E+04  0.10100000352E+00 0.  1.
</event>
<event>
 5   0  0.5052959E-04  0.1197384E+04  0.7818609E-02  0.9115150E-01
       -1   -1    0    0    0  501  0.00000000000E+00  0.00000000000E+00  0.35239873343E+03  0.35239873347E+03  0.50400001928E-02 0. -1.
        1   -1    0    0  501    0  0.00000000000E+00  0.00000000000E+00 -0.10171203743E+04  0.10171203743E+04  0.50400001928E-02 0.  1.
    10030    2    1    2    0    0  0.00000000000E+00  0.00000000000E+00 -0.66472164083E+03  0.13695191077E+04  0.11973837007E+04 0.  0.
        2    1    3    3  502    0  0.49685021162E+03  0.33085336407E+03 -0.38487234686E+03  0.71024700259E+03  0.25500000920E-02 0. -1.
       -2    1    3    3    0  502 -0.49685021162E+03 -0.33085336407E+03 -0.27984929397E+03  0.65927210516E+03  0.25500000920E-02 0.  1.
</event>
<event>
 5   0  0.5157631E-04  0.1201566E+04  0.7818609E-02  0.9111487E-01
        1   -1    0    0  501    0  0.00000000000E+00  0.00000000000E+00  0.86335101559E+03  0.86335101560E+03  0.50400001928E-02 0. -1.
       -1   -1    0    0    0  501  0.00000000000E+00  0.00000000000E+00 -0.41806895874E+03  0.41806895877E+03  0.50400001928E-02 0.  1.
    10030    2    1    2    0    0  0.00000000000E+00  0.00000000000E+00  0.44528205685E+03  0.12814199744E+04  0.12015660783E+04 0.  0.
        5    1    3    3  502    0  0.55313112771E+03 -0.10028422287E+03  0.44863758423E+03  0.71924178255E+03  0.46999998093E+01 0. -1.
       -5    1    3    3    0  502 -0.55313112771E+03  0.10028422287E+03 -0.33555273775E+01  0.56217819182E+03  0.46999998093E+01 0.  1.
</event>
<event>
 5   0  0.9410666E-04  0.1188740E+04  0.7818609E-02  0.9122770E-01
        2   -1    0    0  501    0  0.00000000000E+00  0.00000000000E+00  0.84803160155E+03  0.84803160156E+03  0.25500000920E-02 0.  1.
       -2   -1    0    0    0  501  0.00000000000E+00  0.00000000000E+00 -0.41658313220E+03  0.41658313220E+03  0.25500000920E-02 0. -1.
    10030    2    1    2    0    0  0.00000000000E+00  0.00000000000E+00  0.43144846936E+03  0.12646147338E+04  0.11887399392E+04 0.  0.
        2    1    3    3  502    0  0.73782339093E+02 -0.55369949167E+03  0.43178530178E+03  0.70602089733E+03  0.25500000920E-02 0.  1.
       -2    1    3    3    0  502 -0.73782339093E+02  0.55369949167E+03 -0.33683242178E+00  0.55859383643E+03  0.25500000920E-02 0. -1.
</event>
<event>
 5   0  0.9298693E-04  0.1203736E+04  0.7818609E-02  0.9109592E-01
        2   -1    0    0  501    0  0.00000000000E+00  0.00000000000E+00  0.14758467119E+04  0.14758467119E+04  0.25500000920E-02 0.  1.
       -2   -1    0    0    0  501  0.00000000000E+00  0.00000000000E+00 -0.24544918307E+03  0.24544918308E+03  0.25500000920E-02 0. -1.
    10030    2    1    2    0    0  0.00000000000E+00  0.00000000000E+00  0.12303975288E+04  0.17212958950E+04  0.12037364658E+04 0.  0.
        1    1    3    3  502    0  0.51486583426E+03 -0.29447381069E+03  0.76133289809E+03  0.96510591865E+03  0.50400001928E-02 0.  1.
       -1    1    3    3    0  502 -0.51486583426E+03  0.29447381069E+03  0.46906463075E+03  0.75618997635E+03  0.50400001928E-02 0. -1.
</event>
<event>
 5   0  0.5052959E-04  0.1197888E+04  0.7818609E-02  0.9114707E-01
        1   -1    0    0  501    0  0.00000000000E+00  0.00000000000E+00  0.70308485784E+03  0.70308485786E+03  0.50400001928E-02 0.  1.
       -1   -1    0    0    0  501  0.00000000000E+00  0.00000000000E+00 -0.51022858630E+03  0.51022858632E+03  0.50400001928E-02 0. -1.
    10030    2    1    2    0    0  0.00000000000E+00  0.00000000000E+00  0.19285627154E+03  0.12133134442E+04  0.11978881302E+04 0.  0.
        2    1    3    3  502    0  0.17916164198E+03 -0.14664787798E+03 -0.46307026088E+03  0.51772440602E+03  0.25500000920E-02 0. -1.
       -2    1    3    3    0  502 -0.17916164198E+03  0.14664787798E+03  0.65592653242E+03  0.69558903816E+03  0.25500000920E-02 0.  1.
</event>
<event>
 5   0  0.5003507E-04  0.1201090E+04  0.7818609E-02  0.9111903E-01
        1   -1    0    0  501    0  0.00000000000E+00  0.00000000000E+00  0.52110479515E+03  0.52110479518E+03  0.50400001928E-02 0.  1.
       -1   -1    0    0    0  501  0.00000000000E+00  0.00000000000E+00 -0.69209543295E+03  0.69209543296E+03  0.50400001928E-02 0. -1.
    10030    2    1    2    0    0  0.00000000000E+00  0.00000000000E+00 -0.17099063779E+03  0.12132002281E+04  0.12010899198E+04 0.  0.
        3    1    3    3  502    0  0.19817256935E+03 -0.94235694231E+02  0.47915947289E+03  0.52701664488E+03  0.10100000352E+00 0.  1.
       -3    1    3    3    0  502 -0.19817256935E+03  0.94235694231E+02 -0.65015011069E+03  0.68618358326E+03  0.10100000352E+00 0. -1.
</event>
<event>
 5   0  0.9410666E-04  0.1197177E+04  0.7818609E-02  0.9115331E-01
        2   -1    0    0  501    0  0.00000000000E+00  0.00000000000E+00  0.11380074330E+04  0.11380074330E+04  0.25500000920E-02 0. -1.
       -2   -1    0    0    0  501  0.00000000000E+00  0.00000000000E+00 -0.31485594663E+03  0.31485594664E+03  0.25500000920E-02 0.  1.
    10030    2    1    2    0    0  0.00000000000E+00  0.00000000000E+00  0.82315148640E+03  0.14528633797E+04  0.11971773596E+04 0.  0.
        2    1    3    3  502    0  0.43276304881E+02  0.54987891862E+03  0.12938717090E+03  0.56655158962E+03  0.25500000920E-02 0. -1.
       -2    1    3    3    0  502 -0.43276304881E+02 -0.54987891862E+03  0.69376431550E+03  0.88631179005E+03  0.25500000920E-02 0.  1.
</event>
<event>
 5   0  0.5001586E-04  0.1200032E+04  0.7818609E-02  0.9112829E-01
        1   -1    0    0  501    0  0.00000000000E+00  0.00000000000E+00  0.51618379626E+03  0.51618379628E+03  0.50400001928E-02 0.  1.
       -1   -1    0    0    0  501  0.00000000000E+00  0.00000000000E+00 -0.69746319985E+03  0.69746319987E+03  0.50400001928E-02 0. -1.
    10030    2    1    2    0    0  0.00000000000E+00  0.00000000000E+00 -0.18127940359E+03  0.12136469961E+04  0.12000320034E+04 0.  0.
        1    1    3    3  502    0 -0.57595894694E+03 -0.14929322889E+03 -0.16899141103E+03  0.61852669609E+03  0.50400001928E-02 0. -1.
       -1    1    3    3    0  502  0.57595894694E+03  0.14929322889E+03 -0.12287992555E+02  0.59512030006E+03  0.50400001928E-02 0.  1.
</event>
<event>
 5   0  0.5001586E-04  0.1194818E+04  0.7818609E-02  0.9117404E-01
       -1   -1    0    0    0  501  0.00000000000E+00  0.00000000000E+00  0.31044368182E+03  0.31044368186E+03  0.50400001928E-02 0.  1.
        1   -1    0    0  501    0  0.00000000000E+00  0.00000000000E+00 -0.11496377515E+04  0.11496377515E+04  0.50400001928E-02 0. -1.
    10030    2    1    2    0    0  0.00000000000E+00  0.00000000000E+00 -0.83919406971E+03  0.14600814334E+04  0.11948184404E+04 0.  0.
        1    1    3    3  502    0 -0.47667623051E+03 -0.32122034190E+03 -0.61850741528E+03  0.84436612886E+03  0.50400001928E-02 0. -1.
       -1    1    3    3    0  502  0.47667623051E+03  0.32122034190E+03 -0.22068665443E+03  0.61571530454E+03  0.50400001928E-02 0.  1.
</event>
<event>
 5   0  0.5052959E-04  0.1202631E+04  0.7818609E-02  0.9110557E-01
       -1   -1    0    0    0  501  0.00000000000E+00  0.00000000000E+00  0.26795548920E+03  0.26795548925E+03  0.50400001928E-02 0. -1.
        1   -1    0    0  501    0  0.00000000000E+00  0.00000000000E+00 -0.13494042474E+04  0.13494042474E+04  0.50400001928E-02 0.  1.
    10030    2    1    2    0    0  0.00000000000E+00  0.00000000000E+00 -0.10814487582E+04  0.16173597366E+04  0.12026309081E+04 0.  0.
        2    1    3    3  502    0  0.44183676863E+03 -0.79223788339E+02 -0.10788063182E+04  0.11684687462E+04  0.25500000920E-02 0.  1.
       -2    1    3    3    0  502 -0.44183676863E+03  0.79223788339E+02 -0.26424399711E+01  0.44889099038E+03  0.25500000920E-02 0. -1.
</event>
<event>
 5   0  0.9070772E-04  0.1205411E+04  0.7818609E-02  0.9108134E-01
       -2   -1    0    0    0  501  0.00000000000E+00  0.00000000000E+00  0.22155828341E+03  0.22155828342E+03  0.25500000920E-02 0. -1.
        2   -1    0    0  501    0  0.00000000000E+00  0.00000000000E+00 -0.16395399405E+04  0.16395399405E+04  0.25500000920E-02 0.  1.
    10030    2    1    2    0    0  0.00000000000E+00  0.00000000000E+00 -0.14179816571E+04  0.18610982239E+04  0.12054105605E+04 0.  0.
        4    1    3    3  502    0 -0.16686222401E+03  0.55755172404E+03 -0.95088022982E+03  0.11148460661E+04  0.12699999809E+01 0. -1.
       -4    1    3    3    0  502  0.16686222401E+03 -0.55755172404E+03 -0.46710142730E+03  0.74625215783E+03  0.12699999809E+01 0.  1.
</event>
<event>
 5   0  0.3453625E-04  0.1200363E+04  0.7818609E-02  0.9112539E-01
        4   -1    0    0  501    0  0.00000000000E+00  0.00000000000E+00  0.48456276809E+03  0.48456443237E+03  0.12699999809E+01 0.  1.
       -4   -1    0    0    0  501  0.00000000000E+00  0.00000000000E+00 -0.74338343885E+03  0.74338452369E+03  0.12699999809E+01 0. -1.
    10030    2    1    2    0    0  0.00000000000E+00  0.00000000000E+00 -0.25882067076E+03  0.12279489561E+04  0.12003626531E+04 0.  0.
        1    1    3    3  502    0  0.30672749341E+03  0.17550796030E+03 -0.62567013283E+03  0.71857352754E+03  0.50400001928E-02 0. -1.
       -1    1    3    3    0  502 -0.30672749341E+03 -0.17550796030E+03  0.36684946206E+03  0.50937542852E+03  0.50400001928E-02 0.  1.
</event>
<event>
 5   0  0.9070772E-04  0.1201217E+04  0.7818609E-02  0.9111792E-01
       -2   -1    0    0    0  501  0.00000000000E+00  0.00000000000E+00  0.39196885731E+03  0.39196885732E+03  0.25500000920E-02 0.  1.
        2   -1    0    0  501    0  0.00000000000E+00  0.00000000000E+00 -0.92030427847E+03  0.92030427848E+03  0.25500000920E-02 0. -1.
    10030    2    1    2    0    0  0.00000000000E+00  0.00000000000E+00 -0.52833542116E+03  0.13122731358E+04  0.12012170768E+04 0.  0.
        4    1    3    3  502    0  0.59582221936E+03  0.67859005869E+02 -0.22760656055E+03  0.64141665169E+03  0.12699999809E+01 0.  1.
       -4    1    3    3    0  502 -0.59582221936E+03 -0.67859005869E+02 -0.30072886061E+03  0.67085648410E+03  0.12699999809E+01 0. -1.
</event>
<event>
 5   0  0.9298693E-04  0.1189112E+04  0.7818609E-02  0.9122441E-01
       -2   -1    0    0    0  501  0.00000000000E+00  0.00000000000E+00  0.16374291287E+03  0.16374291289E+03  0.25500000920E-02 0. -1.
        2   -1    0    0  501    0  0.00000000000E+00  0.00000000000E+00 -0.21588525002E+04  0.21588525002E+04  0.25500000920E-02 0.  1.
    10030    2    1    2    0    0  0.00000000000E+00  0.00000000000E+00 -0.19951095873E+04  0.23225954131E+04  0.11891119323E+04 0.  0.
        1    1    3    3  502    0  0.36433900553E+03  0.46958673682E+03 -0.10279511968E+04  0.11874082185E+04  0.50400001928E-02 0. -1.
       -1    1    3    3    0  502 -0.36433900553E+03 -0.46958673682E+03 -0.96715839048E+03  0.11351871945E+04  0.50400001928E-02 0.  1.
</event>
<event>
 5   0  0.3453625E-04  0.1196400E+04  0.7818609E-02  0.9116014E-01
       -4   -1    0    0    0  501  0.00000000000E+00  0.00000000000E+00  0.64716056852E+03  0.64716181465E+03  0.12699999809E+01 0. -1.
        4   -1    0    0  501    0  0.00000000000E+00  0.00000000000E+00 -0.55294078104E+03  0.55294223952E+03  0.12699999809E+01 0.  1.
    10030    2    1    2    0    0  0.00000000000E+00  0.00000000000E+00  0.94219787476E+02  0.12001040542E+04  0.11963997545E+04 0.  0.
        4    1    3    3  502    0  0.54529428169E+03 -0.24518588137E+03  0.66651231315E+02  0.60158621128E+03  0.12699999809E+01 0.  1.
       -4    1    3    3    0  502 -0.54529428169E+03  0.24518588137E+03  0.27568556161E+02  0.59851784289E+03  0.12699999809E+01 0. -1.
</event>
<event>
 5   0  0.9050363E-04  0.1203522E+04  0.7818609E-02  0.9109779E-01
        2   -1    0    0  501    0  0.00000000000E+00  0.00000000000E+00  0.16530027767E+04  0.16530027767E+04  0.25500000920E-02 0.  1.
       -2   -1    0    0    0  501  0.00000000000E+00  0.00000000000E+00 -0.21906587241E+03  0.21906587243E+03  0.25500000920E-02 0. -1.
    10030    2    1    2    0    0  0.00000000000E+00  0.00000000000E+00  0.14339369043E+04  0.18720686491E+04  0.12035223228E+04 0.  0.
        3    1    3    3  502    0 -0.37910290574E+03  0.23839266954E+03  0.91733635325E+02  0.45712705901E+03  0.10100000352E+00 0. -1.
       -3    1    3    3    0  502  0.37910290574E+03 -0.23839266954E+03  0.13422032690E+04  0.14149415901E+04  0.10100000352E+00 0.  1.
</event>
<event>
 5   0  0.9070772E-04  0.1201732E+04  0.7818609E-02  0.9111342E-01
       -2   -1    0    0    0  501  0.00000000000E+00  0.00000000000E+00  0.55226087170E+03  0.55226087170E+03  0.25500000920E-02 0. -1.
        2   -1    0    0  501    0  0.00000000000E+00  0.00000000000E+00 -0.65374858557E+03  0.65374858557E+03  0.25500000920E-02 0.  1.
    10030    2    1    2    0    0  0.00000000000E+00  0.00000000000E+00 -0.10148771387E+03  0.12060094573E+04  0.12017316901E+04 0.  0.
        4    1    3    3  502    0  0.52118694995E+03  0.29433695663E+03  0.20558770165E+01  0.59856154268E+03  0.12699999809E+01 0. -1.
       -4    1    3    3    0  502 -0.52118694995E+03 -0.29433695663E+03 -0.10354359089E+03  0.60744791460E+03  0.12699999809E+01 0.  1.
</event>
<event>
 5   0  0.5003507E-04  0.1198994E+04  0.7818609E-02  0.9113737E-01
        1   -1    0    0  501    0  0.00000000000E+00  0.00000000000E+00  0.46907309077E+03  0.46907309079E+03  0.50400001928E-02 0. -1.
       -1   -1    0    0    0  501  0.00000000000E+00  0.00000000000E+00 -0.76618505627E+03  0.76618505628E+03  0.50400001928E-02 0.  1.
    10030    2    1    2    0    0  0.00000000000E+00  0.00000000000E+00 -0.29711196550E+03  0.12352581471E+04  0.11989942326E+04 0.  0.
        3    1    3    3  502    0 -0.13318162059E+03  0.47491130631E+03 -0.49962434678E+03  0.70207021801E+03  0.10100000352E+00 0.  1.
       -3    1    3    3    0  502  0.13318162059E+03 -0.47491130631E+03  0.20251238128E+03  0.53318792906E+03  0.10100000352E+00 0. -1.
</event>
<event>
 5   0  0.5052959E-04  0.1203849E+04  0.7818609E-02  0.9109494E-01
        1   -1    0    0  501    0  0.00000000000E+00  0.00000000000E+00  0.38399967885E+03  0.38399967889E+03  0.50400001928E-02 0.  1.
       -1   -1    0    0    0  501  0.00000000000E+00  0.00000000000E+00 -0.94352424055E+03  0.94352424057E+03  0.50400001928E-02 0. -1.
    10030    2    1    2    0    0  0.00000000000E+00  0.00000000000E+00 -0.55952456170E+03  0.13275239195E+04  0.12038488367E+04 0.  0.
        2    1    3    3  502    0  0.19067244519E+03  0.29814422156E+03 -0.81667784403E+03  0.89006104237E+03  0.25500000920E-02 0. -1.
       -2    1    3    3    0  502 -0.19067244519E+03 -0.29814422156E+03  0.25715328233E+03  0.43746287708E+03  0.25500000920E-02 0.  1.
</event>
<event>
 5   0  0.5157631E-04  0.1207495E+04  0.7818609E-02  0.9106321E-01
       -1   -1    0    0    0  501  0.00000000000E+00  0.00000000000E+00  0.52917413082E+03  0.52917413085E+03  0.50400001928E-02 0. -1.
        1   -1    0    0  501    0  0.00000000000E+00  0.00000000000E+00 -0.68882992346E+03  0.68882992348E+03  0.50400001928E-02 0.  1.
    10030    2    1    2    0    0  0.00000000000E+00  0.00000000000E+00 -0.15965579264E+03  0.12180040543E+04  0.12074948879E+04 0.  0.
        5    1    3    3  502    0 -0.25903472937E+03  0.50981994951E+02 -0.62749965339E+03  0.68079076068E+03  0.46999998093E+01 0.  1.
       -5    1    3    3    0  502  0.25903472937E+03 -0.50981994951E+02  0.46784386075E+03  0.53721329365E+03  0.46999998093E+01 0. -1.
</event>
<event>
 5   0  0.9070772E-04  0.1202663E+04  0.7818609E-02  0.9110529E-01
       -2   -1    0    0    0  501  0.00000000000E+00  0.00000000000E+00  0.19698014136E+03  0.19698014137E+03  0.25500000920E-02 0. -1.
        2   -1    0    0  501    0  0.00000000000E+00  0.00000000000E+00 -0.18357149838E+04  0.18357149838E+04  0.25500000920E-02 0.  1.
    10030    2    1    2    0    0  0.00000000000E+00  0.00000000000E+00 -0.16387348425E+04  0.20326951252E+04  0.12026627075E+04 0.  0.
        4    1    3    3  502    0 -0.38950289680E+03  0.14228479787E+03 -0.15553944005E+04  0.16097238348E+04  0.12699999809E+01 0.  1.
       -4    1    3    3    0  502  0.38950289680E+03 -0.14228479787E+03 -0.83340441943E+02  0.42297129038E+03  0.12699999809E+01 0. -1.
</event>
<event>
 5   0  0.5001586E-04  0.1202449E+04  0.7818609E-02  0.9110716E-01
        1   -1    0    0  501    0  0.00000000000E+00  0.00000000000E+00  0.86964799881E+03  0.86964799883E+03  0.50400001928E-02 0. -1.
       -1   -1    0    0    0  501  0.00000000000E+00  0.00000000000E+00 -0.41565199554E+03  0.41565199557E+03  0.50400001928E-02 0.  1.
    10030    2    1    2    0    0  0.00000000000E+00  0.00000000000E+00  0.45399600328E+03  0.12852999944E+04  0.12024490445E+04 0.  0.
        1    1    3    3  502    0 -0.29477107616E+03 -0.25074647098E+03  0.71881731926E+03  0.81637131168E+03  0.50400001928E-02 0. -1.
       -1    1    3    3    0  502  0.29477107616E+03  0.25074647098E+03 -0.26482131598E+03  0.46892868271E+03  0.50400001928E-02 0.  1.
</event>
<event>
 5   0  0.5157631E-04  0.1217415E+04  0.7818609E-02  0.9097748E-01
        1   -1    0    0  501    0  0.00000000000E+00  0.00000000000E+00  0.67948462548E+03  0.67948462550E+03  0.50400001928E-02 0. -1.
       -1   -1    0    0    0  501  0.00000000000E+00  0.00000000000E+00 -0.54530307078E+03  0.54530307080E+03  0.50400001928E-02 0.  1.
    10030    2    1    2    0    0  0.00000000000E+00  0.00000000000E+00  0.13418155470E+03  0.12247876963E+04  0.12174153816E+04 0.  0.
        5    1    3    3  502    0  0.22913026090E+03 -0.73824277137E+02 -0.49535848802E+03  0.55077474706E+03  0.46999998093E+01 0.  1.
       -5    1    3    3    0  502 -0.22913026090E+03  0.73824277137E+02  0.62954004272E+03  0.67401294924E+03  0.46999998093E+01 0. -1.
</event>
<event>
 5   0  0.5001586E-04  0.1197987E+04  0.7818609E-02  0.9114620E-01
        1   -1    0    0  501    0  0.00000000000E+00  0.00000000000E+00  0.10476262635E+04  0.10476262635E+04  0.50400001928E-02 0. -1.
       -1   -1    0    0    0  501  0.00000000000E+00  0.00000000000E+00 -0.34248200435E+03  0.34248200438E+03  0.50400001928E-02 0.  1.
    10030    2    1    2    0    0  0.00000000000E+00  0.00000000000E+00  0.70514425911E+03  0.13901082679E+04  0.11979868823E+04 0.  0.
        1    1    3    3  502    0 -0.18521408090E+03 -0.36599386277E+03 -0.15393627649E+03  0.43812343078E+03  0.50400001928E-02 0.  1.
       -1    1    3    3    0  502  0.18521408090E+03  0.36599386277E+03  0.85908053560E+03  0.95198483708E+03  0.50400001928E-02 0. -1.
</event>
<event>
 5   0  0.5052959E-04  0.1185707E+04  0.7818609E-02  0.9125460E-01
        1   -1    0    0  501    0  0.00000000000E+00  0.00000000000E+00  0.71430475786E+03  0.71430475788E+03  0.50400001928E-02 0. -1.
       -1   -1    0    0    0  501  0.00000000000E+00  0.00000000000E+00 -0.49205211531E+03  0.49205211533E+03  0.50400001928E-02 0.  1.
    10030    2    1    2    0    0  0.00000000000E+00  0.00000000000E+00  0.22225264256E+03  0.12063568732E+04  0.11857068223E+04 0.  0.
        2    1    3    3  502    0  0.14113923703E+03 -0.29804281291E+03  0.61237825984E+03  0.69552637311E+03  0.25500000920E-02 0. -1.
       -2    1    3    3    0  502 -0.14113923703E+03  0.29804281291E+03 -0.39012561729E+03  0.51083050010E+03  0.25500000920E-02 0.  1.
</event>
<event>
 5   0  0.9145224E-04  0.1196792E+04  0.7818609E-02  0.9115669E-01
        2   -1    0    0  501    0  0.00000000000E+00  0.00000000000E+00  0.63417776966E+03  0.63417776966E+03  0.25500000920E-02 0. -1.
       -2   -1    0    0    0  501  0.00000000000E+00  0.00000000000E+00 -0.56463353116E+03  0.56463353117E+03  0.25500000920E-02 0.  1.
    10030    2    1    2    0    0  0.00000000000E+00  0.00000000000E+00  0.69544238495E+02  0.11988113008E+04  0.11967924356E+04 0.  0.
        5    1    3    3  502    0 -0.45032571019E+01 -0.45672281756E+03  0.42199884454E+03  0.62186905872E+03  0.46999998093E+01 0. -1.
       -5    1    3    3    0  502  0.45032571019E+01  0.45672281756E+03 -0.35245460605E+03  0.57694224211E+03  0.46999998093E+01 0.  1.
</event>
<event>
 5   0  0.9070772E-04  0.1200664E+04  0.7818609E-02  0.9112275E-01
        2   -1    0    0  501    0  0.00000000000E+00  0.00000000000E+00  0.78426178257E+03  0.78426178257E+03  0.25500000920E-02 0.  1.
       -2   -1    0    0    0  501  0.00000000000E+00  0.00000000000E+00 -0.45953861251E+03  0.45953861252E+03  0.25500000920E-02 0. -1.
    10030    2    1    2    0    0  0.00000000000E+00  0.00000000000E+00  0.32472317006E+03  0.12438003951E+04  0.12006641019E+04 0.  0.
        4    1    3    3  502    0  0.30887959467E+03 -0.35052575651E+03  0.55289652390E+03  0.72385847306E+03  0.12699999809E+01 0.  1.
       -4    1    3    3    0  502 -0.30887959467E+03  0.35052575651E+03 -0.22817335385E+03  0.51994192203E+03  0.12699999809E+01 0. -1.
</event>
<event>
 5   0  0.5003507E-04  0.1196527E+04  0.7818609E-02  0.9115902E-01
        1   -1    0    0  501    0  0.00000000000E+00  0.00000000000E+00  0.15798553110E+04  0.15798553110E+04  0.50400001928E-02 0.  1.
       -1   -1    0    0    0  501  0.00000000000E+00  0.00000000000E+00 -0.22655183844E+03  0.22655183849E+03  0.50400001928E-02 0. -1.
    10030    2    1    2    0    0  0.00000000000E+00  0.00000000000E+00  0.13533034725E+04  0.18064071495E+04  0.11965268492E+04 0.  0.
        3    1    3    3  502    0 -0.16479366251E+03  0.27063854340E+03  0.14427704995E+04  0.14771556779E+04  0.10100000352E+00 0.  1.
       -3    1    3    3    0  502  0.16479366251E+03 -0.27063854340E+03 -0.89467027002E+02  0.32925147152E+03  0.10100000352E+00 0. -1.
</event>
<event>
 5   0  0.5052959E-04  0.1186190E+04  0.7818609E-02  0.9125031E-01
        1   -1    0    0  501    0  0.00000000000E+00  0.00000000000E+00  0.56681016779E+03  0.56681016781E+03  0.50400001928E-02 0.  1.
       -1   -1    0    0    0  501  0.00000000000E+00  0.00000000000E+00 -0.62059844375E+03  0.62059844377E+03  0.50400001928E-02 0. -1.
    10030    2    1    2    0    0  0.00000000000E+00  0.00000000000E+00 -0.53788275958E+02  0.11874086116E+04  0.11861897117E+04 0.  0.
        2    1    3    3  502    0  0.26083798930E+03 -0.12311430974E+03  0.49187377689E+03  0.57020470212E+03  0.25500000920E-02 0.  1.
       -2    1    3    3    0  502 -0.26083798930E+03  0.12311430974E+03 -0.54566205285E+03  0.61720390946E+03  0.25500000920E-02 0. -1.
</event>
<event>
 5   0  0.9070772E-04  0.1205748E+04  0.7818609E-02  0.9107840E-01
       -2   -1    0    0    0  501  0.00000000000E+00  0.00000000000E+00  0.16312596978E+03  0.16312596980E+03  0.25500000920E-02 0. -1.
        2   -1    0    0  501    0  0.00000000000E+00  0.00000000000E+00 -0.22280774270E+04  0.22280774270E+04  0.25500000920E-02 0.  1.
    10030    2    1    2    0    0  0.00000000000E+00  0.00000000000E+00 -0.20649514572E+04  0.23912033968E+04  0.12057483835E+04 0.  0.
        4    1    3    3  502    0 -0.95788696568E+02  0.18513445820E+02 -0.22123156668E+04  0.22144661760E+04  0.12699999809E+01 0.  1.
       -4    1    3    3    0  502  0.95788696568E+02 -0.18513445820E+02  0.14736420957E+03  0.17673722084E+03  0.12699999809E+01 0. -1.
</event>
<event>
 5   0  0.5001586E-04  0.1201114E+04  0.7818609E-02  0.9111882E-01
       -1   -1    0    0    0  501  0.00000000000E+00  0.00000000000E+00  0.11294590398E+04  0.11294590398E+04  0.50400001928E-02 0.  1.
        1   -1    0    0  501    0  0.00000000000E+00  0.00000000000E+00 -0.31932857209E+03  0.31932857213E+03  0.50400001928E-02 0. -1.
    10030    2    1    2    0    0  0.00000000000E+00  0.00000000000E+00  0.81013046770E+03  0.14487876119E+04  0.12011137206E+04 0.  0.
        1    1    3    3  502    0 -0.29059533825E+03 -0.50113888948E+02  0.10361200857E+04  0.10772659303E+04  0.50400001928E-02 0.  1.
       -1    1    3    3    0  502  0.29059533825E+03  0.50113888948E+02 -0.22598961801E+03  0.37152168167E+03  0.50400001928E-02 0. -1.
</event>
<event>
 5   0  0.9298693E-04  0.1197311E+04  0.7818609E-02  0.9115214E-01
        2   -1    0    0  501    0  0.00000000000E+00  0.00000000000E+00  0.10455692812E+04  0.10455692812E+04  0.25500000920E-02 0. -1.
       -2   -1    0    0    0  501  0.00000000000E+00  0.00000000000E+00 -0.34276863801E+03  0.34276863802E+03  0.25500000920E-02 0.  1.
    10030    2    1    2    0    0  0.00000000000E+00  0.00000000000E+00  0.70280064324E+03  0.13883379193E+04  0.11973109178E+04 0.  0.
        1    1    3    3  502    0 -0.15727560224E+03 -0.23234954386E+03  0.96460917207E+03  0.10045858751E+04  0.50400001928E-02 0. -1.
       -1    1    3    3    0  502  0.15727560224E+03  0.23234954386E+03 -0.26180852884E+03  0.38375204415E+03  0.50400001928E-02 0.  1.
</event>
<event>
 5   0  0.5001586E-04  0.1198985E+04  0.7818609E-02  0.9113746E-01
        1   -1    0    0  501    0  0.00000000000E+00  0.00000000000E+00  0.14904902496E+04  0.14904902496E+04  0.50400001928E-02 0. -1.
       -1   -1    0    0    0  501  0.00000000000E+00  0.00000000000E+00 -0.24112274762E+03  0.24112274768E+03  0.50400001928E-02 0.  1.
    10030    2    1    2    0    0  0.00000000000E+00  0.00000000000E+00  0.12493675020E+04  0.17316129973E+04  0.11989847444E+04 0.  0.
        1    1    3    3  502    0 -0.12624414086E+03 -0.42209692340E+03  0.37522402812E+02  0.44216662762E+03  0.50400001928E-02 0.  1.
       -1    1    3    3    0  502  0.12624414086E+03  0.42209692340E+03  0.12118450992E+04  0.12894463697E+04  0.50400001928E-02 0. -1.
</event>
<event>
 5   0  0.5001586E-04  0.1201732E+04  0.7818609E-02  0.9111342E-01
       -1   -1    0    0    0  501  0.00000000000E+00  0.00000000000E+00  0.78459671926E+03  0.78459671928E+03  0.50400001928E-02 0.  1.
        1   -1    0    0  501    0  0.00000000000E+00  0.00000000000E+00 -0.46015987431E+03  0.46015987434E+03  0.50400001928E-02 0. -1.
    10030    2    1    2    0    0  0.00000000000E+00  0.00000000000E+00  0.32443684496E+03  0.12447565936E+04  0.12017319630E+04 0.  0.
        1    1    3    3  502    0 -0.26189820882E+02 -0.58282233945E+03  0.13292753697E+02  0.58356189338E+03  0.50400001928E-02 0.  1.
       -1    1    3    3    0  502  0.26189820882E+02  0.58282233945E+03  0.31114409126E+03  0.66119470024E+03  0.50400001928E-02 0. -1.
</event>
<event>
 5   0  0.9145224E-04  0.1196393E+04  0.7818609E-02  0.9116020E-01
        2   -1    0    0  501    0  0.00000000000E+00  0.00000000000E+00  0.18652749629E+04  0.18652749629E+04  0.25500000920E-02 0.  1.
       -2   -1    0    0    0  501  0.00000000000E+00  0.00000000000E+00 -0.19184251679E+03  0.19184251680E+03  0.25500000920E-02 0. -1.
    10030    2    1    2    0    0  0.00000000000E+00  0.00000000000E+00  0.16734324461E+04  0.20571174797E+04  0.11963929846E+04 0.  0.
        5    1    3    3  502    0  0.18974864558E+03  0.55648153286E+03  0.64726070787E+03  0.87443968280E+03  0.46999998093E+01 0.  1.
       -5    1    3    3    0  502 -0.18974864558E+03 -0.55648153286E+03  0.10261717383E+04  0.11826777969E+04  0.46999998093E+01 0. -1.
</event>
<event>
 5   0  0.5157631E-04  0.1199831E+04  0.7818609E-02  0.9113005E-01
       -1   -1    0    0    0  501  0.00000000000E+00  0.00000000000E+00  0.83718674630E+03  0.83718674631E+03  0.50400001928E-02 0. -1.
        1   -1    0    0  501    0  0.00000000000E+00  0.00000000000E+00 -0.42989016431E+03  0.42989016434E+03  0.50400001928E-02 0.  1.
    10030    2    1    2    0    0  0.00000000000E+00  0.00000000000E+00  0.40729658199E+03  0.12670769106E+04  0.11998305680E+04 0.  0.
        5    1    3    3  502    0 -0.53437103887E+02 -0.95327509186E+02 -0.41927004566E+03  0.43330395713E+03  0.46999998093E+01 0.  1.
       -5    1    3    3    0  502  0.53437103887E+02  0.95327509186E+02  0.82656662765E+03  0.83377295352E+03  0.46999998093E+01 0. -1.
</event>
<event>
 5   0  0.9050363E-04  0.1201181E+04  0.7818609E-02  0.9111824E-01
       -2   -1    0    0    0  501  0.00000000000E+00  0.00000000000E+00  0.45856983829E+03  0.45856983830E+03  0.25500000920E-02 0. -1.
        2   -1    0    0  501    0  0.00000000000E+00  0.00000000000E+00 -0.78659513901E+03  0.78659513901E+03  0.25500000920E-02 0.  1.
    10030    2    1    2    0    0  0.00000000000E+00  0.00000000000E+00 -0.32802530071E+03  0.12451649773E+04  0.12011807619E+04 0.  0.
        3    1    3    3  502    0 -0.23122203949E+03  0.53736223996E+03 -0.30495827449E+03  0.65971309511E+03  0.10100000352E+00 0. -1.
       -3    1    3    3    0  502  0.23122203949E+03 -0.53736223996E+03 -0.23067026223E+02  0.58545188221E+03  0.10100000352E+00 0.  1.
</event>
<event>
 5   0  0.9070772E-04  0.1202009E+04  0.7818609E-02  0.9111100E-01
        2   -1    0    0  501    0  0.00000000000E+00  0.00000000000E+00  0.10988211117E+04  0.10988211117E+04  0.25500000920E-02 0. -1.
       -2   -1    0    0    0  501  0.00000000000E+00  0.00000000000E+00 -0.32872182190E+03  0.32872182191E+03  0.25500000920E-02 0.  1.
    10030    2    1    2    0    0  0.00000000000E+00  0.00000000000E+00  0.77009928978E+03  0.14275429336E+04  0.12020091144E+04 0.  0.
        4    1    3    3  502    0 -0.56982466041E+03 -0.10738700905E+03  0.19737110494E+03  0.61252679883E+03  0.12699999809E+01 0. -1.
       -4    1    3    3    0  502  0.56982466041E+03  0.10738700905E+03  0.57272818484E+03  0.81501613477E+03  0.12699999809E+01 0.  1.
</event>
<event>
 5   0  0.9050363E-04  0.1199724E+04  0.7818609E-02  0.9113098E-01
       -2   -1    0    0    0  501  0.00000000000E+00  0.00000000000E+00  0.40703484083E+03  0.40703484083E+03  0.25500000920E-02 0. -1.
        2   -1    0    0  501    0  0.00000000000E+00  0.00000000000E+00 -0.88403871424E+03  0.88403871424E+03  0.25500000920E-02 0.  1.
    10030    2    1    2    0    0  0.00000000000E+00  0.00000000000E+00 -0.47700387341E+03  0.12910735551E+04  0.11997242305E+04 0.  0.
        3    1    3    3  502    0  0.54544121268E+03 -0.78460615895E+01 -0.50703518970E+03  0.74474987141E+03  0.10100000352E+00 0.  1.
       -3    1    3    3    0  502 -0.54544121268E+03  0.78460615895E+01  0.30031316283E+02  0.54632368367E+03  0.10100000352E+00 0. -1.
</event>
<event>
 5   0  0.9298693E-04  0.1201492E+04  0.7818609E-02  0.9111551E-01
       -2   -1    0    0    0  501  0.00000000000E+00  0.00000000000E+00  0.15551525625E+03  0.15551525627E+03  0.25500000920E-02 0.  1.
        2   -1    0    0  501    0  0.00000000000E+00  0.00000000000E+00 -0.23206458719E+04  0.23206458719E+04  0.25500000920E-02 0. -1.
    10030    2    1    2    0    0  0.00000000000E+00  0.00000000000E+00 -0.21651306157E+04  0.24761611282E+04  0.12014921348E+04 0.  0.
        1    1    3    3  502    0  0.52486229883E+03  0.16576948637E+03 -0.58650808075E+03  0.80433306792E+03  0.50400001928E-02 0.  1.
       -1    1    3    3    0  502 -0.52486229883E+03 -0.16576948637E+03 -0.15786225349E+04  0.16718280603E+04  0.50400001928E-02 0. -1.
</event>
<event>
 5   0  0.5052959E-04  0.1198342E+04  0.7818609E-02  0.9114309E-01
        1   -1    0    0  501    0  0.00000000000E+00  0.00000000000E+00  0.10762164828E+04  0.10762164828E+04  0.50400001928E-02 0. -1.
       -1   -1    0    0    0  501  0.00000000000E+00  0.00000000000E+00 -0.33358152722E+03  0.33358152726E+03  0.50400001928E-02 0.  1.
    10030    2    1    2    0    0  0.00000000000E+00  0.00000000000E+00  0.74263495561E+03  0.14097980101E+04  0.11983420847E+04 0.  0.
        2    1    3    3  502    0  0.19555922210E+03 -0.24800672927E+03  0.97033539393E+03  0.10204418278E+04  0.25500000920E-02 0. -1.
       -2    1    3    3    0  502 -0.19555922210E+03  0.24800672927E+03 -0.22770043832E+03  0.38935618234E+03  0.25500000920E-02 0.  1.
</event>
<event>
 5   0  0.5447074E-04  0.1203691E+04  0.7818609E-02  0.9109632E-01
        1   -1    0    0  501    0  0.00000000000E+00  0.00000000000E+00  0.36344493720E+03  0.36344493723E+03  0.50400001928E-02 0.  1.
       -1   -1    0    0    0  501  0.00000000000E+00  0.00000000000E+00 -0.99662464119E+03  0.99662464120E+03  0.50400001928E-02 0. -1.
    10030    2    1    2    0    0  0.00000000000E+00  0.00000000000E+00 -0.63317970399E+03  0.13600695784E+04  0.12036912896E+04 0.  0.
        4    1    3    3  502    0  0.97282978860E+02 -0.42213418313E+03 -0.78866653969E+03  0.89980985229E+03  0.12699999809E+01 0. -1.
       -4    1    3    3    0  502 -0.97282978860E+02  0.42213418313E+03  0.15548683570E+03  0.46025972615E+03  0.12699999809E+01 0.  1.
</event>
<event>
 5   0  0.9145224E-04  0.1184766E+04  0.7818609E-02  0.9126296E-01
        2   -1    0    0  501    0  0.00000000000E+00  0.00000000000E+00  0.10655131002E+04  0.10655131002E+04  0.25500000920E-02 0.  1.
       -2   -1    0    0    0  501  0.00000000000E+00  0.00000000000E+00 -0.32934141601E+03  0.32934141602E+03  0.25500000920E-02 0. -1.
    10030    2    1    2    0    0  0.00000000000E+00  0.00000000000E+00  0.73617168419E+03  0.13948545162E+04  0.11847659570E+04 0.  0.
        5    1    3    3  502    0 -0.51263016725E+01 -0.38337775445E+03 -0.16352652766E+03  0.41685464711E+03  0.46999998093E+01 0. -1.
       -5    1    3    3    0  502  0.51263016725E+01  0.38337775445E+03  0.89969821185E+03  0.97799986911E+03  0.46999998093E+01 0.  1.
</event>
<event>
 5   0  0.5001586E-04  0.1205759E+04  0.7818609E-02  0.9107830E-01
        1   -1    0    0  501    0  0.00000000000E+00  0.00000000000E+00  0.63648027466E+03  0.63648027468E+03  0.50400001928E-02 0. -1.
       -1   -1    0    0    0  501  0.00000000000E+00  0.00000000000E+00 -0.57105295474E+03  0.57105295476E+03  0.50400001928E-02 0.  1.
    10030    2    1    2    0    0  0.00000000000E+00  0.00000000000E+00  0.65427319923E+02  0.12075332294E+04  0.12057594147E+04 0.  0.
        1    1    3    3  502    0 -0.51010454922E+03 -0.29750599918E+03  0.15433147633E+03  0.61035618724E+03  0.50400001928E-02 0. -1.
       -1    1    3    3    0  502  0.51010454922E+03  0.29750599918E+03 -0.88904156406E+02  0.59717704221E+03  0.50400001928E-02 0.  1.
</event>
<event>
 5   0  0.5447074E-04  0.1199242E+04  0.7818609E-02  0.9113520E-01
        1   -1    0    0  501    0  0.00000000000E+00  0.00000000000E+00  0.73932061683E+03  0.73932061685E+03  0.50400001928E-02 0. -1.
       -1   -1    0    0    0  501  0.00000000000E+00  0.00000000000E+00 -0.48631893276E+03  0.48631893279E+03  0.50400001928E-02 0.  1.
    10030    2    1    2    0    0  0.00000000000E+00  0.00000000000E+00  0.25300168407E+03  0.12256395496E+04  0.11992424498E+04 0.  0.
        4    1    3    3  502    0 -0.17875814856E+03 -0.57135856770E+03  0.92010234745E+02  0.60570007822E+03  0.12699999809E+01 0. -1.
       -4    1    3    3    0  502  0.17875814856E+03  0.57135856770E+03  0.16099144932E+03  0.61993947141E+03  0.12699999809E+01 0.  1.
</event>
<event>
 5   0  0.5157631E-04  0.1200458E+04  0.7818609E-02  0.9112456E-01
       -1   -1    0    0    0  501  0.00000000000E+00  0.00000000000E+00  0.43434288059E+03  0.43434288062E+03  0.50400001928E-02 0.  1.
        1   -1    0    0  501    0  0.00000000000E+00  0.00000000000E+00 -0.82947044213E+03  0.82947044214E+03  0.50400001928E-02 0. -1.
    10030    2    1    2    0    0  0.00000000000E+00  0.00000000000E+00 -0.39512756154E+03  0.12638133228E+04  0.12004575481E+04 0.  0.
        5    1    3    3  502    0  0.21695449281E+03 -0.55646989480E+03 -0.26006444029E+03  0.65144731089E+03  0.46999998093E+01 0.  1.
       -5    1    3    3    0  502 -0.21695449281E+03  0.55646989480E+03 -0.13506312125E+03  0.61236601187E+03  0.46999998093E+01 0. -1.
</event>
<event>
 5   0  0.9070772E-04  0.1198273E+04  0.7818609E-02  0.9114370E-01
       -2   -1    0    0    0  501  0.00000000000E+00  0.00000000000E+00  0.29584096810E+03  0.29584096811E+03  0.25500000920E-02 0. -1.
        2   -1    0    0  501    0  0.00000000000E+00  0.00000000000E+00 -0.12133695617E+04  0.12133695617E+04  0.25500000920E-02 0.  1.
    10030    2    1    2    0    0  0.00000000000E+00  0.00000000000E+00 -0.91752859362E+03  0.15092105298E+04  0.11982728000E+04 0.  0.
        4    1    3    3  502    0 -0.38467383869E+03 -0.45007502795E+03 -0.57434470117E+03  0.82487268206E+03  0.12699999809E+01 0.  1.
       -4    1    3    3    0  502  0.38467383869E+03  0.45007502795E+03 -0.34318389245E+03  0.68433784777E+03  0.12699999809E+01 0. -1.
</event>
<event>
 5   0  0.5001586E-04  0.1197246E+04  0.7818609E-02  0.9115270E-01
        1   -1    0    0  501    0  0.00000000000E+00  0.00000000000E+00  0.18111996696E+04  0.18111996696E+04  0.50400001928E-02 0.  1.
       -1   -1    0    0    0  501  0.00000000000E+00  0.00000000000E+00 -0.19785212519E+03  0.19785212526E+03  0.50400001928E-02 0. -1.
    10030    2    1    2    0    0  0.00000000000E+00  0.00000000000E+00  0.16133475444E+04  0.20090517949E+04  0.11972463470E+04 0.  0.
        1    1    3    3  502    0  0.59580022701E+03  0.19956097610E+02  0.71516872449E+03  0.93104374808E+03  0.50400001928E-02 0.  1.
       -1    1    3    3    0  502 -0.59580022701E+03 -0.19956097610E+02  0.89817881992E+03  0.10780080468E+04  0.50400001928E-02 0. -1.
</event>
<event>
 5   0  0.9410666E-04  0.1197766E+04  0.7818609E-02  0.9114814E-01
       -2   -1    0    0    0  501  0.00000000000E+00  0.00000000000E+00  0.18543649131E+03  0.18543649133E+03  0.25500000920E-02 0.  1.
        2   -1    0    0  501    0  0.00000000000E+00  0.00000000000E+00 -0.19341444736E+04  0.19341444736E+04  0.25500000920E-02 0. -1.
    10030    2    1    2    0    0  0.00000000000E+00  0.00000000000E+00 -0.17487079822E+04  0.21195809649E+04  0.11977661957E+04 0.  0.
        2    1    3    3  502    0  0.39412523150E+03  0.24145403055E+03 -0.15482629337E+04  0.16157824293E+04  0.25500000920E-02 0. -1.
       -2    1    3    3    0  502 -0.39412523150E+03 -0.24145403055E+03 -0.20044504856E+03  0.50379853560E+03  0.25500000920E-02 0.  1.
</event>
<event>
 5   0  0.9145224E-04  0.1217928E+04  0.7818609E-02  0.9097307E-01
        2   -1    0    0  501    0  0.00000000000E+00  0.00000000000E+00  0.12919124767E+04  0.12919124767E+04  0.25500000920E-02 0.  1.
       -2   -1    0    0    0  501  0.00000000000E+00  0.00000000000E+00 -0.28704513483E+03  0.28704513484E+03  0.25500000920E-02 0. -1.
    10030    2    1    2    0    0  0.00000000000E+00  0.00000000000E+00  0.10048673418E+04  0.15789576115E+04  0.12179280620E+04 0.  0.
        5    1    3    3  502    0  0.10066116027E+03  0.57301520338E+03  0.26930695824E+03  0.64111420219E+03  0.46999998093E+01 0. -1.
       -5    1    3    3    0  502 -0.10066116027E+03 -0.57301520338E+03  0.73556038360E+03  0.93784340932E+03  0.46999998093E+01 0.  1.
</event>
<event>
 5   0  0.5003507E-04  0.1204868E+04  0.7818609E-02  0.9108606E-01
       -1   -1    0    0    0  501  0.00000000000E+00  0.00000000000E+00  0.34534990413E+03  0.34534990417E+03  0.50400001928E-02 0.  1.
        1   -1    0    0  501    0  0.00000000000E+00  0.00000000000E+00 -0.10508964426E+04  0.10508964426E+04  0.50400001928E-02 0. -1.
    10030    2    1    2    0    0  0.00000000000E+00  0.00000000000E+00 -0.70554653849E+03  0.13962463468E+04  0.12048684339E+04 0.  0.
        3    1    3    3  502    0 -0.22286237087E+03  0.28395111888E+03  0.20615530356E+03  0.41568725462E+03  0.10100000352E+00 0.  1.
       -3    1    3    3    0  502  0.22286237087E+03 -0.28395111888E+03 -0.91170184205E+03  0.98055909219E+03  0.10100000352E+00 0. -1.
</event>
<event>
 5   0  0.3453625E-04  0.1194299E+04  0.7818609E-02  0.9117861E-01
       -3   -1    0    0    0  501  0.00000000000E+00  0.00000000000E+00  0.96396398857E+03  0.96396399386E+03  0.10100000352E+00 0.  1.
        3   -1    0    0  501    0  0.00000000000E+00  0.00000000000E+00 -0.36991814005E+03  0.36991815384E+03  0.10100000352E+00 0. -1.
    10030    2    1    2    0    0  0.00000000000E+00  0.00000000000E+00  0.59404584852E+03  0.13338821477E+04  0.11942994239E+04 0.  0.
        5    1    3    3  502    0 -0.32445035583E+02  0.55910119405E+03  0.52840426916E+03  0.76998700456E+03  0.46999998093E+01 0.  1.
       -5    1    3    3    0  502  0.32445035583E+02 -0.55910119405E+03  0.65641579360E+02  0.56389514314E+03  0.46999998093E+01 0. -1.
</event>
<event>
 5   0  0.5157631E-04  0.1176439E+04  0.7818609E-02  0.9133733E-01
        1   -1    0    0  501    0  0.00000000000E+00  0.00000000000E+00  0.48182345941E+03  0.48182345944E+03  0.50400001928E-02 0.  1.
       -1   -1    0    0    0  501  0.00000000000E+00  0.00000000000E+00 -0.71811027343E+03  0.71811027345E+03  0.50400001928E-02 0. -1.
    10030    2    1    2    0    0  0.00000000000E+00  0.00000000000E+00 -0.23628681402E+03  0.11999337329E+04  0.11764393333E+04 0.  0.
        5    1    3    3  502    0 -0.30868670195E+03 -0.20453454575E+03  0.34799375357E+03  0.50817674375E+03  0.46999998093E+01 0.  1.
       -5    1    3    3    0  502  0.30868670195E+03  0.20453454575E+03 -0.58428056759E+03  0.69175698914E+03  0.46999998093E+01 0. -1.
</event>
<event>
 5   0  0.9410666E-04  0.1198446E+04  0.7818609E-02  0.9114218E-01
       -2   -1    0    0    0  501  0.00000000000E+00  0.00000000000E+00  0.57610521927E+03  0.57610521927E+03  0.25500000920E-02 0.  1.
        2   -1    0    0  501    0  0.00000000000E+00  0.00000000000E+00 -0.62326807462E+03  0.62326807462E+03  0.25500000920E-02 0. -1.
    10030    2    1    2    0    0  0.00000000000E+00  0.00000000000E+00 -0.47162855353E+02  0.11993732939E+04  0.11984456447E+04 0.  0.
        2    1    3    3  502    0 -0.25420998491E+03 -0.22964485639E+03  0.46843772337E+03  0.58033901917E+03  0.25500000920E-02 0.  1.
       -2    1    3    3    0  502  0.25420998491E+03  0.22964485639E+03 -0.51560057872E+03  0.61903427472E+03  0.25500000920E-02 0. -1.
</event>
<event>
 5   0  0.5447074E-04  0.1199696E+04  0.7818609E-02  0.9113123E-01
       -1   -1    0    0    0  501  0.00000000000E+00  0.00000000000E+00  0.30217914830E+03  0.30217914834E+03  0.50400001928E-02 0. -1.
        1   -1    0    0  501    0  0.00000000000E+00  0.00000000000E+00 -0.11907422889E+04  0.11907422889E+04  0.50400001928E-02 0.  1.
    10030    2    1    2    0    0  0.00000000000E+00  0.00000000000E+00 -0.88856314063E+03  0.14929214373E+04  0.11996957794E+04 0.  0.
        4    1    3    3  502    0  0.23925730198E+03  0.43194264056E+03 -0.86810982608E+03  0.99871656856E+03  0.12699999809E+01 0.  1.
       -4    1    3    3    0  502 -0.23925730198E+03 -0.43194264056E+03 -0.20453314547E+02  0.49420486872E+03  0.12699999809E+01 0. -1.
</event>
<event>
 5   0  0.9050363E-04  0.1196873E+04  0.7818609E-02  0.9115598E-01
       -2   -1    0    0    0  501  0.00000000000E+00  0.00000000000E+00  0.56101913422E+03  0.56101913423E+03  0.25500000920E-02 0.  1.
        2   -1    0    0  501    0  0.00000000000E+00  0.00000000000E+00 -0.63834896732E+03  0.63834896733E+03  0.25500000920E-02 0. -1.
    10030    2    1    2    0    0  0.00000000000E+00  0.00000000000E+00 -0.77329833103E+02  0.11993681016E+04  0.11968725663E+04 0.  0.
        3    1    3    3  502    0  0.21883257234E+03 -0.55248544837E+03 -0.10950963210E+03  0.60425179776E+03  0.10100000352E+00 0.  1.
       -3    1    3    3    0  502 -0.21883257234E+03  0.55248544837E+03  0.32179798993E+02  0.59511630379E+03  0.10100000352E+00 0. -1.
</event>
<event>
 5   0  0.9145224E-04  0.1217375E+04  0.7818609E-02  0.9097782E-01
        2   -1    0    0  501    0  0.00000000000E+00  0.00000000000E+00  0.12505858173E+04  0.12505858173E+04  0.25500000920E-02 0.  1.
       -2   -1    0    0    0  501  0.00000000000E+00  0.00000000000E+00 -0.29626170338E+03  0.29626170340E+03  0.25500000920E-02 0. -1.
    10030    2    1    2    0    0  0.00000000000E+00  0.00000000000E+00  0.95432411389E+03  0.15468475207E+04  0.12173753480E+04 0.  0.
        5    1    3    3  502    0  0.62072089990E+02 -0.24336249867E+02 -0.29158480998E+03  0.29914710231E+03  0.46999998093E+01 0. -1.
       -5    1    3    3    0  502 -0.62072089990E+02  0.24336249867E+02  0.12459089239E+04  0.12477004184E+04  0.46999998093E+01 0.  1.
</event>
<event>
 5   0  0.9298693E-04  0.1208540E+04  0.7818609E-02  0.9105415E-01
       -2   -1    0    0    0  501  0.00000000000E+00  0.00000000000E+00  0.27240245158E+03  0.27240245159E+03  0.25500000920E-02 0.  1.
        2   -1    0    0  501    0  0.00000000000E+00  0.00000000000E+00 -0.13404503397E+04  0.13404503397E+04  0.25500000920E-02 0. -1.
    10030    2    1    2    0    0  0.00000000000E+00  0.00000000000E+00 -0.10680478882E+04  0.16128527913E+04  0.12085395463E+04 0.  0.
        1    1    3    3  502    0  0.20078739946E+00 -0.51587436055E+03 -0.11408553978E+03  0.52833881800E+03  0.50400001928E-02 0.  1.
       -1    1    3    3    0  502 -0.20078739946E+00  0.51587436055E+03 -0.95396234839E+03  0.10845139733E+04  0.50400001928E-02 0. -1.
</event>
<event>
 5   0  0.5447074E-04  0.1200330E+04  0.7818609E-02  0.9112568E-01
       -1   -1    0    0    0  501  0.00000000000E+00  0.00000000000E+00  0.27163909855E+03  0.27163909860E+03  0.50400001928E-02 0. -1.
        1   -1    0    0  501    0  0.00000000000E+00  0.00000000000E+00 -0.13260161957E+04  0.13260161958E+04  0.50400001928E-02 0.  1.
    10030    2    1    2    0    0  0.00000000000E+00  0.00000000000E+00 -0.10543770972E+04  0.15976552944E+04  0.12003296949E+04 0.  0.
        4    1    3    3  502    0 -0.38856397494E+03  0.32536308052E+03 -0.99286506783E+02  0.51643249328E+03  0.12699999809E+01 0. -1.
       -4    1    3    3    0  502  0.38856397494E+03 -0.32536308052E+03 -0.95509059040E+03  0.10812228011E+04  0.12699999809E+01 0.  1.
</event>
<event>
 5   0  0.9298693E-04  0.1199192E+04  0.7818609E-02  0.9113564E-01
       -2   -1    0    0    0  501  0.00000000000E+00  0.00000000000E+00  0.17997999143E+03  0.17997999145E+03  0.25500000920E-02 0.  1.
        2   -1    0    0  501    0  0.00000000000E+00  0.00000000000E+00 -0.19975300391E+04  0.19975300391E+04  0.25500000920E-02 0. -1.
    10030    2    1    2    0    0  0.00000000000E+00  0.00000000000E+00 -0.18175500476E+04  0.21775100305E+04  0.11991921270E+04 0.  0.
        1    1    3    3  502    0  0.13879901754E+03  0.23260630826E+03 -0.18800991045E+04  0.18995113858E+04  0.50400001928E-02 0. -1.
       -1    1    3    3    0  502 -0.13879901754E+03 -0.23260630826E+03  0.62549056907E+02  0.27799864471E+03  0.50400001928E-02 0.  1.
</event>
<event>
 5   0  0.5001586E-04  0.1205825E+04  0.7818609E-02  0.9107773E-01
        1   -1    0    0  501    0  0.00000000000E+00  0.00000000000E+00  0.64551447145E+03  0.64551447147E+03  0.50400001928E-02 0.  1.
       -1   -1    0    0    0  501  0.00000000000E+00  0.00000000000E+00 -0.56312225095E+03  0.56312225098E+03  0.50400001928E-02 0. -1.
    10030    2    1    2    0    0  0.00000000000E+00  0.00000000000E+00  0.82392220497E+02  0.12086367224E+04  0.12058251320E+04 0.  0.
        1    1    3    3  502    0 -0.39025642140E+03  0.42007551184E+03  0.22801753805E+03  0.61705389374E+03  0.50400001928E-02 0.  1.
       -1    1    3    3    0  502  0.39025642140E+03 -0.42007551184E+03 -0.14562531755E+03  0.59158282871E+03  0.50400001928E-02 0. -1.
</event>
<event>
 5   0  0.9070772E-04  0.1194629E+04  0.7818609E-02  0.9117571E-01
        2   -1    0    0  501    0  0.00000000000E+00  0.00000000000E+00  0.11085590298E+04  0.11085590298E+04  0.25500000920E-02 0.  1.
       -2   -1    0    0    0  501  0.00000000000E+00  0.00000000000E+00 -0.32184539666E+03  0.32184539667E+03  0.25500000920E-02 0. -1.
    10030    2    1    2    0    0  0.00000000000E+00  0.00000000000E+00  0.78671363312E+03  0.14304044265E+04  0.11946290147E+04 0.  0.
        4    1    3    3  502    0 -0.90280225839E+02 -0.22526878343E+03  0.10468652123E+04  0.10746278098E+04  0.12699999809E+01 0.  1.
       -4    1    3    3    0  502  0.90280225839E+02  0.22526878343E+03 -0.26015157913E+03  0.35577661670E+03  0.12699999809E+01 0. -1.
</event>
<event>
 5   0  0.5001586E-04  0.1198940E+04  0.7818609E-02  0.9113785E-01
       -1   -1    0    0    0  501  0.00000000000E+00  0.00000000000E+00  0.52904970177E+03  0.52904970180E+03  0.50400001928E-02 0.  1.
        1   -1    0    0  501    0  0.00000000000E+00  0.00000000000E+00 -0.67926391102E+03  0.67926391104E+03  0.50400001928E-02 0. -1.
    10030    2    1    2    0    0  0.00000000000E+00  0.00000000000E+00 -0.15021420925E+03  0.12083136128E+04  0.11989401479E+04 0.  0.
        1    1    3    3  502    0  0.37617570663E+03 -0.14664515464E+03  0.37147279585E+03  0.54863922729E+03  0.50400001928E-02 0.  1.
       -1    1    3    3    0  502 -0.37617570663E+03  0.14664515464E+03 -0.52168700510E+03  0.65967438555E+03  0.50400001928E-02 0. -1.
</event>
<event>
 5   0  0.9145224E-04  0.1204171E+04  0.7818609E-02  0.9109213E-01
        2   -1    0    0  501    0  0.00000000000E+00  0.00000000000E+00  0.62086650244E+03  0.62086650244E+03  0.25500000920E-02 0.  1.
       -2   -1    0    0    0  501  0.00000000000E+00  0.00000000000E+00 -0.58387275940E+03  0.58387275941E+03  0.25500000920E-02 0. -1.
    10030    2    1    2    0    0  0.00000000000E+00  0.00000000000E+00  0.36993743032E+02  0.12047392619E+04  0.12041711473E+04 0.  0.
        5    1    3    3  502    0 -0.54906346781E+03  0.15197652731E+03  0.21331262529E+03  0.60835180828E+03  0.46999998093E+01 0.  1.
       -5    1    3    3    0  502  0.54906346781E+03 -0.15197652731E+03 -0.17631888226E+03  0.59638745357E+03  0.46999998093E+01 0. -1.
</event>
<event>
 5   0  0.9145224E-04  0.1200282E+04  0.7818609E-02  0.9112610E-01
       -2   -1    0    0    0  501  0.00000000000E+00  0.00000000000E+00  0.14983855692E+03  0.14983855694E+03  0.25500000920E-02 0.  1.
        2   -1    0    0  501    0  0.00000000000E+00  0.00000000000E+00 -0.24037143420E+04  0.24037143420E+04  0.25500000920E-02 0. -1.
    10030    2    1    2    0    0  0.00000000000E+00  0.00000000000E+00 -0.22538757851E+04  0.25535528990E+04  0.12002817807E+04 0.  0.
        5    1    3    3  502    0 -0.49929905589E+03  0.67957793014E+02 -0.18203374801E+04  0.18888007943E+04  0.46999998093E+01 0. -1.
       -5    1    3    3    0  502  0.49929905589E+03 -0.67957793014E+02 -0.43353830499E+03  0.66475210472E+03  0.46999998093E+01 0.  1.
</event>
<event>
 5   0  0.9410666E-04  0.1199194E+04  0.7818609E-02  0.9113562E-01
        2   -1    0    0  501    0  0.00000000000E+00  0.00000000000E+00  0.12217778126E+04  0.12217778126E+04  0.25500000920E-02 0.  1.
       -2   -1    0    0    0  501  0.00000000000E+00  0.00000000000E+00 -0.29425699508E+03  0.29425699509E+03  0.25500000920E-02 0. -1.
    10030    2    1    2    0    0  0.00000000000E+00  0.00000000000E+00  0.92752081751E+03  0.15160348077E+04  0.11991941758E+04 0.  0.
        2    1    3    3  502    0  0.36668386052E+03 -0.10739395948E+02  0.10633542162E+04  0.11248531358E+04  0.25500000920E-02 0.  1.
       -2    1    3    3    0  502 -0.36668386052E+03  0.10739395948E+02 -0.13583339864E+03  0.39118167184E+03  0.25500000920E-02 0. -1.
</event>
<event>
 5   0  0.9410666E-04  0.1199699E+04  0.7818609E-02  0.9113120E-01
        2   -1    0    0  501    0  0.00000000000E+00  0.00000000000E+00  0.11437770598E+04  0.11437770598E+04  0.25500000920E-02 0. -1.
       -2   -1    0    0    0  501  0.00000000000E+00  0.00000000000E+00 -0.31458883289E+03  0.31458883290E+03  0.25500000920E-02 0.  1.
    10030    2    1    2    0    0  0.00000000000E+00  0.00000000000E+00  0.82918822692E+03  0.14583658927E+04  0.11996991128E+04 0.  0.
        2    1    3    3  502    0  0.35165088236E+03 -0.48548184912E+03  0.38828180805E+03  0.71422246629E+03  0.25500000920E-02 0.  1.
       -2    1    3    3    0  502 -0.35165088236E+03  0.48548184912E+03  0.44090641888E+03  0.74414342643E+03  0.25500000920E-02 0. -1.
</event>
<event>
 5   0  0.9298693E-04  0.1200514E+04  0.7818609E-02  0.9112407E-01
        2   -1    0    0  501    0  0.00000000000E+00  0.00000000000E+00  0.12814631772E+04  0.12814631773E+04  0.25500000920E-02 0.  1.
       -2   -1    0    0    0  501  0.00000000000E+00  0.00000000000E+00 -0.28116945171E+03  0.28116945172E+03  0.25500000920E-02 0. -1.
    10030    2    1    2    0    0  0.00000000000E+00  0.00000000000E+00  0.10002937255E+04  0.15626326290E+04  0.12005137216E+04 0.  0.
        1    1    3    3  502    0 -0.48359207499E+03 -0.35553552481E+03  0.49176220876E+03  0.77594901533E+03  0.50400001928E-02 0.  1.
       -1    1    3    3    0  502  0.48359207499E+03  0.35553552481E+03  0.50853151677E+03  0.78668361364E+03  0.50400001928E-02 0. -1.
</event>
<event>
 5   0  0.5003507E-04  0.1196404E+04  0.7818609E-02  0.9116010E-01
       -1   -1    0    0    0  501  0.00000000000E+00  0.00000000000E+00  0.40728609293E+03  0.40728609296E+03  0.50400001928E-02 0.  1.
        1   -1    0    0  501    0  0.00000000000E+00  0.00000000000E+00 -0.87861015891E+03  0.87861015892E+03  0.50400001928E-02 0. -1.
    10030    2    1    2    0    0  0.00000000000E+00  0.00000000000E+00 -0.47132406598E+03  0.12858962519E+04  0.11964041104E+04 0.  0.
        3    1    3    3  502    0 -0.22708542327E+02  0.40004878600E+03  0.24173712488E+03  0.46796533720E+03  0.10100000352E+00 0.  1.
       -3    1    3    3    0  502  0.22708542327E+02 -0.40004878600E+03 -0.71306119086E+03  0.81793091468E+03  0.10100000352E+00 0. -1.
</event>
<event>
 5   0  0.5003507E-04  0.1201706E+04  0.7818609E-02  0.9111364E-01
        1   -1    0    0  501    0  0.00000000000E+00  0.00000000000E+00  0.75705470952E+03  0.75705470954E+03  0.50400001928E-02 0.  1.
       -1   -1    0    0    0  501  0.00000000000E+00  0.00000000000E+00 -0.47688046817E+03  0.47688046820E+03  0.50400001928E-02 0. -1.
    10030    2    1    2    0    0  0.00000000000E+00  0.00000000000E+00  0.28017424135E+03  0.12339351777E+04  0.12017064606E+04 0.  0.
        3    1    3    3  502    0  0.12883813310E+03  0.39315083141E+03 -0.30732538426E+03  0.51537922231E+03  0.10100000352E+00 0. -1.
       -3    1    3    3    0  502 -0.12883813310E+03 -0.39315083141E+03  0.58749962561E+03  0.71855595542E+03  0.10100000352E+00 0.  1.
</event>
<event>
 5   0  0.3453625E-04  0.1206485E+04  0.7818609E-02  0.9107199E-01
       -3   -1    0    0    0  501  0.00000000000E+00  0.00000000000E+00  0.52930359868E+03  0.52930360832E+03  0.10100000352E+00 0. -1.
        3   -1    0    0  501    0  0.00000000000E+00  0.00000000000E+00 -0.68751025925E+03  0.68751026667E+03  0.10100000352E+00 0.  1.
    10030    2    1    2    0    0  0.00000000000E+00  0.00000000000E+00 -0.15820666057E+03  0.12168138750E+04  0.12064852502E+04 0.  0.
        3    1    3    3  502    0  0.44820064870E+03 -0.27942433222E+03  0.21483616671E+03  0.57018976461E+03  0.10100000352E+00 0. -1.
       -3    1    3    3    0  502 -0.44820064870E+03  0.27942433222E+03 -0.37304282729E+03  0.64662411038E+03  0.10100000352E+00 0.  1.
</event>
<event>
 5   0  0.9050363E-04  0.1221221E+04  0.7818609E-02  0.9094482E-01
       -2   -1    0    0    0  501  0.00000000000E+00  0.00000000000E+00  0.74579897986E+03  0.74579897986E+03  0.25500000920E-02 0. -1.
        2   -1    0    0  501    0  0.00000000000E+00  0.00000000000E+00 -0.49992712862E+03  0.49992712863E+03  0.25500000920E-02 0.  1.
    10030    2    1    2    0    0  0.00000000000E+00  0.00000000000E+00  0.24587185124E+03  0.12457261085E+04  0.12212209342E+04 0.  0.
        3    1    3    3  502    0  0.13365567877E+03 -0.27498771209E+03 -0.41621804525E+03  0.51644898456E+03  0.10100000352E+00 0.  1.
       -3    1    3    3    0  502 -0.13365567877E+03  0.27498771209E+03  0.66208989648E+03  0.72927712393E+03  0.10100000352E+00 0. -1.
</event>
<event>
 5   0  0.5001586E-04  0.1174664E+04  0.7818609E-02  0.9135327E-01
        1   -1    0    0  501    0  0.00000000000E+00  0.00000000000E+00  0.42212370062E+03  0.42212370065E+03  0.50400001928E-02 0. -1.
       -1   -1    0    0    0  501  0.00000000000E+00  0.00000000000E+00 -0.81719830005E+03  0.81719830007E+03  0.50400001928E-02 0.  1.
    10030    2    1    2    0    0  0.00000000000E+00  0.00000000000E+00 -0.39507459943E+03  0.12393220007E+04  0.11746638167E+04 0.  0.
        1    1    3    3  502    0  0.18846858033E+03 -0.47883543627E+03  0.10116313150E+03  0.52444042560E+03  0.50400001928E-02 0. -1.
       -1    1    3    3    0  502 -0.18846858033E+03  0.47883543627E+03 -0.49623773094E+03  0.71488157511E+03  0.50400001928E-02 0.  1.
</event>
<event>
 5   0  0.9410666E-04  0.1231807E+04  0.7818609E-02  0.9085463E-01
        2   -1    0    0  501    0  0.00000000000E+00  0.00000000000E+00  0.21107727917E+04  0.21107727917E+04  0.25500000920E-02 0.  1.
       -2   -1    0    0    0  501  0.00000000000E+00  0.00000000000E+00 -0.17971479387E+03  0.17971479389E+03  0.25500000920E-02 0. -1.
    10030    2    1    2    0    0  0.00000000000E+00  0.00000000000E+00  0.19310579978E+04  0.22904875856E+04  0.12318069608E+04 0.  0.
        2    1    3    3  502    0  0.33244302371E+03 -0.51724549418E+03  0.10319464216E+04  0.12012388115E+04  0.25500000920E-02 0.  1.
       -2    1    3    3    0  502 -0.33244302371E+03  0.51724549418E+03  0.89911157626E+03  0.10892487741E+04  0.25500000920E-02 0. -1.
</event>
<event>
 5   0  0.5447074E-04  0.1194491E+04  0.7818609E-02  0.9117693E-01
        1   -1    0    0  501    0  0.00000000000E+00  0.00000000000E+00  0.55101185682E+03  0.55101185684E+03  0.50400001928E-02 0.  1.
       -1   -1    0    0    0  501  0.00000000000E+00  0.00000000000E+00 -0.64735806731E+03  0.64735806733E+03  0.50400001928E-02 0. -1.
    10030    2    1    2    0    0  0.00000000000E+00  0.00000000000E+00 -0.96346210497E+02  0.11983699242E+04  0.11944906374E+04 0.  0.
        4    1    3    3  502    0 -0.19147935142E+03  0.23364253966E+03 -0.56506200813E+03  0.64074165175E+03  0.12699999809E+01 0. -1.
       -4    1    3    3    0  502  0.19147935142E+03 -0.23364253966E+03  0.46871579763E+03  0.55762827242E+03  0.12699999809E+01 0.  1.
</event>
<event>
 5   0  0.5001586E-04  0.1200460E+04  0.7818609E-02  0.9112454E-01
        1   -1    0    0  501    0  0.00000000000E+00  0.00000000000E+00  0.93550731325E+03  0.93550731326E+03  0.50400001928E-02 0.  1.
       -1   -1    0    0    0  501  0.00000000000E+00  0.00000000000E+00 -0.38511330097E+03  0.38511330100E+03  0.50400001928E-02 0. -1.
    10030    2    1    2    0    0  0.00000000000E+00  0.00000000000E+00  0.55039401229E+03  0.13206206143E+04  0.12004604275E+04 0.  0.
        1    1    3    3  502    0  0.26486769462E+03 -0.46904631207E+03  0.56649788639E+03  0.78171554534E+03  0.50400001928E-02 0.  1.
       -1    1    3    3    0  502 -0.26486769462E+03  0.46904631207E+03 -0.16103874101E+02  0.53890506892E+03  0.50400001928E-02 0. -1.
</event>
<event>
 5   0  0.5052959E-04  0.1196479E+04  0.7818609E-02  0.9115944E-01
        1   -1    0    0  501    0  0.00000000000E+00  0.00000000000E+00  0.36870671147E+03  0.36870671151E+03  0.50400001928E-02 0. -1.
       -1   -1    0    0    0  501  0.00000000000E+00  0.00000000000E+00 -0.97066371332E+03  0.97066371334E+03  0.50400001928E-02 0.  1.
    10030    2    1    2    0    0  0.00000000000E+00  0.00000000000E+00 -0.60195700185E+03  0.13393704248E+04  0.11964785426E+04 0.  0.
        2    1    3    3  502    0 -0.52298009499E+03 -0.25572928681E+03 -0.14673876882E+03  0.60036481757E+03  0.25500000920E-02 0. -1.
       -2    1    3    3    0  502  0.52298009499E+03  0.25572928681E+03 -0.45521823304E+03  0.73900560728E+03  0.25500000920E-02 0.  1.
</event>
<event>
 5   0  0.5003507E-04  0.1196858E+04  0.7818609E-02  0.9115611E-01
       -1   -1    0    0    0  501  0.00000000000E+00  0.00000000000E+00  0.44610784684E+03  0.44610784687E+03  0.50400001928E-02 0.  1.
        1   -1    0    0  501    0  0.00000000000E+00  0.00000000000E+00 -0.80275931711E+03  0.80275931712E+03  0.50400001928E-02 0. -1.
    10030    2    1    2    0    0  0.00000000000E+00  0.00000000000E+00 -0.35665147027E+03  0.12488671640E+04  0.11968579373E+04 0.  0.
        3    1    3    3  502    0 -0.17328814202E+03  0.57279002379E+03 -0.17850281175E+03  0.62448415153E+03  0.10100000352E+00 0.  1.
       -3    1    3    3    0  502  0.17328814202E+03 -0.57279002379E+03 -0.17814865851E+03  0.62438301246E+03  0.10100000352E+00 0. -1.
</event>
<event>
 5   0  0.9070772E-04  0.1199713E+04  0.7818609E-02  0.9113108E-01
        2   -1    0    0  501    0  0.00000000000E+00  0.00000000000E+00  0.43014666681E+03  0.43014666682E+03  0.25500000920E-02 0.  1.
       -2   -1    0    0    0  501  0.00000000000E+00  0.00000000000E+00 -0.83652328838E+03  0.83652328838E+03  0.25500000920E-02 0. -1.
    10030    2    1    2    0    0  0.00000000000E+00  0.00000000000E+00 -0.40637662157E+03  0.12666699552E+04  0.11997128060E+04 0.  0.
        4    1    3    3  502    0 -0.23999438148E+03 -0.20554362218E+03 -0.74152831299E+03  0.80604673290E+03  0.12699999809E+01 0. -1.
       -4    1    3    3    0  502  0.23999438148E+03  0.20554362218E+03  0.33515169142E+03  0.46062322230E+03  0.12699999809E+01 0.  1.
</event>
<event>
 5   0  0.9070772E-04  0.1202117E+04  0.7818609E-02  0.9111005E-01
        2   -1    0    0  501    0  0.00000000000E+00  0.00000000000E+00  0.21072961086E+04  0.21072961086E+04  0.25500000920E-02 0.  1.
       -2   -1    0    0    0  501  0.00000000000E+00  0.00000000000E+00 -0.17143837613E+03  0.17143837614E+03  0.25500000920E-02 0. -1.
    10030    2    1    2    0    0  0.00000000000E+00  0.00000000000E+00  0.19358577325E+04  0.22787344847E+04  0.12021171705E+04 0.  0.
        4    1    3    3  502    0 -0.19338296863E+03 -0.41587139741E+03  0.17043492757E+04  0.17649799031E+04  0.12699999809E+01 0.  1.
       -4    1    3    3    0  502  0.19338296863E+03  0.41587139741E+03  0.23150845676E+03  0.51375458167E+03  0.12699999809E+01 0. -1.
</event>
<event>
 5   0  0.5052959E-04  0.1198771E+04  0.7818609E-02  0.9113933E-01
       -1   -1    0    0    0  501  0.00000000000E+00  0.00000000000E+00  0.21079271621E+04  0.21079271622E+04  0.50400001928E-02 0. -1.
        1   -1    0    0  501    0  0.00000000000E+00  0.00000000000E+00 -0.17043421997E+03  0.17043422004E+03  0.50400001928E-02 0.  1.
    10030    2    1    2    0    0  0.00000000000E+00  0.00000000000E+00  0.19374929422E+04  0.22783613822E+04  0.11987709068E+04 0.  0.
        2    1    3    3  502    0 -0.21143741844E+03  0.15047530612E+03 -0.58120341173E+02  0.26594468171E+03  0.25500000920E-02 0.  1.
       -2    1    3    3    0  502  0.21143741844E+03 -0.15047530612E+03  0.19956132834E+04  0.20124167005E+04  0.25500000920E-02 0. -1.
</event>
<event>
 5   0  0.9070772E-04  0.1183765E+04  0.7818609E-02  0.9127187E-01
        2   -1    0    0  501    0  0.00000000000E+00  0.00000000000E+00  0.11955365576E+04  0.11955365576E+04  0.25500000920E-02 0. -1.
       -2   -1    0    0    0  501  0.00000000000E+00  0.00000000000E+00 -0.29302743021E+03  0.29302743022E+03  0.25500000920E-02 0.  1.
    10030    2    1    2    0    0  0.00000000000E+00  0.00000000000E+00  0.90250912743E+03  0.14885639879E+04  0.11837651882E+04 0.  0.
        4    1    3    3  502    0 -0.55469444044E+02 -0.82174874991E+02 -0.28250971025E+03  0.29940427283E+03  0.12699999809E+01 0.  1.
       -4    1    3    3    0  502  0.55469444044E+02  0.82174874991E+02  0.11850188377E+04  0.11891597150E+04  0.12699999809E+01 0. -1.
</event>
<event>
 5   0  0.9298693E-04  0.1202163E+04  0.7818609E-02  0.9110966E-01
        2   -1    0    0  501    0  0.00000000000E+00  0.00000000000E+00  0.15318269124E+04  0.15318269124E+04  0.25500000920E-02 0.  1.
       -2   -1    0    0    0  501  0.00000000000E+00  0.00000000000E+00 -0.23586139841E+03  0.23586139842E+03  0.25500000920E-02 0. -1.
    10030    2    1    2    0    0  0.00000000000E+00  0.00000000000E+00  0.12959655140E+04  0.17676883108E+04  0.12021627805E+04 0.  0.
        1    1    3    3  502    0  0.52499307417E+02  0.37477441394E+03  0.13346670306E+04  0.13872808372E+04  0.50400001928E-02 0.  1.
       -1    1    3    3    0  502 -0.52499307417E+02 -0.37477441394E+03 -0.38701516564E+02  0.38040747368E+03  0.50400001928E-02 0. -1.
</event>
<event>
 5   0  0.9070772E-04  0.1200918E+04  0.7818609E-02  0.9112054E-01
        2   -1    0    0  501    0  0.00000000000E+00  0.00000000000E+00  0.82378144673E+03  0.82378144673E+03  0.25500000920E-02 0.  1.
       -2   -1    0    0    0  501  0.00000000000E+00  0.00000000000E+00 -0.43767776810E+03  0.43767776811E+03  0.25500000920E-02 0. -1.
    10030    2    1    2    0    0  0.00000000000E+00  0.00000000000E+00  0.38610367863E+03  0.12614592148E+04  0.12009176908E+04 0.  0.
        4    1    3    3  502    0  0.32112692276E+03 -0.73766053344E+02 -0.33423576004E+03  0.46933898979E+03  0.12699999809E+01 0. -1.
       -4    1    3    3    0  502 -0.32112692276E+03  0.73766053344E+02  0.72033943867E+03  0.79212022506E+03  0.12699999809E+01 0.  1.
</event>
<event>
 5   0  0.5003507E-04  0.1203441E+04  0.7818609E-02  0.9109850E-01
        1   -1    0    0  501    0  0.00000000000E+00  0.00000000000E+00  0.76118201679E+03  0.76118201680E+03  0.50400001928E-02 0.  1.
       -1   -1    0    0    0  501  0.00000000000E+00  0.00000000000E+00 -0.47566455172E+03  0.47566455175E+03  0.50400001928E-02 0. -1.
    10030    2    1    2    0    0  0.00000000000E+00  0.00000000000E+00  0.28551746506E+03  0.12368465686E+04  0.12034405724E+04 0.  0.
        3    1    3    3  502    0 -0.18310107021E+03  0.57305068849E+03  0.15552112630E+03  0.62136939450E+03  0.10100000352E+00 0. -1.
       -3    1    3    3    0  502  0.18310107021E+03 -0.57305068849E+03  0.12999633876E+03  0.61547717406E+03  0.10100000352E+00 0.  1.
</event>
<event>
 5   0  0.9145224E-04  0.1203801E+04  0.7818609E-02  0.9109536E-01
       -2   -1    0    0    0  501  0.00000000000E+00  0.00000000000E+00  0.32771969501E+03  0.32771969501E+03  0.25500000920E-02 0. -1.
        2   -1    0    0  501    0  0.00000000000E+00  0.00000000000E+00 -0.11054693662E+04  0.11054693662E+04  0.25500000920E-02 0.  1.
    10030    2    1    2    0    0  0.00000000000E+00  0.00000000000E+00 -0.77774967116E+03  0.14331890612E+04  0.12038007867E+04 0.  0.
        5    1    3    3  502    0  0.13769928014E+03 -0.44406847850E+03  0.66197092446E+02  0.46964034153E+03  0.46999998093E+01 0. -1.
       -5    1    3    3    0  502 -0.13769928014E+03  0.44406847850E+03 -0.84394676360E+03  0.96354871965E+03  0.46999998093E+01 0.  1.
</event>
<event>
 5   0  0.5157631E-04  0.1199396E+04  0.7818609E-02  0.9113385E-01
        1   -1    0    0  501    0  0.00000000000E+00  0.00000000000E+00  0.10798803060E+04  0.10798803060E+04  0.50400001928E-02 0.  1.
       -1   -1    0    0    0  501  0.00000000000E+00  0.00000000000E+00 -0.33303470236E+03  0.33303470240E+03  0.50400001928E-02 0. -1.
    10030    2    1    2    0    0  0.00000000000E+00  0.00000000000E+00  0.74684560368E+03  0.14129150084E+04  0.11993958752E+04 0.  0.
        5    1    3    3  502    0  0.58189116898E+02 -0.26553578169E+03 -0.25626319791E+03  0.37361496394E+03  0.46999998093E+01 0. -1.
       -5    1    3    3    0  502 -0.58189116898E+02  0.26553578169E+03  0.10031088016E+04  0.10393000445E+04  0.46999998093E+01 0.  1.
</event>
<event>
 5   0  0.5003507E-04  0.1200743E+04  0.7818609E-02  0.9112207E-01
        1   -1    0    0  501    0  0.00000000000E+00  0.00000000000E+00  0.62888347171E+03  0.62888347173E+03  0.50400001928E-02 0.  1.
       -1   -1    0    0    0  501  0.00000000000E+00  0.00000000000E+00 -0.57315173048E+03  0.57315173050E+03  0.50400001928E-02 0. -1.
    10030    2    1    2    0    0  0.00000000000E+00  0.00000000000E+00  0.55731741231E+02  0.12020352022E+04  0.12007425204E+04 0.  0.
        3    1    3    3  502    0  0.22037994764E+03 -0.51104789694E+03 -0.19756173741E+03  0.59056576651E+03  0.10100000352E+00 0. -1.
       -3    1    3    3    0  502 -0.22037994764E+03  0.51104789694E+03  0.25329347864E+03  0.61146943571E+03  0.10100000352E+00 0.  1.
</event>
<event>
 5   0  0.9145224E-04  0.1200421E+04  0.7818609E-02  0.9112488E-01
       -2   -1    0    0    0  501  0.00000000000E+00  0.00000000000E+00  0.22339973074E+03  0.22339973076E+03  0.25500000920E-02 0.  1.
        2   -1    0    0  501    0  0.00000000000E+00  0.00000000000E+00 -0.16125928651E+04  0.16125928651E+04  0.25500000920E-02 0. -1.
    10030    2    1    2    0    0  0.00000000000E+00  0.00000000000E+00 -0.13891931343E+04  0.18359925958E+04  0.12004212792E+04 0.  0.
        5    1    3    3  502    0  0.53561580394E+03  0.26110714265E+03 -0.58462986646E+03  0.83479063251E+03  0.46999998093E+01 0.  1.
       -5    1    3    3    0  502 -0.53561580394E+03 -0.26110714265E+03 -0.80456326788E+03  0.10012019633E+04  0.46999998093E+01 0. -1.
</event>
<event>
 5   0  0.5001586E-04  0.1208371E+04  0.7818609E-02  0.9105561E-01
        1   -1    0    0  501    0  0.00000000000E+00  0.00000000000E+00  0.53678608534E+03  0.53678608536E+03  0.50400001928E-02 0.  1.
       -1   -1    0    0    0  501  0.00000000000E+00  0.00000000000E+00 -0.68004793017E+03  0.68004793019E+03  0.50400001928E-02 0. -1.
    10030    2    1    2    0    0  0.00000000000E+00  0.00000000000E+00 -0.14326184483E+03  0.12168340156E+04  0.12083712448E+04 0.  0.
        1    1    3    3  502    0 -0.17375432615E+03 -0.64787077575E+02  0.50741999838E+03  0.54024345074E+03  0.50400001928E-02 0.  1.
       -1    1    3    3    0  502  0.17375432615E+03  0.64787077575E+02 -0.65068184322E+03  0.67659056482E+03  0.50400001928E-02 0. -1.
</event>
<event>
 5   0  0.5447074E-04  0.1191409E+04  0.7818609E-02  0.9120410E-01
        1   -1    0    0  501    0  0.00000000000E+00  0.00000000000E+00  0.46860044335E+03  0.46860044338E+03  0.50400001928E-02 0.  1.
       -1   -1    0    0    0  501  0.00000000000E+00  0.00000000000E+00 -0.75728465689E+03  0.75728465691E+03  0.50400001928E-02 0. -1.
    10030    2    1    2    0    0  0.00000000000E+00  0.00000000000E+00 -0.28868421354E+03  0.12258851003E+04  0.11914091253E+04 0.  0.
        4    1    3    3  502    0 -0.35284838567E+03  0.47977913360E+03 -0.15784875513E+03  0.61612323662E+03  0.12699999809E+01 0. -1.
       -4    1    3    3    0  502  0.35284838567E+03 -0.47977913360E+03 -0.13083545841E+03  0.60976186367E+03  0.12699999809E+01 0.  1.
</event>
<event>
 5   0  0.5157631E-04  0.1205213E+04  0.7818609E-02  0.9108306E-01
       -1   -1    0    0    0  501  0.00000000000E+00  0.00000000000E+00  0.67307647570E+03  0.67307647572E+03  0.50400001928E-02 0. -1.
        1   -1    0    0  501    0  0.00000000000E+00  0.00000000000E+00 -0.53951453496E+03  0.53951453499E+03  0.50400001928E-02 0.  1.
    10030    2    1    2    0    0  0.00000000000E+00  0.00000000000E+00  0.13356194074E+03  0.12125910107E+04  0.12052129137E+04 0.  0.
        5    1    3    3  502    0  0.27946487627E+03  0.42855802428E+03 -0.25352286046E+03  0.57101534832E+03  0.46999998093E+01 0.  1.
       -5    1    3    3    0  502 -0.27946487627E+03 -0.42855802428E+03  0.38708480119E+03  0.64157566238E+03  0.46999998093E+01 0. -1.
</event>
<event>
 5   0  0.5001586E-04  0.1201823E+04  0.7818609E-02  0.9111262E-01
        1   -1    0    0  501    0  0.00000000000E+00  0.00000000000E+00  0.12532726373E+04  0.12532726374E+04  0.50400001928E-02 0.  1.
       -1   -1    0    0    0  501  0.00000000000E+00  0.00000000000E+00 -0.28812146007E+03  0.28812146011E+03  0.50400001928E-02 0. -1.
    10030    2    1    2    0    0  0.00000000000E+00  0.00000000000E+00  0.96515117728E+03  0.15413940975E+04  0.12018231853E+04 0.  0.
        1    1    3    3  502    0 -0.37854330918E+03 -0.11199851191E+03  0.10636357293E+04  0.11345305938E+04  0.50400001928E-02 0.  1.
       -1    1    3    3    0  502  0.37854330918E+03  0.11199851191E+03 -0.98484552033E+02  0.40686350366E+03  0.50400001928E-02 0. -1.
</event>
<event>
 5   0  0.5001586E-04  0.1195166E+04  0.7818609E-02  0.9117098E-01
       -1   -1    0    0    0  501  0.00000000000E+00  0.00000000000E+00  0.32694227647E+03  0.32694227651E+03  0.50400001928E-02 0.  1.
        1   -1    0    0  501    0  0.00000000000E+00  0.00000000000E+00 -0.10922592425E+04  0.10922592426E+04  0.50400001928E-02 0. -1.
    10030    2    1    2    0    0  0.00000000000E+00  0.00000000000E+00 -0.76531696608E+03  0.14192015191E+04  0.11951664709E+04 0.  0.
        1    1    3    3  502    0 -0.13758605771E+03 -0.28206441091E+03 -0.98652773256E+03  0.10352425910E+04  0.50400001928E-02 0. -1.
       -1    1    3    3    0  502  0.13758605771E+03  0.28206441091E+03  0.22121076648E+03  0.38395892803E+03  0.50400001928E-02 0.  1.
</event>
<event>
 5   0  0.9070772E-04  0.1200669E+04  0.7818609E-02  0.9112271E-01
       -2   -1    0    0    0  501  0.00000000000E+00  0.00000000000E+00  0.51260149665E+03  0.51260149665E+03  0.25500000920E-02 0. -1.
        2   -1    0    0  501    0  0.00000000000E+00  0.00000000000E+00 -0.70308279449E+03  0.70308279449E+03  0.25500000920E-02 0.  1.
    10030    2    1    2    0    0  0.00000000000E+00  0.00000000000E+00 -0.19048129784E+03  0.12156842911E+04  0.12006686349E+04 0.  0.
        4    1    3    3  502    0  0.71563510926E+02  0.56860120679E+03  0.85799887023E+02  0.57947554044E+03  0.12699999809E+01 0. -1.
       -4    1    3    3    0  502 -0.71563510926E+02 -0.56860120679E+03 -0.27628118487E+03  0.63620875070E+03  0.12699999809E+01 0.  1.
</event>
<event>
 5   0  0.5447074E-04  0.1202191E+04  0.7818609E-02  0.9110941E-01
        1   -1    0    0  501    0  0.00000000000E+00  0.00000000000E+00  0.10174948003E+04  0.10174948004E+04  0.50400001928E-02 0.  1.
       -1   -1    0    0    0  501  0.00000000000E+00  0.00000000000E+00 -0.35510329222E+03  0.35510329226E+03  0.50400001928E-02 0. -1.
    10030    2    1    2    0    0  0.00000000000E+00  0.00000000000E+00  0.66239150813E+03  0.13725980926E+04  0.12021909224E+04 0.  0.
        4    1    3    3  502    0 -0.17604408413E+03 -0.50771244868E+03  0.63872804371E+03  0.83470867782E+03  0.12699999809E+01 0.  1.
       -4    1    3    3    0  502  0.17604408413E+03  0.50771244868E+03  0.23663464419E+02  0.53788941480E+03  0.12699999809E+01 0. -1.
</event>
<event>
 5   0  0.5001586E-04  0.1199169E+04  0.7818609E-02  0.9113584E-01
        1   -1    0    0  501    0  0.00000000000E+00  0.00000000000E+00  0.20498106509E+04  0.20498106509E+04  0.50400001928E-02 0.  1.
       -1   -1    0    0    0  501  0.00000000000E+00  0.00000000000E+00 -0.17538292488E+03  0.17538292495E+03  0.50400001928E-02 0. -1.
    10030    2    1    2    0    0  0.00000000000E+00  0.00000000000E+00  0.18744277260E+04  0.22251935758E+04  0.11991693583E+04 0.  0.
        1    1    3    3  502    0 -0.13372431555E+03 -0.81555939207E+02  0.20111762707E+04  0.20172663571E+04  0.50400001928E-02 0.  1.
       -1    1    3    3    0  502  0.13372431555E+03  0.81555939207E+02 -0.13674854467E+03  0.20792721872E+03  0.50400001928E-02 0. -1.
</event>
<event>
 5   0  0.5003507E-04  0.1202660E+04  0.7818609E-02  0.9110531E-01
       -1   -1    0    0    0  501  0.00000000000E+00  0.00000000000E+00  0.15051083512E+04  0.15051083512E+04  0.50400001928E-02 0. -1.
        1   -1    0    0  501    0  0.00000000000E+00  0.00000000000E+00 -0.24024703011E+03  0.24024703017E+03  0.50400001928E-02 0.  1.
    10030    2    1    2    0    0  0.00000000000E+00  0.00000000000E+00  0.12648613211E+04  0.17453553813E+04  0.12026600707E+04 0.  0.
        3    1    3    3  502    0 -0.10649719508E+03 -0.45986000890E+02  0.14887166448E+04  0.14932292602E+04  0.10100000352E+00 0. -1.
       -3    1    3    3    0  502  0.10649719508E+03  0.45986000890E+02 -0.22385532369E+03  0.25212612119E+03  0.10100000352E+00 0.  1.
</event>
<event>
 5   0  0.5003507E-04  0.1193928E+04  0.7818609E-02  0.9118188E-01
        1   -1    0    0  501    0  0.00000000000E+00  0.00000000000E+00  0.28569356990E+04  0.28569356990E+04  0.50400001928E-02 0.  1.
       -1   -1    0    0    0  501  0.00000000000E+00  0.00000000000E+00 -0.12473716465E+03  0.12473716475E+03  0.50400001928E-02 0. -1.
    10030    2    1    2    0    0  0.00000000000E+00  0.00000000000E+00  0.27321985343E+04  0.29816728637E+04  0.11939280696E+04 0.  0.
        3    1    3    3  502    0 -0.68954788713E+01  0.36460615135E+03  0.18576557262E+03  0.40926037116E+03  0.10100000352E+00 0. -1.
       -3    1    3    3    0  502  0.68954788713E+01 -0.36460615135E+03  0.25464329617E+04  0.25724124926E+04  0.10100000352E+00 0.  1.
</event>
<event>
 5   0  0.9070772E-04  0.1197692E+04  0.7818609E-02  0.9114879E-01
        2   -1    0    0  501    0  0.00000000000E+00  0.00000000000E+00  0.43608166243E+03  0.43608166244E+03  0.25500000920E-02 0. -1.
       -2   -1    0    0    0  501  0.00000000000E+00  0.00000000000E+00 -0.82236120459E+03  0.82236120459E+03  0.25500000920E-02 0.  1.
    10030    2    1    2    0    0  0.00000000000E+00  0.00000000000E+00 -0.38627954216E+03  0.12584428670E+04  0.11976921829E+04 0.  0.
        4    1    3    3  502    0 -0.58992948074E+03  0.94455894288E+02 -0.15012013170E+03  0.61601653797E+03  0.12699999809E+01 0. -1.
       -4    1    3    3    0  502  0.58992948074E+03 -0.94455894288E+02 -0.23615941046E+03  0.64242632905E+03  0.12699999809E+01 0.  1.
</event>
<event>
 5   0  0.5052959E-04  0.1197178E+04  0.7818609E-02  0.9115330E-01
       -1   -1    0    0    0  501  0.00000000000E+00  0.00000000000E+00  0.70011045511E+03  0.70011045513E+03  0.50400001928E-02 0. -1.
        1   -1    0    0  501    0  0.00000000000E+00  0.00000000000E+00 -0.51178918659E+03  0.51178918662E+03  0.50400001928E-02 0.  1.
    10030    2    1    2    0    0  0.00000000000E+00  0.00000000000E+00  0.18832126852E+03  0.12118996417E+04  0.11971782831E+04 0.  0.
        2    1    3    3  502    0 -0.51816115980E+03 -0.13438439996E+02  0.39723723448E+03  0.65304593993E+03  0.25500000920E-02 0.  1.
       -2    1    3    3    0  502  0.51816115980E+03  0.13438439996E+02 -0.20891596596E+03  0.55885370182E+03  0.25500000920E-02 0. -1.
</event>
<event>
 5   0  0.5447074E-04  0.1175768E+04  0.7818609E-02  0.9134335E-01
       -1   -1    0    0    0  501  0.00000000000E+00  0.00000000000E+00  0.36499130171E+03  0.36499130174E+03  0.50400001928E-02 0.  1.
        1   -1    0    0  501    0  0.00000000000E+00  0.00000000000E+00 -0.94689240667E+03  0.94689240668E+03  0.50400001928E-02 0. -1.
    10030    2    1    2    0    0  0.00000000000E+00  0.00000000000E+00 -0.58190110496E+03  0.13118837084E+04  0.11757678208E+04 0.  0.
        4    1    3    3  502    0  0.26752308704E+03 -0.42669809640E+03  0.47416014525E+02  0.50585547235E+03  0.12699999809E+01 0.  1.
       -4    1    3    3    0  502 -0.26752308704E+03  0.42669809640E+03 -0.62931711949E+03  0.80602823607E+03  0.12699999809E+01 0. -1.
</event>
<event>
 5   0  0.9070772E-04  0.1200650E+04  0.7818609E-02  0.9112287E-01
        2   -1    0    0  501    0  0.00000000000E+00  0.00000000000E+00  0.16269397620E+04  0.16269397620E+04  0.25500000920E-02 0. -1.
       -2   -1    0    0    0  501  0.00000000000E+00  0.00000000000E+00 -0.22151424116E+03  0.22151424117E+03  0.25500000920E-02 0.  1.
    10030    2    1    2    0    0  0.00000000000E+00  0.00000000000E+00  0.14054255208E+04  0.18484540031E+04  0.12006503684E+04 0.  0.
        4    1    3    3  502    0 -0.21919610252E+02  0.97192062605E+02  0.16141201063E+04  0.16171926591E+04  0.12699999809E+01 0. -1.
       -4    1    3    3    0  502  0.21919610252E+02 -0.97192062605E+02 -0.20869458545E+03  0.23126134403E+03  0.12699999809E+01 0.  1.
</event>
<event>
 5   0  0.9145224E-04  0.1176303E+04  0.7818609E-02  0.9133855E-01
        2   -1    0    0  501    0  0.00000000000E+00  0.00000000000E+00  0.13926857587E+04  0.13926857587E+04  0.25500000920E-02 0.  1.
       -2   -1    0    0    0  501  0.00000000000E+00  0.00000000000E+00 -0.24838504799E+03  0.24838504800E+03  0.25500000920E-02 0. -1.
    10030    2    1    2    0    0  0.00000000000E+00  0.00000000000E+00  0.11443007107E+04  0.16410708067E+04  0.11763032245E+04 0.  0.
        5    1    3    3  502    0  0.17300605271E+03  0.46474194199E+03  0.13101342096E+03  0.51293544759E+03  0.46999998093E+01 0. -1.
       -5    1    3    3    0  502 -0.17300605271E+03 -0.46474194199E+03  0.10132872897E+04  0.11281353591E+04  0.46999998093E+01 0.  1.
</event>
<event>
 5   0  0.5447074E-04  0.1205240E+04  0.7818609E-02  0.9108283E-01
       -1   -1    0    0    0  501  0.00000000000E+00  0.00000000000E+00  0.46525736516E+03  0.46525736518E+03  0.50400001928E-02 0. -1.
        1   -1    0    0  501    0  0.00000000000E+00  0.00000000000E+00 -0.78053703205E+03  0.78053703207E+03  0.50400001928E-02 0.  1.
    10030    2    1    2    0    0  0.00000000000E+00  0.00000000000E+00 -0.31527966690E+03  0.12457943973E+04  0.12052395662E+04 0.  0.
        4    1    3    3  502    0 -0.16342074545E+03  0.57984242617E+03 -0.17315871399E+03  0.62682464243E+03  0.12699999809E+01 0.  1.
       -4    1    3    3    0  502  0.16342074545E+03 -0.57984242617E+03 -0.14212095290E+03  0.61896975482E+03  0.12699999809E+01 0. -1.
</event>
<event>
 5   0  0.9070772E-04  0.1204476E+04  0.7818609E-02  0.9108948E-01
        2   -1    0    0  501    0  0.00000000000E+00  0.00000000000E+00  0.52060549207E+03  0.52060549208E+03  0.25500000920E-02 0. -1.
       -2   -1    0    0    0  501  0.00000000000E+00  0.00000000000E+00 -0.69667088468E+03  0.69667088468E+03  0.25500000920E-02 0.  1.
    10030    2    1    2    0    0  0.00000000000E+00  0.00000000000E+00 -0.17606539261E+03  0.12172763768E+04  0.12044761330E+04 0.  0.
        4    1    3    3  502    0  0.14275921685E+03 -0.49959035465E+03 -0.39576555008E+03  0.65314829862E+03  0.12699999809E+01 0.  1.
       -4    1    3    3    0  502 -0.14275921685E+03  0.49959035465E+03  0.21970015747E+03  0.56412807814E+03  0.12699999809E+01 0. -1.
</event>
<event>
 5   0  0.9050363E-04  0.1194999E+04  0.7818609E-02  0.9117245E-01
       -2   -1    0    0    0  501  0.00000000000E+00  0.00000000000E+00  0.67396894031E+03  0.67396894031E+03  0.25500000920E-02 0.  1.
        2   -1    0    0  501    0  0.00000000000E+00  0.00000000000E+00 -0.52970656535E+03  0.52970656535E+03  0.25500000920E-02 0. -1.
    10030    2    1    2    0    0  0.00000000000E+00  0.00000000000E+00  0.14426237496E+03  0.12036755057E+04  0.11949992009E+04 0.  0.
        3    1    3    3  502    0  0.10863606109E+03 -0.16291840342E+03  0.64073091678E+03  0.66998531167E+03  0.10100000352E+00 0.  1.
       -3    1    3    3    0  502 -0.10863606109E+03  0.16291840342E+03 -0.49646854182E+03  0.53369019399E+03  0.10100000352E+00 0. -1.
</event>
<event>
 5   0  0.5157631E-04  0.1202015E+04  0.7818609E-02  0.9111094E-01
        1   -1    0    0  501    0  0.00000000000E+00  0.00000000000E+00  0.63644731517E+03  0.63644731519E+03  0.50400001928E-02 0. -1.
       -1   -1    0    0    0  501  0.00000000000E+00  0.00000000000E+00 -0.56754142985E+03  0.56754142987E+03  0.50400001928E-02 0.  1.
    10030    2    1    2    0    0  0.00000000000E+00  0.00000000000E+00  0.68905885320E+02  0.12039887451E+04  0.12020153398E+04 0.  0.
        5    1    3    3  502    0  0.96222316662E+02  0.29415895077E+02  0.62793231330E+03  0.63595999025E+03  0.46999998093E+01 0. -1.
       -5    1    3    3    0  502 -0.96222316662E+02 -0.29415895077E+02 -0.55902642798E+03  0.56802875481E+03  0.46999998093E+01 0.  1.
</event>
<event>
 5   0  0.9410666E-04  0.1203156E+04  0.7818609E-02  0.9110098E-01
       -2   -1    0    0    0  501  0.00000000000E+00  0.00000000000E+00  0.10213351899E+04  0.10213351899E+04  0.25500000920E-02 0. -1.
        2   -1    0    0  501    0  0.00000000000E+00  0.00000000000E+00 -0.35433643257E+03  0.35433643258E+03  0.25500000920E-02 0.  1.
    10030    2    1    2    0    0  0.00000000000E+00  0.00000000000E+00  0.66699875732E+03  0.13756716225E+04  0.12031562952E+04 0.  0.
        2    1    3    3  502    0 -0.88515932231E+02 -0.43339707081E+03 -0.13267140470E+03  0.46181142567E+03  0.25500000920E-02 0.  1.
       -2    1    3    3    0  502  0.88515932231E+02  0.43339707081E+03  0.79967016202E+03  0.91386019679E+03  0.25500000920E-02 0. -1.
</event>
<event>
 5   0  0.5157631E-04  0.1202331E+04  0.7818609E-02  0.9110819E-01
        1   -1    0    0  501    0  0.00000000000E+00  0.00000000000E+00  0.92024824595E+03  0.92024824597E+03  0.50400001928E-02 0. -1.
       -1   -1    0    0    0  501  0.00000000000E+00  0.00000000000E+00 -0.39271988178E+03  0.39271988181E+03  0.50400001928E-02 0.  1.
    10030    2    1    2    0    0  0.00000000000E+00  0.00000000000E+00  0.52752836417E+03  0.13129681278E+04  0.12023307072E+04 0.  0.
        5    1    3    3  502    0  0.62002230407E+02 -0.35682740386E+03  0.78771448029E+03  0.86699842282E+03  0.46999998093E+01 0. -1.
       -5    1    3    3    0  502 -0.62002230407E+02  0.35682740386E+03 -0.26018611612E+03  0.44596970496E+03  0.46999998093E+01 0.  1.
</event>
<event>
 5   0  0.9410666E-04  0.1197789E+04  0.7818609E-02  0.9114794E-01
        2   -1    0    0  501    0  0.00000000000E+00  0.00000000000E+00  0.97462669452E+03  0.97462669453E+03  0.25500000920E-02 0.  1.
       -2   -1    0    0    0  501  0.00000000000E+00  0.00000000000E+00 -0.36801246073E+03  0.36801246074E+03  0.25500000920E-02 0. -1.
    10030    2    1    2    0    0  0.00000000000E+00  0.00000000000E+00  0.60661423379E+03  0.13426391553E+04  0.11977892438E+04 0.  0.
        2    1    3    3  502    0  0.43002398666E+03 -0.27007140386E+03 -0.52604953672E+02  0.51051588951E+03  0.25500000920E-02 0. -1.
       -2    1    3    3    0  502 -0.43002398666E+03  0.27007140386E+03  0.65921918746E+03  0.83212326576E+03  0.25500000920E-02 0.  1.
</event>
<event>
 5   0  0.5003507E-04  0.1206005E+04  0.7818609E-02  0.9107616E-01
       -1   -1    0    0    0  501  0.00000000000E+00  0.00000000000E+00  0.37600143075E+03  0.37600143078E+03  0.50400001928E-02 0. -1.
        1   -1    0    0  501    0  0.00000000000E+00  0.00000000000E+00 -0.96704978328E+03  0.96704978329E+03  0.50400001928E-02 0.  1.
    10030    2    1    2    0    0  0.00000000000E+00  0.00000000000E+00 -0.59104835253E+03  0.13430512141E+04  0.12060051445E+04 0.  0.
        3    1    3    3  502    0 -0.22391378956E+02 -0.36151560681E+03  0.24135620096E+03  0.43525594052E+03  0.10100000352E+00 0. -1.
       -3    1    3    3    0  502  0.22391378956E+02  0.36151560681E+03 -0.83240455349E+03  0.90779527356E+03  0.10100000352E+00 0.  1.
</event>
<event>
 5   0  0.9050363E-04  0.1204888E+04  0.7818609E-02  0.9108589E-01
        2   -1    0    0  501    0  0.00000000000E+00  0.00000000000E+00  0.12065999473E+04  0.12065999473E+04  0.25500000920E-02 0.  1.
       -2   -1    0    0    0  501  0.00000000000E+00  0.00000000000E+00 -0.30079461301E+03  0.30079461302E+03  0.25500000920E-02 0. -1.
    10030    2    1    2    0    0  0.00000000000E+00  0.00000000000E+00  0.90580533425E+03  0.15073945603E+04  0.12048879852E+04 0.  0.
        3    1    3    3  502    0 -0.40746205397E+02  0.54664695220E+03  0.76555811365E+03  0.94157441510E+03  0.10100000352E+00 0.  1.
       -3    1    3    3    0  502  0.40746205397E+02 -0.54664695220E+03  0.14024722060E+03  0.56582014518E+03  0.10100000352E+00 0. -1.
</event>
<event>
 5   0  0.5447074E-04  0.1203153E+04  0.7818609E-02  0.9110101E-01
        1   -1    0    0  501    0  0.00000000000E+00  0.00000000000E+00  0.86313617907E+03  0.86313617908E+03  0.50400001928E-02 0.  1.
       -1   -1    0    0    0  501  0.00000000000E+00  0.00000000000E+00 -0.41927820262E+03  0.41927820265E+03  0.50400001928E-02 0. -1.
    10030    2    1    2    0    0  0.00000000000E+00  0.00000000000E+00  0.44385797645E+03  0.12824143817E+04  0.12031528345E+04 0.  0.
        4    1    3    3  502    0  0.14020582827E+03  0.19858856005E+03 -0.36459220743E+03  0.43820563789E+03  0.12699999809E+01 0. -1.
       -4    1    3    3    0  502 -0.14020582827E+03 -0.19858856005E+03  0.80845018388E+03  0.84420874384E+03  0.12699999809E+01 0.  1.
</event>
<event>
 5   0  0.5001586E-04  0.1200262E+04  0.7818609E-02  0.9112628E-01
        1   -1    0    0  501    0  0.00000000000E+00  0.00000000000E+00  0.65396413602E+03  0.65396413604E+03  0.50400001928E-02 0.  1.
       -1   -1    0    0    0  501  0.00000000000E+00  0.00000000000E+00 -0.55072891376E+03  0.55072891378E+03  0.50400001928E-02 0. -1.
    10030    2    1    2    0    0  0.00000000000E+00  0.00000000000E+00  0.10323522226E+03  0.12046930498E+04  0.12002615686E+04 0.  0.
        1    1    3    3  502    0  0.26991829931E+03 -0.33855155215E+02 -0.48529189893E+03  0.55633648724E+03  0.50400001928E-02 0. -1.
       -1    1    3    3    0  502 -0.26991829931E+03  0.33855155215E+02  0.58852712119E+03  0.64835656258E+03  0.50400001928E-02 0.  1.
</event>
<event>
 5   0  0.9410666E-04  0.1197316E+04  0.7818609E-02  0.9115209E-01
        2   -1    0    0  501    0  0.00000000000E+00  0.00000000000E+00  0.12673712041E+04  0.12673712041E+04  0.25500000920E-02 0. -1.
       -2   -1    0    0    0  501  0.00000000000E+00  0.00000000000E+00 -0.28278318631E+03  0.28278318632E+03  0.25500000920E-02 0.  1.
    10030    2    1    2    0    0  0.00000000000E+00  0.00000000000E+00  0.98458801782E+03  0.15501543904E+04  0.11973157768E+04 0.  0.
        2    1    3    3  502    0  0.39262310648E+03  0.23851210974E+03  0.98927733282E+03  0.10907385440E+04  0.25500000920E-02 0. -1.
       -2    1    3    3    0  502 -0.39262310648E+03 -0.23851210974E+03 -0.46893149999E+01  0.45941584640E+03  0.25500000920E-02 0.  1.
</event>
<event>
 5   0  0.5003507E-04  0.1209496E+04  0.7818609E-02  0.9104585E-01
       -1   -1    0    0    0  501  0.00000000000E+00  0.00000000000E+00  0.10052715446E+04  0.10052715446E+04  0.50400001928E-02 0. -1.
        1   -1    0    0  501    0  0.00000000000E+00  0.00000000000E+00 -0.36380217956E+03  0.36380217960E+03  0.50400001928E-02 0.  1.
    10030    2    1    2    0    0  0.00000000000E+00  0.00000000000E+00  0.64146936506E+03  0.13690737242E+04  0.12094957280E+04 0.  0.
        3    1    3    3  502    0  0.28971015887E+03  0.11144935854E+03 -0.26674752498E+03  0.40927641999E+03  0.10100000352E+00 0.  1.
       -3    1    3    3    0  502 -0.28971015887E+03 -0.11144935854E+03  0.90821689004E+03  0.95979730424E+03  0.10100000352E+00 0. -1.
</event>
<event>
 5   0  0.9070772E-04  0.1204241E+04  0.7818609E-02  0.9109153E-01
       -2   -1    0    0    0  501  0.00000000000E+00  0.00000000000E+00  0.28933484537E+03  0.28933484538E+03  0.25500000920E-02 0. -1.
        2   -1    0    0  501    0  0.00000000000E+00  0.00000000000E+00 -0.12530431662E+04  0.12530431662E+04  0.25500000920E-02 0.  1.
    10030    2    1    2    0    0  0.00000000000E+00  0.00000000000E+00 -0.96370832084E+03  0.15423780116E+04  0.12042409240E+04 0.  0.
        4    1    3    3  502    0  0.25180076646E+02 -0.60117163077E+03 -0.45304148574E+03  0.75318627617E+03  0.12699999809E+01 0. -1.
       -4    1    3    3    0  502 -0.25180076646E+02  0.60117163077E+03 -0.51066683510E+03  0.78919173543E+03  0.12699999809E+01 0.  1.
</event>
<event>
 5   0  0.9050363E-04  0.1199942E+04  0.7818609E-02  0.9112907E-01
       -2   -1    0    0    0  501  0.00000000000E+00  0.00000000000E+00  0.29185477033E+03  0.29185477034E+03  0.25500000920E-02 0. -1.
        2   -1    0    0  501    0  0.00000000000E+00  0.00000000000E+00 -0.12333707161E+04  0.12333707161E+04  0.25500000920E-02 0.  1.
    10030    2    1    2    0    0  0.00000000000E+00  0.00000000000E+00 -0.94151594580E+03  0.15252254865E+04  0.11999418771E+04 0.  0.
        3    1    3    3  502    0 -0.42156835630E+03  0.29426023863E+03 -0.77633308734E+02  0.51993836933E+03  0.10100000352E+00 0.  1.
       -3    1    3    3    0  502  0.42156835630E+03 -0.29426023863E+03 -0.86388263707E+03  0.10052871171E+04  0.10100000352E+00 0. -1.
</event>
<event>
 5   0  0.3453625E-04  0.1199545E+04  0.7818609E-02  0.9113255E-01
       -4   -1    0    0    0  501  0.00000000000E+00  0.00000000000E+00  0.84998143415E+03  0.84998238293E+03  0.12699999809E+01 0. -1.
        4   -1    0    0  501    0  0.00000000000E+00  0.00000000000E+00 -0.42321546651E+03  0.42321737204E+03  0.12699999809E+01 0.  1.
    10030    2    1    2    0    0  0.00000000000E+00  0.00000000000E+00  0.42676596764E+03  0.12731997550E+04  0.11995450908E+04 0.  0.
        2    1    3    3  502    0  0.10228272637E+02  0.30472854724E+03 -0.33482173056E+03  0.45284621708E+03  0.25500000920E-02 0.  1.
       -2    1    3    3    0  502 -0.10228272637E+02 -0.30472854724E+03  0.76158769820E+03  0.82035353788E+03  0.25500000920E-02 0. -1.
</event>
<event>
 5   0  0.5447074E-04  0.1197825E+04  0.7818609E-02  0.9114762E-01
        1   -1    0    0  501    0  0.00000000000E+00  0.00000000000E+00  0.41351841763E+03  0.41351841766E+03  0.50400001928E-02 0. -1.
       -1   -1    0    0    0  501  0.00000000000E+00  0.00000000000E+00 -0.86742546242E+03  0.86742546244E+03  0.50400001928E-02 0.  1.
    10030    2    1    2    0    0  0.00000000000E+00  0.00000000000E+00 -0.45390704479E+03  0.12809438801E+04  0.11978253707E+04 0.  0.
        4    1    3    3  502    0  0.33929849592E+03  0.48850259379E+03 -0.30208948423E+03  0.66709663682E+03  0.12699999809E+01 0. -1.
       -4    1    3    3    0  502 -0.33929849592E+03 -0.48850259379E+03 -0.15181756057E+03  0.61384724327E+03  0.12699999809E+01 0.  1.
</event>
<event>
 5   0  0.5003507E-04  0.1201106E+04  0.7818609E-02  0.9111889E-01
        1   -1    0    0  501    0  0.00000000000E+00  0.00000000000E+00  0.74788214034E+03  0.74788214035E+03  0.50400001928E-02 0. -1.
       -1   -1    0    0    0  501  0.00000000000E+00  0.00000000000E+00 -0.48224681198E+03  0.48224681201E+03  0.50400001928E-02 0.  1.
    10030    2    1    2    0    0  0.00000000000E+00  0.00000000000E+00  0.26563532836E+03  0.12301289524E+04  0.12011057871E+04 0.  0.
        3    1    3    3  502    0  0.23502822742E+03 -0.31916414287E+03  0.59489571023E+03  0.71484609115E+03  0.10100000352E+00 0. -1.
       -3    1    3    3    0  502 -0.23502822742E+03  0.31916414287E+03 -0.32926038188E+03  0.51528286121E+03  0.10100000352E+00 0.  1.
</event>
<event>
 5   0  0.5157631E-04  0.1199582E+04  0.7818609E-02  0.9113223E-01
        1   -1    0    0  501    0  0.00000000000E+00  0.00000000000E+00  0.28574926504E+03  0.28574926509E+03  0.50400001928E-02 0. -1.
       -1   -1    0    0    0  501  0.00000000000E+00  0.00000000000E+00 -0.12589676306E+04  0.12589676306E+04  0.50400001928E-02 0.  1.
    10030    2    1    2    0    0  0.00000000000E+00  0.00000000000E+00 -0.97321836551E+03  0.15447168956E+04  0.11995817191E+04 0.  0.
        5    1    3    3  502    0 -0.57864712775E+03 -0.13632357653E+03 -0.58890230706E+03  0.83680621008E+03  0.46999998093E+01 0.  1.
       -5    1    3    3    0  502  0.57864712775E+03  0.13632357653E+03 -0.38431605845E+03  0.70791068557E+03  0.46999998093E+01 0. -1.
</event>
<event>
 5   0  0.9070772E-04  0.1204405E+04  0.7818609E-02  0.9109009E-01
       -2   -1    0    0    0  501  0.00000000000E+00  0.00000000000E+00  0.77749923086E+03  0.77749923086E+03  0.25500000920E-02 0. -1.
        2   -1    0    0  501    0  0.00000000000E+00  0.00000000000E+00 -0.46642875052E+03  0.46642875053E+03  0.25500000920E-02 0.  1.
    10030    2    1    2    0    0  0.00000000000E+00  0.00000000000E+00  0.31107048034E+03  0.12439279814E+04  0.12044052388E+04 0.  0.
        4    1    3    3  502    0 -0.47686267714E+03 -0.21121974548E+03 -0.15539974083E+03  0.54420812754E+03  0.12699999809E+01 0.  1.
       -4    1    3    3    0  502  0.47686267714E+03  0.21121974548E+03  0.46647022117E+03  0.69971985385E+03  0.12699999809E+01 0. -1.
</event>
<event>
 5   0  0.9298693E-04  0.1202802E+04  0.7818609E-02  0.9110407E-01
        2   -1    0    0  501    0  0.00000000000E+00  0.00000000000E+00  0.17208692397E+04  0.17208692397E+04  0.25500000920E-02 0. -1.
       -2   -1    0    0    0  501  0.00000000000E+00  0.00000000000E+00 -0.21017476318E+03  0.21017476320E+03  0.25500000920E-02 0.  1.
    10030    2    1    2    0    0  0.00000000000E+00  0.00000000000E+00  0.15106944765E+04  0.19310440029E+04  0.12028022031E+04 0.  0.
        1    1    3    3  502    0  0.33332253814E+03 -0.41518521157E+03  0.12043024602E+04  0.13167486814E+04  0.50400001928E-02 0. -1.
       -1    1    3    3    0  502 -0.33332253814E+03  0.41518521157E+03  0.30639201636E+03  0.61429532153E+03  0.50400001928E-02 0.  1.
</event>
<event>
 5   0  0.9145224E-04  0.1193812E+04  0.7818609E-02  0.9118290E-01
       -2   -1    0    0    0  501  0.00000000000E+00  0.00000000000E+00  0.16505462663E+03  0.16505462665E+03  0.25500000920E-02 0.  1.
        2   -1    0    0  501    0  0.00000000000E+00  0.00000000000E+00 -0.21586606253E+04  0.21586606253E+04  0.25500000920E-02 0. -1.
    10030    2    1    2    0    0  0.00000000000E+00  0.00000000000E+00 -0.19936059987E+04  0.23237152520E+04  0.11938122525E+04 0.  0.
        5    1    3    3  502    0  0.27383057233E+03 -0.47925949078E+03 -0.55464233005E+03  0.78251073227E+03  0.46999998093E+01 0. -1.
       -5    1    3    3    0  502 -0.27383057233E+03  0.47925949078E+03 -0.14389636687E+04  0.15412045197E+04  0.46999998093E+01 0.  1.
</event>
<event>
 5   0  0.9070772E-04  0.1198551E+04  0.7818609E-02  0.9114126E-01
        2   -1    0    0  501    0  0.00000000000E+00  0.00000000000E+00  0.83570897491E+03  0.83570897492E+03  0.25500000920E-02 0.  1.
       -2   -1    0    0    0  501  0.00000000000E+00  0.00000000000E+00 -0.42973250237E+03  0.42973250238E+03  0.25500000920E-02 0. -1.
    10030    2    1    2    0    0  0.00000000000E+00  0.00000000000E+00  0.40597647254E+03  0.12654414773E+04  0.11985513073E+04 0.  0.
        4    1    3    3  502    0  0.40981564624E+02  0.50874397085E+03  0.53456910623E+03  0.73909786818E+03  0.12699999809E+01 0.  1.
       -4    1    3    3    0  502 -0.40981564624E+02 -0.50874397085E+03 -0.12859263369E+03  0.52634360912E+03  0.12699999809E+01 0. -1.
</event>
<event>
 5   0  0.9410666E-04  0.1199680E+04  0.7818609E-02  0.9113136E-01
        2   -1    0    0  501    0  0.00000000000E+00  0.00000000000E+00  0.98156225709E+03  0.98156225709E+03  0.25500000920E-02 0. -1.
       -2   -1    0    0    0  501  0.00000000000E+00  0.00000000000E+00 -0.36656699204E+03  0.36656699205E+03  0.25500000920E-02 0.  1.
    10030    2    1    2    0    0  0.00000000000E+00  0.00000000000E+00  0.61499526505E+03  0.13481292491E+04  0.11996804976E+04 0.  0.
        2    1    3    3  502    0 -0.25722601691E+03 -0.38319792615E+03 -0.12306128026E+03  0.47765045074E+03  0.25500000920E-02 0.  1.
       -2    1    3    3    0  502  0.25722601691E+03  0.38319792615E+03  0.73805654531E+03  0.87047879840E+03  0.25500000920E-02 0. -1.
</event>
<event>
 5   0  0.9145224E-04  0.1190898E+04  0.7818609E-02  0.9120861E-01
        2   -1    0    0  501    0  0.00000000000E+00  0.00000000000E+00  0.43979839084E+03  0.43979839084E+03  0.25500000920E-02 0. -1.
       -2   -1    0    0    0  501  0.00000000000E+00  0.00000000000E+00 -0.80618639749E+03  0.80618639750E+03  0.25500000920E-02 0.  1.
    10030    2    1    2    0    0  0.00000000000E+00  0.00000000000E+00 -0.36638800666E+03  0.12459847883E+04  0.11908979475E+04 0.  0.
        5    1    3    3  502    0  0.10767324419E+03  0.20251320321E+03  0.39170685391E+03  0.45393994579E+03  0.46999998093E+01 0. -1.
       -5    1    3    3    0  502 -0.10767324419E+03 -0.20251320321E+03 -0.75809486057E+03  0.79204484255E+03  0.46999998093E+01 0.  1.
</event>
<event>
 5   0  0.9145224E-04  0.1205713E+04  0.7818609E-02  0.9107870E-01
        2   -1    0    0  501    0  0.00000000000E+00  0.00000000000E+00  0.11172492908E+04  0.11172492908E+04  0.25500000920E-02 0. -1.
       -2   -1    0    0    0  501  0.00000000000E+00  0.00000000000E+00 -0.32529547535E+03  0.32529547536E+03  0.25500000920E-02 0.  1.
    10030    2    1    2    0    0  0.00000000000E+00  0.00000000000E+00  0.79195381547E+03  0.14425447662E+04  0.12057132978E+04 0.  0.
        5    1    3    3  502    0 -0.51176809679E+03  0.17773588253E+03  0.79619544834E+02  0.54759290604E+03  0.46999998093E+01 0.  1.
       -5    1    3    3    0  502  0.51176809679E+03 -0.17773588253E+03  0.71233427063E+03  0.89495186013E+03  0.46999998093E+01 0. -1.
</event>
<event>
 5   0  0.5052959E-04  0.1195383E+04  0.7818609E-02  0.9116908E-01
        1   -1    0    0  501    0  0.00000000000E+00  0.00000000000E+00  0.90270459742E+03  0.90270459744E+03  0.50400001928E-02 0. -1.
       -1   -1    0    0    0  501  0.00000000000E+00  0.00000000000E+00 -0.39573851123E+03  0.39573851127E+03  0.50400001928E-02 0.  1.
    10030    2    1    2    0    0  0.00000000000E+00  0.00000000000E+00  0.50696608619E+03  0.12984431087E+04  0.11953827395E+04 0.  0.
        2    1    3    3  502    0 -0.46049536183E+03 -0.20132654433E+03 -0.97898174395E+02  0.51202774170E+03  0.25500000920E-02 0.  1.
       -2    1    3    3    0  502  0.46049536183E+03  0.20132654433E+03  0.60486426058E+03  0.78641536700E+03  0.25500000920E-02 0. -1.
</event>
<event>
 5   0  0.5052959E-04  0.1188138E+04  0.7818609E-02  0.9123303E-01
        1   -1    0    0  501    0  0.00000000000E+00  0.00000000000E+00  0.80678222266E+03  0.80678222268E+03  0.50400001928E-02 0.  1.
       -1   -1    0    0    0  501  0.00000000000E+00  0.00000000000E+00 -0.43743905456E+03  0.43743905459E+03  0.50400001928E-02 0. -1.
    10030    2    1    2    0    0  0.00000000000E+00  0.00000000000E+00  0.36934316810E+03  0.12442212773E+04  0.11881381279E+04 0.  0.
        2    1    3    3  502    0 -0.54769615920E+02  0.59024880826E+03  0.14378122401E+03  0.60997246402E+03  0.25500000920E-02 0.  1.
       -2    1    3    3    0  502  0.54769615920E+02 -0.59024880826E+03  0.22556194409E+03  0.63424881325E+03  0.25500000920E-02 0. -1.
</event>
<event>
 5   0  0.3453625E-04  0.1195082E+04  0.7818609E-02  0.9117172E-01
       -4   -1    0    0    0  501  0.00000000000E+00  0.00000000000E+00  0.33955826165E+03  0.33956063663E+03  0.12699999809E+01 0.  1.
        4   -1    0    0  501    0  0.00000000000E+00  0.00000000000E+00 -0.10515225591E+04  0.10515233261E+04  0.12699999809E+01 0. -1.
    10030    2    1    2    0    0  0.00000000000E+00  0.00000000000E+00 -0.71196429748E+03  0.13910839627E+04  0.11950821856E+04 0.  0.
        5    1    3    3  502    0 -0.83698810487E+02  0.55303901228E+03 -0.60063311498E+03  0.82075566936E+03  0.46999998093E+01 0. -1.
       -5    1    3    3    0  502  0.83698810487E+02 -0.55303901228E+03 -0.11133118250E+03  0.57032829333E+03  0.46999998093E+01 0.  1.
</event>
<event>
 5   0  0.5157631E-04  0.1198548E+04  0.7818609E-02  0.9114128E-01
       -1   -1    0    0    0  501  0.00000000000E+00  0.00000000000E+00  0.23567810602E+03  0.23567810607E+03  0.50400001928E-02 0.  1.
        1   -1    0    0  501    0  0.00000000000E+00  0.00000000000E+00 -0.15238140621E+04  0.15238140621E+04  0.50400001928E-02 0. -1.
    10030    2    1    2    0    0  0.00000000000E+00  0.00000000000E+00 -0.12881359561E+04  0.17594921682E+04  0.11985484757E+04 0.  0.
        5    1    3    3  502    0  0.70523585470E+01 -0.54235383585E+03 -0.27005395671E+03  0.60592792356E+03  0.46999998093E+01 0.  1.
       -5    1    3    3    0  502 -0.70523585470E+01  0.54235383585E+03 -0.10180819994E+04  0.11535642446E+04  0.46999998093E+01 0. -1.
</event>
<event>
 5   0  0.9050363E-04  0.1201919E+04  0.7818609E-02  0.9111179E-01
        2   -1    0    0  501    0  0.00000000000E+00  0.00000000000E+00  0.11131707452E+04  0.11131707452E+04  0.25500000920E-02 0.  1.
       -2   -1    0    0    0  501  0.00000000000E+00  0.00000000000E+00 -0.32443557357E+03  0.32443557358E+03  0.25500000920E-02 0. -1.
    10030    2    1    2    0    0  0.00000000000E+00  0.00000000000E+00  0.78873517168E+03  0.14376063188E+04  0.12019187813E+04 0.  0.
        3    1    3    3  502    0 -0.28011197017E+03 -0.21326392014E+03  0.97691259245E+03  0.10384134239E+04  0.10100000352E+00 0.  1.
       -3    1    3    3    0  502  0.28011197017E+03  0.21326392014E+03 -0.18817742077E+03  0.39919289492E+03  0.10100000352E+00 0. -1.
</event>
<event>
 5   0  0.5001586E-04  0.1203376E+04  0.7818609E-02  0.9109907E-01
        1   -1    0    0  501    0  0.00000000000E+00  0.00000000000E+00  0.12743220074E+04  0.12743220074E+04  0.50400001928E-02 0.  1.
       -1   -1    0    0    0  501  0.00000000000E+00  0.00000000000E+00 -0.28409496721E+03  0.28409496726E+03  0.50400001928E-02 0. -1.
    10030    2    1    2    0    0  0.00000000000E+00  0.00000000000E+00  0.99022704016E+03  0.15584169746E+04  0.12033760326E+04 0.  0.
        1    1    3    3  502    0 -0.58235123722E+03  0.14981515088E+03  0.52261366297E+03  0.79668223507E+03  0.50400001928E-02 0. -1.
       -1    1    3    3    0  502  0.58235123722E+03 -0.14981515088E+03  0.46761337719E+03  0.76173473957E+03  0.50400001928E-02 0.  1.
</event>
<event>
 5   0  0.5052959E-04  0.1206336E+04  0.7818609E-02  0.9107329E-01
       -1   -1    0    0    0  501  0.00000000000E+00  0.00000000000E+00  0.22475820935E+03  0.22475820941E+03  0.50400001928E-02 0.  1.
        1   -1    0    0  501    0  0.00000000000E+00  0.00000000000E+00 -0.16186799785E+04  0.16186799785E+04  0.50400001928E-02 0. -1.
    10030    2    1    2    0    0  0.00000000000E+00  0.00000000000E+00 -0.13939217692E+04  0.18434381879E+04  0.12063359624E+04 0.  0.
        2    1    3    3  502    0  0.14265651153E+03 -0.23597717504E+03  0.12280004983E+03  0.30185420266E+03  0.25500000920E-02 0.  1.
       -2    1    3    3    0  502 -0.14265651153E+03  0.23597717504E+03 -0.15167218190E+04  0.15415839853E+04  0.25500000920E-02 0. -1.
</event>
<event>
 5   0  0.5157631E-04  0.1156581E+04  0.7818609E-02  0.9151734E-01
        1   -1    0    0  501    0  0.00000000000E+00  0.00000000000E+00  0.74888340121E+03  0.74888340122E+03  0.50400001928E-02 0. -1.
       -1   -1    0    0    0  501  0.00000000000E+00  0.00000000000E+00 -0.44655779469E+03  0.44655779472E+03  0.50400001928E-02 0.  1.
    10030    2    1    2    0    0  0.00000000000E+00  0.00000000000E+00  0.30232560652E+03  0.11954411959E+04  0.11565806849E+04 0.  0.
        5    1    3    3  502    0 -0.44690453043E+03  0.25038297107E+03  0.42847262959E+03  0.66785191160E+03  0.46999998093E+01 0. -1.
       -5    1    3    3    0  502  0.44690453043E+03 -0.25038297107E+03 -0.12614702307E+03  0.52758928434E+03  0.46999998093E+01 0.  1.
</event>
<event>
 5   0  0.9410666E-04  0.1199583E+04  0.7818609E-02  0.9113222E-01
       -2   -1    0    0    0  501  0.00000000000E+00  0.00000000000E+00  0.87352301889E+03  0.87352301889E+03  0.25500000920E-02 0.  1.
        2   -1    0    0  501    0  0.00000000000E+00  0.00000000000E+00 -0.41183755090E+03  0.41183755091E+03  0.25500000920E-02 0. -1.
    10030    2    1    2    0    0  0.00000000000E+00  0.00000000000E+00  0.46168546799E+03  0.12853605698E+04  0.11995825620E+04 0.  0.
        2    1    3    3  502    0 -0.22128009709E+03 -0.50120756223E+02  0.82576784240E+03  0.85636995576E+03  0.25500000920E-02 0.  1.
       -2    1    3    3    0  502  0.22128009709E+03  0.50120756223E+02 -0.36408237441E+03  0.42899061404E+03  0.25500000920E-02 0. -1.
</event>
<event>
 5   0  0.9070772E-04  0.1205947E+04  0.7818609E-02  0.9107667E-01
       -2   -1    0    0    0  501  0.00000000000E+00  0.00000000000E+00  0.73205008704E+03  0.73205008704E+03  0.25500000920E-02 0.  1.
        2   -1    0    0  501    0  0.00000000000E+00  0.00000000000E+00 -0.49665592400E+03  0.49665592401E+03  0.25500000920E-02 0. -1.
    10030    2    1    2    0    0  0.00000000000E+00  0.00000000000E+00  0.23539416304E+03  0.12287060110E+04  0.12059469514E+04 0.  0.
        4    1    3    3  502    0 -0.42951920195E+03 -0.19658027737E+03 -0.26413523916E+03  0.54120198425E+03  0.12699999809E+01 0. -1.
       -4    1    3    3    0  502  0.42951920195E+03  0.19658027737E+03  0.49952940220E+03  0.68750402679E+03  0.12699999809E+01 0.  1.
</event>
<event>
 5   0  0.5003507E-04  0.1207258E+04  0.7818609E-02  0.9106527E-01
        1   -1    0    0  501    0  0.00000000000E+00  0.00000000000E+00  0.12812769352E+04  0.12812769352E+04  0.50400001928E-02 0. -1.
       -1   -1    0    0    0  501  0.00000000000E+00  0.00000000000E+00 -0.28437889675E+03  0.28437889680E+03  0.50400001928E-02 0.  1.
    10030    2    1    2    0    0  0.00000000000E+00  0.00000000000E+00  0.99689803846E+03  0.15656558320E+04  0.12072582513E+04 0.  0.
        3    1    3    3  502    0 -0.19368391487E+03 -0.28571939743E+03  0.11406533729E+04  0.11917378740E+04  0.10100000352E+00 0. -1.
       -3    1    3    3    0  502  0.19368391487E+03  0.28571939743E+03 -0.14375533446E+03  0.37391795802E+03  0.10100000352E+00 0.  1.
</event>
<event>
 5   0  0.9410666E-04  0.1202982E+04  0.7818609E-02  0.9110250E-01
       -2   -1    0    0    0  501  0.00000000000E+00  0.00000000000E+00  0.21457325682E+03  0.21457325683E+03  0.25500000920E-02 0.  1.
        2   -1    0    0  501    0  0.00000000000E+00  0.00000000000E+00 -0.16860973901E+04  0.16860973901E+04  0.25500000920E-02 0. -1.
    10030    2    1    2    0    0  0.00000000000E+00  0.00000000000E+00 -0.14715241333E+04  0.19006706469E+04  0.12029819755E+04 0.  0.
        2    1    3    3  502    0  0.84708718579E+02  0.25229435031E+02  0.20425706126E+03  0.22256019068E+03  0.25500000920E-02 0.  1.
       -2    1    3    3    0  502 -0.84708718579E+02 -0.25229435031E+02 -0.16757811945E+04  0.16781104562E+04  0.25500000920E-02 0. -1.
</event>
<event>
 5   0  0.5157631E-04  0.1204514E+04  0.7818609E-02  0.9108915E-01
       -1   -1    0    0    0  501  0.00000000000E+00  0.00000000000E+00  0.76108176469E+03  0.76108176471E+03  0.50400001928E-02 0. -1.
        1   -1    0    0  501    0  0.00000000000E+00  0.00000000000E+00 -0.47657593977E+03  0.47657593980E+03  0.50400001928E-02 0.  1.
    10030    2    1    2    0    0  0.00000000000E+00  0.00000000000E+00  0.28450582492E+03  0.12376577045E+04  0.12045136069E+04 0.  0.
        5    1    3    3  502    0 -0.23000529421E+03 -0.50753597927E+03 -0.92498001083E+02  0.56486562634E+03  0.46999998093E+01 0.  1.
       -5    1    3    3    0  502  0.23000529421E+03  0.50753597927E+03  0.37700382600E+03  0.67279207816E+03  0.46999998093E+01 0. -1.
</event>
<event>
 5   0  0.3453625E-04  0.1198533E+04  0.7818609E-02  0.9114142E-01
       -3   -1    0    0    0  501  0.00000000000E+00  0.00000000000E+00  0.61183318215E+03  0.61183319048E+03  0.10100000352E+00 0.  1.
        3   -1    0    0  501    0  0.00000000000E+00  0.00000000000E+00 -0.58695744145E+03  0.58695745014E+03  0.10100000352E+00 0. -1.
    10030    2    1    2    0    0  0.00000000000E+00  0.00000000000E+00  0.24875740702E+02  0.11987906406E+04  0.11985325184E+04 0.  0.
        3    1    3    3  502    0 -0.47292024966E+02  0.46830503201E+02  0.60812503654E+03  0.61175624388E+03  0.10100000352E+00 0.  1.
       -3    1    3    3    0  502  0.47292024966E+02 -0.46830503201E+02 -0.58324929584E+03  0.58703439674E+03  0.10100000352E+00 0. -1.
</event>
<event>
 5   0  0.5447074E-04  0.1198530E+04  0.7818609E-02  0.9114144E-01
       -1   -1    0    0    0  501  0.00000000000E+00  0.00000000000E+00  0.44032452069E+03  0.44032452072E+03  0.50400001928E-02 0. -1.
        1   -1    0    0  501    0  0.00000000000E+00  0.00000000000E+00 -0.81557673277E+03  0.81557673278E+03  0.50400001928E-02 0.  1.
    10030    2    1    2    0    0  0.00000000000E+00  0.00000000000E+00 -0.37525221208E+03  0.12559012535E+04  0.11985298227E+04 0.  0.
        4    1    3    3  502    0  0.64083101772E+01  0.16533320221E+03 -0.79116605074E+03  0.80828303640E+03  0.12699999809E+01 0.  1.
       -4    1    3    3    0  502 -0.64083101772E+01 -0.16533320221E+03  0.41591383866E+03  0.44761821710E+03  0.12699999809E+01 0. -1.
</event>
<event>
 5   0  0.5052959E-04  0.1235873E+04  0.7818609E-02  0.9082024E-01
       -1   -1    0    0    0  501  0.00000000000E+00  0.00000000000E+00  0.36513535861E+03  0.36513535865E+03  0.50400001928E-02 0. -1.
        1   -1    0    0  501    0  0.00000000000E+00  0.00000000000E+00 -0.10457641438E+04  0.10457641438E+04  0.50400001928E-02 0.  1.
    10030    2    1    2    0    0  0.00000000000E+00  0.00000000000E+00 -0.68062878519E+03  0.14108995025E+04  0.12358729153E+04 0.  0.
        2    1    3    3  502    0  0.35282416313E+03 -0.19390974767E+03  0.19486105287E+03  0.44727699500E+03  0.25500000920E-02 0. -1.
       -2    1    3    3    0  502 -0.35282416313E+03  0.19390974767E+03 -0.87548983805E+03  0.96362250745E+03  0.25500000920E-02 0.  1.
</event>
<event>
 5   0  0.5157631E-04  0.1201332E+04  0.7818609E-02  0.9111691E-01
        1   -1    0    0  501    0  0.00000000000E+00  0.00000000000E+00  0.56194502745E+03  0.56194502747E+03  0.50400001928E-02 0. -1.
       -1   -1    0    0    0  501  0.00000000000E+00  0.00000000000E+00 -0.64205554236E+03  0.64205554238E+03  0.50400001928E-02 0.  1.
    10030    2    1    2    0    0  0.00000000000E+00  0.00000000000E+00 -0.80110514913E+02  0.12040005699E+04  0.12013324592E+04 0.  0.
        5    1    3    3  502    0 -0.53131443712E+03 -0.98213527449E+02  0.22289532500E+03  0.58450435753E+03  0.46999998093E+01 0. -1.
       -5    1    3    3    0  502  0.53131443712E+03  0.98213527449E+02 -0.30300583991E+03  0.61949621232E+03  0.46999998093E+01 0.  1.
</event>
<event>
 5   0  0.5001586E-04  0.1196553E+04  0.7818609E-02  0.9115879E-01
        1   -1    0    0  501    0  0.00000000000E+00  0.00000000000E+00  0.63840896575E+03  0.63840896577E+03  0.50400001928E-02 0. -1.
       -1   -1    0    0    0  501  0.00000000000E+00  0.00000000000E+00 -0.56066675688E+03  0.56066675690E+03  0.50400001928E-02 0.  1.
    10030    2    1    2    0    0  0.00000000000E+00  0.00000000000E+00  0.77742208870E+02  0.11990757227E+04  0.11965528562E+04 0.  0.
        1    1    3    3  502    0  0.49242250566E+03 -0.33897668691E+03  0.15378851672E+02  0.59801473849E+03  0.50400001928E-02 0.  1.
       -1    1    3    3    0  502 -0.49242250566E+03  0.33897668691E+03  0.62363357199E+02  0.60106098417E+03  0.50400001928E-02 0. -1.
</event>
<event>
 5   0  0.9050363E-04  0.1202858E+04  0.7818609E-02  0.9110359E-01
       -2   -1    0    0    0  501  0.00000000000E+00  0.00000000000E+00  0.32442229939E+03  0.32442229940E+03  0.25500000920E-02 0.  1.
        2   -1    0    0  501    0  0.00000000000E+00  0.00000000000E+00 -0.11149568690E+04  0.11149568690E+04  0.25500000920E-02 0. -1.
    10030    2    1    2    0    0  0.00000000000E+00  0.00000000000E+00 -0.79053456957E+03  0.14393791684E+04  0.12028580484E+04 0.  0.
        3    1    3    3  502    0 -0.44109786879E+03  0.36858072859E+03 -0.18356888035E+03  0.60342077142E+03  0.10100000352E+00 0.  1.
       -3    1    3    3    0  502  0.44109786879E+03 -0.36858072859E+03 -0.60696568921E+03  0.83595839695E+03  0.10100000352E+00 0. -1.
</event>
<event>
 5   0  0.9050363E-04  0.1195001E+04  0.7818609E-02  0.9117243E-01
       -2   -1    0    0    0  501  0.00000000000E+00  0.00000000000E+00  0.33564579603E+03  0.33564579604E+03  0.25500000920E-02 0. -1.
        2   -1    0    0  501    0  0.00000000000E+00  0.00000000000E+00 -0.10636418062E+04  0.10636418062E+04  0.25500000920E-02 0.  1.
    10030    2    1    2    0    0  0.00000000000E+00  0.00000000000E+00 -0.72799601013E+03  0.13992876022E+04  0.11950010891E+04 0.  0.
        3    1    3    3  502    0  0.46286376608E+03  0.36221509014E+03 -0.23807720382E+03  0.63413200728E+03  0.10100000352E+00 0. -1.
       -3    1    3    3    0  502 -0.46286376608E+03 -0.36221509014E+03 -0.48991880631E+03  0.76515559493E+03  0.10100000352E+00 0.  1.
</event>
<event>
 5   0  0.5157631E-04  0.1196882E+04  0.7818609E-02  0.9115590E-01
       -1   -1    0    0    0  501  0.00000000000E+00  0.00000000000E+00  0.33822510277E+03  0.33822510281E+03  0.50400001928E-02 0.  1.
        1   -1    0    0  501    0  0.00000000000E+00  0.00000000000E+00 -0.10588558255E+04  0.10588558256E+04  0.50400001928E-02 0. -1.
    10030    2    1    2    0    0  0.00000000000E+00  0.00000000000E+00 -0.72063072278E+03  0.13970809284E+04  0.11968819832E+04 0.  0.
        5    1    3    3  502    0  0.20712054418E+03 -0.37689809433E+03  0.12541143511E+03  0.44799688770E+03  0.46999998093E+01 0.  1.
       -5    1    3    3    0  502 -0.20712054418E+03  0.37689809433E+03 -0.84604215789E+03  0.94908404067E+03  0.46999998093E+01 0. -1.
</event>
<event>
 5   0  0.5003507E-04  0.1201823E+04  0.7818609E-02  0.9111262E-01
       -1   -1    0    0    0  501  0.00000000000E+00  0.00000000000E+00  0.62760824946E+03  0.62760824948E+03  0.50400001928E-02 0.  1.
        1   -1    0    0  501    0  0.00000000000E+00  0.00000000000E+00 -0.57535026542E+03  0.57535026544E+03  0.50400001928E-02 0. -1.
    10030    2    1    2    0    0  0.00000000000E+00  0.00000000000E+00  0.52257984040E+02  0.12029585149E+04  0.12018229036E+04 0.  0.
        3    1    3    3  502    0  0.38478416471E+03  0.45284514501E+03  0.11547129554E+03  0.60536039601E+03  0.10100000352E+00 0. -1.
       -3    1    3    3    0  502 -0.38478416471E+03 -0.45284514501E+03 -0.63213311498E+02  0.59759811890E+03  0.10100000352E+00 0.  1.
</event>
<event>
 5   0  0.5003507E-04  0.1199859E+04  0.7818609E-02  0.9112980E-01
       -1   -1    0    0    0  501  0.00000000000E+00  0.00000000000E+00  0.62422293935E+03  0.62422293937E+03  0.50400001928E-02 0. -1.
        1   -1    0    0  501    0  0.00000000000E+00  0.00000000000E+00 -0.57658178120E+03  0.57658178122E+03  0.50400001928E-02 0.  1.
    10030    2    1    2    0    0  0.00000000000E+00  0.00000000000E+00  0.47641158152E+02  0.12008047206E+04  0.11998592822E+04 0.  0.
        3    1    3    3  502    0 -0.10534949405E+03 -0.30202732622E+03 -0.48411903613E+03  0.58025018141E+03  0.10100000352E+00 0.  1.
       -3    1    3    3    0  502  0.10534949405E+03  0.30202732622E+03  0.53176019428E+03  0.62055453918E+03  0.10100000352E+00 0. -1.
</event>
<event>
 5   0  0.9410666E-04  0.1192661E+04  0.7818609E-02  0.9119305E-01
       -2   -1    0    0    0  501  0.00000000000E+00  0.00000000000E+00  0.69271593761E+03  0.69271593762E+03  0.25500000920E-02 0.  1.
        2   -1    0    0  501    0  0.00000000000E+00  0.00000000000E+00 -0.51335594412E+03  0.51335594413E+03  0.25500000920E-02 0. -1.
    10030    2    1    2    0    0  0.00000000000E+00  0.00000000000E+00  0.17935999349E+03  0.12060718817E+04  0.11926606293E+04 0.  0.
        2    1    3    3  502    0 -0.35413990227E+03  0.37356158395E+03  0.39414113702E+03  0.64831363034E+03  0.25500000920E-02 0. -1.
       -2    1    3    3    0  502  0.35413990227E+03 -0.37356158395E+03 -0.21478114353E+03  0.55775825141E+03  0.25500000920E-02 0.  1.
</event>
<event>
 5   0  0.9410666E-04  0.1200282E+04  0.7818609E-02  0.9112609E-01
       -2   -1    0    0    0  501  0.00000000000E+00  0.00000000000E+00  0.32892852683E+03  0.32892852684E+03  0.25500000920E-02 0.  1.
        2   -1    0    0  501    0  0.00000000000E+00  0.00000000000E+00 -0.10949776750E+04  0.10949776750E+04  0.25500000920E-02 0. -1.
    10030    2    1    2    0    0  0.00000000000E+00  0.00000000000E+00 -0.76604914815E+03  0.14239062018E+04  0.12002822894E+04 0.  0.
        2    1    3    3  502    0  0.59589140190E+03 -0.60821134220E+02 -0.33889736614E+03  0.68821304696E+03  0.25500000920E-02 0. -1.
       -2    1    3    3    0  502 -0.59589140190E+03  0.60821134220E+02 -0.42715178201E+03  0.73569315485E+03  0.25500000920E-02 0.  1.
</event>
<event>
 5   0  0.5447074E-04  0.1202915E+04  0.7818609E-02  0.9110309E-01
       -1   -1    0    0    0  501  0.00000000000E+00  0.00000000000E+00  0.40147099985E+03  0.40147099988E+03  0.50400001928E-02 0. -1.
        1   -1    0    0  501    0  0.00000000000E+00  0.00000000000E+00 -0.90106345920E+03  0.90106345922E+03  0.50400001928E-02 0.  1.
    10030    2    1    2    0    0  0.00000000000E+00  0.00000000000E+00 -0.49959245935E+03  0.13025344591E+04  0.12029145405E+04 0.  0.
        4    1    3    3  502    0  0.27956181488E+03  0.18860667937E+03  0.28946537960E+03  0.44443121709E+03  0.12699999809E+01 0. -1.
       -4    1    3    3    0  502 -0.27956181488E+03 -0.18860667937E+03 -0.78905783895E+03  0.85810324201E+03  0.12699999809E+01 0.  1.
</event>
<event>
 5   0  0.9050363E-04  0.1199626E+04  0.7818609E-02  0.9113184E-01
        2   -1    0    0  501    0  0.00000000000E+00  0.00000000000E+00  0.20359117326E+04  0.20359117326E+04  0.25500000920E-02 0.  1.
       -2   -1    0    0    0  501  0.00000000000E+00  0.00000000000E+00 -0.17671462012E+03  0.17671462013E+03  0.25500000920E-02 0. -1.
    10030    2    1    2    0    0  0.00000000000E+00  0.00000000000E+00  0.18591971125E+04  0.22126263527E+04  0.11996255556E+04 0.  0.
        3    1    3    3  502    0 -0.10432306029E+03  0.56813996775E+03  0.12276270422E+04  0.13567367058E+04  0.10100000352E+00 0. -1.
       -3    1    3    3    0  502  0.10432306029E+03 -0.56813996775E+03  0.63157007025E+03  0.85588964692E+03  0.10100000352E+00 0.  1.
</event>
<event>
 5   0  0.3453625E-04  0.1199743E+04  0.7818609E-02  0.9113082E-01
       -3   -1    0    0    0  501  0.00000000000E+00  0.00000000000E+00  0.96364236579E+03  0.96364237108E+03  0.10100000352E+00 0.  1.
        3   -1    0    0  501    0  0.00000000000E+00  0.00000000000E+00 -0.37342254046E+03  0.37342255412E+03  0.10100000352E+00 0. -1.
    10030    2    1    2    0    0  0.00000000000E+00  0.00000000000E+00  0.59021982533E+03  0.13370649252E+04  0.11997429608E+04 0.  0.
        1    1    3    3  502    0  0.16375681995E+03 -0.38754051638E+03 -0.18143307503E+03  0.45817235693E+03  0.50400001928E-02 0. -1.
       -1    1    3    3    0  502 -0.16375681995E+03  0.38754051638E+03  0.77165290035E+03  0.87889256827E+03  0.50400001928E-02 0.  1.
</event>
<event>
 5   0  0.3453625E-04  0.1192712E+04  0.7818609E-02  0.9119259E-01
       -4   -1    0    0    0  501  0.00000000000E+00  0.00000000000E+00  0.23996857483E+03  0.23997193545E+03  0.12699999809E+01 0.  1.
        4   -1    0    0  501    0  0.00000000000E+00  0.00000000000E+00 -0.14820162395E+04  0.14820167837E+04  0.12699999809E+01 0. -1.
    10030    2    1    2    0    0  0.00000000000E+00  0.00000000000E+00 -0.12420476647E+04  0.17219887191E+04  0.11927123490E+04 0.  0.
        2    1    3    3  502    0 -0.15720585557E+03  0.29409614344E+03 -0.13348226200E+04  0.13758479747E+04  0.25500000920E-02 0. -1.
       -2    1    3    3    0  502  0.15720585557E+03 -0.29409614344E+03  0.92774955316E+02  0.34614074442E+03  0.25500000920E-02 0.  1.
</event>
<event>
 5   0  0.3453625E-04  0.1203536E+04  0.7818609E-02  0.9109767E-01
        4   -1    0    0  501    0  0.00000000000E+00  0.00000000000E+00  0.18140026946E+03  0.18140471510E+03  0.12699999809E+01 0. -1.
       -4   -1    0    0    0  501  0.00000000000E+00  0.00000000000E+00 -0.19962443634E+04  0.19962447673E+04  0.12699999809E+01 0.  1.
    10030    2    1    2    0    0  0.00000000000E+00  0.00000000000E+00 -0.18148440939E+04  0.21776494824E+04  0.12035357009E+04 0.  0.
        2    1    3    3  502    0  0.13367167462E+03 -0.23973414648E+03  0.61539257602E+02  0.28129638785E+03  0.25500000920E-02 0. -1.
       -2    1    3    3    0  502 -0.13367167462E+03  0.23973414648E+03 -0.18763833515E+04  0.18963530946E+04  0.25500000920E-02 0.  1.
</event>
<event>
 5   0  0.9410666E-04  0.1203817E+04  0.7818609E-02  0.9109522E-01
        2   -1    0    0  501    0  0.00000000000E+00  0.00000000000E+00  0.23220120529E+04  0.23220120529E+04  0.25500000920E-02 0. -1.
       -2   -1    0    0    0  501  0.00000000000E+00  0.00000000000E+00 -0.15602590154E+03  0.15602590156E+03  0.25500000920E-02 0.  1.
    10030    2    1    2    0    0  0.00000000000E+00  0.00000000000E+00  0.21659861513E+04  0.24780379544E+04  0.12038173017E+04 0.  0.
        2    1    3    3  502    0  0.29905427228E+03 -0.27940406248E+02  0.21567243492E+04  0.21775385284E+04  0.25500000920E-02 0. -1.
       -2    1    3    3    0  502 -0.29905427228E+03  0.27940406248E+02  0.92618021071E+01  0.30049942605E+03  0.25500000920E-02 0.  1.
</event>
<event>
 5   0  0.5157631E-04  0.1202308E+04  0.7818609E-02  0.9110839E-01
        1   -1    0    0  501    0  0.00000000000E+00  0.00000000000E+00  0.48969993625E+03  0.48969993628E+03  0.50400001928E-02 0. -1.
       -1   -1    0    0    0  501  0.00000000000E+00  0.00000000000E+00 -0.73797470298E+03  0.73797470300E+03  0.50400001928E-02 0.  1.
    10030    2    1    2    0    0  0.00000000000E+00  0.00000000000E+00 -0.24827476673E+03  0.12276746393E+04  0.12023080554E+04 0.  0.
        5    1    3    3  502    0  0.43633036168E+03 -0.40926176518E+03 -0.18441417188E+03  0.62602719889E+03  0.46999998093E+01 0. -1.
       -5    1    3    3    0  502 -0.43633036168E+03  0.40926176518E+03 -0.63860594845E+02  0.60164744039E+03  0.46999998093E+01 0.  1.
</event>
<event>
 5   0  0.9145224E-04  0.1203273E+04  0.7818609E-02  0.9109997E-01
       -2   -1    0    0    0  501  0.00000000000E+00  0.00000000000E+00  0.20513897364E+03  0.20513897365E+03  0.25500000920E-02 0.  1.
        2   -1    0    0  501    0  0.00000000000E+00  0.00000000000E+00 -0.17644931529E+04  0.17644931529E+04  0.25500000920E-02 0. -1.
    10030    2    1    2    0    0  0.00000000000E+00  0.00000000000E+00 -0.15593541792E+04  0.19696321265E+04  0.12032727278E+04 0.  0.
        5    1    3    3  502    0  0.38477082035E+03 -0.22054718396E+03 -0.11425410486E+03  0.45800189413E+03  0.46999998093E+01 0.  1.
       -5    1    3    3    0  502 -0.38477082035E+03  0.22054718396E+03 -0.14451000744E+04  0.15116302324E+04  0.46999998093E+01 0. -1.
</event>
<event>
 5   0  0.5003507E-04  0.1204782E+04  0.7818609E-02  0.9108681E-01
       -1   -1    0    0    0  501  0.00000000000E+00  0.00000000000E+00  0.13295229445E+04  0.13295229445E+04  0.50400001928E-02 0. -1.
        1   -1    0    0  501    0  0.00000000000E+00  0.00000000000E+00 -0.27293639301E+03  0.27293639305E+03  0.50400001928E-02 0.  1.
    10030    2    1    2    0    0  0.00000000000E+00  0.00000000000E+00  0.10565865514E+04  0.16024593375E+04  0.12047824649E+04 0.  0.
        3    1    3    3  502    0  0.47715098603E+02  0.18410756831E+03  0.12885405083E+04  0.13025010477E+04  0.10100000352E+00 0. -1.
       -3    1    3    3    0  502 -0.47715098603E+02 -0.18410756831E+03 -0.23195395688E+03  0.29995828986E+03  0.10100000352E+00 0.  1.
</event>
<event>
 5   0  0.9070772E-04  0.1203402E+04  0.7818609E-02  0.9109884E-01
        2   -1    0    0  501    0  0.00000000000E+00  0.00000000000E+00  0.31757113093E+03  0.31757113094E+03  0.25500000920E-02 0.  1.
       -2   -1    0    0    0  501  0.00000000000E+00  0.00000000000E+00 -0.11400412507E+04  0.11400412507E+04  0.25500000920E-02 0. -1.
    10030    2    1    2    0    0  0.00000000000E+00  0.00000000000E+00 -0.82247011980E+03  0.14576123817E+04  0.12034021594E+04 0.  0.
        4    1    3    3  502    0 -0.14412228849E+03 -0.73654483456E+02  0.29070751548E+03  0.33272915326E+03  0.12699999809E+01 0.  1.
       -4    1    3    3    0  502  0.14412228849E+03  0.73654483456E+02 -0.11131776353E+04  0.11248832284E+04  0.12699999809E+01 0. -1.
</event>
<event>
 5   0  0.5052959E-04  0.1205909E+04  0.7818609E-02  0.9107700E-01
        1   -1    0    0  501    0  0.00000000000E+00  0.00000000000E+00  0.75330246645E+03  0.75330246646E+03  0.50400001928E-02 0.  1.
       -1   -1    0    0    0  501  0.00000000000E+00  0.00000000000E+00 -0.48261344021E+03  0.48261344024E+03  0.50400001928E-02 0. -1.
    10030    2    1    2    0    0  0.00000000000E+00  0.00000000000E+00  0.27068902623E+03  0.12359159067E+04  0.12059086116E+04 0.  0.
        2    1    3    3  502    0 -0.31337921098E+03  0.27347728395E+03  0.58273587467E+03  0.71594514758E+03  0.25500000920E-02 0.  1.
       -2    1    3    3    0  502  0.31337921098E+03 -0.27347728395E+03 -0.31204684844E+03  0.51997075912E+03  0.25500000920E-02 0. -1.
</event>
<event>
 5   0  0.5001586E-04  0.1202745E+04  0.7818609E-02  0.9110457E-01
        1   -1    0    0  501    0  0.00000000000E+00  0.00000000000E+00  0.13491971348E+04  0.13491971348E+04  0.50400001928E-02 0.  1.
       -1   -1    0    0    0  501  0.00000000000E+00  0.00000000000E+00 -0.26804733825E+03  0.26804733829E+03  0.50400001928E-02 0. -1.
    10030    2    1    2    0    0  0.00000000000E+00  0.00000000000E+00  0.10811497965E+04  0.16172444731E+04  0.12027446958E+04 0.  0.
        1    1    3    3  502    0  0.24960117870E+03 -0.20084541361E+03 -0.14374585886E+03  0.35114455790E+03  0.50400001928E-02 0. -1.
       -1    1    3    3    0  502 -0.24960117870E+03  0.20084541361E+03  0.12248956554E+04  0.12660999152E+04  0.50400001928E-02 0.  1.
</event>
<event>
 5   0  0.9145224E-04  0.1195773E+04  0.7818609E-02  0.9116564E-01
        2   -1    0    0  501    0  0.00000000000E+00  0.00000000000E+00  0.16211885381E+04  0.16211885381E+04  0.25500000920E-02 0. -1.
       -2   -1    0    0    0  501  0.00000000000E+00  0.00000000000E+00 -0.22049777071E+03  0.22049777073E+03  0.25500000920E-02 0.  1.
    10030    2    1    2    0    0  0.00000000000E+00  0.00000000000E+00  0.14006907674E+04  0.18416863088E+04  0.11957733206E+04 0.  0.
        5    1    3    3  502    0 -0.52704318844E+03 -0.19547485157E+03  0.10139546819E+04  0.11593580668E+04  0.46999998093E+01 0. -1.
       -5    1    3    3    0  502  0.52704318844E+03  0.19547485157E+03  0.38673608550E+03  0.68232824205E+03  0.46999998093E+01 0.  1.
</event>
<event>
 5   0  0.5157631E-04  0.1201784E+04  0.7818609E-02  0.9111296E-01
       -1   -1    0    0    0  501  0.00000000000E+00  0.00000000000E+00  0.78635029582E+03  0.78635029583E+03  0.50400001928E-02 0.  1.
        1   -1    0    0  501    0  0.00000000000E+00  0.00000000000E+00 -0.45917366351E+03  0.45917366354E+03  0.50400001928E-02 0. -1.
    10030    2    1    2    0    0  0.00000000000E+00  0.00000000000E+00  0.32717663231E+03  0.12455239594E+04  0.12017842505E+04 0.  0.
        5    1    3    3  502    0 -0.43701728972E+03 -0.73005999908E+02 -0.25705972628E+03  0.51226534180E+03  0.46999998093E+01 0. -1.
       -5    1    3    3    0  502  0.43701728972E+03  0.73005999908E+02  0.58423635859E+03  0.73325861757E+03  0.46999998093E+01 0.  1.
</event>
<event>
 5   0  0.9050363E-04  0.1198274E+04  0.7818609E-02  0.9114369E-01
        2   -1    0    0  501    0  0.00000000000E+00  0.00000000000E+00  0.54857980487E+03  0.54857980487E+03  0.25500000920E-02 0.  1.
       -2   -1    0    0    0  501  0.00000000000E+00  0.00000000000E+00 -0.65435338673E+03  0.65435338674E+03  0.25500000920E-02 0. -1.
    10030    2    1    2    0    0  0.00000000000E+00  0.00000000000E+00 -0.10577358187E+03  0.12029331916E+04  0.11982738472E+04 0.  0.
        3    1    3    3  502    0  0.31898274351E+03  0.49882811355E+03 -0.14481559391E+03  0.60954986995E+03  0.10100000352E+00 0.  1.
       -3    1    3    3    0  502 -0.31898274351E+03 -0.49882811355E+03  0.39042012048E+02  0.59338332166E+03  0.10100000352E+00 0. -1.
</event>
<event>
 5   0  0.9298693E-04  0.1193446E+04  0.7818609E-02  0.9118612E-01
       -2   -1    0    0    0  501  0.00000000000E+00  0.00000000000E+00  0.21660855859E+03  0.21660855861E+03  0.25500000920E-02 0.  1.
        2   -1    0    0  501    0  0.00000000000E+00  0.00000000000E+00 -0.16438805793E+04  0.16438805793E+04  0.25500000920E-02 0. -1.
    10030    2    1    2    0    0  0.00000000000E+00  0.00000000000E+00 -0.14272720207E+04  0.18604891379E+04  0.11934464425E+04 0.  0.
        1    1    3    3  502    0  0.34061367634E+03 -0.39202432722E+03 -0.11718047004E+04  0.12817281325E+04  0.50400001928E-02 0. -1.
       -1    1    3    3    0  502 -0.34061367634E+03  0.39202432722E+03 -0.25546732029E+03  0.57876100543E+03  0.50400001928E-02 0.  1.
</event>
<event>
 5   0  0.5052959E-04  0.1206418E+04  0.7818609E-02  0.9107257E-01
        1   -1    0    0  501    0  0.00000000000E+00  0.00000000000E+00  0.52688495418E+03  0.52688495420E+03  0.50400001928E-02 0. -1.
       -1   -1    0    0    0  501  0.00000000000E+00  0.00000000000E+00 -0.69058968561E+03  0.69058968563E+03  0.50400001928E-02 0.  1.
    10030    2    1    2    0    0  0.00000000000E+00  0.00000000000E+00 -0.16370473144E+03  0.12174746398E+04  0.12064183601E+04 0.  0.
        2    1    3    3  502    0 -0.28317980783E+03  0.28283842900E+03 -0.53728971783E+03  0.66997658271E+03  0.25500000920E-02 0.  1.
       -2    1    3    3    0  502  0.28317980783E+03 -0.28283842900E+03  0.37358498640E+03  0.54749805712E+03  0.25500000920E-02 0. -1.
</event>
<event>
 5   0  0.5052959E-04  0.1217323E+04  0.7818609E-02  0.9097828E-01
       -1   -1    0    0    0  501  0.00000000000E+00  0.00000000000E+00  0.16071663618E+03  0.16071663626E+03  0.50400001928E-02 0.  1.
        1   -1    0    0  501    0  0.00000000000E+00  0.00000000000E+00 -0.23051047426E+04  0.23051047426E+04  0.50400001928E-02 0. -1.
    10030    2    1    2    0    0  0.00000000000E+00  0.00000000000E+00 -0.21443881064E+04  0.24658213788E+04  0.12173227680E+04 0.  0.
        2    1    3    3  502    0  0.31563404284E+03  0.51972112762E+03 -0.11270645710E+04  0.12806285358E+04  0.25500000920E-02 0. -1.
       -2    1    3    3    0  502 -0.31563404284E+03 -0.51972112762E+03 -0.10173235353E+04  0.11851928430E+04  0.25500000920E-02 0.  1.
</event>
<event>
 5   0  0.9050363E-04  0.1203661E+04  0.7818609E-02  0.9109658E-01
       -2   -1    0    0    0  501  0.00000000000E+00  0.00000000000E+00  0.41649083522E+03  0.41649083523E+03  0.25500000920E-02 0. -1.
        2   -1    0    0  501    0  0.00000000000E+00  0.00000000000E+00 -0.86964722332E+03  0.86964722332E+03  0.25500000920E-02 0.  1.
    10030    2    1    2    0    0  0.00000000000E+00  0.00000000000E+00 -0.45315638810E+03  0.12861380586E+04  0.12036612454E+04 0.  0.
        3    1    3    3  502    0  0.12917386594E+03  0.10588910722E+03 -0.84438487873E+03  0.86074631820E+03  0.10100000352E+00 0.  1.
       -3    1    3    3    0  502 -0.12917386594E+03 -0.10588910722E+03  0.39122849064E+03  0.42539174035E+03  0.10100000352E+00 0. -1.
</event>
<event>
 5   0  0.9145224E-04  0.1211269E+04  0.7818609E-02  0.9103050E-01
        2   -1    0    0  501    0  0.00000000000E+00  0.00000000000E+00  0.83282166364E+03  0.83282166365E+03  0.25500000920E-02 0.  1.
       -2   -1    0    0    0  501  0.00000000000E+00  0.00000000000E+00 -0.44042193316E+03  0.44042193316E+03  0.25500000920E-02 0. -1.
    10030    2    1    2    0    0  0.00000000000E+00  0.00000000000E+00  0.39239973049E+03  0.12732435968E+04  0.12112686359E+04 0.  0.
        5    1    3    3  502    0  0.41902371603E+02  0.27815724647E+03  0.75996519909E+03  0.81036809928E+03  0.46999998093E+01 0.  1.
       -5    1    3    3    0  502 -0.41902371603E+02 -0.27815724647E+03 -0.36756546860E+03  0.46287549753E+03  0.46999998093E+01 0. -1.
</event>
<event>
 5   0  0.5447074E-04  0.1201848E+04  0.7818609E-02  0.9111241E-01
        1   -1    0    0  501    0  0.00000000000E+00  0.00000000000E+00  0.12338548090E+04  0.12338548090E+04  0.50400001928E-02 0.  1.
       -1   -1    0    0    0  501  0.00000000000E+00  0.00000000000E+00 -0.29266766054E+03  0.29266766058E+03  0.50400001928E-02 0. -1.
    10030    2    1    2    0    0  0.00000000000E+00  0.00000000000E+00  0.94118714841E+03  0.15265224695E+04  0.12018475784E+04 0.  0.
        4    1    3    3  502    0  0.57363739965E+03 -0.13524078541E+03  0.61957396617E+03  0.85511604403E+03  0.12699999809E+01 0. -1.
       -4    1    3    3    0  502 -0.57363739965E+03  0.13524078541E+03  0.32161318225E+03  0.67140642551E+03  0.12699999809E+01 0.  1.
</event>
<event>
 5   0  0.5447074E-04  0.1198763E+04  0.7818609E-02  0.9113940E-01
        1   -1    0    0  501    0  0.00000000000E+00  0.00000000000E+00  0.90408911391E+03  0.90408911393E+03  0.50400001928E-02 0. -1.
       -1   -1    0    0    0  501  0.00000000000E+00  0.00000000000E+00 -0.39737051355E+03  0.39737051358E+03  0.50400001928E-02 0.  1.
    10030    2    1    2    0    0  0.00000000000E+00  0.00000000000E+00  0.50671860036E+03  0.13014596275E+04  0.11987632886E+04 0.  0.
        4    1    3    3  502    0  0.18072451457E+03  0.56336339134E+03  0.14912900072E+03  0.61014812352E+03  0.12699999809E+01 0.  1.
       -4    1    3    3    0  502 -0.18072451457E+03 -0.56336339134E+03  0.35758959964E+03  0.69131150399E+03  0.12699999809E+01 0. -1.
</event>
<event>
 5   0  0.5001586E-04  0.1196059E+04  0.7818609E-02  0.9116313E-01
        1   -1    0    0  501    0  0.00000000000E+00  0.00000000000E+00  0.77416541472E+03  0.77416541474E+03  0.50400001928E-02 0.  1.
       -1   -1    0    0    0  501  0.00000000000E+00  0.00000000000E+00 -0.46196746217E+03  0.46196746219E+03  0.50400001928E-02 0. -1.
    10030    2    1    2    0    0  0.00000000000E+00  0.00000000000E+00  0.31219795256E+03  0.12361328769E+04  0.11960589149E+04 0.  0.
        1    1    3    3  502    0 -0.54409197497E+03 -0.21419047955E+03  0.28570228917E+03  0.65079907562E+03  0.50400001928E-02 0.  1.
       -1    1    3    3    0  502  0.54409197497E+03  0.21419047955E+03  0.26495663389E+02  0.58533380132E+03  0.50400001928E-02 0. -1.
</event>
<event>
 5   0  0.5001586E-04  0.1196701E+04  0.7818609E-02  0.9115749E-01
       -1   -1    0    0    0  501  0.00000000000E+00  0.00000000000E+00  0.68441371888E+03  0.68441371890E+03  0.50400001928E-02 0. -1.
        1   -1    0    0  501    0  0.00000000000E+00  0.00000000000E+00 -0.52310961936E+03  0.52310961939E+03  0.50400001928E-02 0.  1.
    10030    2    1    2    0    0  0.00000000000E+00  0.00000000000E+00  0.16130409951E+03  0.12075233383E+04  0.11967011323E+04 0.  0.
        1    1    3    3  502    0  0.42753913773E+03  0.67736806995E+02 -0.33617619326E+03  0.54808067130E+03  0.50400001928E-02 0.  1.
       -1    1    3    3    0  502 -0.42753913773E+03 -0.67736806995E+02  0.49748029278E+03  0.65944266698E+03  0.50400001928E-02 0. -1.
</event>
<event>
 5   0  0.5052959E-04  0.1200534E+04  0.7818609E-02  0.9112389E-01
       -1   -1    0    0    0  501  0.00000000000E+00  0.00000000000E+00  0.58558781505E+03  0.58558781507E+03  0.50400001928E-02 0. -1.
        1   -1    0    0  501    0  0.00000000000E+00  0.00000000000E+00 -0.61531462387E+03  0.61531462389E+03  0.50400001928E-02 0.  1.
    10030    2    1    2    0    0  0.00000000000E+00  0.00000000000E+00 -0.29726808821E+02  0.12009024390E+04  0.12005344580E+04 0.  0.
        2    1    3    3  502    0  0.34937986638E+03  0.14194841169E+03  0.45229698425E+03  0.58888725965E+03  0.25500000920E-02 0. -1.
       -2    1    3    3    0  502 -0.34937986638E+03 -0.14194841169E+03 -0.48202379308E+03  0.61201517931E+03  0.25500000920E-02 0.  1.
</event>
<event>
 5   0  0.5157631E-04  0.1216942E+04  0.7818609E-02  0.9098155E-01
       -1   -1    0    0    0  501  0.00000000000E+00  0.00000000000E+00  0.33298629104E+03  0.33298629108E+03  0.50400001928E-02 0. -1.
        1   -1    0    0  501    0  0.00000000000E+00  0.00000000000E+00 -0.11118693765E+04  0.11118693765E+04  0.50400001928E-02 0.  1.
    10030    2    1    2    0    0  0.00000000000E+00  0.00000000000E+00 -0.77888308547E+03  0.14448556676E+04  0.12169424963E+04 0.  0.
        5    1    3    3  502    0 -0.27562407535E+03 -0.26021592616E+03  0.17565325269E+03  0.41780032828E+03  0.46999998093E+01 0. -1.
       -5    1    3    3    0  502  0.27562407535E+03  0.26021592616E+03 -0.95453633816E+03  0.10270553393E+04  0.46999998093E+01 0.  1.
</event>
<event>
 5   0  0.5052959E-04  0.1191945E+04  0.7818609E-02  0.9119937E-01
        1   -1    0    0  501    0  0.00000000000E+00  0.00000000000E+00  0.62552366467E+03  0.62552366469E+03  0.50400001928E-02 0.  1.
       -1   -1    0    0    0  501  0.00000000000E+00  0.00000000000E+00 -0.56781707835E+03  0.56781707837E+03  0.50400001928E-02 0. -1.
    10030    2    1    2    0    0  0.00000000000E+00  0.00000000000E+00  0.57706586315E+02  0.11933407431E+04  0.11919446627E+04 0.  0.
        2    1    3    3  502    0  0.12602127111E+03  0.35172222104E+03  0.49371721557E+03  0.61914987725E+03  0.25500000920E-02 0.  1.
       -2    1    3    3    0  502 -0.12602127111E+03 -0.35172222104E+03 -0.43601062926E+03  0.57419086581E+03  0.25500000920E-02 0. -1.
</event>
<event>
 5   0  0.9298693E-04  0.1197655E+04  0.7818609E-02  0.9114912E-01
       -2   -1    0    0    0  501  0.00000000000E+00  0.00000000000E+00  0.31400720639E+03  0.31400720640E+03  0.25500000920E-02 0. -1.
        2   -1    0    0  501    0  0.00000000000E+00  0.00000000000E+00 -0.11419935182E+04  0.11419935182E+04  0.25500000920E-02 0.  1.
    10030    2    1    2    0    0  0.00000000000E+00  0.00000000000E+00 -0.82798631180E+03  0.14560007246E+04  0.11976546988E+04 0.  0.
        1    1    3    3  502    0 -0.19477893760E+03  0.40652642028E+03  0.65236602996E+02  0.45547599203E+03  0.50400001928E-02 0. -1.
       -1    1    3    3    0  502  0.19477893760E+03 -0.40652642028E+03 -0.89322291480E+03  0.10005247326E+04  0.50400001928E-02 0.  1.
</event>
<event>
 5   0  0.9298693E-04  0.1211447E+04  0.7818609E-02  0.9102895E-01
       -2   -1    0    0    0  501  0.00000000000E+00  0.00000000000E+00  0.25531951719E+03  0.25531951720E+03  0.25500000920E-02 0. -1.
        2   -1    0    0  501    0  0.00000000000E+00  0.00000000000E+00 -0.14370270720E+04  0.14370270720E+04  0.25500000920E-02 0.  1.
    10030    2    1    2    0    0  0.00000000000E+00  0.00000000000E+00 -0.11817075548E+04  0.16923465892E+04  0.12114471647E+04 0.  0.
        1    1    3    3  502    0  0.50129391906E+03 -0.41710177054E+02 -0.10622448381E+04  0.11753294977E+04  0.50400001928E-02 0.  1.
       -1    1    3    3    0  502 -0.50129391906E+03  0.41710177054E+02 -0.11946271671E+03  0.51701709146E+03  0.50400001928E-02 0. -1.
</event>
<event>
 5   0  0.9410666E-04  0.1198534E+04  0.7818609E-02  0.9114140E-01
        2   -1    0    0  501    0  0.00000000000E+00  0.00000000000E+00  0.18384346071E+04  0.18384346071E+04  0.25500000920E-02 0. -1.
       -2   -1    0    0    0  501  0.00000000000E+00  0.00000000000E+00 -0.19534069043E+03  0.19534069045E+03  0.25500000920E-02 0.  1.
    10030    2    1    2    0    0  0.00000000000E+00  0.00000000000E+00  0.16430939166E+04  0.20337752975E+04  0.11985342473E+04 0.  0.
        2    1    3    3  502    0  0.14298196779E+03  0.46353510659E+03  0.22446400282E+03  0.53450231686E+03  0.25500000920E-02 0.  1.
       -2    1    3    3    0  502 -0.14298196779E+03 -0.46353510659E+03  0.14186299138E+04  0.14992729807E+04  0.25500000920E-02 0. -1.
</event>
<event>
 5   0  0.5447074E-04  0.1203037E+04  0.7818609E-02  0.9110202E-01
        1   -1    0    0  501    0  0.00000000000E+00  0.00000000000E+00  0.10867006369E+04  0.10867006369E+04  0.50400001928E-02 0.  1.
       -1   -1    0    0    0  501  0.00000000000E+00  0.00000000000E+00 -0.33295718390E+03  0.33295718394E+03  0.50400001928E-02 0. -1.
    10030    2    1    2    0    0  0.00000000000E+00  0.00000000000E+00  0.75374345296E+03  0.14196578208E+04  0.12030374621E+04 0.  0.
        4    1    3    3  502    0  0.41596869493E+03 -0.63330554160E+02 -0.13039327142E+03  0.44050508781E+03  0.12699999809E+01 0. -1.
       -4    1    3    3    0  502 -0.41596869493E+03  0.63330554160E+02  0.88413672438E+03  0.97915273301E+03  0.12699999809E+01 0.  1.
</event>
<event>
 5   0  0.5447074E-04  0.1196418E+04  0.7818609E-02  0.9115997E-01
       -1   -1    0    0    0  501  0.00000000000E+00  0.00000000000E+00  0.49450679514E+03  0.49450679516E+03  0.50400001928E-02 0.  1.
        1   -1    0    0  501    0  0.00000000000E+00  0.00000000000E+00 -0.72365871397E+03  0.72365871399E+03  0.50400001928E-02 0. -1.
    10030    2    1    2    0    0  0.00000000000E+00  0.00000000000E+00 -0.22915191884E+03  0.12181655092E+04  0.11964182403E+04 0.  0.
        4    1    3    3  502    0  0.25741664416E+03 -0.16076695078E+03  0.41029718381E+03  0.51034765905E+03  0.12699999809E+01 0.  1.
       -4    1    3    3    0  502 -0.25741664416E+03  0.16076695078E+03 -0.63944910264E+03  0.70781785011E+03  0.12699999809E+01 0. -1.
</event>
<event>
 5   0  0.5001586E-04  0.1213020E+04  0.7818609E-02  0.9101536E-01
        1   -1    0    0  501    0  0.00000000000E+00  0.00000000000E+00  0.72185004197E+03  0.72185004199E+03  0.50400001928E-02 0. -1.
       -1   -1    0    0    0  501  0.00000000000E+00  0.00000000000E+00 -0.50959908230E+03  0.50959908232E+03  0.50400001928E-02 0.  1.
    10030    2    1    2    0    0  0.00000000000E+00  0.00000000000E+00  0.21225095967E+03  0.12314491243E+04  0.12130195695E+04 0.  0.
        1    1    3    3  502    0  0.25158527523E+03  0.82103777222E+02  0.66014375788E+03  0.71121442761E+03  0.50400001928E-02 0. -1.
       -1    1    3    3    0  502 -0.25158527523E+03 -0.82103777222E+02 -0.44789279821E+03  0.52023469671E+03  0.50400001928E-02 0.  1.
</event>
<event>
 5   0  0.5052959E-04  0.1188561E+04  0.7818609E-02  0.9122928E-01
       -1   -1    0    0    0  501  0.00000000000E+00  0.00000000000E+00  0.28597744862E+03  0.28597744867E+03  0.50400001928E-02 0.  1.
        1   -1    0    0  501    0  0.00000000000E+00  0.00000000000E+00 -0.12349553348E+04  0.12349553348E+04  0.50400001928E-02 0. -1.
    10030    2    1    2    0    0  0.00000000000E+00  0.00000000000E+00 -0.94897788621E+03  0.15209327835E+04  0.11885611063E+04 0.  0.
        2    1    3    3  502    0  0.55349646168E+03  0.18662863921E+03 -0.33442340209E+03  0.67307324560E+03  0.25500000920E-02 0.  1.
       -2    1    3    3    0  502 -0.55349646168E+03 -0.18662863921E+03 -0.61455448412E+03  0.84785953791E+03  0.25500000920E-02 0. -1.
</event>
<event>
 5   0  0.5052959E-04  0.1197814E+04  0.7818609E-02  0.9114772E-01
       -1   -1    0    0    0  501  0.00000000000E+00  0.00000000000E+00  0.29812666952E+03  0.29812666957E+03  0.50400001928E-02 0.  1.
        1   -1    0    0  501    0  0.00000000000E+00  0.00000000000E+00 -0.12031449937E+04  0.12031449938E+04  0.50400001928E-02 0. -1.
    10030    2    1    2    0    0  0.00000000000E+00  0.00000000000E+00 -0.90501832422E+03  0.15012716633E+04  0.11978140256E+04 0.  0.
        2    1    3    3  502    0  0.10330447870E+02 -0.30914640644E+02 -0.12020324834E+04  0.12024743342E+04  0.25500000920E-02 0. -1.
       -2    1    3    3    0  502 -0.10330447870E+02  0.30914640644E+02  0.29701415917E+03  0.29879732917E+03  0.25500000920E-02 0.  1.
</event>
<event>
 5   0  0.9050363E-04  0.1188452E+04  0.7818609E-02  0.9123025E-01
        2   -1    0    0  501    0  0.00000000000E+00  0.00000000000E+00  0.68666475981E+03  0.68666475982E+03  0.25500000920E-02 0. -1.
       -2   -1    0    0    0  501  0.00000000000E+00  0.00000000000E+00 -0.51423107158E+03  0.51423107158E+03  0.25500000920E-02 0.  1.
    10030    2    1    2    0    0  0.00000000000E+00  0.00000000000E+00  0.17243368824E+03  0.12008958314E+04  0.11884516907E+04 0.  0.
        3    1    3    3  502    0 -0.11763501169E+03  0.12544522988E+03  0.66096948869E+03  0.68297523884E+03  0.10100000352E+00 0. -1.
       -3    1    3    3    0  502  0.11763501169E+03 -0.12544522988E+03 -0.48853580046E+03  0.51792059257E+03  0.10100000352E+00 0.  1.
</event>
<event>
 5   0  0.9298693E-04  0.1199176E+04  0.7818609E-02  0.9113578E-01
       -2   -1    0    0    0  501  0.00000000000E+00  0.00000000000E+00  0.38648824914E+03  0.38648824915E+03  0.25500000920E-02 0.  1.
        2   -1    0    0  501    0  0.00000000000E+00  0.00000000000E+00 -0.93018482883E+03  0.93018482883E+03  0.25500000920E-02 0. -1.
    10030    2    1    2    0    0  0.00000000000E+00  0.00000000000E+00 -0.54369657969E+03  0.13166730780E+04  0.11991755599E+04 0.  0.
        1    1    3    3  502    0  0.84389217462E+02  0.37763749557E+03  0.23103927937E+03  0.45067811875E+03  0.50400001928E-02 0.  1.
       -1    1    3    3    0  502 -0.84389217462E+02 -0.37763749557E+03 -0.77473585905E+03  0.86599495923E+03  0.50400001928E-02 0. -1.
</event>
<event>
 5   0  0.9050363E-04  0.1201912E+04  0.7818609E-02  0.9111185E-01
       -2   -1    0    0    0  501  0.00000000000E+00  0.00000000000E+00  0.39503559208E+03  0.39503559209E+03  0.25500000920E-02 0.  1.
        2   -1    0    0  501    0  0.00000000000E+00  0.00000000000E+00 -0.91421594076E+03  0.91421594076E+03  0.25500000920E-02 0. -1.
    10030    2    1    2    0    0  0.00000000000E+00  0.00000000000E+00 -0.51918034868E+03  0.13092515328E+04  0.12019115366E+04 0.  0.
        3    1    3    3  502    0 -0.81999314134E-01  0.30497660844E+03 -0.82365501566E+03  0.87830423740E+03  0.10100000352E+00 0. -1.
       -3    1    3    3    0  502  0.81999314134E-01 -0.30497660844E+03  0.30447466698E+03  0.43094729545E+03  0.10100000352E+00 0.  1.
</event>
<event>
 5   0  0.5001586E-04  0.1191340E+04  0.7818609E-02  0.9120471E-01
       -1   -1    0    0    0  501  0.00000000000E+00  0.00000000000E+00  0.33836279251E+03  0.33836279255E+03  0.50400001928E-02 0.  1.
        1   -1    0    0  501    0  0.00000000000E+00  0.00000000000E+00 -0.10486454284E+04  0.10486454284E+04  0.50400001928E-02 0. -1.
    10030    2    1    2    0    0  0.00000000000E+00  0.00000000000E+00 -0.71028263585E+03  0.13870082209E+04  0.11913397425E+04 0.  0.
        1    1    3    3  502    0 -0.27707488883E+03  0.11039888013E+03 -0.95544820621E+03  0.10009194181E+04  0.50400001928E-02 0. -1.
       -1    1    3    3    0  502  0.27707488883E+03 -0.11039888013E+03  0.24516557036E+03  0.38608880283E+03  0.50400001928E-02 0.  1.
</event>
<event>
 5   0  0.9410666E-04  0.1201767E+04  0.7818609E-02  0.9111311E-01
        2   -1    0    0  501    0  0.00000000000E+00  0.00000000000E+00  0.10876313322E+04  0.10876313322E+04  0.25500000920E-02 0.  1.
       -2   -1    0    0    0  501  0.00000000000E+00  0.00000000000E+00 -0.33197018243E+03  0.33197018244E+03  0.25500000920E-02 0. -1.
    10030    2    1    2    0    0  0.00000000000E+00  0.00000000000E+00  0.75566114979E+03  0.14196015147E+04  0.12017673182E+04 0.  0.
        2    1    3    3  502    0 -0.50140981941E+03 -0.25863917681E+03  0.62208376027E+03  0.83981797765E+03  0.25500000920E-02 0.  1.
       -2    1    3    3    0  502  0.50140981941E+03  0.25863917681E+03  0.13357738951E+03  0.57978353700E+03  0.25500000920E-02 0. -1.
</event>
<event>
 5   0  0.9410666E-04  0.1201717E+04  0.7818609E-02  0.9111355E-01
        2   -1    0    0  501    0  0.00000000000E+00  0.00000000000E+00  0.10961887914E+04  0.10961887914E+04  0.25500000920E-02 0.  1.
       -2   -1    0    0    0  501  0.00000000000E+00  0.00000000000E+00 -0.32935103273E+03  0.32935103274E+03  0.25500000920E-02 0. -1.
    10030    2    1    2    0    0  0.00000000000E+00  0.00000000000E+00  0.76683775867E+03  0.14255398241E+04  0.12017169559E+04 0.  0.
        2    1    3    3  502    0  0.14710700204E+03 -0.36044316123E+03 -0.15950543619E+03  0.42071573147E+03  0.25500000920E-02 0. -1.
       -2    1    3    3    0  502 -0.14710700204E+03  0.36044316123E+03  0.92634319487E+03  0.10048240927E+04  0.25500000920E-02 0.  1.
</event>
<event>
 5   0  0.5001586E-04  0.1201248E+04  0.7818609E-02  0.9111765E-01
       -1   -1    0    0    0  501  0.00000000000E+00  0.00000000000E+00  0.46420297667E+03  0.46420297670E+03  0.50400001928E-02 0.  1.
        1   -1    0    0  501    0  0.00000000000E+00  0.00000000000E+00 -0.77713684259E+03  0.77713684260E+03  0.50400001928E-02 0. -1.
    10030    2    1    2    0    0  0.00000000000E+00  0.00000000000E+00 -0.31293386592E+03  0.12413398193E+04  0.12012480770E+04 0.  0.
        1    1    3    3  502    0 -0.91446897216E+02 -0.23199477619E+03  0.40818070975E+03  0.47832583354E+03  0.50400001928E-02 0.  1.
       -1    1    3    3    0  502  0.91446897216E+02  0.23199477619E+03 -0.72111457567E+03  0.76301398576E+03  0.50400001928E-02 0. -1.
</event>
<event>
 5   0  0.5447074E-04  0.1203238E+04  0.7818609E-02  0.9110027E-01
        1   -1    0    0  501    0  0.00000000000E+00  0.00000000000E+00  0.89965482090E+03  0.89965482091E+03  0.50400001928E-02 0. -1.
       -1   -1    0    0    0  501  0.00000000000E+00  0.00000000000E+00 -0.40231577270E+03  0.40231577273E+03  0.50400001928E-02 0.  1.
    10030    2    1    2    0    0  0.00000000000E+00  0.00000000000E+00  0.49733904819E+03  0.13019705936E+04  0.12032378393E+04 0.  0.
        4    1    3    3  502    0  0.11436491240E+03 -0.50386733550E+03  0.58215010341E+03  0.77837136431E+03  0.12699999809E+01 0. -1.
       -4    1    3    3    0  502 -0.11436491240E+03  0.50386733550E+03 -0.84811055221E+02  0.52359922934E+03  0.12699999809E+01 0.  1.
</event>
<event>
 5   0  0.5157631E-04  0.1202261E+04  0.7818609E-02  0.9110880E-01
        1   -1    0    0  501    0  0.00000000000E+00  0.00000000000E+00  0.53679713908E+03  0.53679713910E+03  0.50400001928E-02 0.  1.
       -1   -1    0    0    0  501  0.00000000000E+00  0.00000000000E+00 -0.67317392710E+03  0.67317392712E+03  0.50400001928E-02 0. -1.
    10030    2    1    2    0    0  0.00000000000E+00  0.00000000000E+00 -0.13637678802E+03  0.12099710662E+04  0.12022609337E+04 0.  0.
        5    1    3    3  502    0 -0.50851317341E+03 -0.25178203787E+02  0.25341711888E+03  0.56873712347E+03  0.46999998093E+01 0.  1.
       -5    1    3    3    0  502  0.50851317341E+03  0.25178203787E+02 -0.38979390690E+03  0.64123394275E+03  0.46999998093E+01 0. -1.
</event>
<event>
 5   0  0.9070772E-04  0.1201061E+04  0.7818609E-02  0.9111928E-01
        2   -1    0    0  501    0  0.00000000000E+00  0.00000000000E+00  0.90229441329E+03  0.90229441329E+03  0.25500000920E-02 0. -1.
       -2   -1    0    0    0  501  0.00000000000E+00  0.00000000000E+00 -0.39968892222E+03  0.39968892223E+03  0.25500000920E-02 0.  1.
    10030    2    1    2    0    0  0.00000000000E+00  0.00000000000E+00  0.50260549107E+03  0.13019833355E+04  0.12010613333E+04 0.  0.
        4    1    3    3  502    0  0.88086540074E+02  0.53221286616E+03 -0.34736097247E+02  0.54057190346E+03  0.12699999809E+01 0.  1.
       -4    1    3    3    0  502 -0.88086540074E+02 -0.53221286616E+03  0.53734158832E+03  0.76141143207E+03  0.12699999809E+01 0. -1.
</event>
<event>
 5   0  0.5157631E-04  0.1200953E+04  0.7818609E-02  0.9112023E-01
       -1   -1    0    0    0  501  0.00000000000E+00  0.00000000000E+00  0.76934871365E+03  0.76934871367E+03  0.50400001928E-02 0.  1.
        1   -1    0    0  501    0  0.00000000000E+00  0.00000000000E+00 -0.46867156202E+03  0.46867156205E+03  0.50400001928E-02 0. -1.
    10030    2    1    2    0    0  0.00000000000E+00  0.00000000000E+00  0.30067715163E+03  0.12380202757E+04  0.12009527275E+04 0.  0.
        5    1    3    3  502    0  0.31448179501E+03  0.39409989804E+03 -0.18581869058E+03  0.53736784868E+03  0.46999998093E+01 0. -1.
       -5    1    3    3    0  502 -0.31448179501E+03 -0.39409989804E+03  0.48649584221E+03  0.70065242704E+03  0.46999998093E+01 0.  1.
</event>
<event>
 5   0  0.9050363E-04  0.1201619E+04  0.7818609E-02  0.9111441E-01
       -2   -1    0    0    0  501  0.00000000000E+00  0.00000000000E+00  0.46721650765E+03  0.46721650765E+03  0.25500000920E-02 0.  1.
        2   -1    0    0  501    0  0.00000000000E+00  0.00000000000E+00 -0.77260065569E+03  0.77260065569E+03  0.25500000920E-02 0. -1.
    10030    2    1    2    0    0  0.00000000000E+00  0.00000000000E+00 -0.30538414804E+03  0.12398171633E+04  0.12016185421E+04 0.  0.
        3    1    3    3  502    0  0.26039360112E+02 -0.58550284383E+03 -0.28910750376E+03  0.65350959239E+03  0.10100000352E+00 0.  1.
       -3    1    3    3    0  502 -0.26039360112E+02  0.58550284383E+03 -0.16276644277E+02  0.58630757096E+03  0.10100000352E+00 0. -1.
</event>
<event>
 5   0  0.5157631E-04  0.1202681E+04  0.7818609E-02  0.9110514E-01
       -1   -1    0    0    0  501  0.00000000000E+00  0.00000000000E+00  0.91544489901E+03  0.91544489902E+03  0.50400001928E-02 0.  1.
        1   -1    0    0  501    0  0.00000000000E+00  0.00000000000E+00 -0.39501024909E+03  0.39501024912E+03  0.50400001928E-02 0. -1.
    10030    2    1    2    0    0  0.00000000000E+00  0.00000000000E+00  0.52043464992E+03  0.13104551481E+04  0.12026805355E+04 0.  0.
        5    1    3    3  502    0  0.14314662598E+03 -0.40453128893E+03 -0.19878166031E+03  0.47294054460E+03  0.46999998093E+01 0. -1.
       -5    1    3    3    0  502 -0.14314662598E+03  0.40453128893E+03  0.71921631023E+03  0.83751460354E+03  0.46999998093E+01 0.  1.
</event>
<event>
 5   0  0.5003507E-04  0.1199408E+04  0.7818609E-02  0.9113375E-01
       -1   -1    0    0    0  501  0.00000000000E+00  0.00000000000E+00  0.51450406420E+03  0.51450406422E+03  0.50400001928E-02 0.  1.
        1   -1    0    0  501    0  0.00000000000E+00  0.00000000000E+00 -0.69901227836E+03  0.69901227838E+03  0.50400001928E-02 0. -1.
    10030    2    1    2    0    0  0.00000000000E+00  0.00000000000E+00 -0.18450821416E+03  0.12135163426E+04  0.11994076174E+04 0.  0.
        3    1    3    3  502    0 -0.16247675577E+03 -0.28421619802E+03  0.41611742918E+03  0.52946318895E+03  0.10100000352E+00 0.  1.
       -3    1    3    3    0  502  0.16247675577E+03  0.28421619802E+03 -0.60062564334E+03  0.68405315365E+03  0.10100000352E+00 0. -1.
</event>
<event>
 5   0  0.5003507E-04  0.1194311E+04  0.7818609E-02  0.9117851E-01
        1   -1    0    0  501    0  0.00000000000E+00  0.00000000000E+00  0.10788319389E+04  0.10788319389E+04  0.50400001928E-02 0.  1.
       -1   -1    0    0    0  501  0.00000000000E+00  0.00000000000E+00 -0.33053767549E+03  0.33053767553E+03  0.50400001928E-02 0. -1.
    10030    2    1    2    0    0  0.00000000000E+00  0.00000000000E+00  0.74829426338E+03  0.14093696144E+04  0.11943108496E+04 0.  0.
        3    1    3    3  502    0  0.89198014837E+02  0.49288553488E+03  0.75780971506E+03  0.90838758842E+03  0.10100000352E+00 0. -1.
       -3    1    3    3    0  502 -0.89198014837E+02 -0.49288553488E+03 -0.95154516815E+01  0.50098202599E+03  0.10100000352E+00 0.  1.
</event>
<event>
 5   0  0.5157631E-04  0.1201383E+04  0.7818609E-02  0.9111647E-01
        1   -1    0    0  501    0  0.00000000000E+00  0.00000000000E+00  0.68812271351E+03  0.68812271352E+03  0.50400001928E-02 0.  1.
       -1   -1    0    0    0  501  0.00000000000E+00  0.00000000000E+00 -0.52436905979E+03  0.52436905981E+03  0.50400001928E-02 0. -1.
    10030    2    1    2    0    0  0.00000000000E+00  0.00000000000E+00  0.16375365372E+03  0.12124917733E+04  0.12013829703E+04 0.  0.
        5    1    3    3  502    0  0.20888832025E+03  0.53016845892E+03  0.27362106707E+03  0.63214199632E+03  0.46999998093E+01 0.  1.
       -5    1    3    3    0  502 -0.20888832025E+03 -0.53016845892E+03 -0.10986741335E+03  0.58034977702E+03  0.46999998093E+01 0. -1.
</event>
<event>
 5   0  0.9070772E-04  0.1202027E+04  0.7818609E-02  0.9111084E-01
       -2   -1    0    0    0  501  0.00000000000E+00  0.00000000000E+00  0.30539840859E+03  0.30539840860E+03  0.25500000920E-02 0. -1.
        2   -1    0    0  501    0  0.00000000000E+00  0.00000000000E+00 -0.11827746746E+04  0.11827746746E+04  0.25500000920E-02 0.  1.
    10030    2    1    2    0    0  0.00000000000E+00  0.00000000000E+00 -0.87737626596E+03  0.14881730832E+04  0.12020274595E+04 0.  0.
        4    1    3    3  502    0  0.53848991827E+03  0.87318200311E+02 -0.12641401396E+03  0.55998033538E+03  0.12699999809E+01 0.  1.
       -4    1    3    3    0  502 -0.53848991827E+03 -0.87318200311E+02 -0.75096225200E+03  0.92819274777E+03  0.12699999809E+01 0. -1.
</event>
<event>
 5   0  0.9050363E-04  0.1201094E+04  0.7818609E-02  0.9111899E-01
       -2   -1    0    0    0  501  0.00000000000E+00  0.00000000000E+00  0.21822964510E+03  0.21822964512E+03  0.25500000920E-02 0.  1.
        2   -1    0    0  501    0  0.00000000000E+00  0.00000000000E+00 -0.16526476226E+04  0.16526476226E+04  0.25500000920E-02 0. -1.
    10030    2    1    2    0    0  0.00000000000E+00  0.00000000000E+00 -0.14344179775E+04  0.18708772678E+04  0.12010940083E+04 0.  0.
        3    1    3    3  502    0 -0.15673234970E+03 -0.56358162462E+03 -0.50553310840E+03  0.77314488354E+03  0.10100000352E+00 0. -1.
       -3    1    3    3    0  502  0.15673234970E+03  0.56358162462E+03 -0.92888486913E+03  0.10977323842E+04  0.10100000352E+00 0.  1.
</event>
<event>
 5   0  0.9410666E-04  0.1214262E+04  0.7818609E-02  0.9100464E-01
        2   -1    0    0  501    0  0.00000000000E+00  0.00000000000E+00  0.55030605145E+03  0.55030605146E+03  0.25500000920E-02 0.  1.
       -2   -1    0    0    0  501  0.00000000000E+00  0.00000000000E+00 -0.66982334358E+03  0.66982334358E+03  0.25500000920E-02 0. -1.
    10030    2    1    2    0    0  0.00000000000E+00  0.00000000000E+00 -0.11951729213E+03  0.12201293950E+04  0.12142616512E+04 0.  0.
        2    1    3    3  502    0  0.27424175333E+03  0.14780408482E+03  0.46386724854E+03  0.55877313020E+03  0.25500000920E-02 0. -1.
       -2    1    3    3    0  502 -0.27424175333E+03 -0.14780408482E+03 -0.58338454066E+03  0.66135626485E+03  0.25500000920E-02 0.  1.
</event>
<event>
 5   0  0.9298693E-04  0.1196444E+04  0.7818609E-02  0.9115975E-01
        2   -1    0    0  501    0  0.00000000000E+00  0.00000000000E+00  0.49089256779E+03  0.49089256780E+03  0.25500000920E-02 0. -1.
       -2   -1    0    0    0  501  0.00000000000E+00  0.00000000000E+00 -0.72901755937E+03  0.72901755937E+03  0.25500000920E-02 0.  1.
    10030    2    1    2    0    0  0.00000000000E+00  0.00000000000E+00 -0.23812499157E+03  0.12199101272E+04  0.11964435661E+04 0.  0.
        1    1    3    3  502    0 -0.31494811963E+03  0.49627906053E+03 -0.55960498359E+01  0.58780654962E+03  0.50400001928E-02 0.  1.
       -1    1    3    3    0  502  0.31494811963E+03 -0.49627906053E+03 -0.23252894174E+03  0.63210357755E+03  0.50400001928E-02 0. -1.
</event>
<event>
 5   0  0.9145224E-04  0.1196758E+04  0.7818609E-02  0.9115699E-01
        2   -1    0    0  501    0  0.00000000000E+00  0.00000000000E+00  0.32644735502E+03  0.32644735503E+03  0.25500000920E-02 0.  1.
       -2   -1    0    0    0  501  0.00000000000E+00  0.00000000000E+00 -0.10968296430E+04  0.10968296430E+04  0.25500000920E-02 0. -1.
    10030    2    1    2    0    0  0.00000000000E+00  0.00000000000E+00 -0.77038228793E+03  0.14232769980E+04  0.11967575124E+04 0.  0.
        5    1    3    3  502    0  0.34043029789E+03 -0.21321119973E+03  0.14224142983E+03  0.42615316234E+03  0.46999998093E+01 0.  1.
       -5    1    3    3    0  502 -0.34043029789E+03  0.21321119973E+03 -0.91262371776E+03  0.99712383566E+03  0.46999998093E+01 0. -1.
</event>
<event>
 5   0  0.9050363E-04  0.1226082E+04  0.7818609E-02  0.9090328E-01
       -2   -1    0    0    0  501  0.00000000000E+00  0.00000000000E+00  0.42724596036E+03  0.42724596037E+03  0.25500000920E-02 0.  1.
        2   -1    0    0  501    0  0.00000000000E+00  0.00000000000E+00 -0.87963243541E+03  0.87963243541E+03  0.25500000920E-02 0. -1.
    10030    2    1    2    0    0  0.00000000000E+00  0.00000000000E+00 -0.45238647504E+03  0.13068783958E+04  0.12260822234E+04 0.  0.
        3    1    3    3  502    0  0.50090038334E+03 -0.22206904730E+03 -0.51927354903E+03  0.75489130656E+03  0.10100000352E+00 0. -1.
       -3    1    3    3    0  502 -0.50090038334E+03  0.22206904730E+03  0.66887073990E+02  0.55198708922E+03  0.10100000352E+00 0.  1.
</event>
<event>
 5   0  0.5001586E-04  0.1201577E+04  0.7818609E-02  0.9111477E-01
       -1   -1    0    0    0  501  0.00000000000E+00  0.00000000000E+00  0.36107264568E+03  0.36107264572E+03  0.50400001928E-02 0.  1.
        1   -1    0    0  501    0  0.00000000000E+00  0.00000000000E+00 -0.99965150599E+03  0.99965150600E+03  0.50400001928E-02 0. -1.
    10030    2    1    2    0    0  0.00000000000E+00  0.00000000000E+00 -0.63857886031E+03  0.13607241517E+04  0.12015769872E+04 0.  0.
        1    1    3    3  502    0  0.50679777443E+03 -0.32208106226E+03 -0.34097276597E+03  0.69053792220E+03  0.50400001928E-02 0.  1.
       -1    1    3    3    0  502 -0.50679777443E+03  0.32208106226E+03 -0.29760609433E+03  0.67018622952E+03  0.50400001928E-02 0. -1.
</event>
<event>
 5   0  0.5003507E-04  0.1217902E+04  0.7818609E-02  0.9097330E-01
       -1   -1    0    0    0  501  0.00000000000E+00  0.00000000000E+00  0.45683556013E+03  0.45683556016E+03  0.50400001928E-02 0.  1.
        1   -1    0    0  501    0  0.00000000000E+00  0.00000000000E+00 -0.81171736584E+03  0.81171736585E+03  0.50400001928E-02 0. -1.
    10030    2    1    2    0    0  0.00000000000E+00  0.00000000000E+00 -0.35488180571E+03  0.12685529260E+04  0.12179020609E+04 0.  0.
        3    1    3    3  502    0  0.15277918127E+03 -0.58760754210E+03 -0.22626514642E+03  0.64793520389E+03  0.10100000352E+00 0.  1.
       -3    1    3    3    0  502 -0.15277918127E+03  0.58760754210E+03 -0.12861665928E+03  0.62061772212E+03  0.10100000352E+00 0. -1.
</event>
<event>
 5   0  0.5157631E-04  0.1196656E+04  0.7818609E-02  0.9115788E-01
       -1   -1    0    0    0  501  0.00000000000E+00  0.00000000000E+00  0.46466725713E+03  0.46466725716E+03  0.50400001928E-02 0.  1.
        1   -1    0    0  501    0  0.00000000000E+00  0.00000000000E+00 -0.77043660764E+03  0.77043660766E+03  0.50400001928E-02 0. -1.
    10030    2    1    2    0    0  0.00000000000E+00  0.00000000000E+00 -0.30576935051E+03  0.12351038648E+04  0.11966564508E+04 0.  0.
        5    1    3    3  502    0  0.42720996679E+03 -0.20850962567E+03  0.22209215687E+03  0.52472053120E+03  0.46999998093E+01 0.  1.
       -5    1    3    3    0  502 -0.42720996679E+03  0.20850962567E+03 -0.52786150738E+03  0.71038333362E+03  0.46999998093E+01 0. -1.
</event>
<event>
 5   0  0.5003507E-04  0.1214907E+04  0.7818609E-02  0.9099908E-01
       -1   -1    0    0    0  501  0.00000000000E+00  0.00000000000E+00  0.32203632765E+03  0.32203632769E+03  0.50400001928E-02 0.  1.
        1   -1    0    0  501    0  0.00000000000E+00  0.00000000000E+00 -0.11458323473E+04  0.11458323473E+04  0.50400001928E-02 0. -1.
    10030    2    1    2    0    0  0.00000000000E+00  0.00000000000E+00 -0.82379601966E+03  0.14678686750E+04  0.12149068133E+04 0.  0.
        3    1    3    3  502    0  0.46792497572E+03  0.48099786682E+02  0.52490968545E+02  0.47331034677E+03  0.10100000352E+00 0.  1.
       -3    1    3    3    0  502 -0.46792497572E+03 -0.48099786682E+02 -0.87628698821E+03  0.99455832825E+03  0.10100000352E+00 0. -1.
</event>
<event>
 5   0  0.9410666E-04  0.1197871E+04  0.7818609E-02  0.9114722E-01
        2   -1    0    0  501    0  0.00000000000E+00  0.00000000000E+00  0.21585129471E+04  0.21585129471E+04  0.25500000920E-02 0.  1.
       -2   -1    0    0    0  501  0.00000000000E+00  0.00000000000E+00 -0.16619012262E+03  0.16619012264E+03  0.25500000920E-02 0. -1.
    10030    2    1    2    0    0  0.00000000000E+00  0.00000000000E+00  0.19923228245E+04  0.23247030698E+04  0.11978706631E+04 0.  0.
        2    1    3    3  502    0 -0.56619658372E+03 -0.17810483830E+02  0.61870848647E+03  0.83886588677E+03  0.25500000920E-02 0. -1.
       -2    1    3    3    0  502  0.56619658372E+03  0.17810483830E+02  0.13736143380E+04  0.14858371830E+04  0.25500000920E-02 0.  1.
</event>
<event>
 5   0  0.9050363E-04  0.1201418E+04  0.7818609E-02  0.9111616E-01
        2   -1    0    0  501    0  0.00000000000E+00  0.00000000000E+00  0.38953299966E+03  0.38953299967E+03  0.25500000920E-02 0. -1.
       -2   -1    0    0    0  501  0.00000000000E+00  0.00000000000E+00 -0.92636975560E+03  0.92636975560E+03  0.25500000920E-02 0.  1.
    10030    2    1    2    0    0  0.00000000000E+00  0.00000000000E+00 -0.53683675594E+03  0.13159027553E+04  0.12014184778E+04 0.  0.
        3    1    3    3  502    0  0.14205755795E+03  0.13542108047E+02  0.37069850932E+03  0.39721673363E+03  0.10100000352E+00 0. -1.
       -3    1    3    3    0  502 -0.14205755795E+03 -0.13542108047E+02 -0.90753526526E+03  0.91868602164E+03  0.10100000352E+00 0.  1.
</event>
<event>
 5   0  0.5003507E-04  0.1180501E+04  0.7818609E-02  0.9130098E-01
        1   -1    0    0  501    0  0.00000000000E+00  0.00000000000E+00  0.19772539672E+04  0.19772539672E+04  0.50400001928E-02 0. -1.
       -1   -1    0    0    0  501  0.00000000000E+00  0.00000000000E+00 -0.17620164497E+03  0.17620164504E+03  0.50400001928E-02 0.  1.
    10030    2    1    2    0    0  0.00000000000E+00  0.00000000000E+00  0.18010523223E+04  0.21534556123E+04  0.11805005745E+04 0.  0.
        3    1    3    3  502    0 -0.27844878016E+02  0.81402840332E+01  0.19759526662E+04  0.19761656183E+04  0.10100000352E+00 0. -1.
       -3    1    3    3    0  502  0.27844878016E+02 -0.81402840332E+01 -0.17490034396E+03  0.17728999401E+03  0.10100000352E+00 0.  1.
</event>
<event>
 5   0  0.5052959E-04  0.1198572E+04  0.7818609E-02  0.9114107E-01
        1   -1    0    0  501    0  0.00000000000E+00  0.00000000000E+00  0.15279543789E+04  0.15279543789E+04  0.50400001928E-02 0. -1.
       -1   -1    0    0    0  501  0.00000000000E+00  0.00000000000E+00 -0.23504867214E+03  0.23504867219E+03  0.50400001928E-02 0.  1.
    10030    2    1    2    0    0  0.00000000000E+00  0.00000000000E+00  0.12929057068E+04  0.17630030511E+04  0.11985718967E+04 0.  0.
        2    1    3    3  502    0 -0.50890406782E+02 -0.43155386407E+03  0.12534903537E+04  0.13266750310E+04  0.25500000920E-02 0. -1.
       -2    1    3    3    0  502  0.50890406782E+02  0.43155386407E+03  0.39415353131E+02  0.43632802015E+03  0.25500000920E-02 0.  1.
</event>
<event>
 5   0  0.9410666E-04  0.1193094E+04  0.7818609E-02  0.9118923E-01
       -2   -1    0    0    0  501  0.00000000000E+00  0.00000000000E+00  0.57759656502E+03  0.57759656503E+03  0.25500000920E-02 0.  1.
        2   -1    0    0  501    0  0.00000000000E+00  0.00000000000E+00 -0.61611953811E+03  0.61611953812E+03  0.25500000920E-02 0. -1.
    10030    2    1    2    0    0  0.00000000000E+00  0.00000000000E+00 -0.38522973087E+02  0.11937161031E+04  0.11930943447E+04 0.  0.
        2    1    3    3  502    0  0.93650524004E+02 -0.55863726232E+03 -0.20650205241E+03  0.60290057983E+03  0.25500000920E-02 0.  1.
       -2    1    3    3    0  502 -0.93650524004E+02  0.55863726232E+03  0.16797907932E+03  0.59081552332E+03  0.25500000920E-02 0. -1.
</event>
<event>
 5   0  0.5447074E-04  0.1200705E+04  0.7818609E-02  0.9112240E-01
        1   -1    0    0  501    0  0.00000000000E+00  0.00000000000E+00  0.10693978517E+04  0.10693978517E+04  0.50400001928E-02 0.  1.
       -1   -1    0    0    0  501  0.00000000000E+00  0.00000000000E+00 -0.33703370093E+03  0.33703370097E+03  0.50400001928E-02 0. -1.
    10030    2    1    2    0    0  0.00000000000E+00  0.00000000000E+00  0.73236415078E+03  0.14064315527E+04  0.12007049859E+04 0.  0.
        4    1    3    3  502    0  0.42390118816E+03 -0.43952985360E+02 -0.12911174750E+03  0.44530387207E+03  0.12699999809E+01 0. -1.
       -4    1    3    3    0  502 -0.42390118816E+03  0.43952985360E+02  0.86147589828E+03  0.96112768062E+03  0.12699999809E+01 0.  1.
</event>
<event>
 5   0  0.3453625E-04  0.1204532E+04  0.7818609E-02  0.9108899E-01
       -3   -1    0    0    0  501  0.00000000000E+00  0.00000000000E+00  0.27020192658E+04  0.27020192677E+04  0.10100000352E+00 0.  1.
        3   -1    0    0  501    0  0.00000000000E+00  0.00000000000E+00 -0.13424182876E+03  0.13424186675E+03  0.10100000352E+00 0. -1.
    10030    2    1    2    0    0  0.00000000000E+00  0.00000000000E+00  0.25677774370E+04  0.28362611344E+04  0.12045315507E+04 0.  0.
        3    1    3    3  502    0  0.24540935923E+03  0.25925367719E+03  0.24260460221E+04  0.24521699643E+04  0.10100000352E+00 0.  1.
       -3    1    3    3    0  502 -0.24540935923E+03 -0.25925367719E+03  0.14173141498E+03  0.38409117008E+03  0.10100000352E+00 0. -1.
</event>
<event>
 5   0  0.9298693E-04  0.1201831E+04  0.7818609E-02  0.9111255E-01
        2   -1    0    0  501    0  0.00000000000E+00  0.00000000000E+00  0.22908624455E+03  0.22908624457E+03  0.25500000920E-02 0.  1.
       -2   -1    0    0    0  501  0.00000000000E+00  0.00000000000E+00 -0.15762607567E+04  0.15762607567E+04  0.25500000920E-02 0. -1.
    10030    2    1    2    0    0  0.00000000000E+00  0.00000000000E+00 -0.13471745122E+04  0.18053470013E+04  0.12018313646E+04 0.  0.
        1    1    3    3  502    0 -0.56455520053E+02 -0.20208476258E+03  0.17227100324E+03  0.27148255118E+03  0.50400001928E-02 0.  1.
       -1    1    3    3    0  502  0.56455520053E+02  0.20208476258E+03 -0.15194455154E+04  0.15338644501E+04  0.50400001928E-02 0. -1.
</event>
<event>
 5   0  0.5447074E-04  0.1199910E+04  0.7818609E-02  0.9112935E-01
       -1   -1    0    0    0  501  0.00000000000E+00  0.00000000000E+00  0.52820482274E+03  0.52820482276E+03  0.50400001928E-02 0.  1.
        1   -1    0    0  501    0  0.00000000000E+00  0.00000000000E+00 -0.68145167569E+03  0.68145167571E+03  0.50400001928E-02 0. -1.
    10030    2    1    2    0    0  0.00000000000E+00  0.00000000000E+00 -0.15324685295E+03  0.12096564985E+04  0.11999100993E+04 0.  0.
        4    1    3    3  502    0 -0.53295931932E+03  0.90186585446E+02  0.18580851430E+03  0.57158172918E+03  0.12699999809E+01 0.  1.
       -4    1    3    3    0  502  0.53295931932E+03 -0.90186585446E+02 -0.33905536725E+03  0.63807476929E+03  0.12699999809E+01 0. -1.
</event>
<event>
 5   0  0.5003507E-04  0.1197237E+04  0.7818609E-02  0.9115278E-01
        1   -1    0    0  501    0  0.00000000000E+00  0.00000000000E+00  0.53021017215E+03  0.53021017217E+03  0.50400001928E-02 0. -1.
       -1   -1    0    0    0  501  0.00000000000E+00  0.00000000000E+00 -0.67585337682E+03  0.67585337684E+03  0.50400001928E-02 0.  1.
    10030    2    1    2    0    0  0.00000000000E+00  0.00000000000E+00 -0.14564320467E+03  0.12060635490E+04  0.11972373788E+04 0.  0.
        3    1    3    3  502    0 -0.20277031457E+03 -0.40288260106E+03 -0.46931453157E+03  0.65091192219E+03  0.10100000352E+00 0.  1.
       -3    1    3    3    0  502  0.20277031457E+03  0.40288260106E+03  0.32367132689E+03  0.55515162682E+03  0.10100000352E+00 0. -1.
</event>
<event>
 5   0  0.5052959E-04  0.1208475E+04  0.7818609E-02  0.9105470E-01
        1   -1    0    0  501    0  0.00000000000E+00  0.00000000000E+00  0.21983485281E+04  0.21983485281E+04  0.50400001928E-02 0. -1.
       -1   -1    0    0    0  501  0.00000000000E+00  0.00000000000E+00 -0.16608069796E+03  0.16608069803E+03  0.50400001928E-02 0.  1.
    10030    2    1    2    0    0  0.00000000000E+00  0.00000000000E+00  0.20322678301E+04  0.23644292261E+04  0.12084754991E+04 0.  0.
        2    1    3    3  502    0  0.12254504006E+03  0.59115402709E+03  0.10649646480E+04  0.12241854729E+04  0.25500000920E-02 0. -1.
       -2    1    3    3    0  502 -0.12254504006E+03 -0.59115402709E+03  0.96730318216E+03  0.11402437532E+04  0.25500000920E-02 0.  1.
</event>
<event>
 5   0  0.9298693E-04  0.1206243E+04  0.7818609E-02  0.9107410E-01
       -2   -1    0    0    0  501  0.00000000000E+00  0.00000000000E+00  0.25776251373E+03  0.25776251375E+03  0.25500000920E-02 0.  1.
        2   -1    0    0  501    0  0.00000000000E+00  0.00000000000E+00 -0.14112039943E+04  0.14112039943E+04  0.25500000920E-02 0. -1.
    10030    2    1    2    0    0  0.00000000000E+00  0.00000000000E+00 -0.11534414806E+04  0.16689665081E+04  0.12062429092E+04 0.  0.
        1    1    3    3  502    0 -0.35311694078E+03 -0.40189098748E+03 -0.19142262302E+03  0.56819940190E+03  0.50400001928E-02 0.  1.
       -1    1    3    3    0  502  0.35311694078E+03  0.40189098748E+03 -0.96201885756E+03  0.11007671062E+04  0.50400001928E-02 0. -1.
</event>
<event>
 5   0  0.9145224E-04  0.1196884E+04  0.7818609E-02  0.9115588E-01
       -2   -1    0    0    0  501  0.00000000000E+00  0.00000000000E+00  0.28687978149E+03  0.28687978150E+03  0.25500000920E-02 0. -1.
        2   -1    0    0  501    0  0.00000000000E+00  0.00000000000E+00 -0.12483728470E+04  0.12483728470E+04  0.25500000920E-02 0.  1.
    10030    2    1    2    0    0  0.00000000000E+00  0.00000000000E+00 -0.96149306550E+03  0.15352526285E+04  0.11968841708E+04 0.  0.
        5    1    3    3  502    0  0.21683554745E+03 -0.33388171564E+03 -0.10538401899E+04  0.11265415618E+04  0.46999998093E+01 0.  1.
       -5    1    3    3    0  502 -0.21683554745E+03  0.33388171564E+03  0.92347124350E+02  0.40871106671E+03  0.46999998093E+01 0. -1.
</event>
<event>
 5   0  0.5157631E-04  0.1199328E+04  0.7818609E-02  0.9113445E-01
       -1   -1    0    0    0  501  0.00000000000E+00  0.00000000000E+00  0.48707132583E+03  0.48707132585E+03  0.50400001928E-02 0. -1.
        1   -1    0    0  501    0  0.00000000000E+00  0.00000000000E+00 -0.73828327792E+03  0.73828327794E+03  0.50400001928E-02 0.  1.
    10030    2    1    2    0    0  0.00000000000E+00  0.00000000000E+00 -0.25121195209E+03  0.12253546038E+04  0.11993275033E+04 0.  0.
        5    1    3    3  502    0 -0.20430519383E+03  0.43241395558E+03  0.24397900580E+03  0.53690808010E+03  0.46999998093E+01 0. -1.
       -5    1    3    3    0  502  0.20430519383E+03 -0.43241395558E+03 -0.49519095789E+03  0.68844652369E+03  0.46999998093E+01 0.  1.
</event>
<event>
 5   0  0.9070772E-04  0.1199606E+04  0.7818609E-02  0.9113202E-01
        2   -1    0    0  501    0  0.00000000000E+00  0.00000000000E+00  0.13023123320E+04  0.13023123320E+04  0.25500000920E-02 0.  1.
       -2   -1    0    0    0  501  0.00000000000E+00  0.00000000000E+00 -0.27624979337E+03  0.27624979338E+03  0.25500000920E-02 0. -1.
    10030    2    1    2    0    0  0.00000000000E+00  0.00000000000E+00  0.10260625386E+04  0.15785621254E+04  0.11996057896E+04 0.  0.
        4    1    3    3  502    0 -0.28397255087E+03 -0.12492845090E+03  0.11885311534E+04  0.12283547708E+04  0.12699999809E+01 0.  1.
       -4    1    3    3    0  502  0.28397255087E+03  0.12492845090E+03 -0.16246861478E+03  0.35020735455E+03  0.12699999809E+01 0. -1.
</event>
<event>
 5   0  0.5001586E-04  0.1198023E+04  0.7818609E-02  0.9114589E-01
       -1   -1    0    0    0  501  0.00000000000E+00  0.00000000000E+00  0.10713774818E+04  0.10713774818E+04  0.50400001928E-02 0.  1.
        1   -1    0    0  501    0  0.00000000000E+00  0.00000000000E+00 -0.33490977603E+03  0.33490977607E+03  0.50400001928E-02 0. -1.
    10030    2    1    2    0    0  0.00000000000E+00  0.00000000000E+00  0.73646770577E+03  0.14062872579E+04  0.11980230257E+04 0.  0.
        1    1    3    3  502    0  0.11259227983E+03  0.53138608254E+03  0.66465249606E+03  0.85837703297E+03  0.50400001928E-02 0.  1.
       -1    1    3    3    0  502 -0.11259227983E+03 -0.53138608254E+03  0.71815209713E+02  0.54791022491E+03  0.50400001928E-02 0. -1.
</event>
<event>
 5   0  0.5157631E-04  0.1208847E+04  0.7818609E-02  0.9105148E-01
        1   -1    0    0  501    0  0.00000000000E+00  0.00000000000E+00  0.97730523445E+03  0.97730523447E+03  0.50400001928E-02 0.  1.
       -1   -1    0    0    0  501  0.00000000000E+00  0.00000000000E+00 -0.37381108202E+03  0.37381108206E+03  0.50400001928E-02 0. -1.
    10030    2    1    2    0    0  0.00000000000E+00  0.00000000000E+00  0.60349415243E+03  0.13511163165E+04  0.12088466027E+04 0.  0.
        5    1    3    3  502    0  0.40902285680E+02 -0.17351220338E+03 -0.34373823365E+03  0.38724352153E+03  0.46999998093E+01 0. -1.
       -5    1    3    3    0  502 -0.40902285680E+02  0.17351220338E+03  0.94723238608E+03  0.96387279500E+03  0.46999998093E+01 0.  1.
</event>
<event>
 5   0  0.5052959E-04  0.1202460E+04  0.7818609E-02  0.9110706E-01
        1   -1    0    0  501    0  0.00000000000E+00  0.00000000000E+00  0.71927241028E+03  0.71927241029E+03  0.50400001928E-02 0. -1.
       -1   -1    0    0    0  501  0.00000000000E+00  0.00000000000E+00 -0.50255996312E+03  0.50255996315E+03  0.50400001928E-02 0.  1.
    10030    2    1    2    0    0  0.00000000000E+00  0.00000000000E+00  0.21671244715E+03  0.12218323734E+04  0.12024600052E+04 0.  0.
        2    1    3    3  502    0  0.13496175140E+03 -0.57686481909E+03  0.21242610271E+03  0.62937472381E+03  0.25500000920E-02 0. -1.
       -2    1    3    3    0  502 -0.13496175140E+03  0.57686481909E+03  0.42863444464E+01  0.59245764963E+03  0.25500000920E-02 0.  1.
</event>
<event>
 5   0  0.5052959E-04  0.1198762E+04  0.7818609E-02  0.9113941E-01
        1   -1    0    0  501    0  0.00000000000E+00  0.00000000000E+00  0.11739060656E+04  0.11739060656E+04  0.50400001928E-02 0. -1.
       -1   -1    0    0    0  501  0.00000000000E+00  0.00000000000E+00 -0.30603604896E+03  0.30603604900E+03  0.50400001928E-02 0.  1.
    10030    2    1    2    0    0  0.00000000000E+00  0.00000000000E+00  0.86787001663E+03  0.14799421146E+04  0.11987619850E+04 0.  0.
        2    1    3    3  502    0 -0.22554770609E+03  0.23944202893E+03  0.10525134105E+04  0.11027187910E+04  0.25500000920E-02 0. -1.
       -2    1    3    3    0  502  0.22554770609E+03 -0.23944202893E+03 -0.18464339383E+03  0.37722332355E+03  0.25500000920E-02 0.  1.
</event>
<event>
 5   0  0.5157631E-04  0.1208645E+04  0.7818609E-02  0.9105323E-01
       -1   -1    0    0    0  501  0.00000000000E+00  0.00000000000E+00  0.20234190238E+03  0.20234190244E+03  0.50400001928E-02 0.  1.
        1   -1    0    0  501    0  0.00000000000E+00  0.00000000000E+00 -0.18048950554E+04  0.18048950554E+04  0.50400001928E-02 0. -1.
    10030    2    1    2    0    0  0.00000000000E+00  0.00000000000E+00 -0.16025531531E+04  0.20072369579E+04  0.12086453561E+04 0.  0.
        5    1    3    3  502    0  0.78366010459E+02 -0.32967341584E+03  0.29684168666E+02  0.34018970086E+03  0.46999998093E+01 0.  1.
       -5    1    3    3    0  502 -0.78366010459E+02  0.32967341584E+03 -0.16322373217E+04  0.16670472570E+04  0.46999998093E+01 0. -1.
</event>
<event>
 5   0  0.5157631E-04  0.1202310E+04  0.7818609E-02  0.9110837E-01
        1   -1    0    0  501    0  0.00000000000E+00  0.00000000000E+00  0.59579006148E+03  0.59579006150E+03  0.50400001928E-02 0. -1.
       -1   -1    0    0    0  501  0.00000000000E+00  0.00000000000E+00 -0.60656788725E+03  0.60656788727E+03  0.50400001928E-02 0.  1.
    10030    2    1    2    0    0  0.00000000000E+00  0.00000000000E+00 -0.10777825770E+02  0.12023579488E+04  0.12023096421E+04 0.  0.
        5    1    3    3  502    0  0.22449546844E+03 -0.49652136324E+03 -0.25923636137E+03  0.60345443950E+03  0.46999998093E+01 0.  1.
       -5    1    3    3    0  502 -0.22449546844E+03  0.49652136324E+03  0.24845853560E+03  0.59890350927E+03  0.46999998093E+01 0. -1.
</event>
<event>
 5   0  0.5052959E-04  0.1205887E+04  0.7818609E-02  0.9107720E-01
       -1   -1    0    0    0  501  0.00000000000E+00  0.00000000000E+00  0.84551799811E+03  0.84551799812E+03  0.50400001928E-02 0. -1.
        1   -1    0    0  501    0  0.00000000000E+00  0.00000000000E+00 -0.42996203110E+03  0.42996203112E+03  0.50400001928E-02 0.  1.
    10030    2    1    2    0    0  0.00000000000E+00  0.00000000000E+00  0.41555596701E+03  0.12754800292E+04  0.12058866212E+04 0.  0.
        2    1    3    3  502    0  0.15360929667E+03 -0.39263223711E+03  0.66368073458E+03  0.78627476565E+03  0.25500000920E-02 0. -1.
       -2    1    3    3    0  502 -0.15360929667E+03  0.39263223711E+03 -0.24812476757E+03  0.48920526359E+03  0.25500000920E-02 0.  1.
</event>
<event>
 5   0  0.5052959E-04  0.1195138E+04  0.7818609E-02  0.9117123E-01
        1   -1    0    0  501    0  0.00000000000E+00  0.00000000000E+00  0.16095423062E+04  0.16095423062E+04  0.50400001928E-02 0. -1.
       -1   -1    0    0    0  501  0.00000000000E+00  0.00000000000E+00 -0.22185720048E+03  0.22185720054E+03  0.50400001928E-02 0.  1.
    10030    2    1    2    0    0  0.00000000000E+00  0.00000000000E+00  0.13876851058E+04  0.18313995068E+04  0.11951377330E+04 0.  0.
        2    1    3    3  502    0  0.76022274758E+01 -0.59751988990E+03  0.69515851447E+03  0.91669688170E+03  0.25500000920E-02 0. -1.
       -2    1    3    3    0  502 -0.76022274758E+01  0.59751988990E+03  0.69252659129E+03  0.91470262508E+03  0.25500000920E-02 0.  1.
</event>
<event>
 5   0  0.3453625E-04  0.1210010E+04  0.7818609E-02  0.9104140E-01
       -4   -1    0    0    0  501  0.00000000000E+00  0.00000000000E+00  0.10116736896E+04  0.10116744868E+04  0.12699999809E+01 0.  1.
        4   -1    0    0  501    0  0.00000000000E+00  0.00000000000E+00 -0.36180534789E+03  0.36180757685E+03  0.12699999809E+01 0. -1.
    10030    2    1    2    0    0  0.00000000000E+00  0.00000000000E+00  0.64986834175E+03  0.13734820636E+04  0.12100099659E+04 0.  0.
        5    1    3    3  502    0  0.13380472312E+03  0.54710971527E+03  0.74243597427E+02  0.56812581901E+03  0.46999998093E+01 0. -1.
       -5    1    3    3    0  502 -0.13380472312E+03 -0.54710971527E+03  0.57562474433E+03  0.80535624462E+03  0.46999998093E+01 0.  1.
</event>
<event>
 5   0  0.9298693E-04  0.1204402E+04  0.7818609E-02  0.9109012E-01
        2   -1    0    0  501    0  0.00000000000E+00  0.00000000000E+00  0.28541728275E+04  0.28541728275E+04  0.25500000920E-02 0. -1.
       -2   -1    0    0    0  501  0.00000000000E+00  0.00000000000E+00 -0.12705825213E+03  0.12705825215E+03  0.25500000920E-02 0.  1.
    10030    2    1    2    0    0  0.00000000000E+00  0.00000000000E+00  0.27271145753E+04  0.29812310796E+04  0.12044022763E+04 0.  0.
        1    1    3    3  502    0 -0.15515322060E+03  0.43406352052E+03  0.40436674422E+03  0.61318522941E+03  0.50400001928E-02 0.  1.
       -1    1    3    3    0  502  0.15515322060E+03 -0.43406352052E+03  0.23227478311E+04  0.23680458502E+04  0.50400001928E-02 0. -1.
</event>
<event>
 5   0  0.5157631E-04  0.1197787E+04  0.7818609E-02  0.9114796E-01
       -1   -1    0    0    0  501  0.00000000000E+00  0.00000000000E+00  0.46250963629E+03  0.46250963632E+03  0.50400001928E-02 0.  1.
        1   -1    0    0  501    0  0.00000000000E+00  0.00000000000E+00 -0.77549413535E+03  0.77549413537E+03  0.50400001928E-02 0. -1.
    10030    2    1    2    0    0  0.00000000000E+00  0.00000000000E+00 -0.31298449906E+03  0.12380037717E+04  0.11977871439E+04 0.  0.
        5    1    3    3  502    0  0.17901359161E+03 -0.33808414126E+03 -0.63272810714E+03  0.73940090621E+03  0.46999998093E+01 0. -1.
       -5    1    3    3    0  502 -0.17901359161E+03  0.33808414126E+03  0.31974360808E+03  0.49860286547E+03  0.46999998093E+01 0.  1.
</event>
<event>
 5   0  0.5052959E-04  0.1200636E+04  0.7818609E-02  0.9112300E-01
       -1   -1    0    0    0  501  0.00000000000E+00  0.00000000000E+00  0.42711700547E+03  0.42711700550E+03  0.50400001928E-02 0. -1.
        1   -1    0    0  501    0  0.00000000000E+00  0.00000000000E+00 -0.84375382940E+03  0.84375382942E+03  0.50400001928E-02 0.  1.
    10030    2    1    2    0    0  0.00000000000E+00  0.00000000000E+00 -0.41663682393E+03  0.12708708349E+04  0.12006358465E+04 0.  0.
        2    1    3    3  502    0  0.26842216838E+03  0.10137637399E+03 -0.76647321333E+03  0.81841848491E+03  0.25500000920E-02 0.  1.
       -2    1    3    3    0  502 -0.26842216838E+03 -0.10137637399E+03  0.34983638939E+03  0.45245235001E+03  0.25500000920E-02 0. -1.
</event>
<event>
 5   0  0.5001586E-04  0.1199333E+04  0.7818609E-02  0.9113441E-01
        1   -1    0    0  501    0  0.00000000000E+00  0.00000000000E+00  0.80014688210E+03  0.80014688212E+03  0.50400001928E-02 0. -1.
       -1   -1    0    0    0  501  0.00000000000E+00  0.00000000000E+00 -0.44941715507E+03  0.44941715509E+03  0.50400001928E-02 0.  1.
    10030    2    1    2    0    0  0.00000000000E+00  0.00000000000E+00  0.35072972703E+03  0.12495640372E+04  0.11993327068E+04 0.  0.
        1    1    3    3  502    0 -0.69000308122E+02  0.57321199760E+03  0.65068848609E+01  0.57738667831E+03  0.50400001928E-02 0.  1.
       -1    1    3    3    0  502  0.69000308122E+02 -0.57321199760E+03  0.34422284217E+03  0.67217735890E+03  0.50400001928E-02 0. -1.
</event>
<event>
 5   0  0.9145224E-04  0.1197842E+04  0.7818609E-02  0.9114748E-01
       -2   -1    0    0    0  501  0.00000000000E+00  0.00000000000E+00  0.31825697380E+03  0.31825697381E+03  0.25500000920E-02 0.  1.
        2   -1    0    0  501    0  0.00000000000E+00  0.00000000000E+00 -0.11270965453E+04  0.11270965453E+04  0.25500000920E-02 0. -1.
    10030    2    1    2    0    0  0.00000000000E+00  0.00000000000E+00 -0.80883957145E+03  0.14453535191E+04  0.11978419523E+04 0.  0.
        5    1    3    3  502    0  0.51049987326E+03  0.22731396096E+02 -0.27538395813E+02  0.51176878589E+03  0.46999998093E+01 0.  1.
       -5    1    3    3    0  502 -0.51049987326E+03 -0.22731396096E+02 -0.78130117564E+03  0.93358473317E+03  0.46999998093E+01 0. -1.
</event>
<event>
 5   0  0.9145224E-04  0.1205609E+04  0.7818609E-02  0.9107961E-01
        2   -1    0    0  501    0  0.00000000000E+00  0.00000000000E+00  0.12699773681E+04  0.12699773681E+04  0.25500000920E-02 0.  1.
       -2   -1    0    0    0  501  0.00000000000E+00  0.00000000000E+00 -0.28612558638E+03  0.28612558639E+03  0.25500000920E-02 0. -1.
    10030    2    1    2    0    0  0.00000000000E+00  0.00000000000E+00  0.98385178176E+03  0.15561029545E+04  0.12056085918E+04 0.  0.
        5    1    3    3  502    0  0.98580191634E+02  0.12719145342E+03 -0.25786482963E+03  0.30399355316E+03  0.46999998093E+01 0. -1.
       -5    1    3    3    0  502 -0.98580191634E+02 -0.12719145342E+03  0.12417166114E+04  0.12521094014E+04  0.46999998093E+01 0.  1.
</event>
<event>
 5   0  0.9070772E-04  0.1199069E+04  0.7818609E-02  0.9113671E-01
       -2   -1    0    0    0  501  0.00000000000E+00  0.00000000000E+00  0.37050797317E+03  0.37050797317E+03  0.25500000920E-02 0.  1.
        2   -1    0    0  501    0  0.00000000000E+00  0.00000000000E+00 -0.97013257997E+03  0.97013257997E+03  0.25500000920E-02 0. -1.
    10030    2    1    2    0    0  0.00000000000E+00  0.00000000000E+00 -0.59962460680E+03  0.13406405531E+04  0.11990693990E+04 0.  0.
        4    1    3    3  502    0 -0.11376551805E+03 -0.51045809068E+03  0.27936347363E+02  0.52372904048E+03  0.12699999809E+01 0.  1.
       -4    1    3    3    0  502  0.11376551805E+03  0.51045809068E+03 -0.62756095416E+03  0.81691151267E+03  0.12699999809E+01 0. -1.
</event>
<event>
 5   0  0.5157631E-04  0.1209644E+04  0.7818609E-02  0.9104457E-01
        1   -1    0    0  501    0  0.00000000000E+00  0.00000000000E+00  0.53743370933E+03  0.53743370936E+03  0.50400001928E-02 0. -1.
       -1   -1    0    0    0  501  0.00000000000E+00  0.00000000000E+00 -0.68066013575E+03  0.68066013576E+03  0.50400001928E-02 0.  1.
    10030    2    1    2    0    0  0.00000000000E+00  0.00000000000E+00 -0.14322642641E+03  0.12180938451E+04  0.12096440825E+04 0.  0.
        5    1    3    3  502    0 -0.27019523536E+03 -0.34482386691E+03  0.34828716889E+03  0.55967401799E+03  0.46999998093E+01 0. -1.
       -5    1    3    3    0  502  0.27019523536E+03  0.34482386691E+03 -0.49151359530E+03  0.65841982713E+03  0.46999998093E+01 0.  1.
</event>
<event>
 5   0  0.9410666E-04  0.1195333E+04  0.7818609E-02  0.9116951E-01
        2   -1    0    0  501    0  0.00000000000E+00  0.00000000000E+00  0.24799336568E+04  0.24799336568E+04  0.25500000920E-02 0.  1.
       -2   -1    0    0    0  501  0.00000000000E+00  0.00000000000E+00 -0.14403831200E+03  0.14403831203E+03  0.25500000920E-02 0. -1.
    10030    2    1    2    0    0  0.00000000000E+00  0.00000000000E+00  0.23358953448E+04  0.26239719688E+04  0.11953333557E+04 0.  0.
        2    1    3    3  502    0 -0.51005911215E+03  0.39391143200E+02  0.48959263680E+03  0.70810515467E+03  0.25500000920E-02 0. -1.
       -2    1    3    3    0  502  0.51005911215E+03 -0.39391143200E+02  0.18463027080E+04  0.19158668142E+04  0.25500000920E-02 0.  1.
</event>
<event>
 5   0  0.5052959E-04  0.1195988E+04  0.7818609E-02  0.9116375E-01
        1   -1    0    0  501    0  0.00000000000E+00  0.00000000000E+00  0.63150761025E+03  0.63150761027E+03  0.50400001928E-02 0.  1.
       -1   -1    0    0    0  501  0.00000000000E+00  0.00000000000E+00 -0.56625931689E+03  0.56625931691E+03  0.50400001928E-02 0. -1.
    10030    2    1    2    0    0  0.00000000000E+00  0.00000000000E+00  0.65248293356E+02  0.11977669272E+04  0.11959884080E+04 0.  0.
        2    1    3    3  502    0  0.32227544207E+03  0.37153244660E+03 -0.30802759679E+03  0.58032647693E+03  0.25500000920E-02 0. -1.
       -2    1    3    3    0  502 -0.32227544207E+03 -0.37153244660E+03  0.37327589014E+03  0.61744045025E+03  0.25500000920E-02 0.  1.
</event>
<event>
 5   0  0.9410666E-04  0.1202133E+04  0.7818609E-02  0.9110991E-01
       -2   -1    0    0    0  501  0.00000000000E+00  0.00000000000E+00  0.19905318701E+03  0.19905318703E+03  0.25500000920E-02 0. -1.
        2   -1    0    0  501    0  0.00000000000E+00  0.00000000000E+00 -0.18149975858E+04  0.18149975858E+04  0.25500000920E-02 0.  1.
    10030    2    1    2    0    0  0.00000000000E+00  0.00000000000E+00 -0.16159443988E+04  0.20140507728E+04  0.12021331938E+04 0.  0.
        2    1    3    3  502    0  0.30793659149E+02  0.27351371049E+03 -0.17032100091E+04  0.17253064465E+04  0.25500000920E-02 0.  1.
       -2    1    3    3    0  502 -0.30793659149E+02 -0.27351371049E+03  0.87265610252E+02  0.28874432637E+03  0.25500000920E-02 0. -1.
</event>
<event>
 5   0  0.5157631E-04  0.1202390E+04  0.7818609E-02  0.9110767E-01
       -1   -1    0    0    0  501  0.00000000000E+00  0.00000000000E+00  0.38695676625E+03  0.38695676628E+03  0.50400001928E-02 0.  1.
        1   -1    0    0  501    0  0.00000000000E+00  0.00000000000E+00 -0.93404649325E+03  0.93404649326E+03  0.50400001928E-02 0. -1.
    10030    2    1    2    0    0  0.00000000000E+00  0.00000000000E+00 -0.54708972700E+03  0.13210032595E+04  0.12023903037E+04 0.  0.
        5    1    3    3  502    0 -0.41179339721E+03 -0.34088659088E+03 -0.57569503577E+03  0.78563626064E+03  0.46999998093E+01 0. -1.
       -5    1    3    3    0  502  0.41179339721E+03  0.34088659088E+03  0.28605308770E+02  0.53536699890E+03  0.46999998093E+01 0.  1.
</event>
<event>
 5   0  0.9070772E-04  0.1199568E+04  0.7818609E-02  0.9113235E-01
       -2   -1    0    0    0  501  0.00000000000E+00  0.00000000000E+00  0.64675098306E+03  0.64675098307E+03  0.25500000920E-02 0.  1.
        2   -1    0    0  501    0  0.00000000000E+00  0.00000000000E+00 -0.55622772872E+03  0.55622772873E+03  0.25500000920E-02 0. -1.
    10030    2    1    2    0    0  0.00000000000E+00  0.00000000000E+00  0.90523254343E+02  0.12029787118E+04  0.11995679728E+04 0.  0.
        4    1    3    3  502    0  0.49929290344E+03 -0.40197926812E+02 -0.28557019448E+03  0.57659450710E+03  0.12699999809E+01 0. -1.
       -4    1    3    3    0  502 -0.49929290344E+03  0.40197926812E+02  0.37609344882E+03  0.62638420470E+03  0.12699999809E+01 0.  1.
</event>
<event>
 5   0  0.5001586E-04  0.1205295E+04  0.7818609E-02  0.9108235E-01
        1   -1    0    0  501    0  0.00000000000E+00  0.00000000000E+00  0.19027297164E+04  0.19027297164E+04  0.50400001928E-02 0.  1.
       -1   -1    0    0    0  501  0.00000000000E+00  0.00000000000E+00 -0.19087512846E+03  0.19087512853E+03  0.50400001928E-02 0. -1.
    10030    2    1    2    0    0  0.00000000000E+00  0.00000000000E+00  0.17118545879E+04  0.20936048449E+04  0.12052946181E+04 0.  0.
        1    1    3    3  502    0 -0.16975962924E+03 -0.49363021159E+03  0.13790364957E+04  0.14745273053E+04  0.50400001928E-02 0.  1.
       -1    1    3    3    0  502  0.16975962924E+03  0.49363021159E+03  0.33281809217E+03  0.61907753958E+03  0.50400001928E-02 0. -1.
</event>
<event>
 5   0  0.5157631E-04  0.1199796E+04  0.7818609E-02  0.9113035E-01
        1   -1    0    0  501    0  0.00000000000E+00  0.00000000000E+00  0.60517850917E+03  0.60517850919E+03  0.50400001928E-02 0.  1.
       -1   -1    0    0    0  501  0.00000000000E+00  0.00000000000E+00 -0.59466337583E+03  0.59466337586E+03  0.50400001928E-02 0. -1.
    10030    2    1    2    0    0  0.00000000000E+00  0.00000000000E+00  0.10515133335E+02  0.11998418850E+04  0.11997958081E+04 0.  0.
        5    1    3    3  502    0 -0.25776079159E+03  0.16459655660E+03 -0.51082693151E+03  0.59539809882E+03  0.46999998093E+01 0. -1.
       -5    1    3    3    0  502  0.25776079159E+03 -0.16459655660E+03  0.52134206485E+03  0.60444378622E+03  0.46999998093E+01 0.  1.
</event>
<event>
 5   0  0.5001586E-04  0.1197511E+04  0.7818609E-02  0.9115038E-01
        1   -1    0    0  501    0  0.00000000000E+00  0.00000000000E+00  0.73511741770E+03  0.73511741772E+03  0.50400001928E-02 0.  1.
       -1   -1    0    0    0  501  0.00000000000E+00  0.00000000000E+00 -0.48768819767E+03  0.48768819769E+03  0.50400001928E-02 0. -1.
    10030    2    1    2    0    0  0.00000000000E+00  0.00000000000E+00  0.24742922004E+03  0.12228056154E+04  0.11975108994E+04 0.  0.
        1    1    3    3  502    0 -0.23369176764E+03  0.55017408946E+03  0.15915680134E+03  0.61857437582E+03  0.50400001928E-02 0. -1.
       -1    1    3    3    0  502  0.23369176764E+03 -0.55017408946E+03  0.88272418697E+02  0.60423123960E+03  0.50400001928E-02 0.  1.
</event>
<event>
 5   0  0.9410666E-04  0.1193494E+04  0.7818609E-02  0.9118570E-01
        2   -1    0    0  501    0  0.00000000000E+00  0.00000000000E+00  0.12496112670E+04  0.12496112670E+04  0.25500000920E-02 0. -1.
       -2   -1    0    0    0  501  0.00000000000E+00  0.00000000000E+00 -0.28497426268E+03  0.28497426269E+03  0.25500000920E-02 0.  1.
    10030    2    1    2    0    0  0.00000000000E+00  0.00000000000E+00  0.96463700433E+03  0.15345855297E+04  0.11934941130E+04 0.  0.
        2    1    3    3  502    0 -0.10137012590E+01 -0.57309228502E+03  0.26843108127E+03  0.63284361428E+03  0.25500000920E-02 0.  1.
       -2    1    3    3    0  502  0.10137012590E+01  0.57309228502E+03  0.69620592306E+03  0.90174191543E+03  0.25500000920E-02 0. -1.
</event>
<event>
 5   0  0.9050363E-04  0.1197499E+04  0.7818609E-02  0.9115048E-01
       -2   -1    0    0    0  501  0.00000000000E+00  0.00000000000E+00  0.41787227024E+03  0.41787227025E+03  0.25500000920E-02 0.  1.
        2   -1    0    0  501    0  0.00000000000E+00  0.00000000000E+00 -0.85792055416E+03  0.85792055417E+03  0.25500000920E-02 0. -1.
    10030    2    1    2    0    0  0.00000000000E+00  0.00000000000E+00 -0.44004828392E+03  0.12757928244E+04  0.11974994107E+04 0.  0.
        3    1    3    3  502    0  0.34558705012E+03  0.23049560948E+03  0.23937931059E+03  0.47943831693E+03  0.10100000352E+00 0.  1.
       -3    1    3    3    0  502 -0.34558705012E+03 -0.23049560948E+03 -0.67942759451E+03  0.79635450748E+03  0.10100000352E+00 0. -1.
</event>
<event>
 5   0  0.5157631E-04  0.1202716E+04  0.7818609E-02  0.9110483E-01
       -1   -1    0    0    0  501  0.00000000000E+00  0.00000000000E+00  0.24415253927E+03  0.24415253932E+03  0.50400001928E-02 0. -1.
        1   -1    0    0  501    0  0.00000000000E+00  0.00000000000E+00 -0.14811699495E+04  0.14811699495E+04  0.50400001928E-02 0.  1.
    10030    2    1    2    0    0  0.00000000000E+00  0.00000000000E+00 -0.12370174103E+04  0.17253224889E+04  0.12027159337E+04 0.  0.
        5    1    3    3  502    0 -0.24902558560E+02 -0.21581317230E+03 -0.14228827600E+04  0.14393793459E+04  0.46999998093E+01 0.  1.
       -5    1    3    3    0  502  0.24902558560E+02  0.21581317230E+03  0.18586534974E+03  0.28594314294E+03  0.46999998093E+01 0. -1.
</event>
<event>
 5   0  0.3453625E-04  0.1209530E+04  0.7818609E-02  0.9104556E-01
        4   -1    0    0  501    0  0.00000000000E+00  0.00000000000E+00  0.53808259881E+03  0.53808409756E+03  0.12699999809E+01 0.  1.
       -4   -1    0    0    0  501  0.00000000000E+00  0.00000000000E+00 -0.67970788317E+03  0.67970906963E+03  0.12699999809E+01 0. -1.
    10030    2    1    2    0    0  0.00000000000E+00  0.00000000000E+00 -0.14162528436E+03  0.12177931672E+04  0.12095298578E+04 0.  0.
        2    1    3    3  502    0 -0.57145074877E+03  0.16659030524E+03  0.36839911694E+02  0.59637695057E+03  0.25500000920E-02 0.  1.
       -2    1    3    3    0  502  0.57145074877E+03 -0.16659030524E+03 -0.17846519605E+03  0.62141621662E+03  0.25500000920E-02 0. -1.
</event>
<event>
 5   0  0.9145224E-04  0.1197142E+04  0.7818609E-02  0.9115362E-01
        2   -1    0    0  501    0  0.00000000000E+00  0.00000000000E+00  0.11624087287E+04  0.11624087287E+04  0.25500000920E-02 0. -1.
       -2   -1    0    0    0  501  0.00000000000E+00  0.00000000000E+00 -0.30822808746E+03  0.30822808747E+03  0.25500000920E-02 0.  1.
    10030    2    1    2    0    0  0.00000000000E+00  0.00000000000E+00  0.85418064124E+03  0.14706368162E+04  0.11971416279E+04 0.  0.
        5    1    3    3  502    0 -0.97363755905E+02 -0.10876073719E+03 -0.28600356270E+03  0.32113661702E+03  0.46999998093E+01 0.  1.
       -5    1    3    3    0  502  0.97363755905E+02  0.10876073719E+03  0.11401842039E+04  0.11495001991E+04  0.46999998093E+01 0. -1.
</event>
<event>
 5   0  0.9145224E-04  0.1196424E+04  0.7818609E-02  0.9115992E-01
       -2   -1    0    0    0  501  0.00000000000E+00  0.00000000000E+00  0.52420094604E+03  0.52420094604E+03  0.25500000920E-02 0. -1.
        2   -1    0    0  501    0  0.00000000000E+00  0.00000000000E+00 -0.68267304462E+03  0.68267304462E+03  0.25500000920E-02 0.  1.
    10030    2    1    2    0    0  0.00000000000E+00  0.00000000000E+00 -0.15847209858E+03  0.12068739907E+04  0.11964244328E+04 0.  0.
        5    1    3    3  502    0 -0.58878732403E+03 -0.75246528765E+02 -0.44044877578E+01  0.59361101956E+03  0.46999998093E+01 0. -1.
       -5    1    3    3    0  502  0.58878732403E+03  0.75246528765E+02 -0.15406761082E+03  0.61326297111E+03  0.46999998093E+01 0.  1.
</event>
<event>
 5   0  0.5001586E-04  0.1200858E+04  0.7818609E-02  0.9112106E-01
       -1   -1    0    0    0  501  0.00000000000E+00  0.00000000000E+00  0.36878670893E+03  0.36878670897E+03  0.50400001928E-02 0. -1.
        1   -1    0    0  501    0  0.00000000000E+00  0.00000000000E+00 -0.97757080469E+03  0.97757080470E+03  0.50400001928E-02 0.  1.
    10030    2    1    2    0    0  0.00000000000E+00  0.00000000000E+00 -0.60878409576E+03  0.13463575137E+04  0.12008582262E+04 0.  0.
        1    1    3    3  502    0 -0.43612281287E+03  0.15400712089E+03  0.12487395047E+03  0.47907703423E+03  0.50400001928E-02 0. -1.
       -1    1    3    3    0  502  0.43612281287E+03 -0.15400712089E+03 -0.73365804623E+03  0.86728047944E+03  0.50400001928E-02 0.  1.
</event>
<event>
 5   0  0.9070772E-04  0.1199576E+04  0.7818609E-02  0.9113228E-01
        2   -1    0    0  501    0  0.00000000000E+00  0.00000000000E+00  0.61116251142E+03  0.61116251142E+03  0.25500000920E-02 0. -1.
       -2   -1    0    0    0  501  0.00000000000E+00  0.00000000000E+00 -0.58862520255E+03  0.58862520256E+03  0.25500000920E-02 0.  1.
    10030    2    1    2    0    0  0.00000000000E+00  0.00000000000E+00  0.22537308866E+02  0.11997877140E+04  0.11995760202E+04 0.  0.
        4    1    3    3  502    0  0.23768870172E+03  0.40198895402E+03  0.38770325247E+03  0.60696496024E+03  0.12699999809E+01 0. -1.
       -4    1    3    3    0  502 -0.23768870172E+03 -0.40198895402E+03 -0.36516594361E+03  0.59282275374E+03  0.12699999809E+01 0.  1.
</event>
<event>
 5   0  0.5001586E-04  0.1207781E+04  0.7818609E-02  0.9106073E-01
       -1   -1    0    0    0  501  0.00000000000E+00  0.00000000000E+00  0.37383004565E+03  0.37383004569E+03  0.50400001928E-02 0.  1.
        1   -1    0    0  501    0  0.00000000000E+00  0.00000000000E+00 -0.97553418634E+03  0.97553418635E+03  0.50400001928E-02 0. -1.
    10030    2    1    2    0    0  0.00000000000E+00  0.00000000000E+00 -0.60170414068E+03  0.13493642320E+04  0.12077814197E+04 0.  0.
        1    1    3    3  502    0  0.74273656403E+01 -0.29424859963E+03  0.28826232176E+03  0.41198612879E+03  0.50400001928E-02 0.  1.
       -1    1    3    3    0  502 -0.74273656403E+01  0.29424859963E+03 -0.88996646244E+03  0.93737810325E+03  0.50400001928E-02 0. -1.
</event>
<event>
 5   0  0.5003507E-04  0.1208117E+04  0.7818609E-02  0.9105781E-01
        1   -1    0    0  501    0  0.00000000000E+00  0.00000000000E+00  0.97140152675E+03  0.97140152676E+03  0.50400001928E-02 0. -1.
       -1   -1    0    0    0  501  0.00000000000E+00  0.00000000000E+00 -0.37562924912E+03  0.37562924915E+03  0.50400001928E-02 0.  1.
    10030    2    1    2    0    0  0.00000000000E+00  0.00000000000E+00  0.59577227763E+03  0.13470307759E+04  0.12081172561E+04 0.  0.
        3    1    3    3  502    0 -0.26338444460E+03 -0.43949242232E+03  0.65461440017E+03  0.83129115118E+03  0.10100000352E+00 0. -1.
       -3    1    3    3    0  502  0.26338444460E+03  0.43949242232E+03 -0.58842122538E+02  0.51573962473E+03  0.10100000352E+00 0.  1.
</event>
<event>
 5   0  0.5052959E-04  0.1195290E+04  0.7818609E-02  0.9116989E-01
        1   -1    0    0  501    0  0.00000000000E+00  0.00000000000E+00  0.90061041759E+03  0.90061041760E+03  0.50400001928E-02 0. -1.
       -1   -1    0    0    0  501  0.00000000000E+00  0.00000000000E+00 -0.39659713353E+03  0.39659713356E+03  0.50400001928E-02 0.  1.
    10030    2    1    2    0    0  0.00000000000E+00  0.00000000000E+00  0.50401328406E+03  0.12972075512E+04  0.11952899398E+04 0.  0.
        2    1    3    3  502    0  0.31724785919E+03 -0.30364891240E+02 -0.29668230378E+03  0.43541775361E+03  0.25500000920E-02 0.  1.
       -2    1    3    3    0  502 -0.31724785919E+03  0.30364891240E+02  0.80069558783E+03  0.86178979755E+03  0.25500000920E-02 0. -1.
</event>
<event>
 5   0  0.9070772E-04  0.1203005E+04  0.7818609E-02  0.9110230E-01
        2   -1    0    0  501    0  0.00000000000E+00  0.00000000000E+00  0.70015801984E+03  0.70015801984E+03  0.25500000920E-02 0. -1.
       -2   -1    0    0    0  501  0.00000000000E+00  0.00000000000E+00 -0.51674786118E+03  0.51674786118E+03  0.25500000920E-02 0.  1.
    10030    2    1    2    0    0  0.00000000000E+00  0.00000000000E+00  0.18341015866E+03  0.12169058810E+04  0.12030048366E+04 0.  0.
        4    1    3    3  502    0  0.20515983438E+03  0.46001149432E+03  0.42429364348E+03  0.65858017079E+03  0.12699999809E+01 0. -1.
       -4    1    3    3    0  502 -0.20515983438E+03 -0.46001149432E+03 -0.24088348482E+03  0.55832571024E+03  0.12699999809E+01 0.  1.
</event>
<event>
 5   0  0.5447074E-04  0.1200780E+04  0.7818609E-02  0.9112174E-01
       -1   -1    0    0    0  501  0.00000000000E+00  0.00000000000E+00  0.55560633079E+03  0.55560633081E+03  0.50400001928E-02 0. -1.
        1   -1    0    0  501    0  0.00000000000E+00  0.00000000000E+00 -0.64878351642E+03  0.64878351644E+03  0.50400001928E-02 0.  1.
    10030    2    1    2    0    0  0.00000000000E+00  0.00000000000E+00 -0.93177185627E+02  0.12043898472E+04  0.12007801282E+04 0.  0.
        4    1    3    3  502    0 -0.12603227004E+03 -0.43942538340E+03  0.34379579869E+03  0.57199297614E+03  0.12699999809E+01 0. -1.
       -4    1    3    3    0  502  0.12603227004E+03  0.43942538340E+03 -0.43697298431E+03  0.63239687110E+03  0.12699999809E+01 0.  1.
</event>
<event>
 5   0  0.5003507E-04  0.1198254E+04  0.7818609E-02  0.9114386E-01
        1   -1    0    0  501    0  0.00000000000E+00  0.00000000000E+00  0.79725414183E+03  0.79725414184E+03  0.50400001928E-02 0.  1.
       -1   -1    0    0    0  501  0.00000000000E+00  0.00000000000E+00 -0.45023691008E+03  0.45023691011E+03  0.50400001928E-02 0. -1.
    10030    2    1    2    0    0  0.00000000000E+00  0.00000000000E+00  0.34701723175E+03  0.12474910519E+04  0.11982541323E+04 0.  0.
        3    1    3    3  502    0 -0.59364286411E+03 -0.31565594570E+02  0.95984101066E+02  0.60218036727E+03  0.10100000352E+00 0. -1.
       -3    1    3    3    0  502  0.59364286411E+03  0.31565594570E+02  0.25103313068E+03  0.64531068468E+03  0.10100000352E+00 0.  1.
</event>
<event>
 5   0  0.9298693E-04  0.1202883E+04  0.7818609E-02  0.9110337E-01
       -2   -1    0    0    0  501  0.00000000000E+00  0.00000000000E+00  0.25779931255E+03  0.25779931256E+03  0.25500000920E-02 0. -1.
        2   -1    0    0  501    0  0.00000000000E+00  0.00000000000E+00 -0.14031527340E+04  0.14031527340E+04  0.25500000920E-02 0.  1.
    10030    2    1    2    0    0  0.00000000000E+00  0.00000000000E+00 -0.11453534214E+04  0.16609520465E+04  0.12028828875E+04 0.  0.
        1    1    3    3  502    0  0.21496468832E+03 -0.46522256685E+03 -0.10073356001E+04  0.11302065586E+04  0.50400001928E-02 0.  1.
       -1    1    3    3    0  502 -0.21496468832E+03  0.46522256685E+03 -0.13801782136E+03  0.53074548794E+03  0.50400001928E-02 0. -1.
</event>
<event>
 5   0  0.9145224E-04  0.1218475E+04  0.7818609E-02  0.9096838E-01
       -2   -1    0    0    0  501  0.00000000000E+00  0.00000000000E+00  0.29453651803E+03  0.29453651804E+03  0.25500000920E-02 0.  1.
        2   -1    0    0  501    0  0.00000000000E+00  0.00000000000E+00 -0.12601837263E+04  0.12601837263E+04  0.25500000920E-02 0. -1.
    10030    2    1    2    0    0  0.00000000000E+00  0.00000000000E+00 -0.96564720828E+03  0.15547202444E+04  0.12184746642E+04 0.  0.
        5    1    3    3  502    0 -0.46709114884E+03  0.23648822247E+03 -0.85332611928E+02  0.53047579148E+03  0.46999998093E+01 0.  1.
       -5    1    3    3    0  502  0.46709114884E+03 -0.23648822247E+03 -0.88031459635E+03  0.10242444529E+04  0.46999998093E+01 0. -1.
</event>
<event>
 5   0  0.5447074E-04  0.1174073E+04  0.7818609E-02  0.9135858E-01
       -1   -1    0    0    0  501  0.00000000000E+00  0.00000000000E+00  0.23661962156E+03  0.23661962162E+03  0.50400001928E-02 0.  1.
        1   -1    0    0  501    0  0.00000000000E+00  0.00000000000E+00 -0.14563951991E+04  0.14563951991E+04  0.50400001928E-02 0. -1.
    10030    2    1    2    0    0  0.00000000000E+00  0.00000000000E+00 -0.12197755775E+04  0.16930148207E+04  0.11740727080E+04 0.  0.
        4    1    3    3  502    0  0.25132163114E+03  0.41837980427E+03 -0.13950815472E+03  0.50761044220E+03  0.12699999809E+01 0.  1.
       -4    1    3    3    0  502 -0.25132163114E+03 -0.41837980427E+03 -0.10802674228E+04  0.11854043785E+04  0.12699999809E+01 0. -1.
</event>
<event>
 5   0  0.9070772E-04  0.1198873E+04  0.7818609E-02  0.9113844E-01
        2   -1    0    0  501    0  0.00000000000E+00  0.00000000000E+00  0.19229477615E+04  0.19229477615E+04  0.25500000920E-02 0.  1.
       -2   -1    0    0    0  501  0.00000000000E+00  0.00000000000E+00 -0.18686101758E+03  0.18686101760E+03  0.25500000920E-02 0. -1.
    10030    2    1    2    0    0  0.00000000000E+00  0.00000000000E+00  0.17360867439E+04  0.21098087791E+04  0.11988727630E+04 0.  0.
        4    1    3    3  502    0  0.45726396895E+03 -0.18233443074E+03  0.14699613052E+04  0.15502012881E+04  0.12699999809E+01 0.  1.
       -4    1    3    3    0  502 -0.45726396895E+03  0.18233443074E+03  0.26612543868E+03  0.55960749096E+03  0.12699999809E+01 0. -1.
</event>
<event>
 5   0  0.9410666E-04  0.1139070E+04  0.7818609E-02  0.9167926E-01
        2   -1    0    0  501    0  0.00000000000E+00  0.00000000000E+00  0.14295990483E+04  0.14295990483E+04  0.25500000920E-02 0.  1.
       -2   -1    0    0    0  501  0.00000000000E+00  0.00000000000E+00 -0.22689596226E+03  0.22689596227E+03  0.25500000920E-02 0. -1.
    10030    2    1    2    0    0  0.00000000000E+00  0.00000000000E+00  0.12027030860E+04  0.16564950106E+04  0.11390702379E+04 0.  0.
        2    1    3    3  502    0  0.32331311013E+03 -0.24931424328E+01  0.12831966741E+04  0.13233031729E+04  0.25500000920E-02 0.  1.
       -2    1    3    3    0  502 -0.32331311013E+03  0.24931424328E+01 -0.80493588102E+02  0.33319183765E+03  0.25500000920E-02 0. -1.
</event>
<event>
 5   0  0.5001586E-04  0.1187529E+04  0.7818609E-02  0.9123843E-01
        1   -1    0    0  501    0  0.00000000000E+00  0.00000000000E+00  0.60729301353E+03  0.60729301355E+03  0.50400001928E-02 0.  1.
       -1   -1    0    0    0  501  0.00000000000E+00  0.00000000000E+00 -0.58053779550E+03  0.58053779552E+03  0.50400001928E-02 0. -1.
    10030    2    1    2    0    0  0.00000000000E+00  0.00000000000E+00  0.26755218029E+02  0.11878308091E+04  0.11875294478E+04 0.  0.
        1    1    3    3  502    0 -0.14941373321E+03  0.23200793876E+02 -0.56095779987E+03  0.58097882386E+03  0.50400001928E-02 0. -1.
       -1    1    3    3    0  502  0.14941373321E+03 -0.23200793876E+02  0.58771301790E+03  0.60685198521E+03  0.50400001928E-02 0.  1.
</event>
<event>
 5   0  0.9410666E-04  0.1150852E+04  0.7818609E-02  0.9156998E-01
        2   -1    0    0  501    0  0.00000000000E+00  0.00000000000E+00  0.20129853357E+04  0.20129853357E+04  0.25500000920E-02 0. -1.
       -2   -1    0    0    0  501  0.00000000000E+00  0.00000000000E+00 -0.16448950038E+03  0.16448950040E+03  0.25500000920E-02 0.  1.
    10030    2    1    2    0    0  0.00000000000E+00  0.00000000000E+00  0.18484958353E+04  0.21774748361E+04  0.11508517753E+04 0.  0.
        2    1    3    3  502    0  0.55840678716E+03 -0.84091813655E+02  0.71504635687E+03  0.91114261538E+03  0.25500000920E-02 0.  1.
       -2    1    3    3    0  502 -0.55840678716E+03  0.84091813655E+02  0.11334494784E+04  0.12663322207E+04  0.25500000920E-02 0. -1.
</event>
<event>
 5   0  0.5052959E-04  0.1263163E+04  0.7818609E-02  0.9059299E-01
       -1   -1    0    0    0  501  0.00000000000E+00  0.00000000000E+00  0.15762555918E+03  0.15762555926E+03  0.50400001928E-02 0.  1.
        1   -1    0    0  501    0  0.00000000000E+00  0.00000000000E+00 -0.25306491542E+04  0.25306491542E+04  0.50400001928E-02 0. -1.
    10030    2    1    2    0    0  0.00000000000E+00  0.00000000000E+00 -0.23730235950E+04  0.26882747135E+04  0.12631626786E+04 0.  0.
        2    1    3    3  502    0  0.12720650134E+03 -0.51882146613E+03 -0.19036197875E+04  0.19771508549E+04  0.25500000920E-02 0. -1.
       -2    1    3    3    0  502 -0.12720650134E+03  0.51882146613E+03 -0.46940380756E+03  0.71112385859E+03  0.25500000920E-02 0.  1.
</event>
<event>
 5   0  0.5447074E-04  0.1198271E+04  0.7818609E-02  0.9114371E-01
       -1   -1    0    0    0  501  0.00000000000E+00  0.00000000000E+00  0.49439539961E+03  0.49439539963E+03  0.50400001928E-02 0.  1.
        1   -1    0    0  501    0  0.00000000000E+00  0.00000000000E+00 -0.72606501867E+03  0.72606501869E+03  0.50400001928E-02 0. -1.
    10030    2    1    2    0    0  0.00000000000E+00  0.00000000000E+00 -0.23166961906E+03  0.12204604183E+04  0.11982707625E+04 0.  0.
        4    1    3    3  502    0 -0.34962939206E+03  0.49647999171E+02  0.37712788820E+03  0.51665529376E+03  0.12699999809E+01 0.  1.
       -4    1    3    3    0  502  0.34962939206E+03 -0.49647999171E+02 -0.60879750726E+03  0.70380512456E+03  0.12699999809E+01 0. -1.
</event>
<event>
 5   0  0.9298693E-04  0.1199264E+04  0.7818609E-02  0.9113501E-01
        2   -1    0    0  501    0  0.00000000000E+00  0.00000000000E+00  0.16141576477E+04  0.16141576477E+04  0.25500000920E-02 0.  1.
       -2   -1    0    0    0  501  0.00000000000E+00  0.00000000000E+00 -0.22275290814E+03  0.22275290815E+03  0.25500000920E-02 0. -1.
    10030    2    1    2    0    0  0.00000000000E+00  0.00000000000E+00  0.13914047396E+04  0.18369105559E+04  0.11992636245E+04 0.  0.
        1    1    3    3  502    0 -0.23106251111E+03  0.49596237167E+02 -0.14841322132E+03  0.27906299481E+03  0.50400001928E-02 0. -1.
       -1    1    3    3    0  502  0.23106251111E+03 -0.49596237167E+02  0.15398179609E+04  0.15578475610E+04  0.50400001928E-02 0.  1.
</event>
<event>
 5   0  0.9410666E-04  0.1199640E+04  0.7818609E-02  0.9113172E-01
       -2   -1    0    0    0  501  0.00000000000E+00  0.00000000000E+00  0.16112370802E+03  0.16112370804E+03  0.25500000920E-02 0.  1.
        2   -1    0    0  501    0  0.00000000000E+00  0.00000000000E+00 -0.22329669513E+04  0.22329669513E+04  0.25500000920E-02 0. -1.
    10030    2    1    2    0    0  0.00000000000E+00  0.00000000000E+00 -0.20718432433E+04  0.23940906594E+04  0.11996398045E+04 0.  0.
        2    1    3    3  502    0  0.20842258692E+03  0.51106720078E+03 -0.15046046665E+04  0.16026430860E+04  0.25500000920E-02 0. -1.
       -2    1    3    3    0  502 -0.20842258692E+03 -0.51106720078E+03 -0.56723857676E+03  0.79144757339E+03  0.25500000920E-02 0.  1.
</event>
<event>
 5   0  0.5001586E-04  0.1198781E+04  0.7818609E-02  0.9113924E-01
        1   -1    0    0  501    0  0.00000000000E+00  0.00000000000E+00  0.10182807516E+04  0.10182807516E+04  0.50400001928E-02 0. -1.
       -1   -1    0    0    0  501  0.00000000000E+00  0.00000000000E+00 -0.35281927376E+03  0.35281927380E+03  0.50400001928E-02 0.  1.
    10030    2    1    2    0    0  0.00000000000E+00  0.00000000000E+00  0.66546147781E+03  0.13711000254E+04  0.11987811732E+04 0.  0.
        1    1    3    3  502    0 -0.14527093761E+03 -0.55299036206E+03  0.12696121678E+03  0.58568006320E+03  0.50400001928E-02 0.  1.
       -1    1    3    3    0  502  0.14527093761E+03  0.55299036206E+03  0.53850026103E+03  0.78541996218E+03  0.50400001928E-02 0. -1.
</event>
<event>
 5   0  0.5052959E-04  0.1196887E+04  0.7818609E-02  0.9115586E-01
       -1   -1    0    0    0  501  0.00000000000E+00  0.00000000000E+00  0.30548462578E+03  0.30548462582E+03  0.50400001928E-02 0. -1.
        1   -1    0    0  501    0  0.00000000000E+00  0.00000000000E+00 -0.11723488834E+04  0.11723488834E+04  0.50400001928E-02 0.  1.
    10030    2    1    2    0    0  0.00000000000E+00  0.00000000000E+00 -0.86686425760E+03  0.14778335092E+04  0.11968868952E+04 0.  0.
        2    1    3    3  502    0  0.50181151367E+03  0.30651284064E+03 -0.57075756416E+03  0.81946879976E+03  0.25500000920E-02 0. -1.
       -2    1    3    3    0  502 -0.50181151367E+03 -0.30651284064E+03 -0.29610669344E+03  0.65836470944E+03  0.25500000920E-02 0.  1.
</event>
<event>
 5   0  0.9298693E-04  0.1204009E+04  0.7818609E-02  0.9109354E-01
        2   -1    0    0  501    0  0.00000000000E+00  0.00000000000E+00  0.58586499321E+03  0.58586499322E+03  0.25500000920E-02 0. -1.
       -2   -1    0    0    0  501  0.00000000000E+00  0.00000000000E+00 -0.61858902977E+03  0.61858902977E+03  0.25500000920E-02 0.  1.
    10030    2    1    2    0    0  0.00000000000E+00  0.00000000000E+00 -0.32724036553E+02  0.12044540230E+04  0.12040093982E+04 0.  0.
        1    1    3    3  502    0 -0.48516887027E+03 -0.35472073413E+03 -0.50929457322E+02  0.60316618071E+03  0.50400001928E-02 0.  1.
       -1    1    3    3    0  502  0.48516887027E+03  0.35472073413E+03  0.18205420770E+02  0.60128784228E+03  0.50400001928E-02 0. -1.
</event>
<event>
 5   0  0.5052959E-04  0.1205837E+04  0.7818609E-02  0.9107763E-01
       -1   -1    0    0    0  501  0.00000000000E+00  0.00000000000E+00  0.51735709726E+03  0.51735709729E+03  0.50400001928E-02 0.  1.
        1   -1    0    0  501    0  0.00000000000E+00  0.00000000000E+00 -0.70263046100E+03  0.70263046102E+03  0.50400001928E-02 0. -1.
    10030    2    1    2    0    0  0.00000000000E+00  0.00000000000E+00 -0.18527336374E+03  0.12199875583E+04  0.12058372291E+04 0.  0.
        2    1    3    3  502    0 -0.12389095990E+03 -0.52858477815E+03  0.17266176333E+03  0.56970424095E+03  0.25500000920E-02 0.  1.
       -2    1    3    3    0  502  0.12389095990E+03  0.52858477815E+03 -0.35793512706E+03  0.65028331735E+03  0.25500000920E-02 0. -1.
</event>
<event>
 5   0  0.5003507E-04  0.1204643E+04  0.7818609E-02  0.9108803E-01
       -1   -1    0    0    0  501  0.00000000000E+00  0.00000000000E+00  0.90832282897E+03  0.90832282899E+03  0.50400001928E-02 0. -1.
        1   -1    0    0  501    0  0.00000000000E+00  0.00000000000E+00 -0.39940753310E+03  0.39940753313E+03  0.50400001928E-02 0.  1.
    10030    2    1    2    0    0  0.00000000000E+00  0.00000000000E+00  0.50891529588E+03  0.13077303621E+04  0.12046426531E+04 0.  0.
        3    1    3    3  502    0  0.15643261003E+02 -0.24898783742E+03  0.84959784891E+03  0.88546946298E+03  0.10100000352E+00 0. -1.
       -3    1    3    3    0  502 -0.15643261003E+02  0.24898783742E+03 -0.34068255303E+03  0.42226089914E+03  0.10100000352E+00 0.  1.
</event>
<event>
 5   0  0.9298693E-04  0.1214007E+04  0.7818609E-02  0.9100684E-01
       -2   -1    0    0    0  501  0.00000000000E+00  0.00000000000E+00  0.21893017620E+04  0.21893017620E+04  0.25500000920E-02 0. -1.
        2   -1    0    0  501    0  0.00000000000E+00  0.00000000000E+00 -0.16829706789E+03  0.16829706791E+03  0.25500000920E-02 0.  1.
    10030    2    1    2    0    0  0.00000000000E+00  0.00000000000E+00  0.20210046941E+04  0.23575988299E+04  0.12140067006E+04 0.  0.
        1    1    3    3  502    0  0.44750844872E+03 -0.16498674558E+03  0.17396409001E+04  0.18038389339E+04  0.50400001928E-02 0. -1.
       -1    1    3    3    0  502 -0.44750844872E+03  0.16498674558E+03  0.28136379398E+03  0.55375989606E+03  0.50400001928E-02 0.  1.
</event>
<event>
 5   0  0.9070772E-04  0.1200171E+04  0.7818609E-02  0.9112707E-01
       -2   -1    0    0    0  501  0.00000000000E+00  0.00000000000E+00  0.39137597411E+03  0.39137597412E+03  0.25500000920E-02 0. -1.
        2   -1    0    0  501    0  0.00000000000E+00  0.00000000000E+00 -0.92009378202E+03  0.92009378203E+03  0.25500000920E-02 0.  1.
    10030    2    1    2    0    0  0.00000000000E+00  0.00000000000E+00 -0.52871780791E+03  0.13114697561E+04  0.12001709882E+04 0.  0.
        4    1    3    3  502    0 -0.41835380986E+03 -0.31013977286E+03  0.61442051031E+02  0.52438852721E+03  0.12699999809E+01 0. -1.
       -4    1    3    3    0  502  0.41835380986E+03  0.31013977286E+03 -0.59015985894E+03  0.78708122894E+03  0.12699999809E+01 0.  1.
</event>
<event>
 5   0  0.9070772E-04  0.1198947E+04  0.7818609E-02  0.9113779E-01
        2   -1    0    0  501    0  0.00000000000E+00  0.00000000000E+00  0.63719402044E+03  0.63719402045E+03  0.25500000920E-02 0.  1.
       -2   -1    0    0    0  501  0.00000000000E+00  0.00000000000E+00 -0.56398607771E+03  0.56398607772E+03  0.25500000920E-02 0. -1.
    10030    2    1    2    0    0  0.00000000000E+00  0.00000000000E+00  0.73207942731E+02  0.12011800982E+04  0.11989471320E+04 0.  0.
        4    1    3    3  502    0  0.24702441109E+02 -0.25052840895E+03 -0.50846098898E+03  0.56737014770E+03  0.12699999809E+01 0. -1.
       -4    1    3    3    0  502 -0.24702441109E+02  0.25052840895E+03  0.58166893171E+03  0.63380995046E+03  0.12699999809E+01 0.  1.
</event>
<event>
 5   0  0.9050363E-04  0.1171026E+04  0.7818609E-02  0.9138602E-01
        2   -1    0    0  501    0  0.00000000000E+00  0.00000000000E+00  0.40547441669E+03  0.40547441670E+03  0.25500000920E-02 0. -1.
       -2   -1    0    0    0  501  0.00000000000E+00  0.00000000000E+00 -0.84549243178E+03  0.84549243178E+03  0.25500000920E-02 0.  1.
    10030    2    1    2    0    0  0.00000000000E+00  0.00000000000E+00 -0.44001801509E+03  0.12509668485E+04  0.11710261322E+04 0.  0.
        3    1    3    3  502    0 -0.47174757228E+02  0.42996752122E+03  0.20155408873E+03  0.47720183142E+03  0.10100000352E+00 0. -1.
       -3    1    3    3    0  502  0.47174757228E+02 -0.42996752122E+03 -0.64157210382E+03  0.77376501706E+03  0.10100000352E+00 0.  1.
</event>
<event>
 5   0  0.5001586E-04  0.1196779E+04  0.7818609E-02  0.9115680E-01
       -1   -1    0    0    0  501  0.00000000000E+00  0.00000000000E+00  0.51712409737E+03  0.51712409739E+03  0.50400001928E-02 0. -1.
        1   -1    0    0  501    0  0.00000000000E+00  0.00000000000E+00 -0.69242582409E+03  0.69242582411E+03  0.50400001928E-02 0.  1.
    10030    2    1    2    0    0  0.00000000000E+00  0.00000000000E+00 -0.17530172673E+03  0.12095499215E+04  0.11967791430E+04 0.  0.
        1    1    3    3  502    0 -0.22560897878E+03  0.53216194848E+03  0.68837847236E+02  0.58209483760E+03  0.50400001928E-02 0.  1.
       -1    1    3    3    0  502  0.22560897878E+03 -0.53216194848E+03 -0.24413957396E+03  0.62745508391E+03  0.50400001928E-02 0. -1.
</event>
<event>
 5   0  0.9410666E-04  0.1194499E+04  0.7818609E-02  0.9117685E-01
       -2   -1    0    0    0  501  0.00000000000E+00  0.00000000000E+00  0.22068172582E+03  0.22068172583E+03  0.25500000920E-02 0. -1.
        2   -1    0    0  501    0  0.00000000000E+00  0.00000000000E+00 -0.16163859610E+04  0.16163859610E+04  0.25500000920E-02 0.  1.
    10030    2    1    2    0    0  0.00000000000E+00  0.00000000000E+00 -0.13957042352E+04  0.18370676869E+04  0.11944987961E+04 0.  0.
        2    1    3    3  502    0 -0.20554388813E+03 -0.43827685226E+03 -0.12358497814E+04  0.13272752432E+04  0.25500000920E-02 0.  1.
       -2    1    3    3    0  502  0.20554388813E+03  0.43827685226E+03 -0.15985445387E+03  0.50979244365E+03  0.25500000920E-02 0. -1.
</event>
<event>
 5   0  0.9298693E-04  0.1195476E+04  0.7818609E-02  0.9116826E-01
       -2   -1    0    0    0  501  0.00000000000E+00  0.00000000000E+00  0.22075172327E+03  0.22075172328E+03  0.25500000920E-02 0.  1.
        2   -1    0    0  501    0  0.00000000000E+00  0.00000000000E+00 -0.16185181825E+04  0.16185181825E+04  0.25500000920E-02 0. -1.
    10030    2    1    2    0    0  0.00000000000E+00  0.00000000000E+00 -0.13977664593E+04  0.18392699058E+04  0.11954759353E+04 0.  0.
        1    1    3    3  502    0 -0.21641070529E+03 -0.42230843379E+02  0.15589686212E+03  0.27003864379E+03  0.50400001928E-02 0.  1.
       -1    1    3    3    0  502  0.21641070529E+03  0.42230843379E+02 -0.15536633214E+04  0.15692312620E+04  0.50400001928E-02 0. -1.
</event>
<event>
 5   0  0.5052959E-04  0.1145419E+04  0.7818609E-02  0.9162020E-01
       -1   -1    0    0    0  501  0.00000000000E+00  0.00000000000E+00  0.19912446669E+03  0.19912446675E+03  0.50400001928E-02 0.  1.
        1   -1    0    0  501    0  0.00000000000E+00  0.00000000000E+00 -0.16471929733E+04  0.16471929733E+04  0.50400001928E-02 0. -1.
    10030    2    1    2    0    0  0.00000000000E+00  0.00000000000E+00 -0.14480685066E+04  0.18463174401E+04  0.11454194383E+04 0.  0.
        2    1    3    3  502    0 -0.17684576834E+03 -0.65366726952E+02 -0.15957342265E+04  0.16068338298E+04  0.25500000920E-02 0. -1.
       -2    1    3    3    0  502  0.17684576834E+03  0.65366726952E+02  0.14766571989E+03  0.23948361031E+03  0.25500000920E-02 0.  1.
</event>
<event>
 5   0  0.5052959E-04  0.1199040E+04  0.7818609E-02  0.9113697E-01
       -1   -1    0    0    0  501  0.00000000000E+00  0.00000000000E+00  0.46555345517E+03  0.46555345519E+03  0.50400001928E-02 0. -1.
        1   -1    0    0  501    0  0.00000000000E+00  0.00000000000E+00 -0.77203687096E+03  0.77203687097E+03  0.50400001928E-02 0.  1.
    10030    2    1    2    0    0  0.00000000000E+00  0.00000000000E+00 -0.30648341579E+03  0.12375903262E+04  0.11990403376E+04 0.  0.
        2    1    3    3  502    0  0.33904397211E+03  0.38585292108E+03 -0.47236017356E+03  0.69782334821E+03  0.25500000920E-02 0.  1.
       -2    1    3    3    0  502 -0.33904397211E+03 -0.38585292108E+03  0.16587675777E+03  0.53976697796E+03  0.25500000920E-02 0. -1.
</event>
<event>
 5   0  0.9298693E-04  0.1206528E+04  0.7818609E-02  0.9107161E-01
        2   -1    0    0  501    0  0.00000000000E+00  0.00000000000E+00  0.48637640191E+03  0.48637640192E+03  0.25500000920E-02 0.  1.
       -2   -1    0    0    0  501  0.00000000000E+00  0.00000000000E+00 -0.74824280987E+03  0.74824280987E+03  0.25500000920E-02 0. -1.
    10030    2    1    2    0    0  0.00000000000E+00  0.00000000000E+00 -0.26186640795E+03  0.12346192118E+04  0.12065283182E+04 0.  0.
        1    1    3    3  502    0 -0.40034877536E+03 -0.31948352603E+03 -0.45706790299E+03  0.68648374585E+03  0.50400001928E-02 0. -1.
       -1    1    3    3    0  502  0.40034877536E+03  0.31948352603E+03  0.19520149504E+03  0.54813546595E+03  0.50400001928E-02 0.  1.
</event>
<event>
 5   0  0.9070772E-04  0.1197703E+04  0.7818609E-02  0.9114870E-01
       -2   -1    0    0    0  501  0.00000000000E+00  0.00000000000E+00  0.94677772773E+03  0.94677772773E+03  0.25500000920E-02 0.  1.
        2   -1    0    0  501    0  0.00000000000E+00  0.00000000000E+00 -0.37878262953E+03  0.37878262954E+03  0.25500000920E-02 0. -1.
    10030    2    1    2    0    0  0.00000000000E+00  0.00000000000E+00  0.56799509819E+03  0.13255603573E+04  0.11977027299E+04 0.  0.
        4    1    3    3  502    0 -0.53182265277E+03 -0.14170401722E+03  0.54521451748E+03  0.77471016869E+03  0.12699999809E+01 0. -1.
       -4    1    3    3    0  502  0.53182265277E+03  0.14170401722E+03  0.22780580710E+02  0.55085018858E+03  0.12699999809E+01 0.  1.
</event>
<event>
 5   0  0.9070772E-04  0.1202191E+04  0.7818609E-02  0.9110941E-01
        2   -1    0    0  501    0  0.00000000000E+00  0.00000000000E+00  0.11344653027E+04  0.11344653027E+04  0.25500000920E-02 0. -1.
       -2   -1    0    0    0  501  0.00000000000E+00  0.00000000000E+00 -0.31849016434E+03  0.31849016435E+03  0.25500000920E-02 0.  1.
    10030    2    1    2    0    0  0.00000000000E+00  0.00000000000E+00  0.81597513839E+03  0.14529554671E+04  0.12021914003E+04 0.  0.
        4    1    3    3  502    0  0.22569791553E+02 -0.48508144824E+03  0.83614384658E+03  0.96692892809E+03  0.12699999809E+01 0. -1.
       -4    1    3    3    0  502 -0.22569791553E+02  0.48508144824E+03 -0.20168708193E+02  0.48602653899E+03  0.12699999809E+01 0.  1.
</event>
<event>
 5   0  0.5003507E-04  0.1199586E+04  0.7818609E-02  0.9113219E-01
       -1   -1    0    0    0  501  0.00000000000E+00  0.00000000000E+00  0.46418731307E+03  0.46418731310E+03  0.50400001928E-02 0.  1.
        1   -1    0    0  501    0  0.00000000000E+00  0.00000000000E+00 -0.77501435813E+03  0.77501435814E+03  0.50400001928E-02 0. -1.
    10030    2    1    2    0    0  0.00000000000E+00  0.00000000000E+00 -0.31082704506E+03  0.12392016712E+04  0.11995863162E+04 0.  0.
        3    1    3    3  502    0  0.21644697447E+03  0.16610293970E+03 -0.70719963711E+03  0.75800449620E+03  0.10100000352E+00 0. -1.
       -3    1    3    3    0  502 -0.21644697447E+03 -0.16610293970E+03  0.39637259206E+03  0.48119717504E+03  0.10100000352E+00 0.  1.
</event>
<event>
 5   0  0.5157631E-04  0.1208729E+04  0.7818609E-02  0.9105250E-01
       -1   -1    0    0    0  501  0.00000000000E+00  0.00000000000E+00  0.13520537993E+04  0.13520537993E+04  0.50400001928E-02 0. -1.
        1   -1    0    0  501    0  0.00000000000E+00  0.00000000000E+00 -0.27014932349E+03  0.27014932354E+03  0.50400001928E-02 0.  1.
    10030    2    1    2    0    0  0.00000000000E+00  0.00000000000E+00  0.10819044758E+04  0.16222031229E+04  0.12087289510E+04 0.  0.
        5    1    3    3  502    0  0.18043090188E+03  0.23703550296E+03 -0.16474517905E+03  0.34044706495E+03  0.46999998093E+01 0.  1.
       -5    1    3    3    0  502 -0.18043090188E+03 -0.23703550296E+03  0.12466496549E+04  0.12817560579E+04  0.46999998093E+01 0. -1.
</event>
<event>
 5   0  0.9410666E-04  0.1206143E+04  0.7818609E-02  0.9107497E-01
       -2   -1    0    0    0  501  0.00000000000E+00  0.00000000000E+00  0.23853706512E+03  0.23853706513E+03  0.25500000920E-02 0.  1.
        2   -1    0    0  501    0  0.00000000000E+00  0.00000000000E+00 -0.15246902868E+04  0.15246902868E+04  0.25500000920E-02 0. -1.
    10030    2    1    2    0    0  0.00000000000E+00  0.00000000000E+00 -0.12861532217E+04  0.17632273520E+04  0.12061428543E+04 0.  0.
        2    1    3    3  502    0  0.22122434679E+03  0.18367506198E+03 -0.14180324397E+04  0.14468907146E+04  0.25500000920E-02 0. -1.
       -2    1    3    3    0  502 -0.22122434679E+03 -0.18367506198E+03  0.13187921796E+03  0.31633663737E+03  0.25500000920E-02 0.  1.
</event>
<event>
 5   0  0.5052959E-04  0.1184613E+04  0.7818609E-02  0.9126432E-01
       -1   -1    0    0    0  501  0.00000000000E+00  0.00000000000E+00  0.21713352600E+03  0.21713352605E+03  0.50400001928E-02 0.  1.
        1   -1    0    0  501    0  0.00000000000E+00  0.00000000000E+00 -0.16157202815E+04  0.16157202815E+04  0.50400001928E-02 0. -1.
    10030    2    1    2    0    0  0.00000000000E+00  0.00000000000E+00 -0.13985867555E+04  0.18328538075E+04  0.11846130875E+04 0.  0.
        2    1    3    3  502    0 -0.41734189547E+03  0.39090587905E+03 -0.46037288400E+03  0.73411501573E+03  0.25500000920E-02 0.  1.
       -2    1    3    3    0  502  0.41734189547E+03 -0.39090587905E+03 -0.93821387146E+03  0.10987387918E+04  0.25500000920E-02 0. -1.
</event>
<event>
 5   0  0.5052959E-04  0.1199451E+04  0.7818609E-02  0.9113337E-01
       -1   -1    0    0    0  501  0.00000000000E+00  0.00000000000E+00  0.26142300297E+03  0.26142300301E+03  0.50400001928E-02 0. -1.
        1   -1    0    0  501    0  0.00000000000E+00  0.00000000000E+00 -0.13758185950E+04  0.13758185950E+04  0.50400001928E-02 0.  1.
    10030    2    1    2    0    0  0.00000000000E+00  0.00000000000E+00 -0.11143955921E+04  0.16372415981E+04  0.11994509222E+04 0.  0.
        2    1    3    3  502    0 -0.49368482009E+03  0.31053261564E+03 -0.36651159869E+03  0.68882941207E+03  0.25500000920E-02 0. -1.
       -2    1    3    3    0  502  0.49368482009E+03 -0.31053261564E+03 -0.74788399337E+03  0.94841218598E+03  0.25500000920E-02 0.  1.
</event>
<event>
 5   0  0.5001586E-04  0.1198950E+04  0.7818609E-02  0.9113776E-01
        1   -1    0    0  501    0  0.00000000000E+00  0.00000000000E+00  0.65665785610E+03  0.65665785612E+03  0.50400001928E-02 0.  1.
       -1   -1    0    0    0  501  0.00000000000E+00  0.00000000000E+00 -0.54727144461E+03  0.54727144464E+03  0.50400001928E-02 0. -1.
    10030    2    1    2    0    0  0.00000000000E+00  0.00000000000E+00  0.10938641149E+03  0.12039293008E+04  0.11989496963E+04 0.  0.
        1    1    3    3  502    0  0.15979370515E+03 -0.53210378288E+03  0.28079863002E+03  0.62250810003E+03  0.50400001928E-02 0.  1.
       -1    1    3    3    0  502 -0.15979370515E+03  0.53210378288E+03 -0.17141221853E+03  0.58142120072E+03  0.50400001928E-02 0. -1.
</event>
<event>
 5   0  0.9410666E-04  0.1200478E+04  0.7818609E-02  0.9112438E-01
        2   -1    0    0  501    0  0.00000000000E+00  0.00000000000E+00  0.83223960892E+03  0.83223960892E+03  0.25500000920E-02 0. -1.
       -2   -1    0    0    0  501  0.00000000000E+00  0.00000000000E+00 -0.43291274363E+03  0.43291274364E+03  0.25500000920E-02 0.  1.
    10030    2    1    2    0    0  0.00000000000E+00  0.00000000000E+00  0.39932686529E+03  0.12651523526E+04  0.12004784587E+04 0.  0.
        2    1    3    3  502    0  0.13597810385E+02  0.32666147103E+03 -0.33083861082E+03  0.46513095309E+03  0.25500000920E-02 0.  1.
       -2    1    3    3    0  502 -0.13597810385E+02 -0.32666147103E+03  0.73016547611E+03  0.80002139947E+03  0.25500000920E-02 0. -1.
</event>
<event>
 5   0  0.9070772E-04  0.1196260E+04  0.7818609E-02  0.9116136E-01
       -2   -1    0    0    0  501  0.00000000000E+00  0.00000000000E+00  0.59647323634E+03  0.59647323634E+03  0.25500000920E-02 0.  1.
        2   -1    0    0  501    0  0.00000000000E+00  0.00000000000E+00 -0.59979138742E+03  0.59979138743E+03  0.25500000920E-02 0. -1.
    10030    2    1    2    0    0  0.00000000000E+00  0.00000000000E+00 -0.33181510846E+01  0.11962646238E+04  0.11962600219E+04 0.  0.
        4    1    3    3  502    0  0.16502106970E+03 -0.12644446066E+03 -0.56249787770E+03  0.59968794418E+03  0.12699999809E+01 0. -1.
       -4    1    3    3    0  502 -0.16502106970E+03  0.12644446066E+03  0.55917972661E+03  0.59657667959E+03  0.12699999809E+01 0.  1.
</event>
<event>
 5   0  0.5001586E-04  0.1204001E+04  0.7818609E-02  0.9109362E-01
        1   -1    0    0  501    0  0.00000000000E+00  0.00000000000E+00  0.16184791386E+04  0.16184791386E+04  0.50400001928E-02 0. -1.
       -1   -1    0    0    0  501  0.00000000000E+00  0.00000000000E+00 -0.22391657246E+03  0.22391657252E+03  0.50400001928E-02 0.  1.
    10030    2    1    2    0    0  0.00000000000E+00  0.00000000000E+00  0.13945625661E+04  0.18423957111E+04  0.12040005006E+04 0.  0.
        1    1    3    3  502    0 -0.21496018237E+03  0.53424926394E+03  0.96572252947E+03  0.11243887940E+04  0.50400001928E-02 0.  1.
       -1    1    3    3    0  502  0.21496018237E+03 -0.53424926394E+03  0.42884003667E+03  0.71800691717E+03  0.50400001928E-02 0. -1.
</event>
<event>
 5   0  0.9298693E-04  0.1211402E+04  0.7818609E-02  0.9102935E-01
        2   -1    0    0  501    0  0.00000000000E+00  0.00000000000E+00  0.10167532998E+04  0.10167532998E+04  0.25500000920E-02 0. -1.
       -2   -1    0    0    0  501  0.00000000000E+00  0.00000000000E+00 -0.36082850384E+03  0.36082850385E+03  0.25500000920E-02 0.  1.
    10030    2    1    2    0    0  0.00000000000E+00  0.00000000000E+00  0.65592479600E+03  0.13775818037E+04  0.12114017863E+04 0.  0.
        1    1    3    3  502    0 -0.36837131738E+03 -0.13441775396E+03 -0.19700106343E+03  0.43883365763E+03  0.50400001928E-02 0.  1.
       -1    1    3    3    0  502  0.36837131738E+03  0.13441775396E+03  0.85292585943E+03  0.93874814607E+03  0.50400001928E-02 0. -1.
</event>
<event>
 5   0  0.5052959E-04  0.1200294E+04  0.7818609E-02  0.9112599E-01
       -1   -1    0    0    0  501  0.00000000000E+00  0.00000000000E+00  0.50308693423E+03  0.50308693425E+03  0.50400001928E-02 0.  1.
        1   -1    0    0  501    0  0.00000000000E+00  0.00000000000E+00 -0.71593285851E+03  0.71593285853E+03  0.50400001928E-02 0. -1.
    10030    2    1    2    0    0  0.00000000000E+00  0.00000000000E+00 -0.21284592428E+03  0.12190197928E+04  0.12002940755E+04 0.  0.
        2    1    3    3  502    0  0.53550267533E+03 -0.22858143655E+03 -0.25417066064E+03  0.63530725886E+03  0.25500000920E-02 0. -1.
       -2    1    3    3    0  502 -0.53550267533E+03  0.22858143655E+03  0.41324736352E+02  0.58371253393E+03  0.25500000920E-02 0.  1.
</event>
<event>
 5   0  0.5001586E-04  0.1199755E+04  0.7818609E-02  0.9113071E-01
       -1   -1    0    0    0  501  0.00000000000E+00  0.00000000000E+00  0.52889337505E+03  0.52889337508E+03  0.50400001928E-02 0.  1.
        1   -1    0    0  501    0  0.00000000000E+00  0.00000000000E+00 -0.68038812457E+03  0.68038812458E+03  0.50400001928E-02 0. -1.
    10030    2    1    2    0    0  0.00000000000E+00  0.00000000000E+00 -0.15149474951E+03  0.12092814997E+04  0.11997545942E+04 0.  0.
        1    1    3    3  502    0 -0.22235607695E+03  0.55713483792E+03 -0.79138457659E+02  0.60506557338E+03  0.50400001928E-02 0.  1.
       -1    1    3    3    0  502  0.22235607695E+03 -0.55713483792E+03 -0.72356291855E+02  0.60421592628E+03  0.50400001928E-02 0. -1.
</event>
<event>
 5   0  0.5003507E-04  0.1206677E+04  0.7818609E-02  0.9107032E-01
        1   -1    0    0  501    0  0.00000000000E+00  0.00000000000E+00  0.42905025853E+03  0.42905025856E+03  0.50400001928E-02 0. -1.
       -1   -1    0    0    0  501  0.00000000000E+00  0.00000000000E+00 -0.84842606401E+03  0.84842606403E+03  0.50400001928E-02 0.  1.
    10030    2    1    2    0    0  0.00000000000E+00  0.00000000000E+00 -0.41937580548E+03  0.12774763226E+04  0.12066771269E+04 0.  0.
        3    1    3    3  502    0  0.13693131778E+03 -0.57317458248E+03 -0.72721146301E+02  0.59377408424E+03  0.10100000352E+00 0. -1.
       -3    1    3    3    0  502 -0.13693131778E+03  0.57317458248E+03 -0.34665465918E+03  0.68370223835E+03  0.10100000352E+00 0.  1.
</event>
<event>
 5   0  0.5001586E-04  0.1161776E+04  0.7818609E-02  0.9146988E-01
       -1   -1    0    0    0  501  0.00000000000E+00  0.00000000000E+00  0.45090681782E+03  0.45090681785E+03  0.50400001928E-02 0.  1.
        1   -1    0    0  501    0  0.00000000000E+00  0.00000000000E+00 -0.74833787405E+03  0.74833787406E+03  0.50400001928E-02 0. -1.
    10030    2    1    2    0    0  0.00000000000E+00  0.00000000000E+00 -0.29743105623E+03  0.11992446919E+04  0.11617756229E+04 0.  0.
        1    1    3    3  502    0  0.30140137850E+01  0.62383216871E+02 -0.74486193614E+03  0.74747578821E+03  0.50400001928E-02 0. -1.
       -1    1    3    3    0  502 -0.30140137850E+01 -0.62383216871E+02  0.44743087991E+03  0.45176890370E+03  0.50400001928E-02 0.  1.
</event>
<event>
 5   0  0.5001586E-04  0.1200176E+04  0.7818609E-02  0.9112703E-01
        1   -1    0    0  501    0  0.00000000000E+00  0.00000000000E+00  0.22414036603E+04  0.22414036603E+04  0.50400001928E-02 0. -1.
       -1   -1    0    0    0  501  0.00000000000E+00  0.00000000000E+00 -0.16066063627E+03  0.16066063635E+03  0.50400001928E-02 0.  1.
    10030    2    1    2    0    0  0.00000000000E+00  0.00000000000E+00  0.20807430241E+04  0.24020642967E+04  0.12001755510E+04 0.  0.
        1    1    3    3  502    0 -0.47546602521E+03 -0.34077552850E+03  0.77252819715E+03  0.96901791386E+03  0.50400001928E-02 0.  1.
       -1    1    3    3    0  502  0.47546602521E+03  0.34077552850E+03  0.13082148269E+04  0.14330463828E+04  0.50400001928E-02 0. -1.
</event>
<event>
 5   0  0.5052959E-04  0.1196585E+04  0.7818609E-02  0.9115851E-01
       -1   -1    0    0    0  501  0.00000000000E+00  0.00000000000E+00  0.17508742413E+03  0.17508742421E+03  0.50400001928E-02 0.  1.
        1   -1    0    0  501    0  0.00000000000E+00  0.00000000000E+00 -0.20444295686E+04  0.20444295686E+04  0.50400001928E-02 0. -1.
    10030    2    1    2    0    0  0.00000000000E+00  0.00000000000E+00 -0.18693421444E+04  0.22195169928E+04  0.11965849858E+04 0.  0.
        2    1    3    3  502    0 -0.56314516850E+03 -0.19509117827E+03 -0.10321334479E+04  0.11918441605E+04  0.25500000920E-02 0.  1.
       -2    1    3    3    0  502  0.56314516850E+03  0.19509117827E+03 -0.83720869653E+03  0.10276728323E+04  0.25500000920E-02 0. -1.
</event>
<event>
 5   0  0.5001586E-04  0.1164390E+04  0.7818609E-02  0.9144610E-01
        1   -1    0    0  501    0  0.00000000000E+00  0.00000000000E+00  0.67543587750E+03  0.67543587752E+03  0.50400001928E-02 0.  1.
       -1   -1    0    0    0  501  0.00000000000E+00  0.00000000000E+00 -0.50182573456E+03  0.50182573458E+03  0.50400001928E-02 0. -1.
    10030    2    1    2    0    0  0.00000000000E+00  0.00000000000E+00  0.17361014294E+03  0.11772616121E+04  0.11643901501E+04 0.  0.
        1    1    3    3  502    0  0.11410765684E+03  0.23187372524E+03  0.61426648698E+03  0.66641526008E+03  0.50400001928E-02 0.  1.
       -1    1    3    3    0  502 -0.11410765684E+03 -0.23187372524E+03 -0.44065634404E+03  0.51084635202E+03  0.50400001928E-02 0. -1.
</event>
<event>
 5   0  0.9410666E-04  0.1205230E+04  0.7818609E-02  0.9108291E-01
       -2   -1    0    0    0  501  0.00000000000E+00  0.00000000000E+00  0.25046367451E+03  0.25046367452E+03  0.25500000920E-02 0.  1.
        2   -1    0    0  501    0  0.00000000000E+00  0.00000000000E+00 -0.14498906028E+04  0.14498906028E+04  0.25500000920E-02 0. -1.
    10030    2    1    2    0    0  0.00000000000E+00  0.00000000000E+00 -0.11994269283E+04  0.17003542773E+04  0.12052301490E+04 0.  0.
        2    1    3    3  502    0 -0.44499222715E+03 -0.26532415341E+03 -0.10339367015E+04  0.11564774496E+04  0.25500000920E-02 0. -1.
       -2    1    3    3    0  502  0.44499222715E+03  0.26532415341E+03 -0.16549022677E+03  0.54387682776E+03  0.25500000920E-02 0.  1.
</event>
<event>
 5   0  0.5052959E-04  0.1203600E+04  0.7818609E-02  0.9109711E-01
        1   -1    0    0  501    0  0.00000000000E+00  0.00000000000E+00  0.12375518753E+04  0.12375518753E+04  0.50400001928E-02 0.  1.
       -1   -1    0    0    0  501  0.00000000000E+00  0.00000000000E+00 -0.29264511823E+03  0.29264511827E+03  0.50400001928E-02 0. -1.
    10030    2    1    2    0    0  0.00000000000E+00  0.00000000000E+00  0.94490675707E+03  0.15301969936E+04  0.12036004568E+04 0.  0.
        2    1    3    3  502    0  0.42036069727E+03  0.42453592606E+03  0.56439267379E+03  0.82187161927E+03  0.25500000920E-02 0.  1.
       -2    1    3    3    0  502 -0.42036069727E+03 -0.42453592606E+03  0.38051408327E+03  0.70832537431E+03  0.25500000920E-02 0. -1.
</event>
<event>
 5   0  0.5157631E-04  0.1208107E+04  0.7818609E-02  0.9105790E-01
       -1   -1    0    0    0  501  0.00000000000E+00  0.00000000000E+00  0.37195679845E+03  0.37195679848E+03  0.50400001928E-02 0. -1.
        1   -1    0    0  501    0  0.00000000000E+00  0.00000000000E+00 -0.98097581902E+03  0.98097581903E+03  0.50400001928E-02 0.  1.
    10030    2    1    2    0    0  0.00000000000E+00  0.00000000000E+00 -0.60901902057E+03  0.13529326175E+04  0.12081069903E+04 0.  0.
        5    1    3    3  502    0 -0.88812906893E+01 -0.11119726924E+03  0.36030096626E+03  0.37720364035E+03  0.46999998093E+01 0. -1.
       -5    1    3    3    0  502  0.88812906893E+01  0.11119726924E+03 -0.96931998683E+03  0.97572897716E+03  0.46999998093E+01 0.  1.
</event>
<event>
 5   0  0.9298693E-04  0.1198086E+04  0.7818609E-02  0.9114533E-01
       -2   -1    0    0    0  501  0.00000000000E+00  0.00000000000E+00  0.19945779455E+03  0.19945779457E+03  0.25500000920E-02 0. -1.
        2   -1    0    0  501    0  0.00000000000E+00  0.00000000000E+00 -0.17991407849E+04  0.17991407849E+04  0.25500000920E-02 0.  1.
    10030    2    1    2    0    0  0.00000000000E+00  0.00000000000E+00 -0.15996829903E+04  0.19985985794E+04  0.11980862290E+04 0.  0.
        1    1    3    3  502    0  0.34637027491E+03 -0.44278160935E+03 -0.45463033650E+03  0.72299146870E+03  0.50400001928E-02 0. -1.
       -1    1    3    3    0  502 -0.34637027491E+03  0.44278160935E+03 -0.11450526538E+04  0.12756071107E+04  0.50400001928E-02 0.  1.
</event>
<event>
 5   0  0.9298693E-04  0.1197908E+04  0.7818609E-02  0.9114689E-01
       -2   -1    0    0    0  501  0.00000000000E+00  0.00000000000E+00  0.35865695837E+03  0.35865695838E+03  0.25500000920E-02 0.  1.
        2   -1    0    0  501    0  0.00000000000E+00  0.00000000000E+00 -0.10002487708E+04  0.10002487708E+04  0.25500000920E-02 0. -1.
    10030    2    1    2    0    0  0.00000000000E+00  0.00000000000E+00 -0.64159181240E+03  0.13589057292E+04  0.11979084802E+04 0.  0.
        1    1    3    3  502    0  0.13226349427E+03 -0.42813348374E+03  0.13005336866E+03  0.46658953111E+03  0.50400001928E-02 0.  1.
       -1    1    3    3    0  502 -0.13226349427E+03  0.42813348374E+03 -0.77164518105E+03  0.89231619804E+03  0.50400001928E-02 0. -1.
</event>
<event>
 5   0  0.9410666E-04  0.1240813E+04  0.7818609E-02  0.9077864E-01
        2   -1    0    0  501    0  0.00000000000E+00  0.00000000000E+00  0.37109780060E+03  0.37109780061E+03  0.25500000920E-02 0. -1.
       -2   -1    0    0    0  501  0.00000000000E+00  0.00000000000E+00 -0.10372043118E+04  0.10372043118E+04  0.25500000920E-02 0.  1.
    10030    2    1    2    0    0  0.00000000000E+00  0.00000000000E+00 -0.66610651124E+03  0.14083021124E+04  0.12408130220E+04 0.  0.
        2    1    3    3  502    0 -0.41689859770E+03  0.45216466764E+03 -0.42558685062E+03  0.74791810705E+03  0.25500000920E-02 0. -1.
       -2    1    3    3    0  502  0.41689859770E+03 -0.45216466764E+03 -0.24051966062E+03  0.66038400540E+03  0.25500000920E-02 0.  1.
</event>
<event>
 5   0  0.9145224E-04  0.1185347E+04  0.7818609E-02  0.9125780E-01
       -2   -1    0    0    0  501  0.00000000000E+00  0.00000000000E+00  0.22936473903E+03  0.22936473905E+03  0.25500000920E-02 0.  1.
        2   -1    0    0  501    0  0.00000000000E+00  0.00000000000E+00 -0.15314553198E+04  0.15314553198E+04  0.25500000920E-02 0. -1.
    10030    2    1    2    0    0  0.00000000000E+00  0.00000000000E+00 -0.13020905808E+04  0.17608200588E+04  0.11853469531E+04 0.  0.
        5    1    3    3  502    0 -0.22638594355E+03 -0.44431159920E+03 -0.17527957107E+03  0.52859096725E+03  0.46999998093E+01 0.  1.
       -5    1    3    3    0  502  0.22638594355E+03  0.44431159920E+03 -0.11268110097E+04  0.12322290916E+04  0.46999998093E+01 0. -1.
</event>
<event>
 5   0  0.5447074E-04  0.1194449E+04  0.7818609E-02  0.9117729E-01
       -1   -1    0    0    0  501  0.00000000000E+00  0.00000000000E+00  0.56481459561E+03  0.56481459563E+03  0.50400001928E-02 0. -1.
        1   -1    0    0  501    0  0.00000000000E+00  0.00000000000E+00 -0.63149426910E+03  0.63149426912E+03  0.50400001928E-02 0.  1.
    10030    2    1    2    0    0  0.00000000000E+00  0.00000000000E+00 -0.66679673487E+02  0.11963088648E+04  0.11944491287E+04 0.  0.
        4    1    3    3  502    0  0.38743619768E+03 -0.26029359318E+03  0.33982046400E+03  0.57735528280E+03  0.12699999809E+01 0. -1.
       -4    1    3    3    0  502 -0.38743619768E+03  0.26029359318E+03 -0.40650013749E+03  0.61895358195E+03  0.12699999809E+01 0.  1.
</event>
<event>
 5   0  0.9298693E-04  0.1207240E+04  0.7818609E-02  0.9106543E-01
       -2   -1    0    0    0  501  0.00000000000E+00  0.00000000000E+00  0.50099663997E+03  0.50099663998E+03  0.25500000920E-02 0.  1.
        2   -1    0    0  501    0  0.00000000000E+00  0.00000000000E+00 -0.72726407941E+03  0.72726407941E+03  0.25500000920E-02 0. -1.
    10030    2    1    2    0    0  0.00000000000E+00  0.00000000000E+00 -0.22626743943E+03  0.12282607194E+04  0.12072395954E+04 0.  0.
        1    1    3    3  502    0  0.38118140124E+03 -0.33871242099E+03 -0.44176190450E+03  0.67466950804E+03  0.50400001928E-02 0. -1.
       -1    1    3    3    0  502 -0.38118140124E+03  0.33871242099E+03  0.21549446507E+03  0.55359121135E+03  0.50400001928E-02 0.  1.
</event>
<event>
 5   0  0.5001586E-04  0.1200226E+04  0.7818609E-02  0.9112659E-01
       -1   -1    0    0    0  501  0.00000000000E+00  0.00000000000E+00  0.40108590616E+03  0.40108590619E+03  0.50400001928E-02 0. -1.
        1   -1    0    0  501    0  0.00000000000E+00  0.00000000000E+00 -0.89790150325E+03  0.89790150327E+03  0.50400001928E-02 0.  1.
    10030    2    1    2    0    0  0.00000000000E+00  0.00000000000E+00 -0.49681559709E+03  0.12989874095E+04  0.12002260422E+04 0.  0.
        1    1    3    3  502    0  0.30735756515E+03 -0.23816926906E+03 -0.74312287814E+03  0.83870428973E+03  0.50400001928E-02 0.  1.
       -1    1    3    3    0  502 -0.30735756515E+03  0.23816926906E+03  0.24630728104E+03  0.46028311972E+03  0.50400001928E-02 0. -1.
</event>
<event>
 5   0  0.5052959E-04  0.1197827E+04  0.7818609E-02  0.9114761E-01
       -1   -1    0    0    0  501  0.00000000000E+00  0.00000000000E+00  0.38550503550E+03  0.38550503554E+03  0.50400001928E-02 0. -1.
        1   -1    0    0  501    0  0.00000000000E+00  0.00000000000E+00 -0.93046074072E+03  0.93046074073E+03  0.50400001928E-02 0.  1.
    10030    2    1    2    0    0  0.00000000000E+00  0.00000000000E+00 -0.54495570522E+03  0.13159657763E+04  0.11978268671E+04 0.  0.
        2    1    3    3  502    0  0.29808352887E+03  0.50657711253E+03 -0.39881115226E+03  0.71029887814E+03  0.25500000920E-02 0.  1.
       -2    1    3    3    0  502 -0.29808352887E+03 -0.50657711253E+03 -0.14614455296E+03  0.60566689813E+03  0.25500000920E-02 0. -1.
</event>
<event>
 5   0  0.5001586E-04  0.1186916E+04  0.7818609E-02  0.9124386E-01
        1   -1    0    0  501    0  0.00000000000E+00  0.00000000000E+00  0.19802529832E+03  0.19802529839E+03  0.50400001928E-02 0. -1.
       -1   -1    0    0    0  501  0.00000000000E+00  0.00000000000E+00 -0.17785226979E+04  0.17785226979E+04  0.50400001928E-02 0.  1.
    10030    2    1    2    0    0  0.00000000000E+00  0.00000000000E+00 -0.15804973996E+04  0.19765479963E+04  0.11869161519E+04 0.  0.
        1    1    3    3  502    0 -0.67557462095E+02  0.52719409292E+03 -0.12298791013E+04  0.13398135042E+04  0.50400001928E-02 0.  1.
       -1    1    3    3    0  502  0.67557462095E+02 -0.52719409292E+03 -0.35061829831E+03  0.63673449210E+03  0.50400001928E-02 0. -1.
</event>
<event>
 5   0  0.5157631E-04  0.1198619E+04  0.7818609E-02  0.9114066E-01
        1   -1    0    0  501    0  0.00000000000E+00  0.00000000000E+00  0.82252645087E+03  0.82252645089E+03  0.50400001928E-02 0.  1.
       -1   -1    0    0    0  501  0.00000000000E+00  0.00000000000E+00 -0.43666883125E+03  0.43666883128E+03  0.50400001928E-02 0. -1.
    10030    2    1    2    0    0  0.00000000000E+00  0.00000000000E+00  0.38585761963E+03  0.12591952822E+04  0.11986186449E+04 0.  0.
        5    1    3    3  502    0  0.47240440768E+03 -0.22541632749E+03  0.49951900411E+03  0.72354666095E+03  0.46999998093E+01 0.  1.
       -5    1    3    3    0  502 -0.47240440768E+03  0.22541632749E+03 -0.11366138449E+03  0.53564862122E+03  0.46999998093E+01 0. -1.
</event>
<event>
 5   0  0.5052959E-04  0.1201859E+04  0.7818609E-02  0.9111231E-01
        1   -1    0    0  501    0  0.00000000000E+00  0.00000000000E+00  0.83047760187E+03  0.83047760188E+03  0.50400001928E-02 0.  1.
       -1   -1    0    0    0  501  0.00000000000E+00  0.00000000000E+00 -0.43482941282E+03  0.43482941285E+03  0.50400001928E-02 0. -1.
    10030    2    1    2    0    0  0.00000000000E+00  0.00000000000E+00  0.39564818905E+03  0.12653070147E+04  0.12018587072E+04 0.  0.
        2    1    3    3  502    0  0.25881457637E+03  0.50206291270E+03  0.41374637038E+03  0.70017013094E+03  0.25500000920E-02 0.  1.
       -2    1    3    3    0  502 -0.25881457637E+03 -0.50206291270E+03 -0.18098181335E+02  0.56513688379E+03  0.25500000920E-02 0. -1.
</event>
<event>
 5   0  0.9298693E-04  0.1198248E+04  0.7818609E-02  0.9114392E-01
        2   -1    0    0  501    0  0.00000000000E+00  0.00000000000E+00  0.57881378019E+03  0.57881378020E+03  0.25500000920E-02 0. -1.
       -2   -1    0    0    0  501  0.00000000000E+00  0.00000000000E+00 -0.62014658754E+03  0.62014658755E+03  0.25500000920E-02 0.  1.
    10030    2    1    2    0    0  0.00000000000E+00  0.00000000000E+00 -0.41332807354E+02  0.11989603677E+04  0.11982477050E+04 0.  0.
        1    1    3    3  502    0 -0.36894384570E+03 -0.60254842571E+02 -0.48913198410E+03  0.61563000676E+03  0.50400001928E-02 0.  1.
       -1    1    3    3    0  502  0.36894384570E+03  0.60254842571E+02  0.44779917674E+03  0.58333036099E+03  0.50400001928E-02 0. -1.
</event>
<event>
 5   0  0.9050363E-04  0.1190472E+04  0.7818609E-02  0.9121238E-01
        2   -1    0    0  501    0  0.00000000000E+00  0.00000000000E+00  0.11528565878E+04  0.11528565878E+04  0.25500000920E-02 0. -1.
       -2   -1    0    0    0  501  0.00000000000E+00  0.00000000000E+00 -0.30732851487E+03  0.30732851488E+03  0.25500000920E-02 0.  1.
    10030    2    1    2    0    0  0.00000000000E+00  0.00000000000E+00  0.84552807289E+03  0.14601851026E+04  0.11904716762E+04 0.  0.
        3    1    3    3  502    0  0.85451854488E+02  0.33926409992E+03  0.10134308065E+04  0.10721213358E+04  0.10100000352E+00 0. -1.
       -3    1    3    3    0  502 -0.85451854488E+02 -0.33926409992E+03 -0.16790273365E+03  0.38806376680E+03  0.10100000352E+00 0.  1.
</event>
<event>
 5   0  0.5001586E-04  0.1202956E+04  0.7818609E-02  0.9110273E-01
       -1   -1    0    0    0  501  0.00000000000E+00  0.00000000000E+00  0.77745268504E+03  0.77745268505E+03  0.50400001928E-02 0.  1.
        1   -1    0    0  501    0  0.00000000000E+00  0.00000000000E+00 -0.46533490522E+03  0.46533490525E+03  0.50400001928E-02 0. -1.
    10030    2    1    2    0    0  0.00000000000E+00  0.00000000000E+00  0.31211777981E+03  0.12427875903E+04  0.12029561447E+04 0.  0.
        1    1    3    3  502    0  0.23684248836E+03 -0.44083991502E+03 -0.18866865895E+03  0.53481778005E+03  0.50400001928E-02 0. -1.
       -1    1    3    3    0  502 -0.23684248836E+03  0.44083991502E+03  0.50078643876E+03  0.70796981026E+03  0.50400001928E-02 0.  1.
</event>
<event>
 5   0  0.5052959E-04  0.1196893E+04  0.7818609E-02  0.9115580E-01
       -1   -1    0    0    0  501  0.00000000000E+00  0.00000000000E+00  0.27654789466E+03  0.27654789471E+03  0.50400001928E-02 0. -1.
        1   -1    0    0  501    0  0.00000000000E+00  0.00000000000E+00 -0.12950323426E+04  0.12950323426E+04  0.50400001928E-02 0.  1.
    10030    2    1    2    0    0  0.00000000000E+00  0.00000000000E+00 -0.10184844479E+04  0.15715802373E+04  0.11968934254E+04 0.  0.
        2    1    3    3  502    0 -0.48408769828E+03  0.60439349443E+02 -0.54114488898E+02  0.49083825493E+03  0.25500000920E-02 0. -1.
       -2    1    3    3    0  502  0.48408769828E+03 -0.60439349443E+02 -0.96436995904E+03  0.10807419824E+04  0.25500000920E-02 0.  1.
</event>
<event>
 5   0  0.3453625E-04  0.1199700E+04  0.7818609E-02  0.9113119E-01
        3   -1    0    0  501    0  0.00000000000E+00  0.00000000000E+00  0.98853854290E+03  0.98853854806E+03  0.10100000352E+00 0.  1.
       -3   -1    0    0    0  501  0.00000000000E+00  0.00000000000E+00 -0.36399185597E+03  0.36399186998E+03  0.10100000352E+00 0. -1.
    10030    2    1    2    0    0  0.00000000000E+00  0.00000000000E+00  0.62454668692E+03  0.13525304180E+04  0.11996999490E+04 0.  0.
        3    1    3    3  502    0  0.56943250313E+03 -0.71815888957E+02  0.50886997434E+03  0.76704599505E+03  0.10100000352E+00 0.  1.
       -3    1    3    3    0  502 -0.56943250313E+03  0.71815888957E+02  0.11567671258E+03  0.58548442299E+03  0.10100000352E+00 0. -1.
</event>
<event>
 5   0  0.5001586E-04  0.1202293E+04  0.7818609E-02  0.9110852E-01
       -1   -1    0    0    0  501  0.00000000000E+00  0.00000000000E+00  0.47754354435E+03  0.47754354437E+03  0.50400001928E-02 0.  1.
        1   -1    0    0  501    0  0.00000000000E+00  0.00000000000E+00 -0.75674205670E+03  0.75674205672E+03  0.50400001928E-02 0. -1.
    10030    2    1    2    0    0  0.00000000000E+00  0.00000000000E+00 -0.27919851235E+03  0.12342856011E+04  0.12022932819E+04 0.  0.
        1    1    3    3  502    0 -0.16521093627E+03  0.31045066047E+03  0.36092207393E+03  0.50392361477E+03  0.50400001928E-02 0.  1.
       -1    1    3    3    0  502  0.16521093627E+03 -0.31045066047E+03 -0.64012058628E+03  0.73036198632E+03  0.50400001928E-02 0. -1.
</event>
<event>
 5   0  0.5052959E-04  0.1194964E+04  0.7818609E-02  0.9117276E-01
       -1   -1    0    0    0  501  0.00000000000E+00  0.00000000000E+00  0.71884300268E+03  0.71884300270E+03  0.50400001928E-02 0. -1.
        1   -1    0    0  501    0  0.00000000000E+00  0.00000000000E+00 -0.49661043623E+03  0.49661043626E+03  0.50400001928E-02 0.  1.
    10030    2    1    2    0    0  0.00000000000E+00  0.00000000000E+00  0.22223256645E+03  0.12154534390E+04  0.11949643295E+04 0.  0.
        2    1    3    3  502    0  0.13587545409E+03 -0.20992406033E+02 -0.48030164404E+03  0.49959232320E+03  0.25500000920E-02 0.  1.
       -2    1    3    3    0  502 -0.13587545409E+03  0.20992406033E+02  0.70253421048E+03  0.71586111575E+03  0.25500000920E-02 0. -1.
</event>
<event>
 5   0  0.5003507E-04  0.1198620E+04  0.7818609E-02  0.9114065E-01
        1   -1    0    0  501    0  0.00000000000E+00  0.00000000000E+00  0.27822950961E+03  0.27822950966E+03  0.50400001928E-02 0. -1.
       -1   -1    0    0    0  501  0.00000000000E+00  0.00000000000E+00 -0.12909222555E+04  0.12909222555E+04  0.50400001928E-02 0.  1.
    10030    2    1    2    0    0  0.00000000000E+00  0.00000000000E+00 -0.10126927459E+04  0.15691517652E+04  0.11986203171E+04 0.  0.
        3    1    3    3  502    0 -0.10293871814E+03 -0.19956850992E+02  0.26612781799E+03  0.28603964988E+03  0.10100000352E+00 0. -1.
       -3    1    3    3    0  502  0.10293871814E+03  0.19956850992E+02 -0.12788205639E+04  0.12831121153E+04  0.10100000352E+00 0.  1.
</event>
<event>
 5   0  0.9298693E-04  0.1188385E+04  0.7818609E-02  0.9123084E-01
        2   -1    0    0  501    0  0.00000000000E+00  0.00000000000E+00  0.62632978143E+03  0.62632978143E+03  0.25500000920E-02 0.  1.
       -2   -1    0    0    0  501  0.00000000000E+00  0.00000000000E+00 -0.56370403004E+03  0.56370403005E+03  0.25500000920E-02 0. -1.
    10030    2    1    2    0    0  0.00000000000E+00  0.00000000000E+00  0.62625751382E+02  0.11900338115E+04  0.11883848231E+04 0.  0.
        1    1    3    3  502    0  0.21402469284E+03  0.26325486185E+03  0.51979599249E+03  0.62072342091E+03  0.50400001928E-02 0.  1.
       -1    1    3    3    0  502 -0.21402469284E+03 -0.26325486185E+03 -0.45717024111E+03  0.56931039057E+03  0.50400001928E-02 0. -1.
</event>
<event>
 5   0  0.5157631E-04  0.1192996E+04  0.7818609E-02  0.9119010E-01
       -1   -1    0    0    0  501  0.00000000000E+00  0.00000000000E+00  0.17569806957E+03  0.17569806964E+03  0.50400001928E-02 0. -1.
        1   -1    0    0  501    0  0.00000000000E+00  0.00000000000E+00 -0.20251194096E+04  0.20251194096E+04  0.50400001928E-02 0.  1.
    10030    2    1    2    0    0  0.00000000000E+00  0.00000000000E+00 -0.18494213400E+04  0.22008174792E+04  0.11929955088E+04 0.  0.
        5    1    3    3  502    0 -0.25706440298E+03  0.16177741871E+03 -0.18717392463E+04  0.18962288724E+04  0.46999998093E+01 0.  1.
       -5    1    3    3    0  502  0.25706440298E+03 -0.16177741871E+03  0.22317906242E+02  0.30458860685E+03  0.46999998093E+01 0. -1.
</event>
<event>
 5   0  0.9410666E-04  0.1201572E+04  0.7818609E-02  0.9111482E-01
       -2   -1    0    0    0  501  0.00000000000E+00  0.00000000000E+00  0.44560096406E+03  0.44560096406E+03  0.25500000920E-02 0.  1.
        2   -1    0    0  501    0  0.00000000000E+00  0.00000000000E+00 -0.81001542321E+03  0.81001542321E+03  0.25500000920E-02 0. -1.
    10030    2    1    2    0    0  0.00000000000E+00  0.00000000000E+00 -0.36441445915E+03  0.12556163873E+04  0.12015717265E+04 0.  0.
        2    1    3    3  502    0  0.52116791955E+03 -0.85724144163E+02 -0.48140520249E+03  0.71464368621E+03  0.25500000920E-02 0. -1.
       -2    1    3    3    0  502 -0.52116791955E+03  0.85724144163E+02  0.11699074334E+03  0.54097270106E+03  0.25500000920E-02 0.  1.
</event>
<event>
 5   0  0.5052959E-04  0.1199749E+04  0.7818609E-02  0.9113076E-01
        1   -1    0    0  501    0  0.00000000000E+00  0.00000000000E+00  0.31245304211E+03  0.31245304215E+03  0.50400001928E-02 0. -1.
       -1   -1    0    0    0  501  0.00000000000E+00  0.00000000000E+00 -0.11516920394E+04  0.11516920395E+04  0.50400001928E-02 0.  1.
    10030    2    1    2    0    0  0.00000000000E+00  0.00000000000E+00 -0.83923899733E+03  0.14641450816E+04  0.11997494427E+04 0.  0.
        2    1    3    3  502    0  0.59633687104E+03  0.18832577824E+02 -0.34362867571E+03  0.68851506630E+03  0.25500000920E-02 0.  1.
       -2    1    3    3    0  502 -0.59633687104E+03 -0.18832577824E+02 -0.49561032163E+03  0.77563001531E+03  0.25500000920E-02 0. -1.
</event>
<event>
 5   0  0.9050363E-04  0.1199700E+04  0.7818609E-02  0.9113119E-01
       -2   -1    0    0    0  501  0.00000000000E+00  0.00000000000E+00  0.37438077698E+03  0.37438077699E+03  0.25500000920E-02 0. -1.
        2   -1    0    0  501    0  0.00000000000E+00  0.00000000000E+00 -0.96110685630E+03  0.96110685631E+03  0.25500000920E-02 0.  1.
    10030    2    1    2    0    0  0.00000000000E+00  0.00000000000E+00 -0.58672607932E+03  0.13354876333E+04  0.11996998485E+04 0.  0.
        3    1    3    3  502    0 -0.24211805711E+03  0.36242257896E+03 -0.75213652109E+03  0.86929893356E+03  0.10100000352E+00 0.  1.
       -3    1    3    3    0  502  0.24211805711E+03 -0.36242257896E+03  0.16541044178E+03  0.46618869974E+03  0.10100000352E+00 0. -1.
</event>
<event>
 5   0  0.5001586E-04  0.1196529E+04  0.7818609E-02  0.9115900E-01
        1   -1    0    0  501    0  0.00000000000E+00  0.00000000000E+00  0.10982696205E+04  0.10982696205E+04  0.50400001928E-02 0.  1.
       -1   -1    0    0    0  501  0.00000000000E+00  0.00000000000E+00 -0.32589509665E+03  0.32589509669E+03  0.50400001928E-02 0. -1.
    10030    2    1    2    0    0  0.00000000000E+00  0.00000000000E+00  0.77237452388E+03  0.14241647172E+04  0.11965294550E+04 0.  0.
        1    1    3    3  502    0 -0.36742598028E+03  0.85353121788E+01 -0.17568712043E+03  0.40735815550E+03  0.50400001928E-02 0. -1.
       -1    1    3    3    0  502  0.36742598028E+03 -0.85353121788E+01  0.94806164432E+03  0.10168065617E+04  0.50400001928E-02 0.  1.
</event>
<event>
 5   0  0.9050363E-04  0.1156396E+04  0.7818609E-02  0.9151904E-01
        2   -1    0    0  501    0  0.00000000000E+00  0.00000000000E+00  0.55263594339E+03  0.55263594340E+03  0.25500000920E-02 0.  1.
       -2   -1    0    0    0  501  0.00000000000E+00  0.00000000000E+00 -0.60494194425E+03  0.60494194426E+03  0.25500000920E-02 0. -1.
    10030    2    1    2    0    0  0.00000000000E+00  0.00000000000E+00 -0.52306000862E+02  0.11575778877E+04  0.11563955414E+04 0.  0.
        3    1    3    3  502    0  0.32277495866E+03  0.57223281517E+02  0.45062640534E+03  0.55724531875E+03  0.10100000352E+00 0.  1.
       -3    1    3    3    0  502 -0.32277495866E+03 -0.57223281517E+02 -0.50293240620E+03  0.60033256891E+03  0.10100000352E+00 0. -1.
</event>
<event>
 5   0  0.5003507E-04  0.1199876E+04  0.7818609E-02  0.9112965E-01
        1   -1    0    0  501    0  0.00000000000E+00  0.00000000000E+00  0.66327951976E+03  0.66327951978E+03  0.50400001928E-02 0. -1.
       -1   -1    0    0    0  501  0.00000000000E+00  0.00000000000E+00 -0.54264531952E+03  0.54264531954E+03  0.50400001928E-02 0.  1.
    10030    2    1    2    0    0  0.00000000000E+00  0.00000000000E+00  0.12063420025E+03  0.12059248393E+04  0.11998758718E+04 0.  0.
        3    1    3    3  502    0 -0.49380831783E+03  0.33979087986E+03  0.35271196665E+02  0.60045696291E+03  0.10100000352E+00 0. -1.
       -3    1    3    3    0  502  0.49380831783E+03 -0.33979087986E+03  0.85363003580E+02  0.60546787641E+03  0.10100000352E+00 0.  1.
</event>
<event>
 5   0  0.5157631E-04  0.1197696E+04  0.7818609E-02  0.9114876E-01
       -1   -1    0    0    0  501  0.00000000000E+00  0.00000000000E+00  0.16583770638E+04  0.16583770638E+04  0.50400001928E-02 0. -1.
        1   -1    0    0  501    0  0.00000000000E+00  0.00000000000E+00 -0.21624694817E+03  0.21624694823E+03  0.50400001928E-02 0.  1.
    10030    2    1    2    0    0  0.00000000000E+00  0.00000000000E+00  0.14421301156E+04  0.18746240120E+04  0.11976960867E+04 0.  0.
        5    1    3    3  502    0  0.25749423237E+03  0.24915232801E+03  0.14720582194E+04  0.15150437795E+04  0.46999998093E+01 0. -1.
       -5    1    3    3    0  502 -0.25749423237E+03 -0.24915232801E+03 -0.29928103821E+02  0.35958023257E+03  0.46999998093E+01 0.  1.
</event>
<event>
 5   0  0.5003507E-04  0.1202177E+04  0.7818609E-02  0.9110953E-01
        1   -1    0    0  501    0  0.00000000000E+00  0.00000000000E+00  0.45939468396E+03  0.45939468399E+03  0.50400001928E-02 0.  1.
       -1   -1    0    0    0  501  0.00000000000E+00  0.00000000000E+00 -0.78648565080E+03  0.78648565081E+03  0.50400001928E-02 0. -1.
    10030    2    1    2    0    0  0.00000000000E+00  0.00000000000E+00 -0.32709096683E+03  0.12458803348E+04  0.12021769038E+04 0.  0.
        3    1    3    3  502    0  0.17825695324E+03 -0.49485061850E+03 -0.46507743357E+03  0.70210377112E+03  0.10100000352E+00 0. -1.
       -3    1    3    3    0  502 -0.17825695324E+03  0.49485061850E+03  0.13798646673E+03  0.54377656368E+03  0.10100000352E+00 0.  1.
</event>
<event>
 5   0  0.9145224E-04  0.1198464E+04  0.7818609E-02  0.9114202E-01
       -2   -1    0    0    0  501  0.00000000000E+00  0.00000000000E+00  0.69152618376E+03  0.69152618377E+03  0.25500000920E-02 0.  1.
        2   -1    0    0  501    0  0.00000000000E+00  0.00000000000E+00 -0.51925613784E+03  0.51925613785E+03  0.25500000920E-02 0. -1.
    10030    2    1    2    0    0  0.00000000000E+00  0.00000000000E+00  0.17227004592E+03  0.12107823216E+04  0.11984643764E+04 0.  0.
        5    1    3    3  502    0  0.11646949745E+03  0.26474901203E+03 -0.44404439525E+03  0.52995726069E+03  0.46999998093E+01 0. -1.
       -5    1    3    3    0  502 -0.11646949745E+03 -0.26474901203E+03  0.61631444116E+03  0.68082506093E+03  0.46999998093E+01 0.  1.
</event>
<event>
 5   0  0.9298693E-04  0.1199720E+04  0.7818609E-02  0.9113102E-01
        2   -1    0    0  501    0  0.00000000000E+00  0.00000000000E+00  0.42560980987E+03  0.42560980988E+03  0.25500000920E-02 0. -1.
       -2   -1    0    0    0  501  0.00000000000E+00  0.00000000000E+00 -0.84544993483E+03  0.84544993484E+03  0.25500000920E-02 0.  1.
    10030    2    1    2    0    0  0.00000000000E+00  0.00000000000E+00 -0.41984012496E+03  0.12710597447E+04  0.11997196106E+04 0.  0.
        1    1    3    3  502    0 -0.54119606756E+03 -0.89165561957E+02 -0.46723703264E+03  0.72052350807E+03  0.50400001928E-02 0. -1.
       -1    1    3    3    0  502  0.54119606756E+03  0.89165561957E+02  0.47396907683E+02  0.55053623665E+03  0.50400001928E-02 0.  1.
</event>
<event>
 5   0  0.9298693E-04  0.1198750E+04  0.7818609E-02  0.9113952E-01
       -2   -1    0    0    0  501  0.00000000000E+00  0.00000000000E+00  0.76537698248E+03  0.76537698248E+03  0.25500000920E-02 0.  1.
        2   -1    0    0  501    0  0.00000000000E+00  0.00000000000E+00 -0.46937680626E+03  0.46937680627E+03  0.25500000920E-02 0. -1.
    10030    2    1    2    0    0  0.00000000000E+00  0.00000000000E+00  0.29600017622E+03  0.12347537888E+04  0.11987496880E+04 0.  0.
        1    1    3    3  502    0 -0.48808786744E+03 -0.25870268571E+03  0.38756534262E+03  0.67480644689E+03  0.50400001928E-02 0.  1.
       -1    1    3    3    0  502  0.48808786744E+03  0.25870268571E+03 -0.91565166403E+02  0.55994734186E+03  0.50400001928E-02 0. -1.
</event>
<event>
 5   0  0.5052959E-04  0.1218102E+04  0.7818609E-02  0.9097158E-01
       -1   -1    0    0    0  501  0.00000000000E+00  0.00000000000E+00  0.21086709018E+03  0.21086709024E+03  0.50400001928E-02 0.  1.
        1   -1    0    0  501    0  0.00000000000E+00  0.00000000000E+00 -0.17591321195E+04  0.17591321195E+04  0.50400001928E-02 0. -1.
    10030    2    1    2    0    0  0.00000000000E+00  0.00000000000E+00 -0.15482650293E+04  0.19699992098E+04  0.12181019191E+04 0.  0.
        2    1    3    3  502    0  0.32298440743E+03  0.37568776233E+03 -0.20123807121E+03  0.53474945864E+03  0.25500000920E-02 0.  1.
       -2    1    3    3    0  502 -0.32298440743E+03 -0.37568776233E+03 -0.13470269581E+04  0.14352497511E+04  0.25500000920E-02 0. -1.
</event>
<event>
 5   0  0.3453625E-04  0.1197219E+04  0.7818609E-02  0.9115294E-01
       -4   -1    0    0    0  501  0.00000000000E+00  0.00000000000E+00  0.42379570090E+03  0.42379760381E+03  0.12699999809E+01 0.  1.
        4   -1    0    0  501    0  0.00000000000E+00  0.00000000000E+00 -0.84552878337E+03  0.84552973715E+03  0.12699999809E+01 0. -1.
    10030    2    1    2    0    0  0.00000000000E+00  0.00000000000E+00 -0.42173308248E+03  0.12693273410E+04  0.11972189047E+04 0.  0.
        3    1    3    3  502    0  0.41446633143E+03 -0.29332303774E+03 -0.54699876879E+03  0.74634335772E+03  0.10100000352E+00 0. -1.
       -3    1    3    3    0  502 -0.41446633143E+03  0.29332303774E+03  0.12526568632E+03  0.52298398324E+03  0.10100000352E+00 0.  1.
</event>
<event>
 5   0  0.9410666E-04  0.1188155E+04  0.7818609E-02  0.9123288E-01
       -2   -1    0    0    0  501  0.00000000000E+00  0.00000000000E+00  0.23770610078E+03  0.23770610080E+03  0.25500000920E-02 0.  1.
        2   -1    0    0  501    0  0.00000000000E+00  0.00000000000E+00 -0.14847244421E+04  0.14847244421E+04  0.25500000920E-02 0. -1.
    10030    2    1    2    0    0  0.00000000000E+00  0.00000000000E+00 -0.12470183413E+04  0.17224305429E+04  0.11881549695E+04 0.  0.
        2    1    3    3  502    0 -0.29596543303E+03 -0.49164129864E+03 -0.84631216404E+03  0.10225218741E+04  0.25500000920E-02 0.  1.
       -2    1    3    3    0  502  0.29596543303E+03  0.49164129864E+03 -0.40070617723E+03  0.69990866872E+03  0.25500000920E-02 0. -1.
</event>
<event>
 5   0  0.5157631E-04  0.1198848E+04  0.7818609E-02  0.9113866E-01
       -1   -1    0    0    0  501  0.00000000000E+00  0.00000000000E+00  0.46171932842E+03  0.46171932845E+03  0.50400001928E-02 0.  1.
        1   -1    0    0  501    0  0.00000000000E+00  0.00000000000E+00 -0.77819768671E+03  0.77819768673E+03  0.50400001928E-02 0. -1.
    10030    2    1    2    0    0  0.00000000000E+00  0.00000000000E+00 -0.31647835829E+03  0.12399170152E+04  0.11988476356E+04 0.  0.
        5    1    3    3  502    0 -0.54571139201E+03  0.15431672188E+03  0.42503355966E+02  0.56872066895E+03  0.46999998093E+01 0.  1.
       -5    1    3    3    0  502  0.54571139201E+03 -0.15431672188E+03 -0.35898171425E+03  0.67119634623E+03  0.46999998093E+01 0. -1.
</event>
<event>
 5   0  0.5447074E-04  0.1199876E+04  0.7818609E-02  0.9112965E-01
        1   -1    0    0  501    0  0.00000000000E+00  0.00000000000E+00  0.12167272544E+04  0.12167272544E+04  0.50400001928E-02 0.  1.
       -1   -1    0    0    0  501  0.00000000000E+00  0.00000000000E+00 -0.29581477509E+03  0.29581477514E+03  0.50400001928E-02 0. -1.
    10030    2    1    2    0    0  0.00000000000E+00  0.00000000000E+00  0.92091247929E+03  0.15125420295E+04  0.11998764922E+04 0.  0.
        4    1    3    3  502    0 -0.35201576409E+03 -0.27513786581E+03  0.96517444363E+03  0.10635691152E+04  0.12699999809E+01 0.  1.
       -4    1    3    3    0  502  0.35201576409E+03  0.27513786581E+03 -0.44261964348E+02  0.44897291428E+03  0.12699999809E+01 0. -1.
</event>
<event>
 5   0  0.5003507E-04  0.1180327E+04  0.7818609E-02  0.9130253E-01
        1   -1    0    0  501    0  0.00000000000E+00  0.00000000000E+00  0.12658653812E+04  0.12658653812E+04  0.50400001928E-02 0. -1.
       -1   -1    0    0    0  501  0.00000000000E+00  0.00000000000E+00 -0.27514196071E+03  0.27514196076E+03  0.50400001928E-02 0.  1.
    10030    2    1    2    0    0  0.00000000000E+00  0.00000000000E+00  0.99072342050E+03  0.15410073420E+04  0.11803265362E+04 0.  0.
        3    1    3    3  502    0 -0.36019024317E+03  0.21021925219E+03  0.10405297155E+04  0.11209956487E+04  0.10100000352E+00 0. -1.
       -3    1    3    3    0  502  0.36019024317E+03 -0.21021925219E+03 -0.49806295041E+02  0.42001169328E+03  0.10100000352E+00 0.  1.
</event>
<event>
 5   0  0.5157631E-04  0.1197359E+04  0.7818609E-02  0.9115171E-01
       -1   -1    0    0    0  501  0.00000000000E+00  0.00000000000E+00  0.61554595105E+03  0.61554595107E+03  0.50400001928E-02 0.  1.
        1   -1    0    0  501    0  0.00000000000E+00  0.00000000000E+00 -0.58227525862E+03  0.58227525864E+03  0.50400001928E-02 0. -1.
    10030    2    1    2    0    0  0.00000000000E+00  0.00000000000E+00  0.33270692434E+02  0.11978212097E+04  0.11973590570E+04 0.  0.
        5    1    3    3  502    0  0.40663656760E+03  0.19093326856E+03 -0.37922722759E+03  0.58791512253E+03  0.46999998093E+01 0. -1.
       -5    1    3    3    0  502 -0.40663656760E+03 -0.19093326856E+03  0.41249792003E+03  0.60990608718E+03  0.46999998093E+01 0.  1.
</event>
<event>
 5   0  0.9410666E-04  0.1203184E+04  0.7818609E-02  0.9110074E-01
       -2   -1    0    0    0  501  0.00000000000E+00  0.00000000000E+00  0.17516004584E+03  0.17516004586E+03  0.25500000920E-02 0.  1.
        2   -1    0    0  501    0  0.00000000000E+00  0.00000000000E+00 -0.20661831773E+04  0.20661831773E+04  0.25500000920E-02 0. -1.
    10030    2    1    2    0    0  0.00000000000E+00  0.00000000000E+00 -0.18910231315E+04  0.22413432232E+04  0.12031836769E+04 0.  0.
        2    1    3    3  502    0  0.45330308180E+03  0.13082280050E+02 -0.20913927035E+03  0.49939369683E+03  0.25500000920E-02 0.  1.
       -2    1    3    3    0  502 -0.45330308180E+03 -0.13082280050E+02 -0.16818838611E+04  0.17419495264E+04  0.25500000920E-02 0. -1.
</event>
<event>
 5   0  0.9410666E-04  0.1148336E+04  0.7818609E-02  0.9159320E-01
       -2   -1    0    0    0  501  0.00000000000E+00  0.00000000000E+00  0.39688106417E+03  0.39688106418E+03  0.25500000920E-02 0. -1.
        2   -1    0    0  501    0  0.00000000000E+00  0.00000000000E+00 -0.83064904922E+03  0.83064904922E+03  0.25500000920E-02 0.  1.
    10030    2    1    2    0    0  0.00000000000E+00  0.00000000000E+00 -0.43376798504E+03  0.12275301134E+04  0.11483359763E+04 0.  0.
        2    1    3    3  502    0 -0.22254152211E+03 -0.25775180051E+03 -0.71105098681E+03  0.78838710389E+03  0.25500000920E-02 0.  1.
       -2    1    3    3    0  502  0.22254152211E+03  0.25775180051E+03  0.27728300177E+03  0.43914300951E+03  0.25500000920E-02 0. -1.
</event>
<event>
 5   0  0.5447074E-04  0.1194242E+04  0.7818609E-02  0.9117912E-01
       -1   -1    0    0    0  501  0.00000000000E+00  0.00000000000E+00  0.37193599435E+03  0.37193599439E+03  0.50400001928E-02 0. -1.
        1   -1    0    0  501    0  0.00000000000E+00  0.00000000000E+00 -0.95864182453E+03  0.95864182455E+03  0.50400001928E-02 0.  1.
    10030    2    1    2    0    0  0.00000000000E+00  0.00000000000E+00 -0.58670583018E+03  0.13305778189E+04  0.11942418520E+04 0.  0.
        4    1    3    3  502    0  0.16473259419E+03 -0.15214148679E+03 -0.90994614584E+03  0.93716992099E+03  0.12699999809E+01 0.  1.
       -4    1    3    3    0  502 -0.16473259419E+03  0.15214148679E+03  0.32324031566E+03  0.39340789794E+03  0.12699999809E+01 0. -1.
</event>
<event>
 5   0  0.5001586E-04  0.1198459E+04  0.7818609E-02  0.9114207E-01
       -1   -1    0    0    0  501  0.00000000000E+00  0.00000000000E+00  0.67354053051E+03  0.67354053053E+03  0.50400001928E-02 0.  1.
        1   -1    0    0  501    0  0.00000000000E+00  0.00000000000E+00 -0.53311685208E+03  0.53311685210E+03  0.50400001928E-02 0. -1.
    10030    2    1    2    0    0  0.00000000000E+00  0.00000000000E+00  0.14042367843E+03  0.12066573826E+04  0.11984586891E+04 0.  0.
        1    1    3    3  502    0 -0.13458487478E+01 -0.91754629791E+02  0.66642420020E+03  0.67271237392E+03  0.50400001928E-02 0.  1.
       -1    1    3    3    0  502  0.13458487478E+01  0.91754629791E+02 -0.52600052176E+03  0.53394500870E+03  0.50400001928E-02 0. -1.
</event>
<event>
 5   0  0.5001586E-04  0.1199921E+04  0.7818609E-02  0.9112926E-01
       -1   -1    0    0    0  501  0.00000000000E+00  0.00000000000E+00  0.45086273314E+03  0.45086273316E+03  0.50400001928E-02 0. -1.
        1   -1    0    0  501    0  0.00000000000E+00  0.00000000000E+00 -0.79836411418E+03  0.79836411420E+03  0.50400001928E-02 0.  1.
    10030    2    1    2    0    0  0.00000000000E+00  0.00000000000E+00 -0.34750138105E+03  0.12492268474E+04  0.11999210417E+04 0.  0.
        1    1    3    3  502    0  0.54715579747E+03  0.17603356374E+03 -0.35282238941E+03  0.67442636422E+03  0.50400001928E-02 0. -1.
       -1    1    3    3    0  502 -0.54715579747E+03 -0.17603356374E+03  0.53210083602E+01  0.57480048314E+03  0.50400001928E-02 0.  1.
</event>
<event>
 5   0  0.3453625E-04  0.1211403E+04  0.7818609E-02  0.9102934E-01
        3   -1    0    0  501    0  0.00000000000E+00  0.00000000000E+00  0.91330880162E+03  0.91330880720E+03  0.10100000352E+00 0. -1.
       -3   -1    0    0    0  501  0.00000000000E+00  0.00000000000E+00 -0.40169804439E+03  0.40169805709E+03  0.10100000352E+00 0.  1.
    10030    2    1    2    0    0  0.00000000000E+00  0.00000000000E+00  0.51161075723E+03  0.13150068643E+04  0.12114031064E+04 0.  0.
        5    1    3    3  502    0  0.51664090210E+03 -0.24851573631E+03  0.46789791319E+03  0.74001921603E+03  0.46999998093E+01 0. -1.
       -5    1    3    3    0  502 -0.51664090210E+03  0.24851573631E+03  0.43712844032E+02  0.57498764826E+03  0.46999998093E+01 0.  1.
</event>
<event>
 5   0  0.5157631E-04  0.1200035E+04  0.7818609E-02  0.9112826E-01
        1   -1    0    0  501    0  0.00000000000E+00  0.00000000000E+00  0.87163488168E+03  0.87163488170E+03  0.50400001928E-02 0. -1.
       -1   -1    0    0    0  501  0.00000000000E+00  0.00000000000E+00 -0.41304121252E+03  0.41304121255E+03  0.50400001928E-02 0.  1.
    10030    2    1    2    0    0  0.00000000000E+00  0.00000000000E+00  0.45859366917E+03  0.12846760942E+04  0.12000352135E+04 0.  0.
        5    1    3    3  502    0  0.14823615359E+03 -0.17966575712E+03 -0.36264569663E+03  0.43103101141E+03  0.46999998093E+01 0.  1.
       -5    1    3    3    0  502 -0.14823615359E+03  0.17966575712E+03  0.82123936580E+03  0.85364508284E+03  0.46999998093E+01 0. -1.
</event>
<event>
 5   0  0.9298693E-04  0.1204419E+04  0.7818609E-02  0.9108997E-01
       -2   -1    0    0    0  501  0.00000000000E+00  0.00000000000E+00  0.52466316433E+03  0.52466316434E+03  0.25500000920E-02 0. -1.
        2   -1    0    0  501    0  0.00000000000E+00  0.00000000000E+00 -0.69121737651E+03  0.69121737652E+03  0.25500000920E-02 0.  1.
    10030    2    1    2    0    0  0.00000000000E+00  0.00000000000E+00 -0.16655421218E+03  0.12158805409E+04  0.12044190234E+04 0.  0.
        1    1    3    3  502    0 -0.22446246556E+03 -0.19484139013E+03 -0.61200705157E+03  0.68036695756E+03  0.50400001928E-02 0.  1.
       -1    1    3    3    0  502  0.22446246556E+03  0.19484139013E+03  0.44545283938E+03  0.53551358329E+03  0.50400001928E-02 0. -1.
</event>
<event>
 5   0  0.9050363E-04  0.1202012E+04  0.7818609E-02  0.9111097E-01
       -2   -1    0    0    0  501  0.00000000000E+00  0.00000000000E+00  0.18225604475E+03  0.18225604477E+03  0.25500000920E-02 0. -1.
        2   -1    0    0  501    0  0.00000000000E+00  0.00000000000E+00 -0.19818734964E+04  0.19818734964E+04  0.25500000920E-02 0.  1.
    10030    2    1    2    0    0  0.00000000000E+00  0.00000000000E+00 -0.17996174516E+04  0.21641295412E+04  0.12020123538E+04 0.  0.
        3    1    3    3  502    0  0.33292818594E+03  0.36169410283E+03 -0.15223086863E+04  0.15997148332E+04  0.10100000352E+00 0.  1.
       -3    1    3    3    0  502 -0.33292818594E+03 -0.36169410283E+03 -0.27730876534E+03  0.56441470795E+03  0.10100000352E+00 0. -1.
</event>
<event>
 5   0  0.9298693E-04  0.1199701E+04  0.7818609E-02  0.9113119E-01
        2   -1    0    0  501    0  0.00000000000E+00  0.00000000000E+00  0.15263615971E+04  0.15263615971E+04  0.25500000920E-02 0.  1.
       -2   -1    0    0    0  501  0.00000000000E+00  0.00000000000E+00 -0.23573733018E+03  0.23573733020E+03  0.25500000920E-02 0. -1.
    10030    2    1    2    0    0  0.00000000000E+00  0.00000000000E+00  0.12906242669E+04  0.17620989273E+04  0.11997006424E+04 0.  0.
        1    1    3    3  502    0 -0.12094027802E+03  0.31259996038E+03 -0.85361050245E+02  0.34587829507E+03  0.50400001928E-02 0. -1.
       -1    1    3    3    0  502  0.12094027802E+03 -0.31259996038E+03  0.13759853172E+04  0.14162206322E+04  0.50400001928E-02 0.  1.
</event>
<event>
 5   0  0.9050363E-04  0.1196449E+04  0.7818609E-02  0.9115970E-01
        2   -1    0    0  501    0  0.00000000000E+00  0.00000000000E+00  0.14555900604E+04  0.14555900604E+04  0.25500000920E-02 0.  1.
       -2   -1    0    0    0  501  0.00000000000E+00  0.00000000000E+00 -0.24586093163E+03  0.24586093165E+03  0.25500000920E-02 0. -1.
    10030    2    1    2    0    0  0.00000000000E+00  0.00000000000E+00  0.12097291287E+04  0.17014509920E+04  0.11964492941E+04 0.  0.
        3    1    3    3  502    0 -0.11717107232E+03 -0.47098818817E+03  0.11022153961E+04  0.12043411988E+04  0.10100000352E+00 0.  1.
       -3    1    3    3    0  502  0.11717107232E+03  0.47098818817E+03  0.10751373263E+03  0.49710979319E+03  0.10100000352E+00 0. -1.
</event>
<event>
 5   0  0.9145224E-04  0.1211707E+04  0.7818609E-02  0.9102671E-01
        2   -1    0    0  501    0  0.00000000000E+00  0.00000000000E+00  0.16199465942E+04  0.16199465942E+04  0.25500000920E-02 0.  1.
       -2   -1    0    0    0  501  0.00000000000E+00  0.00000000000E+00 -0.22658682563E+03  0.22658682564E+03  0.25500000920E-02 0. -1.
    10030    2    1    2    0    0  0.00000000000E+00  0.00000000000E+00  0.13933597686E+04  0.18465334199E+04  0.12117071535E+04 0.  0.
        5    1    3    3  502    0  0.41656544219E+03  0.31540540579E+03  0.22938534426E+03  0.57065494284E+03  0.46999998093E+01 0. -1.
       -5    1    3    3    0  502 -0.41656544219E+03 -0.31540540579E+03  0.11639744243E+04  0.12758784770E+04  0.46999998093E+01 0.  1.
</event>
<event>
 5   0  0.3453625E-04  0.1199859E+04  0.7818609E-02  0.9112980E-01
       -4   -1    0    0    0  501  0.00000000000E+00  0.00000000000E+00  0.54080483037E+03  0.54080632157E+03  0.12699999809E+01 0.  1.
        4   -1    0    0  501    0  0.00000000000E+00  0.00000000000E+00 -0.66551557128E+03  0.66551678304E+03  0.12699999809E+01 0. -1.
    10030    2    1    2    0    0  0.00000000000E+00  0.00000000000E+00 -0.12471074091E+03  0.12063231046E+04  0.11998594350E+04 0.  0.
        3    1    3    3  502    0 -0.32456798587E+03 -0.23965700380E+03 -0.50874698061E+03  0.64930990860E+03  0.10100000352E+00 0. -1.
       -3    1    3    3    0  502  0.32456798587E+03  0.23965700380E+03  0.38403623970E+03  0.55701319601E+03  0.10100000352E+00 0.  1.
</event>
<event>
 5   0  0.5003507E-04  0.1200629E+04  0.7818609E-02  0.9112306E-01
       -1   -1    0    0    0  501  0.00000000000E+00  0.00000000000E+00  0.97759575118E+03  0.97759575119E+03  0.50400001928E-02 0. -1.
        1   -1    0    0  501    0  0.00000000000E+00  0.00000000000E+00 -0.36863669653E+03  0.36863669657E+03  0.50400001928E-02 0.  1.
    10030    2    1    2    0    0  0.00000000000E+00  0.00000000000E+00  0.60895905464E+03  0.13462324478E+04  0.12006292822E+04 0.  0.
        3    1    3    3  502    0 -0.47952792738E+02  0.29218957786E+03 -0.28106028569E+03  0.40825128797E+03  0.10100000352E+00 0.  1.
       -3    1    3    3    0  502  0.47952792738E+02 -0.29218957786E+03  0.89001934034E+03  0.93798115979E+03  0.10100000352E+00 0. -1.
</event>
<event>
 5   0  0.9298693E-04  0.1190737E+04  0.7818609E-02  0.9121003E-01
       -2   -1    0    0    0  501  0.00000000000E+00  0.00000000000E+00  0.28735110138E+03  0.28735110139E+03  0.25500000920E-02 0.  1.
        2   -1    0    0  501    0  0.00000000000E+00  0.00000000000E+00 -0.12335562366E+04  0.12335562366E+04  0.25500000920E-02 0. -1.
    10030    2    1    2    0    0  0.00000000000E+00  0.00000000000E+00 -0.94620513523E+03  0.15209073380E+04  0.11907371552E+04 0.  0.
        1    1    3    3  502    0 -0.18725343113E+03 -0.36731014439E+02 -0.11934384468E+04  0.12085976755E+04  0.50400001928E-02 0. -1.
       -1    1    3    3    0  502  0.18725343113E+03  0.36731014439E+02  0.24723331160E+03  0.31230966248E+03  0.50400001928E-02 0.  1.
</event>
<event>
 5   0  0.5003507E-04  0.1201067E+04  0.7818609E-02  0.9111924E-01
        1   -1    0    0  501    0  0.00000000000E+00  0.00000000000E+00  0.62169355286E+03  0.62169355288E+03  0.50400001928E-02 0.  1.
       -1   -1    0    0    0  501  0.00000000000E+00  0.00000000000E+00 -0.58009319015E+03  0.58009319017E+03  0.50400001928E-02 0. -1.
    10030    2    1    2    0    0  0.00000000000E+00  0.00000000000E+00  0.41600362712E+02  0.12017867430E+04  0.12010665200E+04 0.  0.
        3    1    3    3  502    0 -0.56238921136E+03  0.47548161419E+02 -0.18450017587E+03  0.59378681175E+03  0.10100000352E+00 0. -1.
       -3    1    3    3    0  502  0.56238921136E+03 -0.47548161419E+02  0.22610053858E+03  0.60799993130E+03  0.10100000352E+00 0.  1.
</event>
<event>
 5   0  0.5052959E-04  0.1203660E+04  0.7818609E-02  0.9109659E-01
       -1   -1    0    0    0  501  0.00000000000E+00  0.00000000000E+00  0.23443237191E+03  0.23443237197E+03  0.50400001928E-02 0.  1.
        1   -1    0    0  501    0  0.00000000000E+00  0.00000000000E+00 -0.15450057034E+04  0.15450057034E+04  0.50400001928E-02 0. -1.
    10030    2    1    2    0    0  0.00000000000E+00  0.00000000000E+00 -0.13105733314E+04  0.17794380753E+04  0.12036600047E+04 0.  0.
        2    1    3    3  502    0  0.18207233686E+03 -0.45817254591E+03 -0.14503546972E+03  0.51391410290E+03  0.25500000920E-02 0.  1.
       -2    1    3    3    0  502 -0.18207233686E+03  0.45817254591E+03 -0.11655378617E+04  0.12655239724E+04  0.25500000920E-02 0. -1.
</event>
<event>
 5   0  0.5447074E-04  0.1201324E+04  0.7818609E-02  0.9111699E-01
       -1   -1    0    0    0  501  0.00000000000E+00  0.00000000000E+00  0.17085596554E+03  0.17085596562E+03  0.50400001928E-02 0.  1.
        1   -1    0    0  501    0  0.00000000000E+00  0.00000000000E+00 -0.21116885579E+04  0.21116885579E+04  0.50400001928E-02 0. -1.
    10030    2    1    2    0    0  0.00000000000E+00  0.00000000000E+00 -0.19408325923E+04  0.22825445235E+04  0.12013235827E+04 0.  0.
        4    1    3    3  502    0 -0.37037811113E+03  0.43607688802E+03 -0.62291440850E+03  0.84579369275E+03  0.12699999809E+01 0.  1.
       -4    1    3    3    0  502  0.37037811113E+03 -0.43607688802E+03 -0.13179181838E+04  0.14367508308E+04  0.12699999809E+01 0. -1.
</event>
<event>
 5   0  0.9070772E-04  0.1202415E+04  0.7818609E-02  0.9110745E-01
        2   -1    0    0  501    0  0.00000000000E+00  0.00000000000E+00  0.10976586935E+04  0.10976586935E+04  0.25500000920E-02 0.  1.
       -2   -1    0    0    0  501  0.00000000000E+00  0.00000000000E+00 -0.32929234575E+03  0.32929234576E+03  0.25500000920E-02 0. -1.
    10030    2    1    2    0    0  0.00000000000E+00  0.00000000000E+00  0.76836634773E+03  0.14269510392E+04  0.12024152461E+04 0.  0.
        4    1    3    3  502    0 -0.31776061090E+03 -0.23432253293E+03 -0.15388166302E+03  0.42374524704E+03  0.12699999809E+01 0. -1.
       -4    1    3    3    0  502  0.31776061090E+03  0.23432253293E+03  0.92224801075E+03  0.10032057922E+04  0.12699999809E+01 0.  1.
</event>
<event>
 5   0  0.5157631E-04  0.1200364E+04  0.7818609E-02  0.9112538E-01
        1   -1    0    0  501    0  0.00000000000E+00  0.00000000000E+00  0.46767084443E+03  0.46767084445E+03  0.50400001928E-02 0.  1.
       -1   -1    0    0    0  501  0.00000000000E+00  0.00000000000E+00 -0.77023907768E+03  0.77023907769E+03  0.50400001928E-02 0. -1.
    10030    2    1    2    0    0  0.00000000000E+00  0.00000000000E+00 -0.30256823325E+03  0.12379099221E+04  0.12003638780E+04 0.  0.
        5    1    3    3  502    0  0.59673854711E+03 -0.12554688951E+02 -0.21603131761E+03  0.63478038250E+03  0.46999998093E+01 0. -1.
       -5    1    3    3    0  502 -0.59673854711E+03  0.12554688951E+02 -0.86536915636E+02  0.60312953964E+03  0.46999998093E+01 0.  1.
</event>
<event>
 5   0  0.5157631E-04  0.1214412E+04  0.7818609E-02  0.9100335E-01
       -1   -1    0    0    0  501  0.00000000000E+00  0.00000000000E+00  0.74934880322E+03  0.74934880324E+03  0.50400001928E-02 0. -1.
        1   -1    0    0  501    0  0.00000000000E+00  0.00000000000E+00 -0.49202581888E+03  0.49202581890E+03  0.50400001928E-02 0.  1.
    10030    2    1    2    0    0  0.00000000000E+00  0.00000000000E+00  0.25732298435E+03  0.12413746221E+04  0.12144117235E+04 0.  0.
        5    1    3    3  502    0 -0.45165616316E+03  0.19587902318E+03 -0.23463763348E+03  0.54537949218E+03  0.46999998093E+01 0.  1.
       -5    1    3    3    0  502  0.45165616316E+03 -0.19587902318E+03  0.49196061783E+03  0.69599512997E+03  0.46999998093E+01 0. -1.
</event>
<event>
 5   0  0.5157631E-04  0.1211426E+04  0.7818609E-02  0.9102914E-01
        1   -1    0    0  501    0  0.00000000000E+00  0.00000000000E+00  0.10782637521E+04  0.10782637521E+04  0.50400001928E-02 0.  1.
       -1   -1    0    0    0  501  0.00000000000E+00  0.00000000000E+00 -0.34025824219E+03  0.34025824223E+03  0.50400001928E-02 0. -1.
    10030    2    1    2    0    0  0.00000000000E+00  0.00000000000E+00  0.73800550994E+03  0.14185219944E+04  0.12114258194E+04 0.  0.
        5    1    3    3  502    0 -0.21537229101E+03  0.12187483740E+03 -0.27834157528E+03  0.37247123682E+03  0.46999998093E+01 0. -1.
       -5    1    3    3    0  502  0.21537229101E+03 -0.12187483740E+03  0.10163470852E+04  0.10460507575E+04  0.46999998093E+01 0.  1.
</event>
<event>
 5   0  0.9145224E-04  0.1205383E+04  0.7818609E-02  0.9108158E-01
       -2   -1    0    0    0  501  0.00000000000E+00  0.00000000000E+00  0.79105380547E+03  0.79105380547E+03  0.25500000920E-02 0.  1.
        2   -1    0    0  501    0  0.00000000000E+00  0.00000000000E+00 -0.45918102343E+03  0.45918102344E+03  0.25500000920E-02 0. -1.
    10030    2    1    2    0    0  0.00000000000E+00  0.00000000000E+00  0.33187278204E+03  0.12502348289E+04  0.12053827541E+04 0.  0.
        5    1    3    3  502    0  0.25146092085E+03 -0.37036491963E+03  0.58445028020E+03  0.73621123900E+03  0.46999998093E+01 0.  1.
       -5    1    3    3    0  502 -0.25146092085E+03  0.37036491963E+03 -0.25257749816E+03  0.51402358991E+03  0.46999998093E+01 0. -1.
</event>
<event>
 5   0  0.9050363E-04  0.1193849E+04  0.7818609E-02  0.9118258E-01
       -2   -1    0    0    0  501  0.00000000000E+00  0.00000000000E+00  0.41039368932E+03  0.41039368932E+03  0.25500000920E-02 0. -1.
        2   -1    0    0  501    0  0.00000000000E+00  0.00000000000E+00 -0.86823627430E+03  0.86823627430E+03  0.25500000920E-02 0.  1.
    10030    2    1    2    0    0  0.00000000000E+00  0.00000000000E+00 -0.45784258498E+03  0.12786299636E+04  0.11938487137E+04 0.  0.
        3    1    3    3  502    0 -0.51028298189E+02 -0.57159008590E+02 -0.86294741321E+03  0.86634247711E+03  0.10100000352E+00 0.  1.
       -3    1    3    3    0  502  0.51028298189E+02  0.57159008590E+02  0.40510482823E+03  0.41228748651E+03  0.10100000352E+00 0. -1.
</event>
<event>
 5   0  0.5052959E-04  0.1196272E+04  0.7818609E-02  0.9116126E-01
        1   -1    0    0  501    0  0.00000000000E+00  0.00000000000E+00  0.14787452702E+04  0.14787452702E+04  0.50400001928E-02 0. -1.
       -1   -1    0    0    0  501  0.00000000000E+00  0.00000000000E+00 -0.24193930829E+03  0.24193930834E+03  0.50400001928E-02 0.  1.
    10030    2    1    2    0    0  0.00000000000E+00  0.00000000000E+00  0.12368059619E+04  0.17206845785E+04  0.11962718886E+04 0.  0.
        2    1    3    3  502    0 -0.50972656097E+03 -0.29972149000E+03  0.74795610885E+03  0.95346341267E+03  0.25500000920E-02 0. -1.
       -2    1    3    3    0  502  0.50972656097E+03  0.29972149000E+03  0.48884985306E+03  0.76722116588E+03  0.25500000920E-02 0.  1.
</event>
<event>
 5   0  0.3453625E-04  0.1198245E+04  0.7818609E-02  0.9114394E-01
       -4   -1    0    0    0  501  0.00000000000E+00  0.00000000000E+00  0.47056312068E+03  0.47056483447E+03  0.12699999809E+01 0.  1.
        4   -1    0    0  501    0  0.00000000000E+00  0.00000000000E+00 -0.76280122575E+03  0.76280228297E+03  0.12699999809E+01 0. -1.
    10030    2    1    2    0    0  0.00000000000E+00  0.00000000000E+00 -0.29223810508E+03  0.12333671174E+04  0.11982451070E+04 0.  0.
        1    1    3    3  502    0 -0.48382818895E+03  0.27347866883E+03  0.84197317898E+02  0.56211163224E+03  0.50400001928E-02 0.  1.
       -1    1    3    3    0  502  0.48382818895E+03 -0.27347866883E+03 -0.37643542298E+03  0.67125548521E+03  0.50400001928E-02 0. -1.
</event>
<event>
 5   0  0.9298693E-04  0.1160589E+04  0.7818609E-02  0.9148070E-01
        2   -1    0    0  501    0  0.00000000000E+00  0.00000000000E+00  0.10713060135E+04  0.10713060135E+04  0.25500000920E-02 0. -1.
       -2   -1    0    0    0  501  0.00000000000E+00  0.00000000000E+00 -0.31432839221E+03  0.31432839222E+03  0.25500000920E-02 0.  1.
    10030    2    1    2    0    0  0.00000000000E+00  0.00000000000E+00  0.75697762126E+03  0.13856344057E+04  0.11605893275E+04 0.  0.
        1    1    3    3  502    0  0.27981016786E+03 -0.15742041597E+03 -0.19863468843E+03  0.37753232560E+03  0.50400001928E-02 0.  1.
       -1    1    3    3    0  502 -0.27981016786E+03  0.15742041597E+03  0.95561230969E+03  0.10081020801E+04  0.50400001928E-02 0. -1.
</event>
<event>
 5   0  0.3453625E-04  0.1209395E+04  0.7818609E-02  0.9104673E-01
        3   -1    0    0  501    0  0.00000000000E+00  0.00000000000E+00  0.32696485700E+03  0.32696487260E+03  0.10100000352E+00 0. -1.
       -3   -1    0    0    0  501  0.00000000000E+00  0.00000000000E+00 -0.11183437307E+04  0.11183437353E+04  0.10100000352E+00 0.  1.
    10030    2    1    2    0    0  0.00000000000E+00  0.00000000000E+00 -0.79137887373E+03  0.14453086079E+04  0.12093950762E+04 0.  0.
        3    1    3    3  502    0  0.93520684910E+01 -0.17138731239E+03 -0.10886204121E+04  0.11020687292E+04  0.10100000352E+00 0.  1.
       -3    1    3    3    0  502 -0.93520684910E+01  0.17138731239E+03  0.29724153833E+03  0.34323987872E+03  0.10100000352E+00 0. -1.
</event>
<event>
 5   0  0.9298693E-04  0.1191244E+04  0.7818609E-02  0.9120555E-01
        2   -1    0    0  501    0  0.00000000000E+00  0.00000000000E+00  0.53996913169E+03  0.53996913170E+03  0.25500000920E-02 0. -1.
       -2   -1    0    0    0  501  0.00000000000E+00  0.00000000000E+00 -0.65701087334E+03  0.65701087335E+03  0.25500000920E-02 0.  1.
    10030    2    1    2    0    0  0.00000000000E+00  0.00000000000E+00 -0.11704174165E+03  0.11969800050E+04  0.11912440402E+04 0.  0.
        1    1    3    3  502    0 -0.40566672076E+03 -0.37967581895E+03 -0.27413830699E+03  0.61957326219E+03  0.50400001928E-02 0.  1.
       -1    1    3    3    0  502  0.40566672076E+03  0.37967581895E+03  0.15709656534E+03  0.57740674286E+03  0.50400001928E-02 0. -1.
</event>
<event>
 5   0  0.9050363E-04  0.1199642E+04  0.7818609E-02  0.9113170E-01
       -2   -1    0    0    0  501  0.00000000000E+00  0.00000000000E+00  0.14255283795E+04  0.14255283795E+04  0.25500000920E-02 0. -1.
        2   -1    0    0  501    0  0.00000000000E+00  0.00000000000E+00 -0.25238724096E+03  0.25238724098E+03  0.25500000920E-02 0.  1.
    10030    2    1    2    0    0  0.00000000000E+00  0.00000000000E+00  0.11731411385E+04  0.16779156205E+04  0.11996419043E+04 0.  0.
        3    1    3    3  502    0  0.44161785488E+03 -0.36887506358E+03  0.34966027545E+03  0.67331824623E+03  0.10100000352E+00 0.  1.
       -3    1    3    3    0  502 -0.44161785488E+03  0.36887506358E+03  0.82348086306E+03  0.10045973742E+04  0.10100000352E+00 0. -1.
</event>
<event>
 5   0  0.5447074E-04  0.1203986E+04  0.7818609E-02  0.9109375E-01
        1   -1    0    0  501    0  0.00000000000E+00  0.00000000000E+00  0.67778894437E+03  0.67778894439E+03  0.50400001928E-02 0. -1.
       -1   -1    0    0    0  501  0.00000000000E+00  0.00000000000E+00 -0.53467309323E+03  0.53467309325E+03  0.50400001928E-02 0.  1.
    10030    2    1    2    0    0  0.00000000000E+00  0.00000000000E+00  0.14311585114E+03  0.12124620376E+04  0.12039858994E+04 0.  0.
        4    1    3    3  502    0 -0.40260588051E+03 -0.21549358591E+03 -0.32345977248E+03  0.55960416180E+03  0.12699999809E+01 0.  1.
       -4    1    3    3    0  502  0.40260588051E+03  0.21549358591E+03  0.46657562362E+03  0.65285787584E+03  0.12699999809E+01 0. -1.
</event>
<event>
 5   0  0.5447074E-04  0.1202838E+04  0.7818609E-02  0.9110376E-01
        1   -1    0    0  501    0  0.00000000000E+00  0.00000000000E+00  0.69688406126E+03  0.69688406127E+03  0.50400001928E-02 0.  1.
       -1   -1    0    0    0  501  0.00000000000E+00  0.00000000000E+00 -0.51903137934E+03  0.51903137936E+03  0.50400001928E-02 0. -1.
    10030    2    1    2    0    0  0.00000000000E+00  0.00000000000E+00  0.17785268192E+03  0.12159154406E+04  0.12028378038E+04 0.  0.
        4    1    3    3  502    0  0.48559480716E+03 -0.30093835180E+03  0.27895117881E+03  0.63575276750E+03  0.12699999809E+01 0.  1.
       -4    1    3    3    0  502 -0.48559480716E+03  0.30093835180E+03 -0.10109849689E+03  0.58016267313E+03  0.12699999809E+01 0. -1.
</event>
<event>
 5   0  0.5001586E-04  0.1197705E+04  0.7818609E-02  0.9114868E-01
       -1   -1    0    0    0  501  0.00000000000E+00  0.00000000000E+00  0.92564873600E+03  0.92564873601E+03  0.50400001928E-02 0.  1.
        1   -1    0    0  501    0  0.00000000000E+00  0.00000000000E+00 -0.38742999348E+03  0.38742999351E+03  0.50400001928E-02 0. -1.
    10030    2    1    2    0    0  0.00000000000E+00  0.00000000000E+00  0.53821874252E+03  0.13130787295E+04  0.11977046110E+04 0.  0.
        1    1    3    3  502    0 -0.58414861666E+03 -0.41942412055E+02  0.40619575292E+03  0.71272979592E+03  0.50400001928E-02 0.  1.
       -1    1    3    3    0  502  0.58414861666E+03  0.41942412055E+02  0.13202298960E+03  0.60034893361E+03  0.50400001928E-02 0. -1.
</event>
<event>
 5   0  0.9145224E-04  0.1197659E+04  0.7818609E-02  0.9114908E-01
        2   -1    0    0  501    0  0.00000000000E+00  0.00000000000E+00  0.10195621200E+04  0.10195621201E+04  0.25500000920E-02 0.  1.
       -2   -1    0    0    0  501  0.00000000000E+00  0.00000000000E+00 -0.35171656616E+03  0.35171656617E+03  0.25500000920E-02 0. -1.
    10030    2    1    2    0    0  0.00000000000E+00  0.00000000000E+00  0.66784555389E+03  0.13712786862E+04  0.11976591967E+04 0.  0.
        5    1    3    3  502    0 -0.10305428619E+03 -0.25809658463E+02 -0.34081908733E+03  0.35702389928E+03  0.46999998093E+01 0. -1.
       -5    1    3    3    0  502  0.10305428619E+03  0.25809658463E+02  0.10086646412E+04  0.10142547869E+04  0.46999998093E+01 0.  1.
</event>
<event>
 5   0  0.5001586E-04  0.1201764E+04  0.7818609E-02  0.9111314E-01
        1   -1    0    0  501    0  0.00000000000E+00  0.00000000000E+00  0.68244790850E+03  0.68244790852E+03  0.50400001928E-02 0.  1.
       -1   -1    0    0    0  501  0.00000000000E+00  0.00000000000E+00 -0.52906508360E+03  0.52906508363E+03  0.50400001928E-02 0. -1.
    10030    2    1    2    0    0  0.00000000000E+00  0.00000000000E+00  0.15338282490E+03  0.12115129921E+04  0.12017643027E+04 0.  0.
        1    1    3    3  502    0  0.63219760188E+02  0.57981491842E+03 -0.68970415470E+02  0.58731507382E+03  0.50400001928E-02 0.  1.
       -1    1    3    3    0  502 -0.63219760188E+02 -0.57981491842E+03  0.22235324037E+03  0.62419791832E+03  0.50400001928E-02 0. -1.
</event>
<event>
 5   0  0.3453625E-04  0.1201248E+04  0.7818609E-02  0.9111765E-01
       -3   -1    0    0    0  501  0.00000000000E+00  0.00000000000E+00  0.46706994047E+03  0.46706995139E+03  0.10100000352E+00 0. -1.
        3   -1    0    0  501    0  0.00000000000E+00  0.00000000000E+00 -0.77236633360E+03  0.77236634020E+03  0.10100000352E+00 0.  1.
    10030    2    1    2    0    0  0.00000000000E+00  0.00000000000E+00 -0.30529639312E+03  0.12394362916E+04  0.12012478650E+04 0.  0.
        5    1    3    3  502    0  0.37948321426E+03 -0.40705209748E+03 -0.38572350714E+03  0.67712896403E+03  0.46999998093E+01 0.  1.
       -5    1    3    3    0  502 -0.37948321426E+03  0.40705209748E+03  0.80427114020E+02  0.56230732756E+03  0.46999998093E+01 0. -1.
</event>
<event>
 5   0  0.3453625E-04  0.1204031E+04  0.7818609E-02  0.9109335E-01
        4   -1    0    0  501    0  0.00000000000E+00  0.00000000000E+00  0.42494960572E+03  0.42495150347E+03  0.12699999809E+01 0. -1.
       -4   -1    0    0    0  501  0.00000000000E+00  0.00000000000E+00 -0.85285641824E+03  0.85285736382E+03  0.12699999809E+01 0.  1.
    10030    2    1    2    0    0  0.00000000000E+00  0.00000000000E+00 -0.42790681251E+03  0.12778088673E+04  0.12040312542E+04 0.  0.
        2    1    3    3  502    0 -0.21658212965E+03 -0.44746974442E+03  0.14638959509E+03  0.51823441088E+03  0.25500000920E-02 0. -1.
       -2    1    3    3    0  502  0.21658212965E+03  0.44746974442E+03 -0.57429640760E+03  0.75957445642E+03  0.25500000920E-02 0.  1.
</event>
<event>
 5   0  0.9298693E-04  0.1163894E+04  0.7818609E-02  0.9145060E-01
        2   -1    0    0  501    0  0.00000000000E+00  0.00000000000E+00  0.19147574459E+04  0.19147574459E+04  0.25500000920E-02 0.  1.
       -2   -1    0    0    0  501  0.00000000000E+00  0.00000000000E+00 -0.17686960924E+03  0.17686960926E+03  0.25500000920E-02 0. -1.
    10030    2    1    2    0    0  0.00000000000E+00  0.00000000000E+00  0.17378878367E+04  0.20916270552E+04  0.11638941554E+04 0.  0.
        1    1    3    3  502    0  0.12649830671E+03  0.18559663090E+03  0.18337247231E+04  0.18474291031E+04  0.50400001928E-02 0.  1.
       -1    1    3    3    0  502 -0.12649830671E+03 -0.18559663090E+03 -0.95836886349E+02  0.24419795211E+03  0.50400001928E-02 0. -1.
</event>
<event>
 5   0  0.9298693E-04  0.1196348E+04  0.7818609E-02  0.9116059E-01
        2   -1    0    0  501    0  0.00000000000E+00  0.00000000000E+00  0.52808364950E+03  0.52808364951E+03  0.25500000920E-02 0. -1.
       -2   -1    0    0    0  501  0.00000000000E+00  0.00000000000E+00 -0.67756752954E+03  0.67756752955E+03  0.25500000920E-02 0.  1.
    10030    2    1    2    0    0  0.00000000000E+00  0.00000000000E+00 -0.14948388004E+03  0.12056511791E+04  0.11963483335E+04 0.  0.
        1    1    3    3  502    0 -0.13144373757E+03  0.82312051359E+02 -0.65695361745E+03  0.67501169282E+03  0.50400001928E-02 0.  1.
       -1    1    3    3    0  502  0.13144373757E+03 -0.82312051359E+02  0.50746973740E+03  0.53063948624E+03  0.50400001928E-02 0. -1.
</event>
<event>
 5   0  0.9145224E-04  0.1201440E+04  0.7818609E-02  0.9111597E-01
        2   -1    0    0  501    0  0.00000000000E+00  0.00000000000E+00  0.16238806359E+04  0.16238806359E+04  0.25500000920E-02 0.  1.
       -2   -1    0    0    0  501  0.00000000000E+00  0.00000000000E+00 -0.22222337151E+03  0.22222337153E+03  0.25500000920E-02 0. -1.
    10030    2    1    2    0    0  0.00000000000E+00  0.00000000000E+00  0.14016572644E+04  0.18461040074E+04  0.12014395197E+04 0.  0.
        5    1    3    3  502    0  0.28768669439E+03 -0.75928083188E+02  0.15026706005E+04  0.15318517329E+04  0.46999998093E+01 0.  1.
       -5    1    3    3    0  502 -0.28768669439E+03  0.75928083188E+02 -0.10101333615E+03  0.31425227450E+03  0.46999998093E+01 0. -1.
</event>
<event>
 5   0  0.5447074E-04  0.1180172E+04  0.7818609E-02  0.9130391E-01
        1   -1    0    0  501    0  0.00000000000E+00  0.00000000000E+00  0.78581220231E+03  0.78581220233E+03  0.50400001928E-02 0.  1.
       -1   -1    0    0    0  501  0.00000000000E+00  0.00000000000E+00 -0.44311051609E+03  0.44311051612E+03  0.50400001928E-02 0. -1.
    10030    2    1    2    0    0  0.00000000000E+00  0.00000000000E+00  0.34270168622E+03  0.12289227185E+04  0.11801722765E+04 0.  0.
        4    1    3    3  502    0 -0.11680246629E+03 -0.44453007785E+03  0.55670544501E+03  0.72192269091E+03  0.12699999809E+01 0.  1.
       -4    1    3    3    0  502  0.11680246629E+03  0.44453007785E+03 -0.21400375879E+03  0.50700002754E+03  0.12699999809E+01 0. -1.
</event>
<event>
 5   0  0.9298693E-04  0.1197155E+04  0.7818609E-02  0.9115351E-01
       -2   -1    0    0    0  501  0.00000000000E+00  0.00000000000E+00  0.13963457277E+04  0.13963457277E+04  0.25500000920E-02 0.  1.
        2   -1    0    0  501    0  0.00000000000E+00  0.00000000000E+00 -0.25659461695E+03  0.25659461697E+03  0.25500000920E-02 0. -1.
    10030    2    1    2    0    0  0.00000000000E+00  0.00000000000E+00  0.11397511108E+04  0.16529403447E+04  0.11971546218E+04 0.  0.
        1    1    3    3  502    0  0.76623352427E+02 -0.58990120940E+03  0.47787101024E+03  0.76303032537E+03  0.50400001928E-02 0. -1.
       -1    1    3    3    0  502 -0.76623352427E+02  0.58990120940E+03  0.66188010054E+03  0.88991001933E+03  0.50400001928E-02 0.  1.
</event>
<event>
 5   0  0.5447074E-04  0.1216151E+04  0.7818609E-02  0.9098835E-01
       -1   -1    0    0    0  501  0.00000000000E+00  0.00000000000E+00  0.66193908673E+03  0.66193908675E+03  0.50400001928E-02 0. -1.
        1   -1    0    0  501    0  0.00000000000E+00  0.00000000000E+00 -0.55859536668E+03  0.55859536670E+03  0.50400001928E-02 0.  1.
    10030    2    1    2    0    0  0.00000000000E+00  0.00000000000E+00  0.10334372005E+03  0.12205344535E+04  0.12161514822E+04 0.  0.
        4    1    3    3  502    0 -0.18733089639E+03 -0.11250407976E+03 -0.51782759683E+03  0.56204720944E+03  0.12699999809E+01 0.  1.
       -4    1    3    3    0  502  0.18733089639E+03  0.11250407976E+03  0.62117131688E+03  0.65848724401E+03  0.12699999809E+01 0. -1.
</event>
<event>
 5   0  0.5052959E-04  0.1203567E+04  0.7818609E-02  0.9109740E-01
        1   -1    0    0  501    0  0.00000000000E+00  0.00000000000E+00  0.12878111773E+04  0.12878111773E+04  0.50400001928E-02 0. -1.
       -1   -1    0    0    0  501  0.00000000000E+00  0.00000000000E+00 -0.28120839179E+03  0.28120839184E+03  0.50400001928E-02 0.  1.
    10030    2    1    2    0    0  0.00000000000E+00  0.00000000000E+00  0.10066027855E+04  0.15690195691E+04  0.12035668824E+04 0.  0.
        2    1    3    3  502    0  0.56082914574E+03  0.59088844605E+02  0.22946691553E+03  0.60883157572E+03  0.25500000920E-02 0.  1.
       -2    1    3    3    0  502 -0.56082914574E+03 -0.59088844605E+02  0.77713586993E+03  0.96018799337E+03  0.25500000920E-02 0. -1.
</event>
<event>
 5   0  0.5052959E-04  0.1172532E+04  0.7818609E-02  0.9137245E-01
       -1   -1    0    0    0  501  0.00000000000E+00  0.00000000000E+00  0.26392515228E+03  0.26392515233E+03  0.50400001928E-02 0.  1.
        1   -1    0    0  501    0  0.00000000000E+00  0.00000000000E+00 -0.13022932225E+04  0.13022932226E+04  0.50400001928E-02 0. -1.
    10030    2    1    2    0    0  0.00000000000E+00  0.00000000000E+00 -0.10383680703E+04  0.15662183749E+04  0.11725321951E+04 0.  0.
        2    1    3    3  502    0  0.48054925502E+03  0.28799754971E+03 -0.74991753890E+03  0.93608038666E+03  0.25500000920E-02 0. -1.
       -2    1    3    3    0  502 -0.48054925502E+03 -0.28799754971E+03 -0.28845053137E+03  0.63013798822E+03  0.25500000920E-02 0.  1.
</event>
<event>
 5   0  0.5001586E-04  0.1199645E+04  0.7818609E-02  0.9113168E-01
       -1   -1    0    0    0  501  0.00000000000E+00  0.00000000000E+00  0.59941547589E+03  0.59941547591E+03  0.50400001928E-02 0.  1.
        1   -1    0    0  501    0  0.00000000000E+00  0.00000000000E+00 -0.60022944855E+03  0.60022944857E+03  0.50400001928E-02 0. -1.
    10030    2    1    2    0    0  0.00000000000E+00  0.00000000000E+00 -0.81397266206E+00  0.11996449245E+04  0.11996446483E+04 0.  0.
        1    1    3    3  502    0  0.16116428503E+02  0.26842643201E+03  0.53575946565E+03  0.59945866723E+03  0.50400001928E-02 0.  1.
       -1    1    3    3    0  502 -0.16116428503E+02 -0.26842643201E+03 -0.53657343831E+03  0.60018625725E+03  0.50400001928E-02 0. -1.
</event>
<event>
 5   0  0.5447074E-04  0.1206378E+04  0.7818609E-02  0.9107292E-01
       -1   -1    0    0    0  501  0.00000000000E+00  0.00000000000E+00  0.31232467546E+03  0.31232467550E+03  0.50400001928E-02 0. -1.
        1   -1    0    0  501    0  0.00000000000E+00  0.00000000000E+00 -0.11649324122E+04  0.11649324122E+04  0.50400001928E-02 0.  1.
    10030    2    1    2    0    0  0.00000000000E+00  0.00000000000E+00 -0.85260773672E+03  0.14772570877E+04  0.12063782783E+04 0.  0.
        4    1    3    3  502    0  0.16468729774E+03 -0.11300985417E+03 -0.11232616406E+04  0.11408818779E+04  0.12699999809E+01 0.  1.
       -4    1    3    3    0  502 -0.16468729774E+03  0.11300985417E+03  0.27065390388E+03  0.33637520979E+03  0.12699999809E+01 0. -1.
</event>
<event>
 5   0  0.9070772E-04  0.1196158E+04  0.7818609E-02  0.9116226E-01
        2   -1    0    0  501    0  0.00000000000E+00  0.00000000000E+00  0.60627224054E+03  0.60627224054E+03  0.25500000920E-02 0.  1.
       -2   -1    0    0    0  501  0.00000000000E+00  0.00000000000E+00 -0.58999664210E+03  0.58999664211E+03  0.25500000920E-02 0. -1.
    10030    2    1    2    0    0  0.00000000000E+00  0.00000000000E+00  0.16275598433E+02  0.11962688826E+04  0.11961581603E+04 0.  0.
        4    1    3    3  502    0  0.17629075568E+03 -0.34438976726E+03 -0.44799018977E+03  0.59192868266E+03  0.12699999809E+01 0. -1.
       -4    1    3    3    0  502 -0.17629075568E+03  0.34438976726E+03  0.46426578820E+03  0.60434019999E+03  0.12699999809E+01 0.  1.
</event>
<event>
 5   0  0.9070772E-04  0.1194457E+04  0.7818609E-02  0.9117722E-01
        2   -1    0    0  501    0  0.00000000000E+00  0.00000000000E+00  0.89654924615E+03  0.89654924615E+03  0.25500000920E-02 0.  1.
       -2   -1    0    0    0  501  0.00000000000E+00  0.00000000000E+00 -0.39783879784E+03  0.39783879785E+03  0.25500000920E-02 0. -1.
    10030    2    1    2    0    0  0.00000000000E+00  0.00000000000E+00  0.49871044831E+03  0.12943880440E+04  0.11944573233E+04 0.  0.
        4    1    3    3  502    0 -0.24209687735E+03  0.48091052201E+03 -0.30713517390E+02  0.53928727155E+03  0.12699999809E+01 0. -1.
       -4    1    3    3    0  502  0.24209687735E+03 -0.48091052201E+03  0.52942396570E+03  0.75510077245E+03  0.12699999809E+01 0.  1.
</event>
<event>
 5   0  0.5157631E-04  0.1190715E+04  0.7818609E-02  0.9121023E-01
        1   -1    0    0  501    0  0.00000000000E+00  0.00000000000E+00  0.52658487673E+03  0.52658487676E+03  0.50400001928E-02 0. -1.
       -1   -1    0    0    0  501  0.00000000000E+00  0.00000000000E+00 -0.67311192817E+03  0.67311192819E+03  0.50400001928E-02 0.  1.
    10030    2    1    2    0    0  0.00000000000E+00  0.00000000000E+00 -0.14652705144E+03  0.11996968049E+04  0.11907150150E+04 0.  0.
        5    1    3    3  502    0 -0.10345150205E+03 -0.44371552671E+03  0.31282774762E+03  0.55269247471E+03  0.46999998093E+01 0. -1.
       -5    1    3    3    0  502  0.10345150205E+03  0.44371552671E+03 -0.45935479906E+03  0.64700433023E+03  0.46999998093E+01 0.  1.
</event>
<event>
 5   0  0.9410666E-04  0.1201813E+04  0.7818609E-02  0.9111271E-01
        2   -1    0    0  501    0  0.00000000000E+00  0.00000000000E+00  0.92204419775E+03  0.92204419775E+03  0.25500000920E-02 0. -1.
       -2   -1    0    0    0  501  0.00000000000E+00  0.00000000000E+00 -0.39161756150E+03  0.39161756150E+03  0.25500000920E-02 0.  1.
    10030    2    1    2    0    0  0.00000000000E+00  0.00000000000E+00  0.53042663625E+03  0.13136617593E+04  0.12018131308E+04 0.  0.
        2    1    3    3  502    0 -0.23357329173E+03  0.46959107986E+02  0.86821274338E+03  0.90030828509E+03  0.25500000920E-02 0. -1.
       -2    1    3    3    0  502  0.23357329173E+03 -0.46959107986E+02 -0.33778610713E+03  0.41335347417E+03  0.25500000920E-02 0.  1.
</event>
<event>
 5   0  0.5157631E-04  0.1205482E+04  0.7818609E-02  0.9108072E-01
       -1   -1    0    0    0  501  0.00000000000E+00  0.00000000000E+00  0.50306024595E+03  0.50306024597E+03  0.50400001928E-02 0.  1.
        1   -1    0    0  501    0  0.00000000000E+00  0.00000000000E+00 -0.72217301880E+03  0.72217301882E+03  0.50400001928E-02 0. -1.
    10030    2    1    2    0    0  0.00000000000E+00  0.00000000000E+00 -0.21911277286E+03  0.12252332648E+04  0.12054817070E+04 0.  0.
        5    1    3    3  502    0  0.35071218048E+03 -0.19302123755E+03 -0.56751439393E+03  0.69451487313E+03  0.46999998093E+01 0. -1.
       -5    1    3    3    0  502 -0.35071218048E+03  0.19302123755E+03  0.34840162107E+03  0.53071839166E+03  0.46999998093E+01 0.  1.
</event>
<event>
 5   0  0.9298693E-04  0.1194486E+04  0.7818609E-02  0.9117697E-01
        2   -1    0    0  501    0  0.00000000000E+00  0.00000000000E+00  0.20175299267E+04  0.20175299267E+04  0.25500000920E-02 0. -1.
       -2   -1    0    0    0  501  0.00000000000E+00  0.00000000000E+00 -0.17679994486E+03  0.17679994487E+03  0.25500000920E-02 0.  1.
    10030    2    1    2    0    0  0.00000000000E+00  0.00000000000E+00  0.18407299818E+04  0.21943298716E+04  0.11944859644E+04 0.  0.
        1    1    3    3  502    0 -0.22532015328E+03  0.51317414244E+03  0.12994489973E+04  0.14151623824E+04  0.50400001928E-02 0. -1.
       -1    1    3    3    0  502  0.22532015328E+03 -0.51317414244E+03  0.54128098457E+03  0.77916748920E+03  0.50400001928E-02 0.  1.
</event>
<event>
 5   0  0.9070772E-04  0.1245009E+04  0.7818609E-02  0.9074348E-01
       -2   -1    0    0    0  501  0.00000000000E+00  0.00000000000E+00  0.13129614723E+04  0.13129614723E+04  0.25500000920E-02 0. -1.
        2   -1    0    0  501    0  0.00000000000E+00  0.00000000000E+00 -0.29514313340E+03  0.29514313341E+03  0.25500000920E-02 0.  1.
    10030    2    1    2    0    0  0.00000000000E+00  0.00000000000E+00  0.10178183389E+04  0.16081046058E+04  0.12450085349E+04 0.  0.
        4    1    3    3  502    0  0.25847789759E+03  0.85848482061E+02 -0.21409762330E+03  0.34643930294E+03  0.12699999809E+01 0.  1.
       -4    1    3    3    0  502 -0.25847789759E+03 -0.85848482061E+02  0.12319159622E+04  0.12616653028E+04  0.12699999809E+01 0. -1.
</event>
<event>
 5   0  0.5157631E-04  0.1203224E+04  0.7818609E-02  0.9110040E-01
        1   -1    0    0  501    0  0.00000000000E+00  0.00000000000E+00  0.32899764866E+03  0.32899764870E+03  0.50400001928E-02 0.  1.
       -1   -1    0    0    0  501  0.00000000000E+00  0.00000000000E+00 -0.11001194331E+04  0.11001194331E+04  0.50400001928E-02 0. -1.
    10030    2    1    2    0    0  0.00000000000E+00  0.00000000000E+00 -0.77112178445E+03  0.14291170818E+04  0.12032235150E+04 0.  0.
        5    1    3    3  502    0  0.30221724405E+03  0.35047070961E+02 -0.10019867404E+04  0.10471690779E+04  0.46999998093E+01 0. -1.
       -5    1    3    3    0  502 -0.30221724405E+03 -0.35047070961E+02  0.23086495597E+03  0.38194800390E+03  0.46999998093E+01 0.  1.
</event>
<event>
 5   0  0.9070772E-04  0.1201355E+04  0.7818609E-02  0.9111672E-01
       -2   -1    0    0    0  501  0.00000000000E+00  0.00000000000E+00  0.20508993977E+03  0.20508993979E+03  0.25500000920E-02 0.  1.
        2   -1    0    0  501    0  0.00000000000E+00  0.00000000000E+00 -0.17592927968E+04  0.17592927968E+04  0.25500000920E-02 0. -1.
    10030    2    1    2    0    0  0.00000000000E+00  0.00000000000E+00 -0.15542028570E+04  0.19643827366E+04  0.12013546583E+04 0.  0.
        4    1    3    3  502    0 -0.98218596221E+02  0.94896274976E+02  0.17936369512E+03  0.22544432500E+03  0.12699999809E+01 0.  1.
       -4    1    3    3    0  502  0.98218596221E+02 -0.94896274976E+02 -0.17335665521E+04  0.17389384116E+04  0.12699999809E+01 0. -1.
</event>
<event>
 5   0  0.9145224E-04  0.1191260E+04  0.7818609E-02  0.9120542E-01
        2   -1    0    0  501    0  0.00000000000E+00  0.00000000000E+00  0.10274885180E+04  0.10274885180E+04  0.25500000920E-02 0. -1.
       -2   -1    0    0    0  501  0.00000000000E+00  0.00000000000E+00 -0.34528350173E+03  0.34528350174E+03  0.25500000920E-02 0.  1.
    10030    2    1    2    0    0  0.00000000000E+00  0.00000000000E+00  0.68220501630E+03  0.13727720198E+04  0.11912595578E+04 0.  0.
        5    1    3    3  502    0 -0.17986114123E+03 -0.52216876622E+03  0.59811592430E+03  0.81410994309E+03  0.46999998093E+01 0. -1.
       -5    1    3    3    0  502  0.17986114123E+03  0.52216876622E+03  0.84089091999E+02  0.55866207669E+03  0.46999998093E+01 0.  1.
</event>
<event>
 5   0  0.9298693E-04  0.1196061E+04  0.7818609E-02  0.9116312E-01
        2   -1    0    0  501    0  0.00000000000E+00  0.00000000000E+00  0.11762758952E+04  0.11762758952E+04  0.25500000920E-02 0. -1.
       -2   -1    0    0    0  501  0.00000000000E+00  0.00000000000E+00 -0.30404452470E+03  0.30404452471E+03  0.25500000920E-02 0.  1.
    10030    2    1    2    0    0  0.00000000000E+00  0.00000000000E+00  0.87223137052E+03  0.14803204199E+04  0.11960606096E+04 0.  0.
        1    1    3    3  502    0  0.45367343226E+03  0.32982539713E+03  0.69287004945E+03  0.89144449136E+03  0.50400001928E-02 0. -1.
       -1    1    3    3    0  502 -0.45367343226E+03 -0.32982539713E+03  0.17936132107E+03  0.58887592857E+03  0.50400001928E-02 0.  1.
</event>
<event>
 5   0  0.5447074E-04  0.1199168E+04  0.7818609E-02  0.9113585E-01
       -1   -1    0    0    0  501  0.00000000000E+00  0.00000000000E+00  0.18412267855E+03  0.18412267862E+03  0.50400001928E-02 0. -1.
        1   -1    0    0  501    0  0.00000000000E+00  0.00000000000E+00 -0.19525075347E+04  0.19525075347E+04  0.50400001928E-02 0.  1.
    10030    2    1    2    0    0  0.00000000000E+00  0.00000000000E+00 -0.17683848562E+04  0.21366302134E+04  0.11991679070E+04 0.  0.
        4    1    3    3  502    0  0.12899141080E+03 -0.51758924835E+03 -0.13720236957E+04  0.14720693083E+04  0.12699999809E+01 0.  1.
       -4    1    3    3    0  502 -0.12899141080E+03  0.51758924835E+03 -0.39636116050E+03  0.66456090505E+03  0.12699999809E+01 0. -1.
</event>
<event>
 5   0  0.9298693E-04  0.1196630E+04  0.7818609E-02  0.9115812E-01
       -2   -1    0    0    0  501  0.00000000000E+00  0.00000000000E+00  0.25178902866E+03  0.25178902867E+03  0.25500000920E-02 0.  1.
        2   -1    0    0  501    0  0.00000000000E+00  0.00000000000E+00 -0.14217482311E+04  0.14217482311E+04  0.25500000920E-02 0. -1.
    10030    2    1    2    0    0  0.00000000000E+00  0.00000000000E+00 -0.11699592025E+04  0.16735372598E+04  0.11966296104E+04 0.  0.
        1    1    3    3  502    0 -0.60775536177E+02 -0.49119239208E+03 -0.10551415511E+04  0.11654558441E+04  0.50400001928E-02 0. -1.
       -1    1    3    3    0  502  0.60775536177E+02  0.49119239208E+03 -0.11481765139E+03  0.50808141565E+03  0.50400001928E-02 0.  1.
</event>
<event>
 5   0  0.5052959E-04  0.1197378E+04  0.7818609E-02  0.9115155E-01
       -1   -1    0    0    0  501  0.00000000000E+00  0.00000000000E+00  0.26719974203E+03  0.26719974207E+03  0.50400001928E-02 0.  1.
        1   -1    0    0  501    0  0.00000000000E+00  0.00000000000E+00 -0.13414253827E+04  0.13414253827E+04  0.50400001928E-02 0. -1.
    10030    2    1    2    0    0  0.00000000000E+00  0.00000000000E+00 -0.10742256407E+04  0.16086251248E+04  0.11973779959E+04 0.  0.
        2    1    3    3  502    0  0.36568178207E+03  0.16072257482E+03 -0.11362305161E+04  0.12043980643E+04  0.25500000920E-02 0. -1.
       -2    1    3    3    0  502 -0.36568178207E+03 -0.16072257482E+03  0.62004875390E+02  0.40422706042E+03  0.25500000920E-02 0.  1.
</event>
<event>
 5   0  0.9050363E-04  0.1204929E+04  0.7818609E-02  0.9108553E-01
        2   -1    0    0  501    0  0.00000000000E+00  0.00000000000E+00  0.72296108915E+03  0.72296108916E+03  0.25500000920E-02 0. -1.
       -2   -1    0    0    0  501  0.00000000000E+00  0.00000000000E+00 -0.50205090810E+03  0.50205090810E+03  0.25500000920E-02 0.  1.
    10030    2    1    2    0    0  0.00000000000E+00  0.00000000000E+00  0.22091018106E+03  0.12250119973E+04  0.12049286640E+04 0.  0.
        3    1    3    3  502    0  0.27858178660E+03 -0.53020459797E+03  0.44265937864E+02  0.60056990516E+03  0.10100000352E+00 0. -1.
       -3    1    3    3    0  502 -0.27858178660E+03  0.53020459797E+03  0.17664424319E+03  0.62444209210E+03  0.10100000352E+00 0.  1.
</event>
<event>
 5   0  0.5447074E-04  0.1144583E+04  0.7818609E-02  0.9162795E-01
        1   -1    0    0  501    0  0.00000000000E+00  0.00000000000E+00  0.96453138439E+03  0.96453138441E+03  0.50400001928E-02 0. -1.
       -1   -1    0    0    0  501  0.00000000000E+00  0.00000000000E+00 -0.33956159150E+03  0.33956159154E+03  0.50400001928E-02 0.  1.
    10030    2    1    2    0    0  0.00000000000E+00  0.00000000000E+00  0.62496979290E+03  0.13040929759E+04  0.11445834386E+04 0.  0.
        4    1    3    3  502    0 -0.52226497671E+03 -0.21885032273E+03  0.21811704072E+03  0.60682190633E+03  0.12699999809E+01 0.  1.
       -4    1    3    3    0  502  0.52226497671E+03  0.21885032273E+03  0.40685275218E+03  0.69727106961E+03  0.12699999809E+01 0. -1.
</event>
<event>
 5   0  0.5001586E-04  0.1200719E+04  0.7818609E-02  0.9112227E-01
       -1   -1    0    0    0  501  0.00000000000E+00  0.00000000000E+00  0.77146585202E+03  0.77146585204E+03  0.50400001928E-02 0.  1.
        1   -1    0    0  501    0  0.00000000000E+00  0.00000000000E+00 -0.46720371196E+03  0.46720371199E+03  0.50400001928E-02 0. -1.
    10030    2    1    2    0    0  0.00000000000E+00  0.00000000000E+00  0.30426214006E+03  0.12386695640E+04  0.12007193007E+04 0.  0.
        1    1    3    3  502    0 -0.38830243141E+02  0.33079874115E+03 -0.36315199370E+03  0.49276258531E+03  0.50400001928E-02 0. -1.
       -1    1    3    3    0  502  0.38830243141E+02 -0.33079874115E+03  0.66741413376E+03  0.74590697872E+03  0.50400001928E-02 0.  1.
</event>
<event>
 5   0  0.9050363E-04  0.1196704E+04  0.7818609E-02  0.9115747E-01
       -2   -1    0    0    0  501  0.00000000000E+00  0.00000000000E+00  0.50205740263E+03  0.50205740264E+03  0.25500000920E-02 0.  1.
        2   -1    0    0  501    0  0.00000000000E+00  0.00000000000E+00 -0.71311564999E+03  0.71311564999E+03  0.25500000920E-02 0. -1.
    10030    2    1    2    0    0  0.00000000000E+00  0.00000000000E+00 -0.21105824736E+03  0.12151730526E+04  0.11967037913E+04 0.  0.
        3    1    3    3  502    0 -0.56279321000E+02  0.31028591570E+03  0.41082678971E+03  0.51790286039E+03  0.10100000352E+00 0.  1.
       -3    1    3    3    0  502  0.56279321000E+02 -0.31028591570E+03 -0.62188503707E+03  0.69727019224E+03  0.10100000352E+00 0. -1.
</event>
<event>
 5   0  0.9070772E-04  0.1198413E+04  0.7818609E-02  0.9114246E-01
       -2   -1    0    0    0  501  0.00000000000E+00  0.00000000000E+00  0.95561687624E+03  0.95561687625E+03  0.25500000920E-02 0.  1.
        2   -1    0    0  501    0  0.00000000000E+00  0.00000000000E+00 -0.37572445279E+03  0.37572445280E+03  0.25500000920E-02 0. -1.
    10030    2    1    2    0    0  0.00000000000E+00  0.00000000000E+00  0.57989242345E+03  0.13313413290E+04  0.11984133309E+04 0.  0.
        4    1    3    3  502    0 -0.12050995597E+03 -0.58426558585E+03  0.22751596043E+03  0.63847791618E+03  0.12699999809E+01 0. -1.
       -4    1    3    3    0  502  0.12050995597E+03  0.58426558585E+03  0.35237646302E+03  0.69286341287E+03  0.12699999809E+01 0.  1.
</event>
<event>
 5   0  0.5157631E-04  0.1203707E+04  0.7818609E-02  0.9109618E-01
        1   -1    0    0  501    0  0.00000000000E+00  0.00000000000E+00  0.12208527874E+04  0.12208527874E+04  0.50400001928E-02 0.  1.
       -1   -1    0    0    0  501  0.00000000000E+00  0.00000000000E+00 -0.29670072640E+03  0.29670072644E+03  0.50400001928E-02 0. -1.
    10030    2    1    2    0    0  0.00000000000E+00  0.00000000000E+00  0.92415206096E+03  0.15175535138E+04  0.12037074543E+04 0.  0.
        5    1    3    3  502    0  0.59802817002E+03 -0.38209371811E+02  0.53236310897E+03  0.80157982636E+03  0.46999998093E+01 0.  1.
       -5    1    3    3    0  502 -0.59802817002E+03  0.38209371811E+02  0.39178895199E+03  0.71597368746E+03  0.46999998093E+01 0. -1.
</event>
<event>
 5   0  0.9298693E-04  0.1192959E+04  0.7818609E-02  0.9119042E-01
       -2   -1    0    0    0  501  0.00000000000E+00  0.00000000000E+00  0.64488957987E+03  0.64488957987E+03  0.25500000920E-02 0. -1.
        2   -1    0    0  501    0  0.00000000000E+00  0.00000000000E+00 -0.55170366952E+03  0.55170366953E+03  0.25500000920E-02 0.  1.
    10030    2    1    2    0    0  0.00000000000E+00  0.00000000000E+00  0.93185910348E+02  0.11965932494E+04  0.11929592577E+04 0.  0.
        1    1    3    3  502    0  0.22138095928E+03  0.15843516287E+03  0.57894191806E+03  0.63975383897E+03  0.50400001928E-02 0. -1.
       -1    1    3    3    0  502 -0.22138095928E+03 -0.15843516287E+03 -0.48575600771E+03  0.55683941043E+03  0.50400001928E-02 0.  1.
</event>
<event>
 5   0  0.9050363E-04  0.1197698E+04  0.7818609E-02  0.9114874E-01
        2   -1    0    0  501    0  0.00000000000E+00  0.00000000000E+00  0.95529694375E+03  0.95529694375E+03  0.25500000920E-02 0. -1.
       -2   -1    0    0    0  501  0.00000000000E+00  0.00000000000E+00 -0.37540189184E+03  0.37540189185E+03  0.25500000920E-02 0.  1.
    10030    2    1    2    0    0  0.00000000000E+00  0.00000000000E+00  0.57989505191E+03  0.13306988356E+04  0.11976982591E+04 0.  0.
        3    1    3    3  502    0 -0.57731528969E+02 -0.32203262216E+03 -0.26733115166E+03  0.42249721185E+03  0.10100000352E+00 0.  1.
       -3    1    3    3    0  502  0.57731528969E+02  0.32203262216E+03  0.84722620357E+03  0.90820162375E+03  0.10100000352E+00 0. -1.
</event>
<event>
 5   0  0.5001586E-04  0.1204616E+04  0.7818609E-02  0.9108826E-01
       -1   -1    0    0    0  501  0.00000000000E+00  0.00000000000E+00  0.75667003152E+03  0.75667003154E+03  0.50400001928E-02 0. -1.
        1   -1    0    0  501    0  0.00000000000E+00  0.00000000000E+00 -0.47943607181E+03  0.47943607183E+03  0.50400001928E-02 0.  1.
    10030    2    1    2    0    0  0.00000000000E+00  0.00000000000E+00  0.27723395971E+03  0.12361061034E+04  0.12046159680E+04 0.  0.
        1    1    3    3  502    0 -0.39657572463E+03  0.18772456546E+03 -0.28479789866E+03  0.52308953435E+03  0.50400001928E-02 0.  1.
       -1    1    3    3    0  502  0.39657572463E+03 -0.18772456546E+03  0.56203185837E+03  0.71301656902E+03  0.50400001928E-02 0. -1.
</event>
<event>
 5   0  0.5001586E-04  0.1199497E+04  0.7818609E-02  0.9113297E-01
       -1   -1    0    0    0  501  0.00000000000E+00  0.00000000000E+00  0.63921377051E+03  0.63921377053E+03  0.50400001928E-02 0.  1.
        1   -1    0    0  501    0  0.00000000000E+00  0.00000000000E+00 -0.56271998239E+03  0.56271998241E+03  0.50400001928E-02 0. -1.
    10030    2    1    2    0    0  0.00000000000E+00  0.00000000000E+00  0.76493788121E+02  0.12019337529E+04  0.11994971642E+04 0.  0.
        1    1    3    3  502    0  0.87802751929E+02  0.32622657416E+03 -0.45830514553E+03  0.56936517928E+03  0.50400001928E-02 0. -1.
       -1    1    3    3    0  502 -0.87802751929E+02 -0.32622657416E+03  0.53479893365E+03  0.63256857366E+03  0.50400001928E-02 0.  1.
</event>
<event>
 5   0  0.5003507E-04  0.1203175E+04  0.7818609E-02  0.9110082E-01
        1   -1    0    0  501    0  0.00000000000E+00  0.00000000000E+00  0.13721918379E+04  0.13721918379E+04  0.50400001928E-02 0. -1.
       -1   -1    0    0    0  501  0.00000000000E+00  0.00000000000E+00 -0.26374394756E+03  0.26374394761E+03  0.50400001928E-02 0.  1.
    10030    2    1    2    0    0  0.00000000000E+00  0.00000000000E+00  0.11084478903E+04  0.16359357855E+04  0.12031746210E+04 0.  0.
        3    1    3    3  502    0  0.48918107970E+03 -0.30528240460E+03  0.78740778060E+03  0.97596439404E+03  0.10100000352E+00 0. -1.
       -3    1    3    3    0  502 -0.48918107970E+03  0.30528240460E+03  0.32104010973E+03  0.65997139146E+03  0.10100000352E+00 0.  1.
</event>
<event>
 5   0  0.5157631E-04  0.1202547E+04  0.7818609E-02  0.9110630E-01
       -1   -1    0    0    0  501  0.00000000000E+00  0.00000000000E+00  0.54611409411E+03  0.54611409413E+03  0.50400001928E-02 0.  1.
        1   -1    0    0  501    0  0.00000000000E+00  0.00000000000E+00 -0.66200443962E+03  0.66200443964E+03  0.50400001928E-02 0. -1.
    10030    2    1    2    0    0  0.00000000000E+00  0.00000000000E+00 -0.11589034552E+03  0.12081185338E+04  0.12025472213E+04 0.  0.
        5    1    3    3  502    0 -0.41492704923E+03  0.15369610201E+03 -0.46691952340E+03  0.64329066470E+03  0.46999998093E+01 0. -1.
       -5    1    3    3    0  502  0.41492704923E+03 -0.15369610201E+03  0.35102917789E+03  0.56482786907E+03  0.46999998093E+01 0.  1.
</event>
<event>
 5   0  0.5003507E-04  0.1200564E+04  0.7818609E-02  0.9112363E-01
        1   -1    0    0  501    0  0.00000000000E+00  0.00000000000E+00  0.13993608441E+04  0.13993608441E+04  0.50400001928E-02 0. -1.
       -1   -1    0    0    0  501  0.00000000000E+00  0.00000000000E+00 -0.25750225710E+03  0.25750225715E+03  0.50400001928E-02 0.  1.
    10030    2    1    2    0    0  0.00000000000E+00  0.00000000000E+00  0.11418585870E+04  0.16568631012E+04  0.12005641605E+04 0.  0.
        3    1    3    3  502    0 -0.14763308015E+03  0.25632609478E+03  0.12917964684E+04  0.13252308173E+04  0.10100000352E+00 0. -1.
       -3    1    3    3    0  502  0.14763308015E+03 -0.25632609478E+03 -0.14993788144E+03  0.33163228389E+03  0.10100000352E+00 0.  1.
</event>
<event>
 5   0  0.9070772E-04  0.1200609E+04  0.7818609E-02  0.9112324E-01
       -2   -1    0    0    0  501  0.00000000000E+00  0.00000000000E+00  0.41450493412E+03  0.41450493412E+03  0.25500000920E-02 0. -1.
        2   -1    0    0  501    0  0.00000000000E+00  0.00000000000E+00 -0.86938730763E+03  0.86938730763E+03  0.25500000920E-02 0.  1.
    10030    2    1    2    0    0  0.00000000000E+00  0.00000000000E+00 -0.45488237351E+03  0.12838922418E+04  0.12006087267E+04 0.  0.
        4    1    3    3  502    0  0.31871972828E+03  0.45255866845E+03 -0.47587559510E+03  0.72996630641E+03  0.12699999809E+01 0.  1.
       -4    1    3    3    0  502 -0.31871972828E+03 -0.45255866845E+03  0.20993221590E+02  0.55392593534E+03  0.12699999809E+01 0. -1.
</event>
<event>
 5   0  0.9298693E-04  0.1198610E+04  0.7818609E-02  0.9114074E-01
        2   -1    0    0  501    0  0.00000000000E+00  0.00000000000E+00  0.10738954762E+04  0.10738954762E+04  0.25500000920E-02 0. -1.
       -2   -1    0    0    0  501  0.00000000000E+00  0.00000000000E+00 -0.33445215241E+03  0.33445215241E+03  0.25500000920E-02 0.  1.
    10030    2    1    2    0    0  0.00000000000E+00  0.00000000000E+00  0.73944332380E+03  0.14083476286E+04  0.11986102844E+04 0.  0.
        1    1    3    3  502    0  0.10353480904E+03 -0.40622121897E+03  0.87295435430E+03  0.96839270967E+03  0.50400001928E-02 0. -1.
       -1    1    3    3    0  502 -0.10353480904E+03  0.40622121897E+03 -0.13351103050E+03  0.43995491896E+03  0.50400001928E-02 0.  1.
</event>
<event>
 5   0  0.5052959E-04  0.1196347E+04  0.7818609E-02  0.9116060E-01
        1   -1    0    0  501    0  0.00000000000E+00  0.00000000000E+00  0.57462064622E+03  0.57462064624E+03  0.50400001928E-02 0.  1.
       -1   -1    0    0    0  501  0.00000000000E+00  0.00000000000E+00 -0.62269136694E+03  0.62269136696E+03  0.50400001928E-02 0. -1.
    10030    2    1    2    0    0  0.00000000000E+00  0.00000000000E+00 -0.48070720724E+02  0.11973120132E+04  0.11963466315E+04 0.  0.
        2    1    3    3  502    0  0.22673444798E+03  0.49263365421E+02  0.52774965764E+03  0.57650246332E+03  0.25500000920E-02 0.  1.
       -2    1    3    3    0  502 -0.22673444798E+03 -0.49263365421E+02 -0.57582037836E+03  0.62080954988E+03  0.25500000920E-02 0. -1.
</event>
<event>
 5   0  0.9145224E-04  0.1200496E+04  0.7818609E-02  0.9112422E-01
        2   -1    0    0  501    0  0.00000000000E+00  0.00000000000E+00  0.67463066578E+03  0.67463066579E+03  0.25500000920E-02 0. -1.
       -2   -1    0    0    0  501  0.00000000000E+00  0.00000000000E+00 -0.53406680930E+03  0.53406680930E+03  0.25500000920E-02 0.  1.
    10030    2    1    2    0    0  0.00000000000E+00  0.00000000000E+00  0.14056385648E+03  0.12086974751E+04  0.12004963093E+04 0.  0.
        5    1    3    3  502    0  0.12043209231E+03  0.29533565030E+03  0.58223244218E+03  0.66388533793E+03  0.46999998093E+01 0. -1.
       -5    1    3    3    0  502 -0.12043209231E+03 -0.29533565030E+03 -0.44166858570E+03  0.54481213715E+03  0.46999998093E+01 0.  1.
</event>
<event>
 5   0  0.5052959E-04  0.1200406E+04  0.7818609E-02  0.9112501E-01
        1   -1    0    0  501    0  0.00000000000E+00  0.00000000000E+00  0.10268758030E+04  0.10268758030E+04  0.50400001928E-02 0.  1.
       -1   -1    0    0    0  501  0.00000000000E+00  0.00000000000E+00 -0.35081539736E+03  0.35081539740E+03  0.50400001928E-02 0. -1.
    10030    2    1    2    0    0  0.00000000000E+00  0.00000000000E+00  0.67606040561E+03  0.13776912004E+04  0.12004063360E+04 0.  0.
        2    1    3    3  502    0  0.29994673172E+03 -0.51895624707E+03  0.37359397086E+03  0.70629744677E+03  0.25500000920E-02 0. -1.
       -2    1    3    3    0  502 -0.29994673172E+03  0.51895624707E+03  0.30246643475E+03  0.67139375362E+03  0.25500000920E-02 0.  1.
</event>
<event>
 5   0  0.9410666E-04  0.1198203E+04  0.7818609E-02  0.9114431E-01
        2   -1    0    0  501    0  0.00000000000E+00  0.00000000000E+00  0.59537720903E+03  0.59537720904E+03  0.25500000920E-02 0. -1.
       -2   -1    0    0    0  501  0.00000000000E+00  0.00000000000E+00 -0.60284934591E+03  0.60284934591E+03  0.25500000920E-02 0.  1.
    10030    2    1    2    0    0  0.00000000000E+00  0.00000000000E+00 -0.74721368768E+01  0.11982265549E+04  0.11982032566E+04 0.  0.
        2    1    3    3  502    0  0.14801692485E+03 -0.56116425877E+03 -0.15242798298E+03  0.60004051977E+03  0.25500000920E-02 0.  1.
       -2    1    3    3    0  502 -0.14801692485E+03  0.56116425877E+03  0.14495584610E+03  0.59818603518E+03  0.25500000920E-02 0. -1.
</event>
<event>
 5   0  0.9050363E-04  0.1199431E+04  0.7818609E-02  0.9113355E-01
        2   -1    0    0  501    0  0.00000000000E+00  0.00000000000E+00  0.85796261898E+03  0.85796261898E+03  0.25500000920E-02 0. -1.
       -2   -1    0    0    0  501  0.00000000000E+00  0.00000000000E+00 -0.41920078755E+03  0.41920078756E+03  0.25500000920E-02 0.  1.
    10030    2    1    2    0    0  0.00000000000E+00  0.00000000000E+00  0.43876183142E+03  0.12771634065E+04  0.11994308743E+04 0.  0.
        3    1    3    3  502    0 -0.30734159612E+03 -0.23475424091E+03  0.70744193730E+03  0.80625214120E+03  0.10100000352E+00 0. -1.
       -3    1    3    3    0  502  0.30734159612E+03  0.23475424091E+03 -0.26868010588E+03  0.47091126535E+03  0.10100000352E+00 0.  1.
</event>
<event>
 5   0  0.3453625E-04  0.1199415E+04  0.7818609E-02  0.9113369E-01
        3   -1    0    0  501    0  0.00000000000E+00  0.00000000000E+00  0.40763719378E+03  0.40763720629E+03  0.10100000352E+00 0.  1.
       -3   -1    0    0    0  501  0.00000000000E+00  0.00000000000E+00 -0.88227768666E+03  0.88227769245E+03  0.10100000352E+00 0. -1.
    10030    2    1    2    0    0  0.00000000000E+00  0.00000000000E+00 -0.47464049289E+03  0.12899148987E+04  0.11994152110E+04 0.  0.
        3    1    3    3  502    0  0.12037665247E+03 -0.14287050527E+03  0.37554341017E+03  0.41944651967E+03  0.10100000352E+00 0.  1.
       -3    1    3    3    0  502 -0.12037665247E+03  0.14287050527E+03 -0.85018390306E+03  0.87046837907E+03  0.10100000352E+00 0. -1.
</event>
<event>
 5   0  0.9298693E-04  0.1228495E+04  0.7818609E-02  0.9088274E-01
        2   -1    0    0  501    0  0.00000000000E+00  0.00000000000E+00  0.35915875053E+03  0.35915875054E+03  0.25500000920E-02 0. -1.
       -2   -1    0    0    0  501  0.00000000000E+00  0.00000000000E+00 -0.10505107697E+04  0.10505107698E+04  0.25500000920E-02 0.  1.
    10030    2    1    2    0    0  0.00000000000E+00  0.00000000000E+00 -0.69135201922E+03  0.14096695203E+04  0.12284952348E+04 0.  0.
        1    1    3    3  502    0 -0.13607697938E+03  0.37161457037E+03  0.19337644784E+03  0.44046428213E+03  0.50400001928E-02 0. -1.
       -1    1    3    3    0  502  0.13607697938E+03 -0.37161457037E+03 -0.88472846706E+03  0.96920523816E+03  0.50400001928E-02 0.  1.
</event>
<event>
 5   0  0.9070772E-04  0.1199918E+04  0.7818609E-02  0.9112928E-01
        2   -1    0    0  501    0  0.00000000000E+00  0.00000000000E+00  0.10652636065E+04  0.10652636065E+04  0.25500000920E-02 0. -1.
       -2   -1    0    0    0  501  0.00000000000E+00  0.00000000000E+00 -0.33789839719E+03  0.33789839720E+03  0.25500000920E-02 0.  1.
    10030    2    1    2    0    0  0.00000000000E+00  0.00000000000E+00  0.72736520936E+03  0.14031620037E+04  0.11999181059E+04 0.  0.
        4    1    3    3  502    0 -0.54514509041E+03  0.64951571059E+02  0.80732455235E+02  0.55490649520E+03  0.12699999809E+01 0.  1.
       -4    1    3    3    0  502  0.54514509041E+03 -0.64951571059E+02  0.64663275412E+03  0.84825550855E+03  0.12699999809E+01 0. -1.
</event>
<event>
 5   0  0.5157631E-04  0.1201059E+04  0.7818609E-02  0.9111930E-01
        1   -1    0    0  501    0  0.00000000000E+00  0.00000000000E+00  0.18576472391E+04  0.18576472391E+04  0.50400001928E-02 0.  1.
       -1   -1    0    0    0  501  0.00000000000E+00  0.00000000000E+00 -0.19413574362E+03  0.19413574369E+03  0.50400001928E-02 0. -1.
    10030    2    1    2    0    0  0.00000000000E+00  0.00000000000E+00  0.16635114955E+04  0.20517829828E+04  0.12010590797E+04 0.  0.
        5    1    3    3  502    0 -0.21248866873E+03 -0.49751748399E+03  0.12770275690E+04  0.13869017929E+04  0.46999998093E+01 0.  1.
       -5    1    3    3    0  502  0.21248866873E+03  0.49751748399E+03  0.38648392646E+03  0.66488118986E+03  0.46999998093E+01 0. -1.
</event>
<event>
 5   0  0.5447074E-04  0.1203380E+04  0.7818609E-02  0.9109903E-01
       -1   -1    0    0    0  501  0.00000000000E+00  0.00000000000E+00  0.41004018819E+03  0.41004018822E+03  0.50400001928E-02 0.  1.
        1   -1    0    0  501    0  0.00000000000E+00  0.00000000000E+00 -0.88291615271E+03  0.88291615272E+03  0.50400001928E-02 0. -1.
    10030    2    1    2    0    0  0.00000000000E+00  0.00000000000E+00 -0.47287596452E+03  0.12929563409E+04  0.12033804144E+04 0.  0.
        4    1    3    3  502    0  0.13731415839E+03  0.41892946610E+03 -0.67639650357E+03  0.80738523556E+03  0.12699999809E+01 0. -1.
       -4    1    3    3    0  502 -0.13731415839E+03 -0.41892946610E+03  0.20352053905E+03  0.48557110538E+03  0.12699999809E+01 0.  1.
</event>
<event>
 5   0  0.5157631E-04  0.1196637E+04  0.7818609E-02  0.9115805E-01
       -1   -1    0    0    0  501  0.00000000000E+00  0.00000000000E+00  0.19918275090E+03  0.19918275097E+03  0.50400001928E-02 0. -1.
        1   -1    0    0  501    0  0.00000000000E+00  0.00000000000E+00 -0.17972701928E+04  0.17972701928E+04  0.50400001928E-02 0.  1.
    10030    2    1    2    0    0  0.00000000000E+00  0.00000000000E+00 -0.15980874419E+04  0.19964529437E+04  0.11966373238E+04 0.  0.
        5    1    3    3  502    0 -0.40707660668E+03 -0.20736251362E+03 -0.15449252052E+03  0.48228684893E+03  0.46999998093E+01 0.  1.
       -5    1    3    3    0  502  0.40707660668E+03  0.20736251362E+03 -0.14435949213E+04  0.15141660948E+04  0.46999998093E+01 0. -1.
</event>
<event>
 5   0  0.9050363E-04  0.1206189E+04  0.7818609E-02  0.9107457E-01
       -2   -1    0    0    0  501  0.00000000000E+00  0.00000000000E+00  0.35961531314E+03  0.35961531315E+03  0.25500000920E-02 0.  1.
        2   -1    0    0  501    0  0.00000000000E+00  0.00000000000E+00 -0.10114220618E+04  0.10114220618E+04  0.25500000920E-02 0. -1.
    10030    2    1    2    0    0  0.00000000000E+00  0.00000000000E+00 -0.65180674865E+03  0.13710373750E+04  0.12061888102E+04 0.  0.
        3    1    3    3  502    0  0.53121858422E+03  0.25253559717E+03 -0.17444276180E+03  0.61351259107E+03  0.10100000352E+00 0.  1.
       -3    1    3    3    0  502 -0.53121858422E+03 -0.25253559717E+03 -0.47736398686E+03  0.75752478389E+03  0.10100000352E+00 0. -1.
</event>
<event>
 5   0  0.9410666E-04  0.1199290E+04  0.7818609E-02  0.9113478E-01
       -2   -1    0    0    0  501  0.00000000000E+00  0.00000000000E+00  0.35402729635E+03  0.35402729636E+03  0.25500000920E-02 0. -1.
        2   -1    0    0  501    0  0.00000000000E+00  0.00000000000E+00 -0.10156676371E+04  0.10156676371E+04  0.25500000920E-02 0.  1.
    10030    2    1    2    0    0  0.00000000000E+00  0.00000000000E+00 -0.66164034073E+03  0.13696949334E+04  0.11992899025E+04 0.  0.
        2    1    3    3  502    0  0.16345806960E+03  0.55734024483E+03 -0.50109238898E+03  0.76709860600E+03  0.25500000920E-02 0.  1.
       -2    1    3    3    0  502 -0.16345806960E+03 -0.55734024483E+03 -0.16054795175E+03  0.60259632744E+03  0.25500000920E-02 0. -1.
</event>
<event>
 5   0  0.9145224E-04  0.1188119E+04  0.7818609E-02  0.9123320E-01
        2   -1    0    0  501    0  0.00000000000E+00  0.00000000000E+00  0.11021421355E+04  0.11021421355E+04  0.25500000920E-02 0.  1.
       -2   -1    0    0    0  501  0.00000000000E+00  0.00000000000E+00 -0.32020076267E+03  0.32020076268E+03  0.25500000920E-02 0. -1.
    10030    2    1    2    0    0  0.00000000000E+00  0.00000000000E+00  0.78194137284E+03  0.14223428982E+04  0.11881191058E+04 0.  0.
        5    1    3    3  502    0  0.50885670226E+03  0.12219712811E+03  0.72748662906E+03  0.89617306755E+03  0.46999998093E+01 0.  1.
       -5    1    3    3    0  502 -0.50885670226E+03 -0.12219712811E+03  0.54454743780E+02  0.52616983063E+03  0.46999998093E+01 0. -1.
</event>
<event>
 5   0  0.5447074E-04  0.1198926E+04  0.7818609E-02  0.9113797E-01
       -1   -1    0    0    0  501  0.00000000000E+00  0.00000000000E+00  0.45308939910E+03  0.45308939913E+03  0.50400001928E-02 0. -1.
        1   -1    0    0  501    0  0.00000000000E+00  0.00000000000E+00 -0.79312359503E+03  0.79312359504E+03  0.50400001928E-02 0.  1.
    10030    2    1    2    0    0  0.00000000000E+00  0.00000000000E+00 -0.34003419593E+03  0.12462129942E+04  0.11989260079E+04 0.  0.
        4    1    3    3  502    0 -0.44532164695E+03 -0.10533837023E+03 -0.57251943490E+03  0.73293086831E+03  0.12699999809E+01 0.  1.
       -4    1    3    3    0  502  0.44532164695E+03  0.10533837023E+03  0.23248523897E+03  0.51328212586E+03  0.12699999809E+01 0. -1.
</event>
<event>
 5   0  0.5001586E-04  0.1205009E+04  0.7818609E-02  0.9108483E-01
        1   -1    0    0  501    0  0.00000000000E+00  0.00000000000E+00  0.40050078148E+03  0.40050078151E+03  0.50400001928E-02 0.  1.
       -1   -1    0    0    0  501  0.00000000000E+00  0.00000000000E+00 -0.90639487260E+03  0.90639487261E+03  0.50400001928E-02 0. -1.
    10030    2    1    2    0    0  0.00000000000E+00  0.00000000000E+00 -0.50589409112E+03  0.13068956541E+04  0.12050093026E+04 0.  0.
        1    1    3    3  502    0  0.10362230713E+03  0.57244871031E+03 -0.82922075254E+02  0.58763183973E+03  0.50400001928E-02 0.  1.
       -1    1    3    3    0  502 -0.10362230713E+03 -0.57244871031E+03 -0.42297201586E+03  0.71926381440E+03  0.50400001928E-02 0. -1.
</event>
<event>
 5   0  0.9410666E-04  0.1200424E+04  0.7818609E-02  0.9112485E-01
        2   -1    0    0  501    0  0.00000000000E+00  0.00000000000E+00  0.43852279284E+03  0.43852279285E+03  0.25500000920E-02 0. -1.
       -2   -1    0    0    0  501  0.00000000000E+00  0.00000000000E+00 -0.82151878922E+03  0.82151878922E+03  0.25500000920E-02 0.  1.
    10030    2    1    2    0    0  0.00000000000E+00  0.00000000000E+00 -0.38299599638E+03  0.12600415821E+04  0.12004244480E+04 0.  0.
        2    1    3    3  502    0  0.83611777482E+02 -0.16735921879E+03  0.40713660953E+03  0.44806278162E+03  0.25500000920E-02 0. -1.
       -2    1    3    3    0  502 -0.83611777482E+02  0.16735921879E+03 -0.79013260591E+03  0.81197880045E+03  0.25500000920E-02 0.  1.
</event>
<event>
 5   0  0.3453625E-04  0.1202628E+04  0.7818609E-02  0.9110559E-01
       -3   -1    0    0    0  501  0.00000000000E+00  0.00000000000E+00  0.83578515950E+03  0.83578516561E+03  0.10100000352E+00 0.  1.
        3   -1    0    0  501    0  0.00000000000E+00  0.00000000000E+00 -0.43262132650E+03  0.43262133829E+03  0.10100000352E+00 0. -1.
    10030    2    1    2    0    0  0.00000000000E+00  0.00000000000E+00  0.40316383301E+03  0.12684065039E+04  0.12026279487E+04 0.  0.
        1    1    3    3  502    0 -0.30031148437E+03  0.45943532921E+03  0.46059655125E+03  0.71653122222E+03  0.50400001928E-02 0.  1.
       -1    1    3    3    0  502  0.30031148437E+03 -0.45943532921E+03 -0.57432718246E+02  0.55187528167E+03  0.50400001928E-02 0. -1.
</event>
<event>
 5   0  0.5447074E-04  0.1203878E+04  0.7818609E-02  0.9109469E-01
       -1   -1    0    0    0  501  0.00000000000E+00  0.00000000000E+00  0.27414065337E+03  0.27414065341E+03  0.50400001928E-02 0. -1.
        1   -1    0    0  501    0  0.00000000000E+00  0.00000000000E+00 -0.13216957924E+04  0.13216957924E+04  0.50400001928E-02 0.  1.
    10030    2    1    2    0    0  0.00000000000E+00  0.00000000000E+00 -0.10475551390E+04  0.15958364458E+04  0.12038779807E+04 0.  0.
        4    1    3    3  502    0 -0.37776463703E+03  0.34703116747E+03 -0.10628895870E+03  0.52386611632E+03  0.12699999809E+01 0. -1.
       -4    1    3    3    0  502  0.37776463703E+03 -0.34703116747E+03 -0.94126618031E+03  0.10719703295E+04  0.12699999809E+01 0.  1.
</event>
<event>
 5   0  0.9070772E-04  0.1203401E+04  0.7818609E-02  0.9109885E-01
        2   -1    0    0  501    0  0.00000000000E+00  0.00000000000E+00  0.14993494258E+04  0.14993494258E+04  0.25500000920E-02 0.  1.
       -2   -1    0    0    0  501  0.00000000000E+00  0.00000000000E+00 -0.24146686803E+03  0.24146686805E+03  0.25500000920E-02 0. -1.
    10030    2    1    2    0    0  0.00000000000E+00  0.00000000000E+00  0.12578825577E+04  0.17408162938E+04  0.12034005317E+04 0.  0.
        4    1    3    3  502    0 -0.33345684198E+03 -0.88115300370E+02  0.13421567823E+04  0.13857648476E+04  0.12699999809E+01 0.  1.
       -4    1    3    3    0  502  0.33345684198E+03  0.88115300370E+02 -0.84274224588E+02  0.35505144621E+03  0.12699999809E+01 0. -1.
</event>
<event>
 5   0  0.5157631E-04  0.1196330E+04  0.7818609E-02  0.9116075E-01
       -1   -1    0    0    0  501  0.00000000000E+00  0.00000000000E+00  0.57625697353E+03  0.57625697355E+03  0.50400001928E-02 0. -1.
        1   -1    0    0  501    0  0.00000000000E+00  0.00000000000E+00 -0.62090589795E+03  0.62090589797E+03  0.50400001928E-02 0.  1.
    10030    2    1    2    0    0  0.00000000000E+00  0.00000000000E+00 -0.44648924425E+02  0.11971628715E+04  0.11963299773E+04 0.  0.
        5    1    3    3  502    0 -0.38560817721E+01 -0.53805861692E+03 -0.28376737119E+03  0.60833210959E+03  0.46999998093E+01 0.  1.
       -5    1    3    3    0  502  0.38560817721E+01  0.53805861692E+03  0.23911844677E+03  0.58883076193E+03  0.46999998093E+01 0. -1.
</event>
<event>
 5   0  0.9145224E-04  0.1205499E+04  0.7818609E-02  0.9108057E-01
       -2   -1    0    0    0  501  0.00000000000E+00  0.00000000000E+00  0.50457531034E+03  0.50457531035E+03  0.25500000920E-02 0. -1.
        2   -1    0    0  501    0  0.00000000000E+00  0.00000000000E+00 -0.72002544551E+03  0.72002544551E+03  0.25500000920E-02 0.  1.
    10030    2    1    2    0    0  0.00000000000E+00  0.00000000000E+00 -0.21545013517E+03  0.12246007559E+04  0.12054991707E+04 0.  0.
        5    1    3    3  502    0 -0.15292176369E+03 -0.39524921655E+03 -0.54309269705E+03  0.68889678224E+03  0.46999998093E+01 0.  1.
       -5    1    3    3    0  502  0.15292176369E+03  0.39524921655E+03  0.32764256188E+03  0.53570397362E+03  0.46999998093E+01 0. -1.
</event>
<event>
 5   0  0.9298693E-04  0.1184572E+04  0.7818609E-02  0.9126469E-01
       -2   -1    0    0    0  501  0.00000000000E+00  0.00000000000E+00  0.45312199727E+03  0.45312199728E+03  0.25500000920E-02 0.  1.
        2   -1    0    0  501    0  0.00000000000E+00  0.00000000000E+00 -0.77419031468E+03  0.77419031469E+03  0.25500000920E-02 0. -1.
    10030    2    1    2    0    0  0.00000000000E+00  0.00000000000E+00 -0.32106831741E+03  0.12273123120E+04  0.11845719255E+04 0.  0.
        1    1    3    3  502    0 -0.14177217960E+03  0.10504512326E+02 -0.75625179791E+03  0.76949754876E+03  0.50400001928E-02 0. -1.
       -1    1    3    3    0  502  0.14177217960E+03 -0.10504512326E+02  0.43518348049E+03  0.45781476320E+03  0.50400001928E-02 0.  1.
</event>
<event>
 5   0  0.5003507E-04  0.1164440E+04  0.7818609E-02  0.9144565E-01
       -1   -1    0    0    0  501  0.00000000000E+00  0.00000000000E+00  0.80648742466E+03  0.80648742468E+03  0.50400001928E-02 0. -1.
        1   -1    0    0  501    0  0.00000000000E+00  0.00000000000E+00 -0.42031640847E+03  0.42031640851E+03  0.50400001928E-02 0.  1.
    10030    2    1    2    0    0  0.00000000000E+00  0.00000000000E+00  0.38617101619E+03  0.12268038332E+04  0.11644396040E+04 0.  0.
        3    1    3    3  502    0  0.27169969791E+03  0.48606002781E+03  0.37220515504E+03  0.66978486406E+03  0.10100000352E+00 0. -1.
       -3    1    3    3    0  502 -0.27169969791E+03 -0.48606002781E+03  0.13965861147E+02  0.55701896912E+03  0.10100000352E+00 0.  1.
</event>
<event>
 5   0  0.5447074E-04  0.1197378E+04  0.7818609E-02  0.9115155E-01
        1   -1    0    0  501    0  0.00000000000E+00  0.00000000000E+00  0.71298856629E+03  0.71298856630E+03  0.50400001928E-02 0.  1.
       -1   -1    0    0    0  501  0.00000000000E+00  0.00000000000E+00 -0.50271251579E+03  0.50271251581E+03  0.50400001928E-02 0. -1.
    10030    2    1    2    0    0  0.00000000000E+00  0.00000000000E+00  0.21027605050E+03  0.12157010821E+04  0.11973775944E+04 0.  0.
        4    1    3    3  502    0 -0.58106870649E+03  0.13556690364E+03  0.15495450669E+03  0.61646714354E+03  0.12699999809E+01 0.  1.
       -4    1    3    3    0  502  0.58106870649E+03 -0.13556690364E+03  0.55321543808E+02  0.59923393857E+03  0.12699999809E+01 0. -1.
</event>
<event>
 5   0  0.5447074E-04  0.1190528E+04  0.7818609E-02  0.9121188E-01
       -1   -1    0    0    0  501  0.00000000000E+00  0.00000000000E+00  0.32274657052E+03  0.32274657056E+03  0.50400001928E-02 0. -1.
        1   -1    0    0  501    0  0.00000000000E+00  0.00000000000E+00 -0.10978869806E+04  0.10978869806E+04  0.50400001928E-02 0.  1.
    10030    2    1    2    0    0  0.00000000000E+00  0.00000000000E+00 -0.77514041010E+03  0.14206335512E+04  0.11905280473E+04 0.  0.
        4    1    3    3  502    0 -0.32890266926E+03  0.39132295168E+03 -0.75152463168E+03  0.90890126156E+03  0.12699999809E+01 0.  1.
       -4    1    3    3    0  502  0.32890266926E+03 -0.39132295168E+03 -0.23615778422E+02  0.51173228962E+03  0.12699999809E+01 0. -1.
</event>
<event>
 5   0  0.5447074E-04  0.1199941E+04  0.7818609E-02  0.9112908E-01
       -1   -1    0    0    0  501  0.00000000000E+00  0.00000000000E+00  0.53130779689E+03  0.53130779691E+03  0.50400001928E-02 0. -1.
        1   -1    0    0  501    0  0.00000000000E+00  0.00000000000E+00 -0.67750690654E+03  0.67750690656E+03  0.50400001928E-02 0.  1.
    10030    2    1    2    0    0  0.00000000000E+00  0.00000000000E+00 -0.14619910965E+03  0.12088147035E+04  0.11999411684E+04 0.  0.
        4    1    3    3  502    0  0.52268965571E+03  0.30938127592E+02 -0.36818451936E+03  0.64009616240E+03  0.12699999809E+01 0.  1.
       -4    1    3    3    0  502 -0.52268965571E+03 -0.30938127592E+02  0.22198540971E+03  0.56871854107E+03  0.12699999809E+01 0. -1.
</event>
<event>
 5   0  0.5003507E-04  0.1225516E+04  0.7818609E-02  0.9090811E-01
        1   -1    0    0  501    0  0.00000000000E+00  0.00000000000E+00  0.78274110607E+03  0.78274110608E+03  0.50400001928E-02 0.  1.
       -1   -1    0    0    0  501  0.00000000000E+00  0.00000000000E+00 -0.47968946548E+03  0.47968946550E+03  0.50400001928E-02 0. -1.
    10030    2    1    2    0    0  0.00000000000E+00  0.00000000000E+00  0.30305164059E+03  0.12624305716E+04  0.12255164835E+04 0.  0.
        3    1    3    3  502    0  0.48022862221E+03  0.12420492841E+02  0.54337675985E+03  0.72528071226E+03  0.10100000352E+00 0.  1.
       -3    1    3    3    0  502 -0.48022862221E+03 -0.12420492841E+02 -0.24032511925E+03  0.53714985933E+03  0.10100000352E+00 0. -1.
</event>
<event>
 5   0  0.9145224E-04  0.1185027E+04  0.7818609E-02  0.9126065E-01
       -2   -1    0    0    0  501  0.00000000000E+00  0.00000000000E+00  0.37173969564E+03  0.37173969565E+03  0.25500000920E-02 0.  1.
        2   -1    0    0  501    0  0.00000000000E+00  0.00000000000E+00 -0.94440292052E+03  0.94440292052E+03  0.25500000920E-02 0. -1.
    10030    2    1    2    0    0  0.00000000000E+00  0.00000000000E+00 -0.57266322487E+03  0.13161426162E+04  0.11850266735E+04 0.  0.
        5    1    3    3  502    0 -0.56285965746E+03  0.18088424070E+03 -0.24303271248E+03  0.63923164179E+03  0.46999998093E+01 0.  1.
       -5    1    3    3    0  502  0.56285965746E+03 -0.18088424070E+03 -0.32963051239E+03  0.67691097438E+03  0.46999998093E+01 0. -1.
</event>
<event>
 5   0  0.9410666E-04  0.1201547E+04  0.7818609E-02  0.9111503E-01
       -2   -1    0    0    0  501  0.00000000000E+00  0.00000000000E+00  0.14850823883E+03  0.14850823885E+03  0.25500000920E-02 0.  1.
        2   -1    0    0  501    0  0.00000000000E+00  0.00000000000E+00 -0.24303629364E+04  0.24303629364E+04  0.25500000920E-02 0. -1.
    10030    2    1    2    0    0  0.00000000000E+00  0.00000000000E+00 -0.22818546976E+04  0.25788711752E+04  0.12015472016E+04 0.  0.
        2    1    3    3  502    0 -0.17358218550E+03  0.50644417374E+03 -0.17260131806E+04  0.18071352954E+04  0.25500000920E-02 0. -1.
       -2    1    3    3    0  502  0.17358218550E+03 -0.50644417374E+03 -0.55584151691E+03  0.77173587980E+03  0.25500000920E-02 0.  1.
</event>
<event>
 5   0  0.5052959E-04  0.1195262E+04  0.7818609E-02  0.9117014E-01
       -1   -1    0    0    0  501  0.00000000000E+00  0.00000000000E+00  0.32993104592E+03  0.32993104595E+03  0.50400001928E-02 0. -1.
        1   -1    0    0  501    0  0.00000000000E+00  0.00000000000E+00 -0.10825375617E+04  0.10825375617E+04  0.50400001928E-02 0.  1.
    10030    2    1    2    0    0  0.00000000000E+00  0.00000000000E+00 -0.75260651581E+03  0.14124686077E+04  0.11952618960E+04 0.  0.
        2    1    3    3  502    0 -0.39563514337E+03  0.33438930766E+03 -0.72848722745E+03  0.89388870466E+03  0.25500000920E-02 0.  1.
       -2    1    3    3    0  502  0.39563514337E+03 -0.33438930766E+03 -0.24119288359E+02  0.51857990303E+03  0.25500000920E-02 0. -1.
</event>
<event>
 5   0  0.5001586E-04  0.1217527E+04  0.7818609E-02  0.9097652E-01
       -1   -1    0    0    0  501  0.00000000000E+00  0.00000000000E+00  0.64468686599E+03  0.64468686601E+03  0.50400001928E-02 0. -1.
        1   -1    0    0  501    0  0.00000000000E+00  0.00000000000E+00 -0.57484226058E+03  0.57484226060E+03  0.50400001928E-02 0.  1.
    10030    2    1    2    0    0  0.00000000000E+00  0.00000000000E+00  0.69844605407E+02  0.12195291266E+04  0.12175274214E+04 0.  0.
        1    1    3    3  502    0  0.16522542210E+03 -0.41967928171E+03 -0.37460574851E+03  0.58631016233E+03  0.50400001928E-02 0.  1.
       -1    1    3    3    0  502 -0.16522542210E+03  0.41967928171E+03  0.44445035392E+03  0.63321896428E+03  0.50400001928E-02 0. -1.
</event>
<event>
 5   0  0.5003507E-04  0.1172581E+04  0.7818609E-02  0.9137200E-01
        1   -1    0    0  501    0  0.00000000000E+00  0.00000000000E+00  0.15565255731E+04  0.15565255731E+04  0.50400001928E-02 0.  1.
       -1   -1    0    0    0  501  0.00000000000E+00  0.00000000000E+00 -0.22083593631E+03  0.22083593637E+03  0.50400001928E-02 0. -1.
    10030    2    1    2    0    0  0.00000000000E+00  0.00000000000E+00  0.13356896368E+04  0.17773615094E+04  0.11725813957E+04 0.  0.
        3    1    3    3  502    0  0.38812944823E+03  0.10018638732E+03  0.19324541876E+02  0.40131686845E+03  0.10100000352E+00 0. -1.
       -3    1    3    3    0  502 -0.38812944823E+03 -0.10018638732E+03  0.13163650949E+04  0.13760446410E+04  0.10100000352E+00 0.  1.
</event>
<event>
 5   0  0.5001586E-04  0.1198447E+04  0.7818609E-02  0.9114217E-01
       -1   -1    0    0    0  501  0.00000000000E+00  0.00000000000E+00  0.46153561139E+03  0.46153561142E+03  0.50400001928E-02 0.  1.
        1   -1    0    0  501    0  0.00000000000E+00  0.00000000000E+00 -0.77798672021E+03  0.77798672023E+03  0.50400001928E-02 0. -1.
    10030    2    1    2    0    0  0.00000000000E+00  0.00000000000E+00 -0.31645110882E+03  0.12395223316E+04  0.11984466222E+04 0.  0.
        1    1    3    3  502    0  0.53907821595E+03 -0.10280524698E+03  0.90633641869E+02  0.55622720069E+03  0.50400001928E-02 0.  1.
       -1    1    3    3    0  502 -0.53907821595E+03  0.10280524698E+03 -0.40708475069E+03  0.68329513096E+03  0.50400001928E-02 0. -1.
</event>
<event>
 5   0  0.5447074E-04  0.1202254E+04  0.7818609E-02  0.9110886E-01
        1   -1    0    0  501    0  0.00000000000E+00  0.00000000000E+00  0.13415652918E+04  0.13415652918E+04  0.50400001928E-02 0.  1.
       -1   -1    0    0    0  501  0.00000000000E+00  0.00000000000E+00 -0.26935222613E+03  0.26935222618E+03  0.50400001928E-02 0. -1.
    10030    2    1    2    0    0  0.00000000000E+00  0.00000000000E+00  0.10722130657E+04  0.16109175180E+04  0.12022538798E+04 0.  0.
        4    1    3    3  502    0 -0.52680654812E+03 -0.44487922461E+02  0.15276993956E+03  0.55031316695E+03  0.12699999809E+01 0.  1.
       -4    1    3    3    0  502  0.52680654812E+03  0.44487922461E+02  0.91944312613E+03  0.10606043511E+04  0.12699999809E+01 0. -1.
</event>
<event>
 5   0  0.5447074E-04  0.1201912E+04  0.7818609E-02  0.9111184E-01
        1   -1    0    0  501    0  0.00000000000E+00  0.00000000000E+00  0.63029013177E+03  0.63029013179E+03  0.50400001928E-02 0.  1.
       -1   -1    0    0    0  501  0.00000000000E+00  0.00000000000E+00 -0.57298744237E+03  0.57298744239E+03  0.50400001928E-02 0. -1.
    10030    2    1    2    0    0  0.00000000000E+00  0.00000000000E+00  0.57302689401E+02  0.12032775742E+04  0.12019123605E+04 0.  0.
        4    1    3    3  502    0 -0.17835959527E+03 -0.10866437080E+03  0.59278641120E+03  0.62850412323E+03  0.12699999809E+01 0.  1.
       -4    1    3    3    0  502  0.17835959527E+03  0.10866437080E+03 -0.53548372180E+03  0.57477345096E+03  0.12699999809E+01 0. -1.
</event>
<event>
 5   0  0.5003507E-04  0.1198242E+04  0.7818609E-02  0.9114396E-01
        1   -1    0    0  501    0  0.00000000000E+00  0.00000000000E+00  0.43801969609E+03  0.43801969612E+03  0.50400001928E-02 0.  1.
       -1   -1    0    0    0  501  0.00000000000E+00  0.00000000000E+00 -0.81947509553E+03  0.81947509555E+03  0.50400001928E-02 0. -1.
    10030    2    1    2    0    0  0.00000000000E+00  0.00000000000E+00 -0.38145539944E+03  0.12574947917E+04  0.11982424334E+04 0.  0.
        3    1    3    3  502    0  0.25785580857E+03  0.37134145231E+03  0.22185693166E+03  0.50359170023E+03  0.10100000352E+00 0.  1.
       -3    1    3    3    0  502 -0.25785580857E+03 -0.37134145231E+03 -0.60331233110E+03  0.75390309143E+03  0.10100000352E+00 0. -1.
</event>
<event>
 5   0  0.9410666E-04  0.1191981E+04  0.7818609E-02  0.9119905E-01
        2   -1    0    0  501    0  0.00000000000E+00  0.00000000000E+00  0.78422007056E+03  0.78422007057E+03  0.25500000920E-02 0.  1.
       -2   -1    0    0    0  501  0.00000000000E+00  0.00000000000E+00 -0.45294006589E+03  0.45294006590E+03  0.25500000920E-02 0. -1.
    10030    2    1    2    0    0  0.00000000000E+00  0.00000000000E+00  0.33128000467E+03  0.12371601365E+04  0.11919810241E+04 0.  0.
        2    1    3    3  502    0 -0.16926136070E+03  0.21904882726E+03  0.71344501728E+03  0.76526831219E+03  0.25500000920E-02 0.  1.
       -2    1    3    3    0  502  0.16926136070E+03 -0.21904882726E+03 -0.38216501261E+03  0.47189182428E+03  0.25500000920E-02 0. -1.
</event>
<event>
 5   0  0.5157631E-04  0.1200076E+04  0.7818609E-02  0.9112790E-01
        1   -1    0    0  501    0  0.00000000000E+00  0.00000000000E+00  0.12005787022E+04  0.12005787022E+04  0.50400001928E-02 0. -1.
       -1   -1    0    0    0  501  0.00000000000E+00  0.00000000000E+00 -0.29989362010E+03  0.29989362014E+03  0.50400001928E-02 0.  1.
    10030    2    1    2    0    0  0.00000000000E+00  0.00000000000E+00  0.90068508208E+03  0.15004723223E+04  0.12000764863E+04 0.  0.
        5    1    3    3  502    0  0.55221349424E+03  0.22869480915E+03  0.38438632787E+03  0.71064477624E+03  0.46999998093E+01 0.  1.
       -5    1    3    3    0  502 -0.55221349424E+03 -0.22869480915E+03  0.51629875420E+03  0.78982754608E+03  0.46999998093E+01 0. -1.
</event>
<event>
 5   0  0.9298693E-04  0.1201403E+04  0.7818609E-02  0.9111629E-01
        2   -1    0    0  501    0  0.00000000000E+00  0.00000000000E+00  0.12705870053E+04  0.12705870053E+04  0.25500000920E-02 0.  1.
       -2   -1    0    0    0  501  0.00000000000E+00  0.00000000000E+00 -0.28399648786E+03  0.28399648787E+03  0.25500000920E-02 0. -1.
    10030    2    1    2    0    0  0.00000000000E+00  0.00000000000E+00  0.98659051740E+03  0.15545834931E+04  0.12014029250E+04 0.  0.
        1    1    3    3  502    0  0.20697074690E+02 -0.23272200836E+02  0.12695416003E+04  0.12699235564E+04  0.50400001928E-02 0.  1.
       -1    1    3    3    0  502 -0.20697074690E+02  0.23272200836E+02 -0.28295108290E+03  0.28465993672E+03  0.50400001928E-02 0. -1.
</event>
<event>
 5   0  0.5003507E-04  0.1201902E+04  0.7818609E-02  0.9111193E-01
        1   -1    0    0  501    0  0.00000000000E+00  0.00000000000E+00  0.20127388123E+04  0.20127388123E+04  0.50400001928E-02 0.  1.
       -1   -1    0    0    0  501  0.00000000000E+00  0.00000000000E+00 -0.17942831667E+03  0.17942831674E+03  0.50400001928E-02 0. -1.
    10030    2    1    2    0    0  0.00000000000E+00  0.00000000000E+00  0.18333104956E+04  0.21921671291E+04  0.12019023872E+04 0.  0.
        3    1    3    3  502    0  0.23379223021E+02 -0.17826182668E+03  0.19625369356E+04  0.19707549571E+04  0.10100000352E+00 0.  1.
       -3    1    3    3    0  502 -0.23379223021E+02  0.17826182668E+03 -0.12922643997E+03  0.22141217200E+03  0.10100000352E+00 0. -1.
</event>
<event>
 5   0  0.9298693E-04  0.1204113E+04  0.7818609E-02  0.9109264E-01
        2   -1    0    0  501    0  0.00000000000E+00  0.00000000000E+00  0.60837484089E+03  0.60837484089E+03  0.25500000920E-02 0.  1.
       -2   -1    0    0    0  501  0.00000000000E+00  0.00000000000E+00 -0.59580354629E+03  0.59580354629E+03  0.25500000920E-02 0. -1.
    10030    2    1    2    0    0  0.00000000000E+00  0.00000000000E+00  0.12571294597E+02  0.12041783872E+04  0.12041127650E+04 0.  0.
        1    1    3    3  502    0 -0.13441514065E+03 -0.54814110098E+03 -0.20335829161E+03  0.59990056793E+03  0.50400001928E-02 0.  1.
       -1    1    3    3    0  502  0.13441514065E+03  0.54814110098E+03  0.21592958621E+03  0.60427781925E+03  0.50400001928E-02 0. -1.
</event>
<event>
 5   0  0.5001586E-04  0.1194221E+04  0.7818609E-02  0.9117930E-01
       -1   -1    0    0    0  501  0.00000000000E+00  0.00000000000E+00  0.36314552937E+03  0.36314552941E+03  0.50400001928E-02 0.  1.
        1   -1    0    0  501    0  0.00000000000E+00  0.00000000000E+00 -0.98181280487E+03  0.98181280488E+03  0.50400001928E-02 0. -1.
    10030    2    1    2    0    0  0.00000000000E+00  0.00000000000E+00 -0.61866727550E+03  0.13449583343E+04  0.11942209692E+04 0.  0.
        1    1    3    3  502    0  0.46052567244E+03  0.37704472396E+03 -0.36327853484E+03  0.69729327600E+03  0.50400001928E-02 0.  1.
       -1    1    3    3    0  502 -0.46052567244E+03 -0.37704472396E+03 -0.25538874065E+03  0.64766505829E+03  0.50400001928E-02 0. -1.
</event>
<event>
 5   0  0.9145224E-04  0.1196012E+04  0.7818609E-02  0.9116354E-01
       -2   -1    0    0    0  501  0.00000000000E+00  0.00000000000E+00  0.13614505160E+04  0.13614505160E+04  0.25500000920E-02 0. -1.
        2   -1    0    0  501    0  0.00000000000E+00  0.00000000000E+00 -0.26266923318E+03  0.26266923319E+03  0.25500000920E-02 0.  1.
    10030    2    1    2    0    0  0.00000000000E+00  0.00000000000E+00  0.10987812828E+04  0.16241197492E+04  0.11960119783E+04 0.  0.
        5    1    3    3  502    0  0.27648317243E+03  0.42413247781E+03  0.98150300928E+03  0.11044009918E+04  0.46999998093E+01 0. -1.
       -5    1    3    3    0  502 -0.27648317243E+03 -0.42413247781E+03  0.11727827352E+03  0.51971875742E+03  0.46999998093E+01 0.  1.
</event>
<event>
 5   0  0.5052959E-04  0.1206237E+04  0.7818609E-02  0.9107415E-01
       -1   -1    0    0    0  501  0.00000000000E+00  0.00000000000E+00  0.27911631114E+03  0.27911631118E+03  0.50400001928E-02 0.  1.
        1   -1    0    0  501    0  0.00000000000E+00  0.00000000000E+00 -0.13032264222E+04  0.13032264222E+04  0.50400001928E-02 0. -1.
    10030    2    1    2    0    0  0.00000000000E+00  0.00000000000E+00 -0.10241101111E+04  0.15823427334E+04  0.12062367124E+04 0.  0.
        2    1    3    3  502    0 -0.15044804146E+03 -0.42817427801E+03  0.90189324870E+01  0.45392638906E+03  0.25500000920E-02 0.  1.
       -2    1    3    3    0  502  0.15044804146E+03  0.42817427801E+03 -0.10331290436E+04  0.11284163443E+04  0.25500000920E-02 0. -1.
</event>
<event>
 5   0  0.9050363E-04  0.1197225E+04  0.7818609E-02  0.9115289E-01
        2   -1    0    0  501    0  0.00000000000E+00  0.00000000000E+00  0.15445290221E+04  0.15445290221E+04  0.25500000920E-02 0.  1.
       -2   -1    0    0    0  501  0.00000000000E+00  0.00000000000E+00 -0.23200414406E+03  0.23200414408E+03  0.25500000920E-02 0. -1.
    10030    2    1    2    0    0  0.00000000000E+00  0.00000000000E+00  0.13125248780E+04  0.17765331661E+04  0.11972253485E+04 0.  0.
        3    1    3    3  502    0  0.43756877615E+03 -0.13558702920E+02  0.12620886899E+04  0.13358585792E+04  0.10100000352E+00 0.  1.
       -3    1    3    3    0  502 -0.43756877615E+03  0.13558702920E+02  0.50436188095E+02  0.44067458692E+03  0.10100000352E+00 0. -1.
</event>
<event>
 5   0  0.9410666E-04  0.1196338E+04  0.7818609E-02  0.9116068E-01
       -2   -1    0    0    0  501  0.00000000000E+00  0.00000000000E+00  0.84666294501E+03  0.84666294501E+03  0.25500000920E-02 0.  1.
        2   -1    0    0  501    0  0.00000000000E+00  0.00000000000E+00 -0.42260749575E+03  0.42260749576E+03  0.25500000920E-02 0. -1.
    10030    2    1    2    0    0  0.00000000000E+00  0.00000000000E+00  0.42405544926E+03  0.12692704408E+04  0.11963379237E+04 0.  0.
        2    1    3    3  502    0 -0.29320032448E+03 -0.52100886492E+03  0.23296500202E+03  0.64163023602E+03  0.25500000920E-02 0.  1.
       -2    1    3    3    0  502  0.29320032448E+03  0.52100886492E+03  0.19109044724E+03  0.62764020476E+03  0.25500000920E-02 0. -1.
</event>
<event>
 5   0  0.5052959E-04  0.1197072E+04  0.7818609E-02  0.9115423E-01
        1   -1    0    0  501    0  0.00000000000E+00  0.00000000000E+00  0.81912630502E+03  0.81912630504E+03  0.50400001928E-02 0. -1.
       -1   -1    0    0    0  501  0.00000000000E+00  0.00000000000E+00 -0.43735038226E+03  0.43735038229E+03  0.50400001928E-02 0.  1.
    10030    2    1    2    0    0  0.00000000000E+00  0.00000000000E+00  0.38177592276E+03  0.12564766873E+04  0.11970717650E+04 0.  0.
        2    1    3    3  502    0  0.88452913400E+02 -0.39360457843E+03  0.65497985872E+03  0.76925099765E+03  0.25500000920E-02 0. -1.
       -2    1    3    3    0  502 -0.88452913400E+02  0.39360457843E+03 -0.27320393596E+03  0.48722568968E+03  0.25500000920E-02 0.  1.
</event>
<event>
 5   0  0.3453625E-04  0.1202235E+04  0.7818609E-02  0.9110903E-01
        4   -1    0    0  501    0  0.00000000000E+00  0.00000000000E+00  0.62108877711E+03  0.62109007555E+03  0.12699999809E+01 0.  1.
       -4   -1    0    0    0  501  0.00000000000E+00  0.00000000000E+00 -0.58178536099E+03  0.58178674715E+03  0.12699999809E+01 0. -1.
    10030    2    1    2    0    0  0.00000000000E+00  0.00000000000E+00  0.39303416116E+02  0.12028768227E+04  0.12022345412E+04 0.  0.
        2    1    3    3  502    0  0.27686499481E+03  0.50440541923E+03 -0.15440364136E+03  0.59575123732E+03  0.25500000920E-02 0.  1.
       -2    1    3    3    0  502 -0.27686499481E+03 -0.50440541923E+03  0.19370705748E+03  0.60712558538E+03  0.25500000920E-02 0. -1.
</event>
<event>
 5   0  0.9145224E-04  0.1194673E+04  0.7818609E-02  0.9117532E-01
       -2   -1    0    0    0  501  0.00000000000E+00  0.00000000000E+00  0.28489421313E+03  0.28489421314E+03  0.25500000920E-02 0. -1.
        2   -1    0    0  501    0  0.00000000000E+00  0.00000000000E+00 -0.12524321916E+04  0.12524321916E+04  0.25500000920E-02 0.  1.
    10030    2    1    2    0    0  0.00000000000E+00  0.00000000000E+00 -0.96753797842E+03  0.15373264047E+04  0.11946726476E+04 0.  0.
        5    1    3    3  502    0 -0.37665983048E+03  0.75651839105E+02  0.10479067637E+03  0.39824490519E+03  0.46999998093E+01 0. -1.
       -5    1    3    3    0  502  0.37665983048E+03 -0.75651839105E+02 -0.10723286548E+04  0.11390814995E+04  0.46999998093E+01 0.  1.
</event>
<event>
 5   0  0.9050363E-04  0.1200552E+04  0.7818609E-02  0.9112374E-01
       -2   -1    0    0    0  501  0.00000000000E+00  0.00000000000E+00  0.32279236504E+03  0.32279236505E+03  0.25500000920E-02 0.  1.
        2   -1    0    0  501    0  0.00000000000E+00  0.00000000000E+00 -0.11162940578E+04  0.11162940578E+04  0.25500000920E-02 0. -1.
    10030    2    1    2    0    0  0.00000000000E+00  0.00000000000E+00 -0.79350169271E+03  0.14390864228E+04  0.12005518714E+04 0.  0.
        3    1    3    3  502    0  0.12562563621E+03  0.58482250252E+03 -0.33643377129E+03  0.68628481886E+03  0.10100000352E+00 0.  1.
       -3    1    3    3    0  502 -0.12562563621E+03 -0.58482250252E+03 -0.45706792142E+03  0.75280160396E+03  0.10100000352E+00 0. -1.
</event>
<event>
 5   0  0.9298693E-04  0.1203644E+04  0.7818609E-02  0.9109673E-01
       -2   -1    0    0    0  501  0.00000000000E+00  0.00000000000E+00  0.18288337128E+03  0.18288337130E+03  0.25500000920E-02 0.  1.
        2   -1    0    0  501    0  0.00000000000E+00  0.00000000000E+00 -0.19804402099E+04  0.19804402099E+04  0.25500000920E-02 0. -1.
    10030    2    1    2    0    0  0.00000000000E+00  0.00000000000E+00 -0.17975568386E+04  0.21633235812E+04  0.12036437716E+04 0.  0.
        1    1    3    3  502    0  0.18398607119E+03  0.39064615213E+02 -0.19262574084E+04  0.19354184359E+04  0.50400001928E-02 0. -1.
       -1    1    3    3    0  502 -0.18398607119E+03 -0.39064615213E+02  0.12870056981E+03  0.22790514529E+03  0.50400001928E-02 0.  1.
</event>
<event>
 5   0  0.5157631E-04  0.1200364E+04  0.7818609E-02  0.9112538E-01
        1   -1    0    0  501    0  0.00000000000E+00  0.00000000000E+00  0.25096982463E+04  0.25096982463E+04  0.50400001928E-02 0.  1.
       -1   -1    0    0    0  501  0.00000000000E+00  0.00000000000E+00 -0.14353064505E+03  0.14353064514E+03  0.50400001928E-02 0. -1.
    10030    2    1    2    0    0  0.00000000000E+00  0.00000000000E+00  0.23661676012E+04  0.26532288914E+04  0.12003642919E+04 0.  0.
        5    1    3    3  502    0 -0.31501971222E+03  0.50854436654E+03  0.12900458542E+04  0.14220039338E+04  0.46999998093E+01 0.  1.
       -5    1    3    3    0  502  0.31501971222E+03 -0.50854436654E+03  0.10761217470E+04  0.12312249576E+04  0.46999998093E+01 0. -1.
</event>
<event>
 5   0  0.5001586E-04  0.1199560E+04  0.7818609E-02  0.9113242E-01
       -1   -1    0    0    0  501  0.00000000000E+00  0.00000000000E+00  0.35436361166E+03  0.35436361170E+03  0.50400001928E-02 0. -1.
        1   -1    0    0  501    0  0.00000000000E+00  0.00000000000E+00 -0.10151608274E+04  0.10151608274E+04  0.50400001928E-02 0.  1.
    10030    2    1    2    0    0  0.00000000000E+00  0.00000000000E+00 -0.66079721576E+03  0.13695244391E+04  0.11995600148E+04 0.  0.
        1    1    3    3  502    0 -0.46211900104E+03 -0.11974377719E+03  0.84151650797E+02  0.48474121308E+03  0.50400001928E-02 0. -1.
       -1    1    3    3    0  502  0.46211900104E+03  0.11974377719E+03 -0.74494886655E+03  0.88478322605E+03  0.50400001928E-02 0.  1.
</event>
<event>
 5   0  0.3453625E-04  0.1200547E+04  0.7818609E-02  0.9112378E-01
        3   -1    0    0  501    0  0.00000000000E+00  0.00000000000E+00  0.66752704314E+03  0.66752705078E+03  0.10100000352E+00 0. -1.
       -3   -1    0    0    0  501  0.00000000000E+00  0.00000000000E+00 -0.53979569540E+03  0.53979570485E+03  0.10100000352E+00 0.  1.
    10030    2    1    2    0    0  0.00000000000E+00  0.00000000000E+00  0.12773134775E+03  0.12073227556E+04  0.12005469333E+04 0.  0.
        5    1    3    3  502    0  0.69886996177E+02  0.17793699030E+03 -0.50834518365E+03  0.54312308042E+03  0.46999998093E+01 0.  1.
       -5    1    3    3    0  502 -0.69886996177E+02 -0.17793699030E+03  0.63607653139E+03  0.66419967520E+03  0.46999998093E+01 0. -1.
</event>
<event>
 5   0  0.9410666E-04  0.1199443E+04  0.7818609E-02  0.9113344E-01
       -2   -1    0    0    0  501  0.00000000000E+00  0.00000000000E+00  0.39938904899E+03  0.39938904900E+03  0.25500000920E-02 0.  1.
        2   -1    0    0  501    0  0.00000000000E+00  0.00000000000E+00 -0.90054004040E+03  0.90054004040E+03  0.25500000920E-02 0. -1.
    10030    2    1    2    0    0  0.00000000000E+00  0.00000000000E+00 -0.50115099140E+03  0.12999290894E+04  0.11994429212E+04 0.  0.
        2    1    3    3  502    0 -0.42189057886E+03 -0.16243360156E+03 -0.67765734569E+03  0.81461390464E+03  0.25500000920E-02 0. -1.
       -2    1    3    3    0  502  0.42189057886E+03  0.16243360156E+03  0.17650635429E+03  0.48531518476E+03  0.25500000920E-02 0.  1.
</event>
<event>
 5   0  0.5052959E-04  0.1195034E+04  0.7818609E-02  0.9117214E-01
        1   -1    0    0  501    0  0.00000000000E+00  0.00000000000E+00  0.71735388085E+03  0.71735388087E+03  0.50400001928E-02 0.  1.
       -1   -1    0    0    0  501  0.00000000000E+00  0.00000000000E+00 -0.49769963326E+03  0.49769963328E+03  0.50400001928E-02 0. -1.
    10030    2    1    2    0    0  0.00000000000E+00  0.00000000000E+00  0.21965424760E+03  0.12150535142E+04  0.11950343316E+04 0.  0.
        2    1    3    3  502    0  0.55742626989E+03  0.15528166517E+03 -0.41632481701E+02  0.58014627934E+03  0.25500000920E-02 0. -1.
       -2    1    3    3    0  502 -0.55742626989E+03 -0.15528166517E+03  0.26128672930E+03  0.63490723481E+03  0.25500000920E-02 0.  1.
</event>
<event>
 5   0  0.9050363E-04  0.1196212E+04  0.7818609E-02  0.9116178E-01
        2   -1    0    0  501    0  0.00000000000E+00  0.00000000000E+00  0.17154084901E+04  0.17154084901E+04  0.25500000920E-02 0. -1.
       -2   -1    0    0    0  501  0.00000000000E+00  0.00000000000E+00 -0.20853976553E+03  0.20853976555E+03  0.25500000920E-02 0.  1.
    10030    2    1    2    0    0  0.00000000000E+00  0.00000000000E+00  0.15068687246E+04  0.19239482556E+04  0.11962121623E+04 0.  0.
        3    1    3    3  502    0 -0.43486884223E+03  0.13702231449E+03  0.13760300148E+04  0.14496015441E+04  0.10100000352E+00 0. -1.
       -3    1    3    3    0  502  0.43486884223E+03 -0.13702231449E+03  0.13083870971E+03  0.47434671156E+03  0.10100000352E+00 0.  1.
</event>
<event>
 5   0  0.9145224E-04  0.1199073E+04  0.7818609E-02  0.9113668E-01
       -2   -1    0    0    0  501  0.00000000000E+00  0.00000000000E+00  0.44520859401E+03  0.44520859401E+03  0.25500000920E-02 0. -1.
        2   -1    0    0  501    0  0.00000000000E+00  0.00000000000E+00 -0.80736121102E+03  0.80736121103E+03  0.25500000920E-02 0.  1.
    10030    2    1    2    0    0  0.00000000000E+00  0.00000000000E+00 -0.36215261702E+03  0.12525698050E+04  0.11990732248E+04 0.  0.
        5    1    3    3  502    0  0.45413744723E+03  0.38272782952E+03 -0.95566761172E+02  0.60156172444E+03  0.46999998093E+01 0.  1.
       -5    1    3    3    0  502 -0.45413744723E+03 -0.38272782952E+03 -0.26658585584E+03  0.65100808060E+03  0.46999998093E+01 0. -1.
</event>
<event>
 5   0  0.5003507E-04  0.1197613E+04  0.7818609E-02  0.9114949E-01
        1   -1    0    0  501    0  0.00000000000E+00  0.00000000000E+00  0.32702998844E+03  0.32702998848E+03  0.50400001928E-02 0.  1.
       -1   -1    0    0    0  501  0.00000000000E+00  0.00000000000E+00 -0.10964406845E+04  0.10964406845E+04  0.50400001928E-02 0. -1.
    10030    2    1    2    0    0  0.00000000000E+00  0.00000000000E+00 -0.76941069609E+03  0.14234706730E+04  0.11976125992E+04 0.  0.
        3    1    3    3  502    0 -0.41946085454E+02 -0.88227517621E+02 -0.10869051261E+04  0.10912865491E+04  0.10100000352E+00 0. -1.
       -3    1    3    3    0  502  0.41946085454E+02  0.88227517621E+02  0.31749442996E+03  0.33218412396E+03  0.10100000352E+00 0.  1.
</event>
<event>
 5   0  0.5157631E-04  0.1202950E+04  0.7818609E-02  0.9110278E-01
        1   -1    0    0  501    0  0.00000000000E+00  0.00000000000E+00  0.15607748202E+04  0.15607748202E+04  0.50400001928E-02 0. -1.
       -1   -1    0    0    0  501  0.00000000000E+00  0.00000000000E+00 -0.23179004900E+03  0.23179004906E+03  0.50400001928E-02 0.  1.
    10030    2    1    2    0    0  0.00000000000E+00  0.00000000000E+00  0.13289847712E+04  0.17925648692E+04  0.12029498279E+04 0.  0.
        5    1    3    3  502    0 -0.48816392337E+02  0.48453583591E+03  0.13850856500E+03  0.50632472684E+03  0.46999998093E+01 0.  1.
       -5    1    3    3    0  502  0.48816392337E+02 -0.48453583591E+03  0.11904762062E+04  0.12862401424E+04  0.46999998093E+01 0. -1.
</event>
<event>
 5   0  0.9298693E-04  0.1203152E+04  0.7818609E-02  0.9110102E-01
       -2   -1    0    0    0  501  0.00000000000E+00  0.00000000000E+00  0.45432483611E+03  0.45432483612E+03  0.25500000920E-02 0. -1.
        2   -1    0    0  501    0  0.00000000000E+00  0.00000000000E+00 -0.79655208378E+03  0.79655208378E+03  0.25500000920E-02 0.  1.
    10030    2    1    2    0    0  0.00000000000E+00  0.00000000000E+00 -0.34222724767E+03  0.12508769199E+04  0.12031515198E+04 0.  0.
        1    1    3    3  502    0 -0.31786882731E+03 -0.51047403285E+03 -0.18816750013E+03  0.63010422766E+03  0.50400001928E-02 0.  1.
       -1    1    3    3    0  502  0.31786882731E+03  0.51047403285E+03 -0.15405974753E+03  0.62077269223E+03  0.50400001928E-02 0. -1.
</event>
<event>
 5   0  0.9070772E-04  0.1185446E+04  0.7818609E-02  0.9125692E-01
        2   -1    0    0  501    0  0.00000000000E+00  0.00000000000E+00  0.19119478893E+04  0.19119478893E+04  0.25500000920E-02 0.  1.
       -2   -1    0    0    0  501  0.00000000000E+00  0.00000000000E+00 -0.18374994291E+03  0.18374994293E+03  0.25500000920E-02 0. -1.
    10030    2    1    2    0    0  0.00000000000E+00  0.00000000000E+00  0.17281979464E+04  0.20956978323E+04  0.11854455964E+04 0.  0.
        4    1    3    3  502    0  0.36563727705E+02 -0.51367389738E+03  0.13829006556E+04  0.14756739529E+04  0.12699999809E+01 0.  1.
       -4    1    3    3    0  502 -0.36563727705E+02  0.51367389738E+03  0.34529729077E+03  0.62002387934E+03  0.12699999809E+01 0. -1.
</event>
<event>
 5   0  0.5052959E-04  0.1197552E+04  0.7818609E-02  0.9115002E-01
       -1   -1    0    0    0  501  0.00000000000E+00  0.00000000000E+00  0.30794681851E+03  0.30794681856E+03  0.50400001928E-02 0. -1.
        1   -1    0    0  501    0  0.00000000000E+00  0.00000000000E+00 -0.11642672619E+04  0.11642672619E+04  0.50400001928E-02 0.  1.
    10030    2    1    2    0    0  0.00000000000E+00  0.00000000000E+00 -0.85632044336E+03  0.14722140804E+04  0.11975515007E+04 0.  0.
        2    1    3    3  502    0 -0.75947669159E+02  0.42507464386E+03  0.81800573867E+02  0.43948587599E+03  0.25500000920E-02 0. -1.
       -2    1    3    3    0  502  0.75947669159E+02 -0.42507464386E+03 -0.93812101723E+03  0.10327282045E+04  0.25500000920E-02 0.  1.
</event>
<event>
 5   0  0.5447074E-04  0.1211360E+04  0.7818609E-02  0.9102971E-01
       -1   -1    0    0    0  501  0.00000000000E+00  0.00000000000E+00  0.22113648984E+03  0.22113648989E+03  0.50400001928E-02 0.  1.
        1   -1    0    0  501    0  0.00000000000E+00  0.00000000000E+00 -0.16589230512E+04  0.16589230512E+04  0.50400001928E-02 0. -1.
    10030    2    1    2    0    0  0.00000000000E+00  0.00000000000E+00 -0.14377865614E+04  0.18800595411E+04  0.12113602611E+04 0.  0.
        4    1    3    3  502    0 -0.17931498106E+02 -0.40457790362E+02 -0.16564085098E+04  0.16570000409E+04  0.12699999809E+01 0. -1.
       -4    1    3    3    0  502  0.17931498106E+02  0.40457790362E+02  0.21862194838E+03  0.22305950022E+03  0.12699999809E+01 0.  1.
</event>
<event>
 5   0  0.9145224E-04  0.1197918E+04  0.7818609E-02  0.9114681E-01
       -2   -1    0    0    0  501  0.00000000000E+00  0.00000000000E+00  0.26724497902E+03  0.26724497903E+03  0.25500000920E-02 0. -1.
        2   -1    0    0  501    0  0.00000000000E+00  0.00000000000E+00 -0.13424086763E+04  0.13424086763E+04  0.25500000920E-02 0.  1.
    10030    2    1    2    0    0  0.00000000000E+00  0.00000000000E+00 -0.10751636972E+04  0.16096536553E+04  0.11979181584E+04 0.  0.
        5    1    3    3  502    0 -0.15328366031E+03 -0.57892648659E+03 -0.52570455837E+03  0.79689342455E+03  0.46999998093E+01 0.  1.
       -5    1    3    3    0  502  0.15328366031E+03  0.57892648659E+03 -0.54945913887E+03  0.81276023075E+03  0.46999998093E+01 0. -1.
</event>
<event>
 5   0  0.5001586E-04  0.1200313E+04  0.7818609E-02  0.9112583E-01
       -1   -1    0    0    0  501  0.00000000000E+00  0.00000000000E+00  0.32906557698E+03  0.32906557701E+03  0.50400001928E-02 0.  1.
        1   -1    0    0  501    0  0.00000000000E+00  0.00000000000E+00 -0.10945776783E+04  0.10945776783E+04  0.50400001928E-02 0. -1.
    10030    2    1    2    0    0  0.00000000000E+00  0.00000000000E+00 -0.76551210134E+03  0.14236432553E+04  0.12003130180E+04 0.  0.
        1    1    3    3  502    0  0.70024381381E+02 -0.18792620581E+03 -0.10536595271E+04  0.10725754388E+04  0.50400001928E-02 0. -1.
       -1    1    3    3    0  502 -0.70024381381E+02  0.18792620581E+03  0.28814742577E+03  0.35106781655E+03  0.50400001928E-02 0.  1.
</event>
<event>
 5   0  0.9145224E-04  0.1202865E+04  0.7818609E-02  0.9110352E-01
       -2   -1    0    0    0  501  0.00000000000E+00  0.00000000000E+00  0.25838446581E+03  0.25838446582E+03  0.25500000920E-02 0. -1.
        2   -1    0    0  501    0  0.00000000000E+00  0.00000000000E+00 -0.13999343458E+04  0.13999343458E+04  0.25500000920E-02 0.  1.
    10030    2    1    2    0    0  0.00000000000E+00  0.00000000000E+00 -0.11415498800E+04  0.16583188116E+04  0.12028653925E+04 0.  0.
        5    1    3    3  502    0  0.21628754068E+03  0.49075970505E+03 -0.94599265835E+03  0.10874509589E+04  0.46999998093E+01 0.  1.
       -5    1    3    3    0  502 -0.21628754068E+03 -0.49075970505E+03 -0.19555722165E+03  0.57086785274E+03  0.46999998093E+01 0. -1.
</event>
<event>
 5   0  0.5052959E-04  0.1197893E+04  0.7818609E-02  0.9114703E-01
        1   -1    0    0  501    0  0.00000000000E+00  0.00000000000E+00  0.10291363424E+04  0.10291363424E+04  0.50400001928E-02 0. -1.
       -1   -1    0    0    0  501  0.00000000000E+00  0.00000000000E+00 -0.34858050267E+03  0.34858050270E+03  0.50400001928E-02 0.  1.
    10030    2    1    2    0    0  0.00000000000E+00  0.00000000000E+00  0.68055583977E+03  0.13777168452E+04  0.11978929227E+04 0.  0.
        2    1    3    3  502    0 -0.10861632637E+03  0.57621894362E+03  0.48071979214E+03  0.75823300898E+03  0.25500000920E-02 0. -1.
       -2    1    3    3    0  502  0.10861632637E+03 -0.57621894362E+03  0.19983604763E+03  0.61948383617E+03  0.25500000920E-02 0.  1.
</event>
<event>
 5   0  0.9298693E-04  0.1204939E+04  0.7818609E-02  0.9108544E-01
       -2   -1    0    0    0  501  0.00000000000E+00  0.00000000000E+00  0.63011761211E+03  0.63011761212E+03  0.25500000920E-02 0.  1.
        2   -1    0    0  501    0  0.00000000000E+00  0.00000000000E+00 -0.57603454340E+03  0.57603454341E+03  0.25500000920E-02 0. -1.
    10030    2    1    2    0    0  0.00000000000E+00  0.00000000000E+00  0.54083068710E+02  0.12061521555E+04  0.12049390208E+04 0.  0.
        1    1    3    3  502    0  0.89480342837E+02 -0.36026486446E+03 -0.44795914145E+03  0.58177736013E+03  0.50400001928E-02 0. -1.
       -1    1    3    3    0  502 -0.89480342837E+02  0.36026486446E+03  0.50204221016E+03  0.62437479540E+03  0.50400001928E-02 0.  1.
</event>
<event>
 5   0  0.9410666E-04  0.1196961E+04  0.7818609E-02  0.9115521E-01
        2   -1    0    0  501    0  0.00000000000E+00  0.00000000000E+00  0.88762298471E+03  0.88762298471E+03  0.25500000920E-02 0.  1.
       -2   -1    0    0    0  501  0.00000000000E+00  0.00000000000E+00 -0.40352563895E+03  0.40352563896E+03  0.25500000920E-02 0. -1.
    10030    2    1    2    0    0  0.00000000000E+00  0.00000000000E+00  0.48409734576E+03  0.12911486237E+04  0.11969605375E+04 0.  0.
        2    1    3    3  502    0 -0.24817573921E+03 -0.28861565834E+03  0.74022152768E+03  0.83235695817E+03  0.25500000920E-02 0.  1.
       -2    1    3    3    0  502  0.24817573921E+03  0.28861565834E+03 -0.25612418192E+03  0.45879166551E+03  0.25500000920E-02 0. -1.
</event>
<event>
 5   0  0.3453625E-04  0.1115992E+04  0.7818609E-02  0.9189744E-01
        3   -1    0    0  501    0  0.00000000000E+00  0.00000000000E+00  0.10533109664E+04  0.10533109713E+04  0.10100000352E+00 0.  1.
       -3   -1    0    0    0  501  0.00000000000E+00  0.00000000000E+00 -0.29560074162E+03  0.29560075888E+03  0.10100000352E+00 0. -1.
    10030    2    1    2    0    0  0.00000000000E+00  0.00000000000E+00  0.75771022480E+03  0.13489117301E+04  0.11159919672E+04 0.  0.
        4    1    3    3  502    0 -0.90415768902E+02  0.44793564943E+03 -0.81901963644E+01  0.45704490974E+03  0.12699999809E+01 0. -1.
       -4    1    3    3    0  502  0.90415768902E+02 -0.44793564943E+03  0.76590042117E+03  0.89186682041E+03  0.12699999809E+01 0.  1.
</event>
<event>
 5   0  0.5447074E-04  0.1190973E+04  0.7818609E-02  0.9120794E-01
        1   -1    0    0  501    0  0.00000000000E+00  0.00000000000E+00  0.42711273792E+03  0.42711273795E+03  0.50400001928E-02 0.  1.
       -1   -1    0    0    0  501  0.00000000000E+00  0.00000000000E+00 -0.83023614142E+03  0.83023614143E+03  0.50400001928E-02 0. -1.
    10030    2    1    2    0    0  0.00000000000E+00  0.00000000000E+00 -0.40312340349E+03  0.12573488794E+04  0.11909734363E+04 0.  0.
        4    1    3    3  502    0  0.15018686829E+03 -0.45124663537E+03  0.17677237753E+03  0.50737531246E+03  0.12699999809E+01 0. -1.
       -4    1    3    3    0  502 -0.15018686829E+03  0.45124663537E+03 -0.57989578102E+03  0.74997356692E+03  0.12699999809E+01 0.  1.
</event>
<event>
 5   0  0.3453625E-04  0.1204920E+04  0.7818609E-02  0.9108561E-01
       -3   -1    0    0    0  501  0.00000000000E+00  0.00000000000E+00  0.74822206239E+03  0.74822206921E+03  0.10100000352E+00 0. -1.
        3   -1    0    0  501    0  0.00000000000E+00  0.00000000000E+00 -0.48509372853E+03  0.48509373904E+03  0.10100000352E+00 0.  1.
    10030    2    1    2    0    0  0.00000000000E+00  0.00000000000E+00  0.26312833386E+03  0.12333158082E+04  0.12049196499E+04 0.  0.
        3    1    3    3  502    0 -0.36213957176E+03  0.14698924809E+03  0.60085245716E+03  0.71678071540E+03  0.10100000352E+00 0. -1.
       -3    1    3    3    0  502  0.36213957176E+03 -0.14698924809E+03 -0.33772412330E+03  0.51653509285E+03  0.10100000352E+00 0.  1.
</event>
<event>
 5   0  0.9070772E-04  0.1200166E+04  0.7818609E-02  0.9112711E-01
       -2   -1    0    0    0  501  0.00000000000E+00  0.00000000000E+00  0.48634737888E+03  0.48634737889E+03  0.25500000920E-02 0. -1.
        2   -1    0    0  501    0  0.00000000000E+00  0.00000000000E+00 -0.74041626544E+03  0.74041626544E+03  0.25500000920E-02 0.  1.
    10030    2    1    2    0    0  0.00000000000E+00  0.00000000000E+00 -0.25406888656E+03  0.12267636443E+04  0.12001658385E+04 0.  0.
        4    1    3    3  502    0  0.13989438825E+03  0.28996312135E+03  0.39059623812E+03  0.50617791906E+03  0.12699999809E+01 0. -1.
       -4    1    3    3    0  502 -0.13989438825E+03 -0.28996312135E+03 -0.64466512467E+03  0.72058572528E+03  0.12699999809E+01 0.  1.
</event>
<event>
 5   0  0.9145224E-04  0.1195757E+04  0.7818609E-02  0.9116579E-01
       -2   -1    0    0    0  501  0.00000000000E+00  0.00000000000E+00  0.25232334952E+03  0.25232334954E+03  0.25500000920E-02 0. -1.
        2   -1    0    0  501    0  0.00000000000E+00  0.00000000000E+00 -0.14166690509E+04  0.14166690509E+04  0.25500000920E-02 0.  1.
    10030    2    1    2    0    0  0.00000000000E+00  0.00000000000E+00 -0.11643457013E+04  0.16689924004E+04  0.11957569654E+04 0.  0.
        5    1    3    3  502    0 -0.47673634693E+03 -0.35936852520E+03 -0.53774223553E+03  0.80349989624E+03  0.46999998093E+01 0.  1.
       -5    1    3    3    0  502  0.47673634693E+03  0.35936852520E+03 -0.62660346581E+03  0.86549250416E+03  0.46999998093E+01 0. -1.
</event>
<event>
 5   0  0.5001586E-04  0.1197769E+04  0.7818609E-02  0.9114812E-01
        1   -1    0    0  501    0  0.00000000000E+00  0.00000000000E+00  0.18492973144E+04  0.18492973144E+04  0.50400001928E-02 0.  1.
       -1   -1    0    0    0  501  0.00000000000E+00  0.00000000000E+00 -0.19394533646E+03  0.19394533652E+03  0.50400001928E-02 0. -1.
    10030    2    1    2    0    0  0.00000000000E+00  0.00000000000E+00  0.16553519779E+04  0.20432426509E+04  0.11977689091E+04 0.  0.
        1    1    3    3  502    0  0.10045700491E+03  0.15975715198E+03 -0.14189779275E+03  0.23611213662E+03  0.50400001928E-02 0. -1.
       -1    1    3    3    0  502 -0.10045700491E+03 -0.15975715198E+03  0.17972497707E+04  0.18071305143E+04  0.50400001928E-02 0.  1.
</event>
<event>
 5   0  0.9070772E-04  0.1198882E+04  0.7818609E-02  0.9113835E-01
       -2   -1    0    0    0  501  0.00000000000E+00  0.00000000000E+00  0.40968793237E+03  0.40968793238E+03  0.25500000920E-02 0.  1.
        2   -1    0    0  501    0  0.00000000000E+00  0.00000000000E+00 -0.87708162812E+03  0.87708162813E+03  0.25500000920E-02 0. -1.
    10030    2    1    2    0    0  0.00000000000E+00  0.00000000000E+00 -0.46739369575E+03  0.12867695605E+04  0.11988824108E+04 0.  0.
        4    1    3    3  502    0  0.33312823313E+03  0.30906788644E+03  0.18589745956E+03  0.49097541334E+03  0.12699999809E+01 0.  1.
       -4    1    3    3    0  502 -0.33312823313E+03 -0.30906788644E+03 -0.65329115532E+03  0.79579414716E+03  0.12699999809E+01 0. -1.
</event>
<event>
 5   0  0.3453625E-04  0.1195263E+04  0.7818609E-02  0.9117013E-01
       -3   -1    0    0    0  501  0.00000000000E+00  0.00000000000E+00  0.27215056843E+03  0.27215058717E+03  0.10100000352E+00 0.  1.
        3   -1    0    0  501    0  0.00000000000E+00  0.00000000000E+00 -0.13123736717E+04  0.13123736756E+04  0.10100000352E+00 0. -1.
    10030    2    1    2    0    0  0.00000000000E+00  0.00000000000E+00 -0.10402231033E+04  0.15845242627E+04  0.11952627471E+04 0.  0.
        3    1    3    3  502    0  0.29732212378E+03 -0.10758252364E+03 -0.11924091175E+04  0.12336182385E+04  0.10100000352E+00 0. -1.
       -3    1    3    3    0  502 -0.29732212378E+03  0.10758252364E+03  0.15218601427E+03  0.35090602420E+03  0.10100000352E+00 0.  1.
</event>
<event>
 5   0  0.5003507E-04  0.1183892E+04  0.7818609E-02  0.9127073E-01
        1   -1    0    0  501    0  0.00000000000E+00  0.00000000000E+00  0.84117587695E+03  0.84117587696E+03  0.50400001928E-02 0.  1.
       -1   -1    0    0    0  501  0.00000000000E+00  0.00000000000E+00 -0.41656011452E+03  0.41656011455E+03  0.50400001928E-02 0. -1.
    10030    2    1    2    0    0  0.00000000000E+00  0.00000000000E+00  0.42461576243E+03  0.12577359915E+04  0.11838924270E+04 0.  0.
        3    1    3    3  502    0  0.26781574470E+03  0.49650982642E+03  0.21810859588E+02  0.56455558153E+03  0.10100000352E+00 0. -1.
       -3    1    3    3    0  502 -0.26781574470E+03 -0.49650982642E+03  0.40280490284E+03  0.69318040999E+03  0.10100000352E+00 0.  1.
</event>
<event>
 5   0  0.5052959E-04  0.1196954E+04  0.7818609E-02  0.9115527E-01
       -1   -1    0    0    0  501  0.00000000000E+00  0.00000000000E+00  0.12206460032E+04  0.12206460032E+04  0.50400001928E-02 0. -1.
        1   -1    0    0  501    0  0.00000000000E+00  0.00000000000E+00 -0.29343058760E+03  0.29343058764E+03  0.50400001928E-02 0.  1.
    10030    2    1    2    0    0  0.00000000000E+00  0.00000000000E+00  0.92721541560E+03  0.15140765909E+04  0.11969542581E+04 0.  0.
        2    1    3    3  502    0 -0.24477065015E+03  0.63043928639E+02 -0.22260115200E+03  0.33680629595E+03  0.25500000920E-02 0.  1.
       -2    1    3    3    0  502  0.24477065015E+03 -0.63043928639E+02  0.11498165676E+04  0.11772702949E+04  0.25500000920E-02 0. -1.
</event>
<event>
 5   0  0.5052959E-04  0.1197409E+04  0.7818609E-02  0.9115128E-01
       -1   -1    0    0    0  501  0.00000000000E+00  0.00000000000E+00  0.96743523722E+03  0.96743523723E+03  0.50400001928E-02 0. -1.
        1   -1    0    0  501    0  0.00000000000E+00  0.00000000000E+00 -0.37051263780E+03  0.37051263783E+03  0.50400001928E-02 0.  1.
    10030    2    1    2    0    0  0.00000000000E+00  0.00000000000E+00  0.59692259941E+03  0.13379478751E+04  0.11974088386E+04 0.  0.
        2    1    3    3  502    0  0.45357996118E+03 -0.22985289215E+03  0.65159215962E+03  0.82652251977E+03  0.25500000920E-02 0. -1.
       -2    1    3    3    0  502 -0.45357996118E+03  0.22985289215E+03 -0.54669560202E+02  0.51142535529E+03  0.25500000920E-02 0.  1.
</event>
<event>
 5   0  0.5001586E-04  0.1196784E+04  0.7818609E-02  0.9115676E-01
       -1   -1    0    0    0  501  0.00000000000E+00  0.00000000000E+00  0.83812370822E+03  0.83812370823E+03  0.50400001928E-02 0.  1.
        1   -1    0    0  501    0  0.00000000000E+00  0.00000000000E+00 -0.42723200478E+03  0.42723200481E+03  0.50400001928E-02 0. -1.
    10030    2    1    2    0    0  0.00000000000E+00  0.00000000000E+00  0.41089170344E+03  0.12653557130E+04  0.11967844788E+04 0.  0.
        1    1    3    3  502    0  0.58178999676E+03  0.44750478697E+02  0.65215259979E+02  0.58714158074E+03  0.50400001928E-02 0. -1.
       -1    1    3    3    0  502 -0.58178999676E+03 -0.44750478697E+02  0.34567644346E+03  0.67821413231E+03  0.50400001928E-02 0.  1.
</event>
<event>
 5   0  0.5157631E-04  0.1202823E+04  0.7818609E-02  0.9110389E-01
       -1   -1    0    0    0  501  0.00000000000E+00  0.00000000000E+00  0.60609015339E+03  0.60609015342E+03  0.50400001928E-02 0. -1.
        1   -1    0    0  501    0  0.00000000000E+00  0.00000000000E+00 -0.59676910351E+03  0.59676910353E+03  0.50400001928E-02 0.  1.
    10030    2    1    2    0    0  0.00000000000E+00  0.00000000000E+00  0.93210498876E+01  0.12028592569E+04  0.12028231416E+04 0.  0.
        5    1    3    3  502    0  0.20253145808E+03 -0.27524116661E+02  0.57027207841E+03  0.60581259637E+03  0.46999998093E+01 0. -1.
       -5    1    3    3    0  502 -0.20253145808E+03  0.27524116661E+02 -0.56095102852E+03  0.59704666058E+03  0.46999998093E+01 0.  1.
</event>
<event>
 5   0  0.5052959E-04  0.1199703E+04  0.7818609E-02  0.9113116E-01
       -1   -1    0    0    0  501  0.00000000000E+00  0.00000000000E+00  0.25958511885E+03  0.25958511890E+03  0.50400001928E-02 0.  1.
        1   -1    0    0  501    0  0.00000000000E+00  0.00000000000E+00 -0.13861420936E+04  0.13861420936E+04  0.50400001928E-02 0. -1.
    10030    2    1    2    0    0  0.00000000000E+00  0.00000000000E+00 -0.11265569748E+04  0.16457272125E+04  0.11997030635E+04 0.  0.
        2    1    3    3  502    0  0.21939429083E+03 -0.34127468947E+03 -0.11693805787E+04  0.12377613689E+04  0.25500000920E-02 0. -1.
       -2    1    3    3    0  502 -0.21939429083E+03  0.34127468947E+03  0.42823603898E+02  0.40796584364E+03  0.25500000920E-02 0.  1.
</event>
<event>
 5   0  0.9070772E-04  0.1199394E+04  0.7818609E-02  0.9113387E-01
        2   -1    0    0  501    0  0.00000000000E+00  0.00000000000E+00  0.15351156384E+04  0.15351156384E+04  0.25500000920E-02 0.  1.
       -2   -1    0    0    0  501  0.00000000000E+00  0.00000000000E+00 -0.23427315157E+03  0.23427315159E+03  0.25500000920E-02 0. -1.
    10030    2    1    2    0    0  0.00000000000E+00  0.00000000000E+00  0.13008424868E+04  0.17693887900E+04  0.11993938113E+04 0.  0.
        4    1    3    3  502    0  0.32877580284E+03  0.15472295273E+03 -0.53379219083E+02  0.36726512844E+03  0.12699999809E+01 0. -1.
       -4    1    3    3    0  502 -0.32877580284E+03 -0.15472295273E+03  0.13542217059E+04  0.14021236616E+04  0.12699999809E+01 0.  1.
</event>
<event>
 5   0  0.9070772E-04  0.1200022E+04  0.7818609E-02  0.9112837E-01
        2   -1    0    0  501    0  0.00000000000E+00  0.00000000000E+00  0.10446316270E+04  0.10446316271E+04  0.25500000920E-02 0.  1.
       -2   -1    0    0    0  501  0.00000000000E+00  0.00000000000E+00 -0.34463165458E+03  0.34463165459E+03  0.25500000920E-02 0. -1.
    10030    2    1    2    0    0  0.00000000000E+00  0.00000000000E+00  0.69999997247E+03  0.13892632816E+04  0.12000218766E+04 0.  0.
        4    1    3    3  502    0  0.23702195819E+03  0.54041006957E+03  0.47569990740E+03  0.75796732565E+03  0.12699999809E+01 0. -1.
       -4    1    3    3    0  502 -0.23702195819E+03 -0.54041006957E+03  0.22430006507E+03  0.63129595599E+03  0.12699999809E+01 0.  1.
</event>
<event>
 5   0  0.9298693E-04  0.1224392E+04  0.7818609E-02  0.9091770E-01
        2   -1    0    0  501    0  0.00000000000E+00  0.00000000000E+00  0.64515231552E+03  0.64515231553E+03  0.25500000920E-02 0. -1.
       -2   -1    0    0    0  501  0.00000000000E+00  0.00000000000E+00 -0.58092357375E+03  0.58092357376E+03  0.25500000920E-02 0.  1.
    10030    2    1    2    0    0  0.00000000000E+00  0.00000000000E+00  0.64228741768E+02  0.12260758893E+04  0.12243924024E+04 0.  0.
        1    1    3    3  502    0 -0.41501178449E+03 -0.13875521601E+03  0.46083431834E+03  0.63549670355E+03  0.50400001928E-02 0. -1.
       -1    1    3    3    0  502  0.41501178449E+03  0.13875521601E+03 -0.39660557657E+03  0.59057918574E+03  0.50400001928E-02 0.  1.
</event>
<event>
 5   0  0.5447074E-04  0.1200503E+04  0.7818609E-02  0.9112417E-01
        1   -1    0    0  501    0  0.00000000000E+00  0.00000000000E+00  0.11496302547E+04  0.11496302547E+04  0.50400001928E-02 0. -1.
       -1   -1    0    0    0  501  0.00000000000E+00  0.00000000000E+00 -0.31340665027E+03  0.31340665031E+03  0.50400001928E-02 0.  1.
    10030    2    1    2    0    0  0.00000000000E+00  0.00000000000E+00  0.83622360441E+03  0.14630369050E+04  0.12005028400E+04 0.  0.
        4    1    3    3  502    0 -0.68867956937E+02  0.54053568985E+03  0.11130628896E+03  0.55615854786E+03  0.12699999809E+01 0.  1.
       -4    1    3    3    0  502  0.68867956937E+02 -0.54053568985E+03  0.72491731545E+03  0.90687835713E+03  0.12699999809E+01 0. -1.
</event>
<event>
 5   0  0.5447074E-04  0.1206822E+04  0.7818609E-02  0.9106907E-01
        1   -1    0    0  501    0  0.00000000000E+00  0.00000000000E+00  0.54191694682E+03  0.54191694684E+03  0.50400001928E-02 0. -1.
       -1   -1    0    0    0  501  0.00000000000E+00  0.00000000000E+00 -0.67188261316E+03  0.67188261318E+03  0.50400001928E-02 0.  1.
    10030    2    1    2    0    0  0.00000000000E+00  0.00000000000E+00 -0.12996566634E+03  0.12137995600E+04  0.12068215682E+04 0.  0.
        4    1    3    3  502    0  0.24096816968E+03  0.52694110226E+03  0.10442616304E+03  0.58876057993E+03  0.12699999809E+01 0. -1.
       -4    1    3    3    0  502 -0.24096816968E+03 -0.52694110226E+03 -0.23439182939E+03  0.62503898009E+03  0.12699999809E+01 0.  1.
</event>
<event>
 5   0  0.9145224E-04  0.1201149E+04  0.7818609E-02  0.9111852E-01
        2   -1    0    0  501    0  0.00000000000E+00  0.00000000000E+00  0.63979445390E+03  0.63979445390E+03  0.25500000920E-02 0.  1.
       -2   -1    0    0    0  501  0.00000000000E+00  0.00000000000E+00 -0.56375863592E+03  0.56375863593E+03  0.25500000920E-02 0. -1.
    10030    2    1    2    0    0  0.00000000000E+00  0.00000000000E+00  0.76035817979E+02  0.12035530898E+04  0.12011488644E+04 0.  0.
        5    1    3    3  502    0 -0.29893439096E+02  0.29847817358E+03 -0.48329717136E+03  0.56884187930E+03  0.46999998093E+01 0. -1.
       -5    1    3    3    0  502  0.29893439096E+02 -0.29847817358E+03  0.55933298934E+03  0.63471121053E+03  0.46999998093E+01 0.  1.
</event>
<event>
 5   0  0.5157631E-04  0.1199347E+04  0.7818609E-02  0.9113428E-01
       -1   -1    0    0    0  501  0.00000000000E+00  0.00000000000E+00  0.33504090590E+03  0.33504090593E+03  0.50400001928E-02 0.  1.
        1   -1    0    0  501    0  0.00000000000E+00  0.00000000000E+00 -0.10733271422E+04  0.10733271422E+04  0.50400001928E-02 0. -1.
    10030    2    1    2    0    0  0.00000000000E+00  0.00000000000E+00 -0.73828623632E+03  0.14083680482E+04  0.11993473193E+04 0.  0.
        5    1    3    3  502    0  0.12467938276E+03  0.49817860533E+02 -0.10554280580E+04  0.10639441919E+04  0.46999998093E+01 0. -1.
       -5    1    3    3    0  502 -0.12467938276E+03 -0.49817860533E+02  0.31714182171E+03  0.34442385630E+03  0.46999998093E+01 0.  1.
</event>
<event>
 5   0  0.5157631E-04  0.1199424E+04  0.7818609E-02  0.9113360E-01
       -1   -1    0    0    0  501  0.00000000000E+00  0.00000000000E+00  0.29572397995E+03  0.29572397999E+03  0.50400001928E-02 0. -1.
        1   -1    0    0  501    0  0.00000000000E+00  0.00000000000E+00 -0.12161839082E+04  0.12161839083E+04  0.50400001928E-02 0.  1.
    10030    2    1    2    0    0  0.00000000000E+00  0.00000000000E+00 -0.92045992830E+03  0.15119078883E+04  0.11994244382E+04 0.  0.
        5    1    3    3  502    0 -0.46205008686E+03 -0.36213097589E+03 -0.61463062492E+03  0.84995412909E+03  0.46999998093E+01 0.  1.
       -5    1    3    3    0  502  0.46205008686E+03  0.36213097589E+03 -0.30582930338E+03  0.66195375916E+03  0.46999998093E+01 0. -1.
</event>
<event>
 5   0  0.9410666E-04  0.1203698E+04  0.7818609E-02  0.9109626E-01
       -2   -1    0    0    0  501  0.00000000000E+00  0.00000000000E+00  0.34240732814E+03  0.34240732815E+03  0.25500000920E-02 0. -1.
        2   -1    0    0  501    0  0.00000000000E+00  0.00000000000E+00 -0.10578695170E+04  0.10578695170E+04  0.25500000920E-02 0.  1.
    10030    2    1    2    0    0  0.00000000000E+00  0.00000000000E+00 -0.71546218882E+03  0.14002768451E+04  0.12036980931E+04 0.  0.
        2    1    3    3  502    0 -0.41752585387E+03  0.43071323095E+03 -0.41449011399E+03  0.72913906805E+03  0.25500000920E-02 0. -1.
       -2    1    3    3    0  502  0.41752585387E+03 -0.43071323095E+03 -0.30097207484E+03  0.67113777706E+03  0.25500000920E-02 0.  1.
</event>
<event>
 5   0  0.5003507E-04  0.1180368E+04  0.7818609E-02  0.9130216E-01
       -1   -1    0    0    0  501  0.00000000000E+00  0.00000000000E+00  0.62706886612E+03  0.62706886614E+03  0.50400001928E-02 0. -1.
        1   -1    0    0  501    0  0.00000000000E+00  0.00000000000E+00 -0.55546920406E+03  0.55546920409E+03  0.50400001928E-02 0.  1.
    10030    2    1    2    0    0  0.00000000000E+00  0.00000000000E+00  0.71599662054E+02  0.11825380702E+04  0.11803684916E+04 0.  0.
        3    1    3    3  502    0 -0.13344733543E+03 -0.19507453173E+03 -0.50598541532E+03  0.55846532120E+03  0.10100000352E+00 0.  1.
       -3    1    3    3    0  502  0.13344733543E+03  0.19507453173E+03  0.57758507738E+03  0.62407274902E+03  0.10100000352E+00 0. -1.
</event>
<event>
 5   0  0.9050363E-04  0.1265527E+04  0.7818609E-02  0.9057358E-01
        2   -1    0    0  501    0  0.00000000000E+00  0.00000000000E+00  0.69297259623E+03  0.69297259623E+03  0.25500000920E-02 0. -1.
       -2   -1    0    0    0  501  0.00000000000E+00  0.00000000000E+00 -0.57778572340E+03  0.57778572341E+03  0.25500000920E-02 0.  1.
    10030    2    1    2    0    0  0.00000000000E+00  0.00000000000E+00  0.11518687283E+03  0.12707583196E+04  0.12655270409E+04 0.  0.
        3    1    3    3  502    0 -0.21504206758E+03 -0.13660739881E+03 -0.52401149427E+03  0.58266004545E+03  0.10100000352E+00 0.  1.
       -3    1    3    3    0  502  0.21504206758E+03  0.13660739881E+03  0.63919836709E+03  0.68809827418E+03  0.10100000352E+00 0. -1.
</event>
<event>
 5   0  0.3453625E-04  0.1191819E+04  0.7818609E-02  0.9120048E-01
       -3   -1    0    0    0  501  0.00000000000E+00  0.00000000000E+00  0.59054105467E+03  0.59054106331E+03  0.10100000352E+00 0.  1.
        3   -1    0    0  501    0  0.00000000000E+00  0.00000000000E+00 -0.60132625245E+03  0.60132626093E+03  0.10100000352E+00 0. -1.
    10030    2    1    2    0    0  0.00000000000E+00  0.00000000000E+00 -0.10785197776E+02  0.11918673242E+04  0.11918185257E+04 0.  0.
        3    1    3    3  502    0 -0.57031497385E+02 -0.56902562174E+03 -0.17292584246E+03  0.59744966908E+03  0.10100000352E+00 0. -1.
       -3    1    3    3    0  502  0.57031497385E+02  0.56902562174E+03  0.16214064469E+03  0.59441765515E+03  0.10100000352E+00 0.  1.
</event>
<event>
 5   0  0.9070772E-04  0.1228001E+04  0.7818609E-02  0.9088695E-01
        2   -1    0    0  501    0  0.00000000000E+00  0.00000000000E+00  0.10134052188E+04  0.10134052188E+04  0.25500000920E-02 0.  1.
       -2   -1    0    0    0  501  0.00000000000E+00  0.00000000000E+00 -0.37200959230E+03  0.37200959231E+03  0.25500000920E-02 0. -1.
    10030    2    1    2    0    0  0.00000000000E+00  0.00000000000E+00  0.64139562655E+03  0.13854148112E+04  0.12280007529E+04 0.  0.
        4    1    3    3  502    0  0.13217545281E+03  0.41361032669E+03 -0.16905891675E+03  0.46596822091E+03  0.12699999809E+01 0. -1.
       -4    1    3    3    0  502 -0.13217545281E+03 -0.41361032669E+03  0.81045454329E+03  0.91944659025E+03  0.12699999809E+01 0.  1.
</event>
<event>
 5   0  0.9070772E-04  0.1200178E+04  0.7818609E-02  0.9112701E-01
        2   -1    0    0  501    0  0.00000000000E+00  0.00000000000E+00  0.49841073010E+03  0.49841073011E+03  0.25500000920E-02 0. -1.
       -2   -1    0    0    0  501  0.00000000000E+00  0.00000000000E+00 -0.72250997797E+03  0.72250997798E+03  0.25500000920E-02 0.  1.
    10030    2    1    2    0    0  0.00000000000E+00  0.00000000000E+00 -0.22409924787E+03  0.12209207081E+04  0.12001778629E+04 0.  0.
        4    1    3    3  502    0  0.33044351474E+03 -0.11851490831E+03 -0.60715037982E+03  0.70133579442E+03  0.12699999809E+01 0.  1.
       -4    1    3    3    0  502 -0.33044351474E+03  0.11851490831E+03  0.38305113195E+03  0.51958491367E+03  0.12699999809E+01 0. -1.
</event>
<event>
 5   0  0.5052959E-04  0.1201977E+04  0.7818609E-02  0.9111128E-01
       -1   -1    0    0    0  501  0.00000000000E+00  0.00000000000E+00  0.25673988387E+03  0.25673988392E+03  0.50400001928E-02 0.  1.
        1   -1    0    0  501    0  0.00000000000E+00  0.00000000000E+00 -0.14068207623E+04  0.14068207623E+04  0.50400001928E-02 0. -1.
    10030    2    1    2    0    0  0.00000000000E+00  0.00000000000E+00 -0.11500808784E+04  0.16635606462E+04  0.12019767039E+04 0.  0.
        2    1    3    3  502    0 -0.35108443917E+03 -0.47754752946E+03 -0.43750559435E+03  0.73669740831E+03  0.25500000920E-02 0.  1.
       -2    1    3    3    0  502  0.35108443917E+03  0.47754752946E+03 -0.71257528408E+03  0.92686323792E+03  0.25500000920E-02 0. -1.
</event>
<event>
 5   0  0.9298693E-04  0.1199886E+04  0.7818609E-02  0.9112957E-01
        2   -1    0    0  501    0  0.00000000000E+00  0.00000000000E+00  0.56999227342E+03  0.56999227342E+03  0.25500000920E-02 0. -1.
       -2   -1    0    0    0  501  0.00000000000E+00  0.00000000000E+00 -0.63146713225E+03  0.63146713226E+03  0.25500000920E-02 0.  1.
    10030    2    1    2    0    0  0.00000000000E+00  0.00000000000E+00 -0.61474858838E+02  0.12014594057E+04  0.11998856384E+04 0.  0.
        1    1    3    3  502    0  0.64196112939E+02  0.50156152563E+03 -0.35403283470E+03  0.61727170110E+03  0.50400001928E-02 0.  1.
       -1    1    3    3    0  502 -0.64196112939E+02 -0.50156152563E+03  0.29255797587E+03  0.58418770458E+03  0.50400001928E-02 0. -1.
</event>
<event>
 5   0  0.5001586E-04  0.1197644E+04  0.7818609E-02  0.9114921E-01
       -1   -1    0    0    0  501  0.00000000000E+00  0.00000000000E+00  0.92279354193E+03  0.92279354194E+03  0.50400001928E-02 0.  1.
        1   -1    0    0  501    0  0.00000000000E+00  0.00000000000E+00 -0.38858927608E+03  0.38858927611E+03  0.50400001928E-02 0. -1.
    10030    2    1    2    0    0  0.00000000000E+00  0.00000000000E+00  0.53420426585E+03  0.13113828181E+04  0.11976438109E+04 0.  0.
        1    1    3    3  502    0  0.41300760565E+03 -0.43258969606E+03  0.23464693155E+03  0.64247047401E+03  0.50400001928E-02 0.  1.
       -1    1    3    3    0  502 -0.41300760565E+03  0.43258969606E+03  0.29955733430E+03  0.66891234405E+03  0.50400001928E-02 0. -1.
</event>
<event>
 5   0  0.5157631E-04  0.1177407E+04  0.7818609E-02  0.9132865E-01
       -1   -1    0    0    0  501  0.00000000000E+00  0.00000000000E+00  0.24486301498E+03  0.24486301503E+03  0.50400001928E-02 0.  1.
        1   -1    0    0  501    0  0.00000000000E+00  0.00000000000E+00 -0.14153695654E+04  0.14153695654E+04  0.50400001928E-02 0. -1.
    10030    2    1    2    0    0  0.00000000000E+00  0.00000000000E+00 -0.11705065504E+04  0.16602325805E+04  0.11774067422E+04 0.  0.
        5    1    3    3  502    0  0.33232797845E+02  0.53672505626E+03 -0.92299911055E+03  0.10682357666E+04  0.46999998093E+01 0.  1.
       -5    1    3    3    0  502 -0.33232797845E+02 -0.53672505626E+03 -0.24750743989E+03  0.59199681390E+03  0.46999998093E+01 0. -1.
</event>
<event>
 5   0  0.9298693E-04  0.1205158E+04  0.7818609E-02  0.9108353E-01
        2   -1    0    0  501    0  0.00000000000E+00  0.00000000000E+00  0.11367054452E+04  0.11367054452E+04  0.25500000920E-02 0.  1.
       -2   -1    0    0    0  501  0.00000000000E+00  0.00000000000E+00 -0.31943337404E+03  0.31943337405E+03  0.25500000920E-02 0. -1.
    10030    2    1    2    0    0  0.00000000000E+00  0.00000000000E+00  0.81727207121E+03  0.14561388193E+04  0.12051583393E+04 0.  0.
        1    1    3    3  502    0  0.11416573050E+03  0.34144979311E+03 -0.17518992253E+03  0.40039141376E+03  0.50400001928E-02 0. -1.
       -1    1    3    3    0  502 -0.11416573050E+03 -0.34144979311E+03  0.99246199374E+03  0.10557474055E+04  0.50400001928E-02 0.  1.
</event>
<event>
 5   0  0.5157631E-04  0.1229075E+04  0.7818609E-02  0.9087781E-01
        1   -1    0    0  501    0  0.00000000000E+00  0.00000000000E+00  0.10768784002E+04  0.10768784002E+04  0.50400001928E-02 0.  1.
       -1   -1    0    0    0  501  0.00000000000E+00  0.00000000000E+00 -0.35069533152E+03  0.35069533156E+03  0.50400001928E-02 0. -1.
    10030    2    1    2    0    0  0.00000000000E+00  0.00000000000E+00  0.72618306868E+03  0.14275737318E+04  0.12290748189E+04 0.  0.
        5    1    3    3  502    0  0.40926843098E+03 -0.20584036878E+03  0.83883038466E+03  0.95578732480E+03  0.46999998093E+01 0.  1.
       -5    1    3    3    0  502 -0.40926843098E+03  0.20584036878E+03 -0.11264731598E+03  0.47178640698E+03  0.46999998093E+01 0. -1.
</event>
<event>
 5   0  0.5003507E-04  0.1194445E+04  0.7818609E-02  0.9117733E-01
        1   -1    0    0  501    0  0.00000000000E+00  0.00000000000E+00  0.13186367467E+04  0.13186367467E+04  0.50400001928E-02 0.  1.
       -1   -1    0    0    0  501  0.00000000000E+00  0.00000000000E+00 -0.27048732493E+03  0.27048732498E+03  0.50400001928E-02 0. -1.
    10030    2    1    2    0    0  0.00000000000E+00  0.00000000000E+00  0.10481494218E+04  0.15891240717E+04  0.11944446847E+04 0.  0.
        3    1    3    3  502    0  0.13714943390E+03 -0.32800879094E+03 -0.11435774037E+03  0.37346678184E+03  0.10100000352E+00 0. -1.
       -3    1    3    3    0  502 -0.13714943390E+03  0.32800879094E+03  0.11625071621E+04  0.12156572898E+04  0.10100000352E+00 0.  1.
</event>
<event>
 5   0  0.5447074E-04  0.1201578E+04  0.7818609E-02  0.9111476E-01
       -1   -1    0    0    0  501  0.00000000000E+00  0.00000000000E+00  0.22298118758E+03  0.22298118763E+03  0.50400001928E-02 0. -1.
        1   -1    0    0  501    0  0.00000000000E+00  0.00000000000E+00 -0.16187352780E+04  0.16187352780E+04  0.50400001928E-02 0.  1.
    10030    2    1    2    0    0  0.00000000000E+00  0.00000000000E+00 -0.13957540904E+04  0.18417164656E+04  0.12015781534E+04 0.  0.
        4    1    3    3  502    0 -0.18605144690E+02  0.41967843246E+03 -0.13561914271E+04  0.14197650995E+04  0.12699999809E+01 0.  1.
       -4    1    3    3    0  502  0.18605144690E+02 -0.41967843246E+03 -0.39562663283E+02  0.42195136604E+03  0.12699999809E+01 0. -1.
</event>
<event>
 5   0  0.9145224E-04  0.1201597E+04  0.7818609E-02  0.9111459E-01
       -2   -1    0    0    0  501  0.00000000000E+00  0.00000000000E+00  0.31269138895E+03  0.31269138896E+03  0.25500000920E-02 0.  1.
        2   -1    0    0  501    0  0.00000000000E+00  0.00000000000E+00 -0.11543620765E+04  0.11543620765E+04  0.25500000920E-02 0. -1.
    10030    2    1    2    0    0  0.00000000000E+00  0.00000000000E+00 -0.84167068756E+03  0.14670534655E+04  0.12015974052E+04 0.  0.
        5    1    3    3  502    0  0.44186607873E+03  0.14838845472E+03  0.41943365142E+02  0.46802361148E+03  0.46999998093E+01 0.  1.
       -5    1    3    3    0  502 -0.44186607873E+03 -0.14838845472E+03 -0.88361405270E+03  0.99902985398E+03  0.46999998093E+01 0. -1.
</event>
<event>
 5   0  0.9298693E-04  0.1192689E+04  0.7818609E-02  0.9119280E-01
       -2   -1    0    0    0  501  0.00000000000E+00  0.00000000000E+00  0.19953111335E+03  0.19953111336E+03  0.25500000920E-02 0.  1.
        2   -1    0    0  501    0  0.00000000000E+00  0.00000000000E+00 -0.17823117200E+04  0.17823117200E+04  0.25500000920E-02 0. -1.
    10030    2    1    2    0    0  0.00000000000E+00  0.00000000000E+00 -0.15827806066E+04  0.19818428333E+04  0.11926887974E+04 0.  0.
        1    1    3    3  502    0 -0.36084283179E+03  0.26560576300E+03 -0.14453175980E+04  0.15131744545E+04  0.50400001928E-02 0. -1.
       -1    1    3    3    0  502  0.36084283179E+03 -0.26560576300E+03 -0.13746300865E+03  0.46866837888E+03  0.50400001928E-02 0.  1.
</event>
<event>
 5   0  0.5052959E-04  0.1205517E+04  0.7818609E-02  0.9108041E-01
        1   -1    0    0  501    0  0.00000000000E+00  0.00000000000E+00  0.90092672428E+03  0.90092672429E+03  0.50400001928E-02 0.  1.
       -1   -1    0    0    0  501  0.00000000000E+00  0.00000000000E+00 -0.40327111095E+03  0.40327111098E+03  0.50400001928E-02 0. -1.
    10030    2    1    2    0    0  0.00000000000E+00  0.00000000000E+00  0.49765561333E+03  0.13041978353E+04  0.12055168535E+04 0.  0.
        2    1    3    3  502    0 -0.11549382583E+03  0.56390544472E+03  0.55330808860E+02  0.57826436239E+03  0.25500000920E-02 0. -1.
       -2    1    3    3    0  502  0.11549382583E+03 -0.56390544472E+03  0.44232480447E+03  0.72593347288E+03  0.25500000920E-02 0.  1.
</event>
<event>
 5   0  0.5157631E-04  0.1199425E+04  0.7818609E-02  0.9113360E-01
        1   -1    0    0  501    0  0.00000000000E+00  0.00000000000E+00  0.23265618628E+04  0.23265618628E+04  0.50400001928E-02 0. -1.
       -1   -1    0    0    0  501  0.00000000000E+00  0.00000000000E+00 -0.15458644444E+03  0.15458644453E+03  0.50400001928E-02 0.  1.
    10030    2    1    2    0    0  0.00000000000E+00  0.00000000000E+00  0.21719754184E+04  0.24811483074E+04  0.11994247392E+04 0.  0.
        5    1    3    3  502    0  0.31935975654E+03  0.12097144908E+03  0.66246221554E+02  0.34790141917E+03  0.46999998093E+01 0.  1.
       -5    1    3    3    0  502 -0.31935975654E+03 -0.12097144908E+03  0.21057291968E+04  0.21332468882E+04  0.46999998093E+01 0. -1.
</event>
<event>
 5   0  0.9050363E-04  0.1206760E+04  0.7818609E-02  0.9106960E-01
        2   -1    0    0  501    0  0.00000000000E+00  0.00000000000E+00  0.21333318746E+04  0.21333318746E+04  0.25500000920E-02 0.  1.
       -2   -1    0    0    0  501  0.00000000000E+00  0.00000000000E+00 -0.17065679115E+03  0.17065679117E+03  0.25500000920E-02 0. -1.
    10030    2    1    2    0    0  0.00000000000E+00  0.00000000000E+00  0.19626750835E+04  0.23039886658E+04  0.12067602450E+04 0.  0.
        3    1    3    3  502    0  0.57867931092E+03 -0.47953201939E+01  0.13074470424E+04  0.14297938728E+04  0.10100000352E+00 0.  1.
       -3    1    3    3    0  502 -0.57867931092E+03  0.47953201939E+01  0.65522804110E+03  0.87419479295E+03  0.10100000352E+00 0. -1.
</event>
<event>
 5   0  0.9298693E-04  0.1201922E+04  0.7818609E-02  0.9111176E-01
        2   -1    0    0  501    0  0.00000000000E+00  0.00000000000E+00  0.52209964673E+03  0.52209964674E+03  0.25500000920E-02 0.  1.
       -2   -1    0    0    0  501  0.00000000000E+00  0.00000000000E+00 -0.69173357155E+03  0.69173357155E+03  0.25500000920E-02 0. -1.
    10030    2    1    2    0    0  0.00000000000E+00  0.00000000000E+00 -0.16963392482E+03  0.12138332183E+04  0.12019215504E+04 0.  0.
        1    1    3    3  502    0 -0.56559217059E+03  0.73458380390E+02 -0.27606963538E+03  0.63364428562E+03  0.50400001928E-02 0.  1.
       -1    1    3    3    0  502  0.56559217059E+03 -0.73458380390E+02  0.10643571056E+03  0.58018893267E+03  0.50400001928E-02 0. -1.
</event>
<event>
 5   0  0.3453625E-04  0.1200657E+04  0.7818609E-02  0.9112282E-01
        3   -1    0    0  501    0  0.00000000000E+00  0.00000000000E+00  0.53834715213E+03  0.53834716161E+03  0.10100000352E+00 0. -1.
       -3   -1    0    0    0  501  0.00000000000E+00  0.00000000000E+00 -0.66944571049E+03  0.66944571811E+03  0.10100000352E+00 0.  1.
    10030    2    1    2    0    0  0.00000000000E+00  0.00000000000E+00 -0.13109855836E+03  0.12077928797E+04  0.12006568237E+04 0.  0.
        2    1    3    3  502    0 -0.51459353278E+03  0.81940007830E+02  0.23433920884E+03  0.57134537162E+03  0.25500000920E-02 0. -1.
       -2    1    3    3    0  502  0.51459353278E+03 -0.81940007830E+02 -0.36543776720E+03  0.63644750810E+03  0.25500000920E-02 0.  1.
</event>
<event>
 5   0  0.5052959E-04  0.1200003E+04  0.7818609E-02  0.9112854E-01
        1   -1    0    0  501    0  0.00000000000E+00  0.00000000000E+00  0.68702567849E+03  0.68702567850E+03  0.50400001928E-02 0.  1.
       -1   -1    0    0    0  501  0.00000000000E+00  0.00000000000E+00 -0.52400022774E+03  0.52400022776E+03  0.50400001928E-02 0. -1.
    10030    2    1    2    0    0  0.00000000000E+00  0.00000000000E+00  0.16302545075E+03  0.12110259063E+04  0.12000026867E+04 0.  0.
        2    1    3    3  502    0 -0.13545832019E+03 -0.33241524522E+03  0.56671268626E+03  0.67082942730E+03  0.25500000920E-02 0.  1.
       -2    1    3    3    0  502  0.13545832019E+03  0.33241524522E+03 -0.40368723551E+03  0.54019647896E+03  0.25500000920E-02 0. -1.
</event>
<event>
 5   0  0.5157631E-04  0.1197439E+04  0.7818609E-02  0.9115101E-01
        1   -1    0    0  501    0  0.00000000000E+00  0.00000000000E+00  0.42755131626E+03  0.42755131629E+03  0.50400001928E-02 0.  1.
       -1   -1    0    0    0  501  0.00000000000E+00  0.00000000000E+00 -0.83841465122E+03  0.83841465124E+03  0.50400001928E-02 0. -1.
    10030    2    1    2    0    0  0.00000000000E+00  0.00000000000E+00 -0.41086333496E+03  0.12659659675E+04  0.11974394143E+04 0.  0.
        5    1    3    3  502    0 -0.25653064673E+02  0.31005909710E+03  0.33535700373E+03  0.45747254931E+03  0.46999998093E+01 0.  1.
       -5    1    3    3    0  502  0.25653064673E+02 -0.31005909710E+03 -0.74622033869E+03  0.80849341822E+03  0.46999998093E+01 0. -1.
</event>
<event>
 5   0  0.5052959E-04  0.1204081E+04  0.7818609E-02  0.9109292E-01
       -1   -1    0    0    0  501  0.00000000000E+00  0.00000000000E+00  0.70703781260E+03  0.70703781262E+03  0.50400001928E-02 0.  1.
        1   -1    0    0  501    0  0.00000000000E+00  0.00000000000E+00 -0.51263587075E+03  0.51263587077E+03  0.50400001928E-02 0. -1.
    10030    2    1    2    0    0  0.00000000000E+00  0.00000000000E+00  0.19440194185E+03  0.12196736834E+04  0.12040813008E+04 0.  0.
        2    1    3    3  502    0 -0.11435039482E+03  0.58214433852E+03  0.20092276251E+03  0.62636890103E+03  0.25500000920E-02 0.  1.
       -2    1    3    3    0  502  0.11435039482E+03 -0.58214433852E+03 -0.65208206608E+01  0.59330478237E+03  0.25500000920E-02 0. -1.
</event>
<event>
 5   0  0.5157631E-04  0.1203020E+04  0.7818609E-02  0.9110217E-01
        1   -1    0    0  501    0  0.00000000000E+00  0.00000000000E+00  0.38120361623E+03  0.38120361626E+03  0.50400001928E-02 0.  1.
       -1   -1    0    0    0  501  0.00000000000E+00  0.00000000000E+00 -0.94913629902E+03  0.94913629903E+03  0.50400001928E-02 0. -1.
    10030    2    1    2    0    0  0.00000000000E+00  0.00000000000E+00 -0.56793268279E+03  0.13303399153E+04  0.12030198494E+04 0.  0.
        5    1    3    3  502    0  0.15052385179E+02  0.80291881599E+02 -0.94295300202E+03  0.94649660040E+03  0.46999998093E+01 0. -1.
       -5    1    3    3    0  502 -0.15052385179E+02 -0.80291881599E+02  0.37502031923E+03  0.38384331489E+03  0.46999998093E+01 0.  1.
</event>
<event>
 5   0  0.5052959E-04  0.1202180E+04  0.7818609E-02  0.9110951E-01
        1   -1    0    0  501    0  0.00000000000E+00  0.00000000000E+00  0.12799201588E+04  0.12799201589E+04  0.50400001928E-02 0. -1.
       -1   -1    0    0    0  501  0.00000000000E+00  0.00000000000E+00 -0.28229023808E+03  0.28229023813E+03  0.50400001928E-02 0.  1.
    10030    2    1    2    0    0  0.00000000000E+00  0.00000000000E+00  0.99762992077E+03  0.15622103970E+04  0.12021796312E+04 0.  0.
        2    1    3    3  502    0  0.52449888630E+03  0.23385327871E+03  0.72953253783E+03  0.92844179217E+03  0.25500000920E-02 0.  1.
       -2    1    3    3    0  502 -0.52449888630E+03 -0.23385327871E+03  0.26809738294E+03  0.63376860481E+03  0.25500000920E-02 0. -1.
</event>
<event>
 5   0  0.9050363E-04  0.1195000E+04  0.7818609E-02  0.9117245E-01
       -2   -1    0    0    0  501  0.00000000000E+00  0.00000000000E+00  0.42400462787E+03  0.42400462788E+03  0.25500000920E-02 0. -1.
        2   -1    0    0  501    0  0.00000000000E+00  0.00000000000E+00 -0.84198601189E+03  0.84198601190E+03  0.25500000920E-02 0.  1.
    10030    2    1    2    0    0  0.00000000000E+00  0.00000000000E+00 -0.41798138402E+03  0.12659906398E+04  0.11949995241E+04 0.  0.
        3    1    3    3  502    0  0.66063273137E+02 -0.50321724275E+03  0.12504013564E+03  0.52271119672E+03  0.10100000352E+00 0. -1.
       -3    1    3    3    0  502 -0.66063273137E+02  0.50321724275E+03 -0.54302151966E+03  0.74327944306E+03  0.10100000352E+00 0.  1.
</event>
<event>
 5   0  0.9410666E-04  0.1200147E+04  0.7818609E-02  0.9112728E-01
        2   -1    0    0  501    0  0.00000000000E+00  0.00000000000E+00  0.18491587379E+04  0.18491587379E+04  0.25500000920E-02 0. -1.
       -2   -1    0    0    0  501  0.00000000000E+00  0.00000000000E+00 -0.19473092474E+03  0.19473092476E+03  0.25500000920E-02 0.  1.
    10030    2    1    2    0    0  0.00000000000E+00  0.00000000000E+00  0.16544278131E+04  0.20438896626E+04  0.12001473094E+04 0.  0.
        2    1    3    3  502    0  0.43691969315E+03  0.19570560554E+03  0.21108117414E+03  0.52321579142E+03  0.25500000920E-02 0.  1.
       -2    1    3    3    0  502 -0.43691969315E+03 -0.19570560554E+03  0.14433466390E+04  0.15206738712E+04  0.25500000920E-02 0. -1.
</event>
<event>
 5   0  0.9298693E-04  0.1197931E+04  0.7818609E-02  0.9114669E-01
        2   -1    0    0  501    0  0.00000000000E+00  0.00000000000E+00  0.13656635526E+04  0.13656635526E+04  0.25500000920E-02 0. -1.
       -2   -1    0    0    0  501  0.00000000000E+00  0.00000000000E+00 -0.26270007845E+03  0.26270007847E+03  0.25500000920E-02 0.  1.
    10030    2    1    2    0    0  0.00000000000E+00  0.00000000000E+00  0.11029634741E+04  0.16283636311E+04  0.11979314211E+04 0.  0.
        1    1    3    3  502    0  0.23894022863E+03 -0.29726615230E+03  0.11792728962E+04  0.12394128294E+04  0.50400001928E-02 0. -1.
       -1    1    3    3    0  502 -0.23894022863E+03  0.29726615230E+03 -0.76309422023E+02  0.38895080161E+03  0.50400001928E-02 0.  1.
</event>
<event>
 5   0  0.5052959E-04  0.1204221E+04  0.7818609E-02  0.9109170E-01
        1   -1    0    0  501    0  0.00000000000E+00  0.00000000000E+00  0.47016452060E+03  0.47016452063E+03  0.50400001928E-02 0. -1.
       -1   -1    0    0    0  501  0.00000000000E+00  0.00000000000E+00 -0.77108545804E+03  0.77108545805E+03  0.50400001928E-02 0.  1.
    10030    2    1    2    0    0  0.00000000000E+00  0.00000000000E+00 -0.30092093744E+03  0.12412499787E+04  0.12042209511E+04 0.  0.
        2    1    3    3  502    0 -0.80157462079E+02 -0.43341995314E+03  0.27234652532E+03  0.51812228708E+03  0.25500000920E-02 0. -1.
       -2    1    3    3    0  502  0.80157462079E+02  0.43341995314E+03 -0.57326746276E+03  0.72312769161E+03  0.25500000920E-02 0.  1.
</event>
<event>
 5   0  0.9070772E-04  0.1205906E+04  0.7818609E-02  0.9107703E-01
       -2   -1    0    0    0  501  0.00000000000E+00  0.00000000000E+00  0.12132506622E+04  0.12132506622E+04  0.25500000920E-02 0.  1.
        2   -1    0    0  501    0  0.00000000000E+00  0.00000000000E+00 -0.29965132657E+03  0.29965132658E+03  0.25500000920E-02 0. -1.
    10030    2    1    2    0    0  0.00000000000E+00  0.00000000000E+00  0.91359933559E+03  0.15129019887E+04  0.12059057515E+04 0.  0.
        4    1    3    3  502    0 -0.22685997730E+03  0.18175959972E+03  0.11195307157E+04  0.11566557991E+04  0.12699999809E+01 0.  1.
       -4    1    3    3    0  502  0.22685997730E+03 -0.18175959972E+03 -0.20593138011E+03  0.35624618960E+03  0.12699999809E+01 0. -1.
</event>
<event>
 5   0  0.5001586E-04  0.1202469E+04  0.7818609E-02  0.9110699E-01
        1   -1    0    0  501    0  0.00000000000E+00  0.00000000000E+00  0.21529221600E+04  0.21529221600E+04  0.50400001928E-02 0. -1.
       -1   -1    0    0    0  501  0.00000000000E+00  0.00000000000E+00 -0.16790324896E+03  0.16790324904E+03  0.50400001928E-02 0.  1.
    10030    2    1    2    0    0  0.00000000000E+00  0.00000000000E+00  0.19850189110E+04  0.23208254090E+04  0.12024685036E+04 0.  0.
        1    1    3    3  502    0  0.36981037154E+03 -0.21465114448E+03  0.17673970349E+03  0.46267888167E+03  0.50400001928E-02 0.  1.
       -1    1    3    3    0  502 -0.36981037154E+03  0.21465114448E+03  0.18082792075E+04  0.18581465273E+04  0.50400001928E-02 0. -1.
</event>
<event>
 5   0  0.5447074E-04  0.1216974E+04  0.7818609E-02  0.9098128E-01
        1   -1    0    0  501    0  0.00000000000E+00  0.00000000000E+00  0.96451435011E+03  0.96451435012E+03  0.50400001928E-02 0. -1.
       -1   -1    0    0    0  501  0.00000000000E+00  0.00000000000E+00 -0.38387838670E+03  0.38387838674E+03  0.50400001928E-02 0.  1.
    10030    2    1    2    0    0  0.00000000000E+00  0.00000000000E+00  0.58063596340E+03  0.13483927369E+04  0.12169736443E+04 0.  0.
        4    1    3    3  502    0  0.42516426844E+03 -0.11508316861E+03  0.75546970132E+03  0.87449692588E+03  0.12699999809E+01 0. -1.
       -4    1    3    3    0  502 -0.42516426844E+03  0.11508316861E+03 -0.17483373792E+03  0.47389581098E+03  0.12699999809E+01 0.  1.
</event>
<event>
 5   0  0.9050363E-04  0.1203264E+04  0.7818609E-02  0.9110005E-01
        2   -1    0    0  501    0  0.00000000000E+00  0.00000000000E+00  0.12764805336E+04  0.12764805336E+04  0.25500000920E-02 0. -1.
       -2   -1    0    0    0  501  0.00000000000E+00  0.00000000000E+00 -0.28356159300E+03  0.28356159301E+03  0.25500000920E-02 0.  1.
    10030    2    1    2    0    0  0.00000000000E+00  0.00000000000E+00  0.99291894063E+03  0.15600421266E+04  0.12032636512E+04 0.  0.
        3    1    3    3  502    0 -0.50805178714E+02  0.58055255534E+03  0.69023620554E+03  0.90335400887E+03  0.10100000352E+00 0. -1.
       -3    1    3    3    0  502  0.50805178714E+02 -0.58055255534E+03  0.30268273509E+03  0.65668811777E+03  0.10100000352E+00 0.  1.
</event>
<event>
 5   0  0.5157631E-04  0.1202984E+04  0.7818609E-02  0.9110249E-01
       -1   -1    0    0    0  501  0.00000000000E+00  0.00000000000E+00  0.38165170721E+03  0.38165170725E+03  0.50400001928E-02 0.  1.
        1   -1    0    0  501    0  0.00000000000E+00  0.00000000000E+00 -0.94796549148E+03  0.94796549149E+03  0.50400001928E-02 0. -1.
    10030    2    1    2    0    0  0.00000000000E+00  0.00000000000E+00 -0.56631378426E+03  0.13296171987E+04  0.12029840369E+04 0.  0.
        5    1    3    3  502    0  0.36238697774E+03 -0.14662531629E+03 -0.78838219493E+03  0.87999538652E+03  0.46999998093E+01 0. -1.
       -5    1    3    3    0  502 -0.36238697774E+03  0.14662531629E+03  0.22206841067E+03  0.44962181222E+03  0.46999998093E+01 0.  1.
</event>
<event>
 5   0  0.9050363E-04  0.1183331E+04  0.7818609E-02  0.9127573E-01
        2   -1    0    0  501    0  0.00000000000E+00  0.00000000000E+00  0.27216036647E+04  0.27216036647E+04  0.25500000920E-02 0. -1.
       -2   -1    0    0    0  501  0.00000000000E+00  0.00000000000E+00 -0.12862561030E+03  0.12862561032E+03  0.25500000920E-02 0.  1.
    10030    2    1    2    0    0  0.00000000000E+00  0.00000000000E+00  0.25929780544E+04  0.28502292750E+04  0.11833307778E+04 0.  0.
        3    1    3    3  502    0 -0.28753032283E+03  0.94472110126E+02  0.25210434253E+04  0.25391452555E+04  0.10100000352E+00 0. -1.
       -3    1    3    3    0  502  0.28753032283E+03 -0.94472110126E+02  0.71934629116E+02  0.31108401953E+03  0.10100000352E+00 0.  1.
</event>
<event>
 5   0  0.5447074E-04  0.1197093E+04  0.7818609E-02  0.9115405E-01
        1   -1    0    0  501    0  0.00000000000E+00  0.00000000000E+00  0.16105770269E+04  0.16105770269E+04  0.50400001928E-02 0. -1.
       -1   -1    0    0    0  501  0.00000000000E+00  0.00000000000E+00 -0.22244076827E+03  0.22244076832E+03  0.50400001928E-02 0.  1.
    10030    2    1    2    0    0  0.00000000000E+00  0.00000000000E+00  0.13881362586E+04  0.18330177952E+04  0.11970931313E+04 0.  0.
        4    1    3    3  502    0 -0.27357513862E+03 -0.11751614609E+03 -0.10099403067E+03  0.31441184487E+03  0.12699999809E+01 0.  1.
       -4    1    3    3    0  502  0.27357513862E+03  0.11751614609E+03  0.14891302893E+04  0.15186059503E+04  0.12699999809E+01 0. -1.
</event>
<event>
 5   0  0.5157631E-04  0.1206266E+04  0.7818609E-02  0.9107390E-01
        1   -1    0    0  501    0  0.00000000000E+00  0.00000000000E+00  0.45543657382E+03  0.45543657385E+03  0.50400001928E-02 0. -1.
       -1   -1    0    0    0  501  0.00000000000E+00  0.00000000000E+00 -0.79872669734E+03  0.79872669736E+03  0.50400001928E-02 0.  1.
    10030    2    1    2    0    0  0.00000000000E+00  0.00000000000E+00 -0.34329012352E+03  0.12541632712E+04  0.12062658919E+04 0.  0.
        5    1    3    3  502    0 -0.30108830750E+02  0.26190867278E+03 -0.73562707781E+03  0.78145504168E+03  0.46999998093E+01 0.  1.
       -5    1    3    3    0  502  0.30108830750E+02 -0.26190867278E+03  0.39233695428E+03  0.47270822953E+03  0.46999998093E+01 0. -1.
</event>
<event>
 5   0  0.9145224E-04  0.1197791E+04  0.7818609E-02  0.9114793E-01
        2   -1    0    0  501    0  0.00000000000E+00  0.00000000000E+00  0.39238741510E+03  0.39238741511E+03  0.25500000920E-02 0.  1.
       -2   -1    0    0    0  501  0.00000000000E+00  0.00000000000E+00 -0.91408545391E+03  0.91408545391E+03  0.25500000920E-02 0. -1.
    10030    2    1    2    0    0  0.00000000000E+00  0.00000000000E+00 -0.52169803881E+03  0.13064728690E+04  0.11977906803E+04 0.  0.
        5    1    3    3  502    0  0.28243406182E+03 -0.81380075120E+02 -0.82998080252E+03  0.88050095880E+03  0.46999998093E+01 0. -1.
       -5    1    3    3    0  502 -0.28243406182E+03  0.81380075120E+02  0.30828276371E+03  0.42597191022E+03  0.46999998093E+01 0.  1.
</event>
<event>
 5   0  0.5001586E-04  0.1199472E+04  0.7818609E-02  0.9113319E-01
       -1   -1    0    0    0  501  0.00000000000E+00  0.00000000000E+00  0.25519858034E+03  0.25519858039E+03  0.50400001928E-02 0. -1.
        1   -1    0    0  501    0  0.00000000000E+00  0.00000000000E+00 -0.14094256190E+04  0.14094256190E+04  0.50400001928E-02 0.  1.
    10030    2    1    2    0    0  0.00000000000E+00  0.00000000000E+00 -0.11542270387E+04  0.16646241994E+04  0.11994722458E+04 0.  0.
        1    1    3    3  502    0 -0.38132002184E+03 -0.13845701903E+03 -0.11901180207E+04  0.12573608107E+04  0.50400001928E-02 0.  1.
       -1    1    3    3    0  502  0.38132002184E+03  0.13845701903E+03  0.35890981973E+02  0.40726338871E+03  0.50400001928E-02 0. -1.
</event>
<event>
 5   0  0.9145224E-04  0.1199992E+04  0.7818609E-02  0.9112864E-01
        2   -1    0    0  501    0  0.00000000000E+00  0.00000000000E+00  0.11297982363E+04  0.11297982363E+04  0.25500000920E-02 0.  1.
       -2   -1    0    0    0  501  0.00000000000E+00  0.00000000000E+00 -0.31863647331E+03  0.31863647332E+03  0.25500000920E-02 0. -1.
    10030    2    1    2    0    0  0.00000000000E+00  0.00000000000E+00  0.81116176296E+03  0.14484347096E+04  0.11999915426E+04 0.  0.
        5    1    3    3  502    0  0.50175114236E+03 -0.90516678468E+02  0.78732802382E+03  0.93800585554E+03  0.46999998093E+01 0.  1.
       -5    1    3    3    0  502 -0.50175114236E+03  0.90516678468E+02  0.23833739141E+02  0.51042885406E+03  0.46999998093E+01 0. -1.
</event>
<event>
 5   0  0.5052959E-04  0.1194047E+04  0.7818609E-02  0.9118083E-01
        1   -1    0    0  501    0  0.00000000000E+00  0.00000000000E+00  0.44317511192E+03  0.44317511195E+03  0.50400001928E-02 0. -1.
       -1   -1    0    0    0  501  0.00000000000E+00  0.00000000000E+00 -0.80428098618E+03  0.80428098619E+03  0.50400001928E-02 0.  1.
    10030    2    1    2    0    0  0.00000000000E+00  0.00000000000E+00 -0.36110587426E+03  0.12474560981E+04  0.11940474297E+04 0.  0.
        2    1    3    3  502    0 -0.43925292657E+03 -0.13982734550E+03  0.21581471755E+03  0.50898999241E+03  0.25500000920E-02 0.  1.
       -2    1    3    3    0  502  0.43925292657E+03  0.13982734550E+03 -0.57692059181E+03  0.73846610573E+03  0.25500000920E-02 0. -1.
</event>
<event>
 5   0  0.5003507E-04  0.1198692E+04  0.7818609E-02  0.9114002E-01
        1   -1    0    0  501    0  0.00000000000E+00  0.00000000000E+00  0.82492216283E+03  0.82492216285E+03  0.50400001928E-02 0. -1.
       -1   -1    0    0    0  501  0.00000000000E+00  0.00000000000E+00 -0.43545380998E+03  0.43545381001E+03  0.50400001928E-02 0.  1.
    10030    2    1    2    0    0  0.00000000000E+00  0.00000000000E+00  0.38946835285E+03  0.12603759729E+04  0.11986917849E+04 0.  0.
        3    1    3    3  502    0 -0.14244268660E+03  0.34277957563E+03 -0.30004178628E+03  0.47729743363E+03  0.10100000352E+00 0.  1.
       -3    1    3    3    0  502  0.14244268660E+03 -0.34277957563E+03  0.68951013913E+03  0.78307853923E+03  0.10100000352E+00 0. -1.
</event>
<event>
 5   0  0.5157631E-04  0.1201000E+04  0.7818609E-02  0.9111982E-01
       -1   -1    0    0    0  501  0.00000000000E+00  0.00000000000E+00  0.70108368180E+03  0.70108368182E+03  0.50400001928E-02 0.  1.
        1   -1    0    0  501    0  0.00000000000E+00  0.00000000000E+00 -0.51434706290E+03  0.51434706293E+03  0.50400001928E-02 0. -1.
    10030    2    1    2    0    0  0.00000000000E+00  0.00000000000E+00  0.18673661890E+03  0.12154307448E+04  0.12010001376E+04 0.  0.
        5    1    3    3  502    0  0.51341772937E+02 -0.35668992348E+03 -0.39273062084E+03  0.53303199688E+03  0.46999998093E+01 0. -1.
       -5    1    3    3    0  502 -0.51341772937E+02  0.35668992348E+03  0.57946723974E+03  0.68239874787E+03  0.46999998093E+01 0.  1.
</event>
<event>
 5   0  0.9410666E-04  0.1199033E+04  0.7818609E-02  0.9113703E-01
        2   -1    0    0  501    0  0.00000000000E+00  0.00000000000E+00  0.12234993772E+04  0.12234993772E+04  0.25500000920E-02 0. -1.
       -2   -1    0    0    0  501  0.00000000000E+00  0.00000000000E+00 -0.29376396302E+03  0.29376396304E+03  0.25500000920E-02 0.  1.
    10030    2    1    2    0    0  0.00000000000E+00  0.00000000000E+00  0.92973541419E+03  0.15172633403E+04  0.11990329867E+04 0.  0.
        2    1    3    3  502    0 -0.55177396265E+03 -0.23438560987E+03  0.45806435937E+03  0.75446277397E+03  0.25500000920E-02 0. -1.
       -2    1    3    3    0  502  0.55177396265E+03  0.23438560987E+03  0.47167105482E+03  0.76280056629E+03  0.25500000920E-02 0.  1.
</event>
<event>
 5   0  0.9298693E-04  0.1202628E+04  0.7818609E-02  0.9110559E-01
        2   -1    0    0  501    0  0.00000000000E+00  0.00000000000E+00  0.45989377942E+03  0.45989377943E+03  0.25500000920E-02 0.  1.
       -2   -1    0    0    0  501  0.00000000000E+00  0.00000000000E+00 -0.78622199693E+03  0.78622199693E+03  0.25500000920E-02 0. -1.
    10030    2    1    2    0    0  0.00000000000E+00  0.00000000000E+00 -0.32632821751E+03  0.12461157764E+04  0.12026281315E+04 0.  0.
        1    1    3    3  502    0  0.57172544467E+03 -0.14185979277E+03 -0.28829704287E+03  0.65582724085E+03  0.50400001928E-02 0. -1.
       -1    1    3    3    0  502 -0.57172544467E+03  0.14185979277E+03 -0.38031174631E+02  0.59028853551E+03  0.50400001928E-02 0.  1.
</event>
<event>
 5   0  0.5001586E-04  0.1197509E+04  0.7818609E-02  0.9115040E-01
        1   -1    0    0  501    0  0.00000000000E+00  0.00000000000E+00  0.15764067409E+04  0.15764067409E+04  0.50400001928E-02 0. -1.
       -1   -1    0    0    0  501  0.00000000000E+00  0.00000000000E+00 -0.22742020833E+03  0.22742020838E+03  0.50400001928E-02 0.  1.
    10030    2    1    2    0    0  0.00000000000E+00  0.00000000000E+00  0.13489865326E+04  0.18038269493E+04  0.11975086630E+04 0.  0.
        1    1    3    3  502    0 -0.79717690410E+02 -0.51373528145E+03  0.11219171653E+04  0.12365180853E+04  0.50400001928E-02 0. -1.
       -1    1    3    3    0  502  0.79717690410E+02  0.51373528145E+03  0.22706936733E+03  0.56730886400E+03  0.50400001928E-02 0.  1.
</event>
<event>
 5   0  0.5003507E-04  0.1200958E+04  0.7818609E-02  0.9112018E-01
       -1   -1    0    0    0  501  0.00000000000E+00  0.00000000000E+00  0.71730377906E+03  0.71730377908E+03  0.50400001928E-02 0.  1.
        1   -1    0    0  501    0  0.00000000000E+00  0.00000000000E+00 -0.50268109060E+03  0.50268109063E+03  0.50400001928E-02 0. -1.
    10030    2    1    2    0    0  0.00000000000E+00  0.00000000000E+00  0.21462268846E+03  0.12199848697E+04  0.12009580275E+04 0.  0.
        3    1    3    3  502    0 -0.37235273749E+03 -0.20932143131E+03  0.53603203162E+03  0.68541401491E+03  0.10100000352E+00 0.  1.
       -3    1    3    3    0  502  0.37235273749E+03  0.20932143131E+03 -0.32140934316E+03  0.53457085479E+03  0.10100000352E+00 0. -1.
</event>
<event>
 5   0  0.5003507E-04  0.1185236E+04  0.7818609E-02  0.9125879E-01
        1   -1    0    0  501    0  0.00000000000E+00  0.00000000000E+00  0.82222072434E+03  0.82222072436E+03  0.50400001928E-02 0.  1.
       -1   -1    0    0    0  501  0.00000000000E+00  0.00000000000E+00 -0.42713082786E+03  0.42713082789E+03  0.50400001928E-02 0. -1.
    10030    2    1    2    0    0  0.00000000000E+00  0.00000000000E+00  0.39508989648E+03  0.12493515522E+04  0.11852355356E+04 0.  0.
        3    1    3    3  502    0  0.47697055905E+01  0.58740951125E+03  0.11506155066E+03  0.59859155911E+03  0.10100000352E+00 0. -1.
       -3    1    3    3    0  502 -0.47697055905E+01 -0.58740951125E+03  0.28002834583E+03  0.65075999313E+03  0.10100000352E+00 0.  1.
</event>
<event>
 5   0  0.5052959E-04  0.1202533E+04  0.7818609E-02  0.9110642E-01
        1   -1    0    0  501    0  0.00000000000E+00  0.00000000000E+00  0.12829618838E+04  0.12829618838E+04  0.50400001928E-02 0.  1.
       -1   -1    0    0    0  501  0.00000000000E+00  0.00000000000E+00 -0.28178652461E+03  0.28178652465E+03  0.50400001928E-02 0. -1.
    10030    2    1    2    0    0  0.00000000000E+00  0.00000000000E+00  0.10011753591E+04  0.15647484084E+04  0.12025329442E+04 0.  0.
        2    1    3    3  502    0  0.54653026052E+03  0.24758771391E+03  0.44975098966E+03  0.74984728742E+03  0.25500000920E-02 0. -1.
       -2    1    3    3    0  502 -0.54653026052E+03 -0.24758771391E+03  0.55142436948E+03  0.81490112100E+03  0.25500000920E-02 0.  1.
</event>
<event>
 5   0  0.9298693E-04  0.1202353E+04  0.7818609E-02  0.9110799E-01
        2   -1    0    0  501    0  0.00000000000E+00  0.00000000000E+00  0.95109233570E+03  0.95109233570E+03  0.25500000920E-02 0. -1.
       -2   -1    0    0    0  501  0.00000000000E+00  0.00000000000E+00 -0.37999825952E+03  0.37999825953E+03  0.25500000920E-02 0.  1.
    10030    2    1    2    0    0  0.00000000000E+00  0.00000000000E+00  0.57109407618E+03  0.13310905952E+04  0.12023534126E+04 0.  0.
        1    1    3    3  502    0  0.22527977965E+03 -0.10168398846E+03 -0.32114687944E+03  0.40524798683E+03  0.50400001928E-02 0.  1.
       -1    1    3    3    0  502 -0.22527977965E+03  0.10168398846E+03  0.89224095562E+03  0.92584260840E+03  0.50400001928E-02 0. -1.
</event>
<event>
 5   0  0.9050363E-04  0.1204876E+04  0.7818609E-02  0.9108599E-01
        2   -1    0    0  501    0  0.00000000000E+00  0.00000000000E+00  0.14125294312E+04  0.14125294312E+04  0.25500000920E-02 0. -1.
       -2   -1    0    0    0  501  0.00000000000E+00  0.00000000000E+00 -0.25693730830E+03  0.25693730831E+03  0.25500000920E-02 0.  1.
    10030    2    1    2    0    0  0.00000000000E+00  0.00000000000E+00  0.11555921229E+04  0.16694667395E+04  0.12048759438E+04 0.  0.
        3    1    3    3  502    0 -0.27671693831E+03 -0.53067901102E+03  0.67318100987E+03  0.90075810235E+03  0.10100000352E+00 0. -1.
       -3    1    3    3    0  502  0.27671693831E+03  0.53067901102E+03  0.48241111304E+03  0.76870863718E+03  0.10100000352E+00 0.  1.
</event>
<event>
 5   0  0.5003507E-04  0.1201612E+04  0.7818609E-02  0.9111446E-01
       -1   -1    0    0    0  501  0.00000000000E+00  0.00000000000E+00  0.20653835916E+03  0.20653835922E+03  0.50400001928E-02 0. -1.
        1   -1    0    0  501    0  0.00000000000E+00  0.00000000000E+00 -0.17477044795E+04  0.17477044795E+04  0.50400001928E-02 0.  1.
    10030    2    1    2    0    0  0.00000000000E+00  0.00000000000E+00 -0.15411661204E+04  0.19542428387E+04  0.12016122762E+04 0.  0.
        3    1    3    3  502    0  0.76669631060E+01  0.58440310317E+02 -0.17429910593E+04  0.17439873552E+04  0.10100000352E+00 0.  1.
       -3    1    3    3    0  502 -0.76669631060E+01 -0.58440310317E+02  0.20182493891E+03  0.21025548355E+03  0.10100000352E+00 0. -1.
</event>
<event>
 5   0  0.9070772E-04  0.1199495E+04  0.7818609E-02  0.9113299E-01
       -2   -1    0    0    0  501  0.00000000000E+00  0.00000000000E+00  0.36563534739E+03  0.36563534740E+03  0.25500000920E-02 0. -1.
        2   -1    0    0  501    0  0.00000000000E+00  0.00000000000E+00 -0.98375883027E+03  0.98375883028E+03  0.25500000920E-02 0.  1.
    10030    2    1    2    0    0  0.00000000000E+00  0.00000000000E+00 -0.61812348289E+03  0.13493941777E+04  0.11994948965E+04 0.  0.
        4    1    3    3  502    0 -0.13643731943E+03  0.44139091993E+03 -0.73928585936E+03  0.87177192034E+03  0.12699999809E+01 0.  1.
       -4    1    3    3    0  502  0.13643731943E+03 -0.44139091993E+03  0.12116237648E+03  0.47762225734E+03  0.12699999809E+01 0. -1.
</event>
<event>
 5   0  0.5003507E-04  0.1203364E+04  0.7818609E-02  0.9109917E-01
        1   -1    0    0  501    0  0.00000000000E+00  0.00000000000E+00  0.57532263399E+03  0.57532263401E+03  0.50400001928E-02 0. -1.
       -1   -1    0    0    0  501  0.00000000000E+00  0.00000000000E+00 -0.62924882285E+03  0.62924882287E+03  0.50400001928E-02 0.  1.
    10030    2    1    2    0    0  0.00000000000E+00  0.00000000000E+00 -0.53926188864E+02  0.12045714569E+04  0.12033637691E+04 0.  0.
        3    1    3    3  502    0  0.43440650483E+03  0.32372315847E+03 -0.28898022634E+03  0.61401569702E+03  0.10100000352E+00 0. -1.
       -3    1    3    3    0  502 -0.43440650483E+03 -0.32372315847E+03  0.23505403748E+03  0.59055575986E+03  0.10100000352E+00 0.  1.
</event>
<event>
 5   0  0.5003507E-04  0.1198755E+04  0.7818609E-02  0.9113947E-01
        1   -1    0    0  501    0  0.00000000000E+00  0.00000000000E+00  0.65491567698E+03  0.65491567700E+03  0.50400001928E-02 0.  1.
       -1   -1    0    0    0  501  0.00000000000E+00  0.00000000000E+00 -0.54854935726E+03  0.54854935728E+03  0.50400001928E-02 0. -1.
    10030    2    1    2    0    0  0.00000000000E+00  0.00000000000E+00  0.10636631972E+03  0.12034650343E+04  0.11987553106E+04 0.  0.
        3    1    3    3  502    0  0.11298523267E+03 -0.32072913510E+03  0.54870185691E+03  0.64552813949E+03  0.10100000352E+00 0.  1.
       -3    1    3    3    0  502 -0.11298523267E+03  0.32072913510E+03 -0.44233553719E+03  0.55793689479E+03  0.10100000352E+00 0. -1.
</event>
<event>
 5   0  0.9145224E-04  0.1176033E+04  0.7818609E-02  0.9134098E-01
       -2   -1    0    0    0  501  0.00000000000E+00  0.00000000000E+00  0.13165533731E+04  0.13165533731E+04  0.25500000920E-02 0. -1.
        2   -1    0    0  501    0  0.00000000000E+00  0.00000000000E+00 -0.26262761307E+03  0.26262761309E+03  0.25500000920E-02 0.  1.
    10030    2    1    2    0    0  0.00000000000E+00  0.00000000000E+00  0.10539257600E+04  0.15791809862E+04  0.11760327714E+04 0.  0.
        5    1    3    3  502    0  0.47788279098E+03 -0.10323092356E+03  0.96561508983E+03  0.10823415252E+04  0.46999998093E+01 0. -1.
       -5    1    3    3    0  502 -0.47788279098E+03  0.10323092356E+03  0.88310670172E+02  0.49683946095E+03  0.46999998093E+01 0.  1.
</event>
<event>
 5   0  0.5447074E-04  0.1200175E+04  0.7818609E-02  0.9112704E-01
        1   -1    0    0  501    0  0.00000000000E+00  0.00000000000E+00  0.16371809835E+04  0.16371809835E+04  0.50400001928E-02 0. -1.
       -1   -1    0    0    0  501  0.00000000000E+00  0.00000000000E+00 -0.21995414856E+03  0.21995414862E+03  0.50400001928E-02 0.  1.
    10030    2    1    2    0    0  0.00000000000E+00  0.00000000000E+00  0.14172268350E+04  0.18571351322E+04  0.12001745695E+04 0.  0.
        4    1    3    3  502    0 -0.59471796488E+02  0.45685949149E+03  0.11363206242E+03  0.47452223135E+03  0.12699999809E+01 0. -1.
       -4    1    3    3    0  502  0.59471796488E+02 -0.45685949149E+03  0.13035947725E+04  0.13826129008E+04  0.12699999809E+01 0.  1.
</event>
<event>
 5   0  0.5003507E-04  0.1196883E+04  0.7818609E-02  0.9115590E-01
       -1   -1    0    0    0  501  0.00000000000E+00  0.00000000000E+00  0.19027635497E+03  0.19027635504E+03  0.50400001928E-02 0. -1.
        1   -1    0    0  501    0  0.00000000000E+00  0.00000000000E+00 -0.18821676111E+04  0.18821676111E+04  0.50400001928E-02 0.  1.
    10030    2    1    2    0    0  0.00000000000E+00  0.00000000000E+00 -0.16918912562E+04  0.20724439662E+04  0.11968826051E+04 0.  0.
        3    1    3    3  502    0 -0.33655367971E+03  0.14708935242E+03 -0.16640446861E+04  0.17040975279E+04  0.10100000352E+00 0.  1.
       -3    1    3    3    0  502  0.33655367971E+03 -0.14708935242E+03 -0.27846570004E+02  0.36834643827E+03  0.10100000352E+00 0. -1.
</event>
<event>
 5   0  0.9410666E-04  0.1202716E+04  0.7818609E-02  0.9110483E-01
        2   -1    0    0  501    0  0.00000000000E+00  0.00000000000E+00  0.11205435137E+04  0.11205435137E+04  0.25500000920E-02 0.  1.
       -2   -1    0    0    0  501  0.00000000000E+00  0.00000000000E+00 -0.32272841461E+03  0.32272841462E+03  0.25500000920E-02 0. -1.
    10030    2    1    2    0    0  0.00000000000E+00  0.00000000000E+00  0.79781509905E+03  0.14432719283E+04  0.12027156467E+04 0.  0.
        2    1    3    3  502    0 -0.14789435161E+03  0.37979205633E+03  0.92951933961E+03  0.10149487416E+04  0.25500000920E-02 0.  1.
       -2    1    3    3    0  502  0.14789435161E+03 -0.37979205633E+03 -0.13170424057E+03  0.42832318672E+03  0.25500000920E-02 0. -1.
</event>
<event>
 5   0  0.5447074E-04  0.1194396E+04  0.7818609E-02  0.9117776E-01
       -1   -1    0    0    0  501  0.00000000000E+00  0.00000000000E+00  0.31290395379E+03  0.31290395383E+03  0.50400001928E-02 0.  1.
        1   -1    0    0  501    0  0.00000000000E+00  0.00000000000E+00 -0.11397927357E+04  0.11397927357E+04  0.50400001928E-02 0. -1.
    10030    2    1    2    0    0  0.00000000000E+00  0.00000000000E+00 -0.82688878189E+03  0.14526966895E+04  0.11943963388E+04 0.  0.
        4    1    3    3  502    0  0.31579431286E+03 -0.37176415812E+03  0.56086961907E+01  0.48781933918E+03  0.12699999809E+01 0.  1.
       -4    1    3    3    0  502 -0.31579431286E+03  0.37176415812E+03 -0.83249747808E+03  0.96487735034E+03  0.12699999809E+01 0. -1.
</event>
<event>
 5   0  0.9298693E-04  0.1205826E+04  0.7818609E-02  0.9107772E-01
        2   -1    0    0  501    0  0.00000000000E+00  0.00000000000E+00  0.66036176134E+03  0.66036176135E+03  0.25500000920E-02 0.  1.
       -2   -1    0    0    0  501  0.00000000000E+00  0.00000000000E+00 -0.55046202780E+03  0.55046202781E+03  0.25500000920E-02 0. -1.
    10030    2    1    2    0    0  0.00000000000E+00  0.00000000000E+00  0.10989973354E+03  0.12108237892E+04  0.12058259812E+04 0.  0.
        1    1    3    3  502    0  0.48422695932E+03 -0.35907659137E+03  0.45301315402E+02  0.60453614929E+03  0.50400001928E-02 0.  1.
       -1    1    3    3    0  502 -0.48422695932E+03  0.35907659137E+03  0.64598418134E+02  0.60628763986E+03  0.50400001928E-02 0. -1.
</event>
<event>
 5   0  0.5052959E-04  0.1207847E+04  0.7818609E-02  0.9106016E-01
       -1   -1    0    0    0  501  0.00000000000E+00  0.00000000000E+00  0.17231311823E+03  0.17231311830E+03  0.50400001928E-02 0. -1.
        1   -1    0    0  501    0  0.00000000000E+00  0.00000000000E+00 -0.21166316746E+04  0.21166316746E+04  0.50400001928E-02 0.  1.
    10030    2    1    2    0    0  0.00000000000E+00  0.00000000000E+00 -0.19443185564E+04  0.22889447929E+04  0.12078466858E+04 0.  0.
        2    1    3    3  502    0  0.22219870314E+03 -0.51840717227E+03 -0.13812695971E+04  0.14919865816E+04  0.25500000920E-02 0. -1.
       -2    1    3    3    0  502 -0.22219870314E+03  0.51840717227E+03 -0.56304895927E+03  0.79695821125E+03  0.25500000920E-02 0.  1.
</event>
<event>
 5   0  0.5447074E-04  0.1202362E+04  0.7818609E-02  0.9110791E-01
       -1   -1    0    0    0  501  0.00000000000E+00  0.00000000000E+00  0.43392594222E+03  0.43392594225E+03  0.50400001928E-02 0. -1.
        1   -1    0    0  501    0  0.00000000000E+00  0.00000000000E+00 -0.83290437922E+03  0.83290437924E+03  0.50400001928E-02 0.  1.
    10030    2    1    2    0    0  0.00000000000E+00  0.00000000000E+00 -0.39897843700E+03  0.12668303215E+04  0.12023623706E+04 0.  0.
        4    1    3    3  502    0 -0.37747395803E+03 -0.31909173446E+03  0.16107453648E+03  0.51985838763E+03  0.12699999809E+01 0. -1.
       -4    1    3    3    0  502  0.37747395803E+03  0.31909173446E+03 -0.56005297347E+03  0.74697193387E+03  0.12699999809E+01 0.  1.
</event>
<event>
 5   0  0.9050363E-04  0.1199314E+04  0.7818609E-02  0.9113457E-01
       -2   -1    0    0    0  501  0.00000000000E+00  0.00000000000E+00  0.46746810419E+03  0.46746810420E+03  0.25500000920E-02 0.  1.
        2   -1    0    0  501    0  0.00000000000E+00  0.00000000000E+00 -0.76922598809E+03  0.76922598809E+03  0.25500000920E-02 0. -1.
    10030    2    1    2    0    0  0.00000000000E+00  0.00000000000E+00 -0.30175788390E+03  0.12366940923E+04  0.11993141613E+04 0.  0.
        3    1    3    3  502    0 -0.22085753234E+03  0.36417382134E+03 -0.58615875823E+03  0.72455691412E+03  0.10100000352E+00 0. -1.
       -3    1    3    3    0  502  0.22085753234E+03 -0.36417382134E+03  0.28440087434E+03  0.51213717817E+03  0.10100000352E+00 0.  1.
</event>
<event>
 5   0  0.5003507E-04  0.1199727E+04  0.7818609E-02  0.9113095E-01
       -1   -1    0    0    0  501  0.00000000000E+00  0.00000000000E+00  0.85444692145E+03  0.85444692146E+03  0.50400001928E-02 0.  1.
        1   -1    0    0  501    0  0.00000000000E+00  0.00000000000E+00 -0.42113369755E+03  0.42113369758E+03  0.50400001928E-02 0. -1.
    10030    2    1    2    0    0  0.00000000000E+00  0.00000000000E+00  0.43331322390E+03  0.12755806190E+04  0.11997272880E+04 0.  0.
        3    1    3    3  502    0  0.43066195771E+02 -0.10745905891E+03  0.84245692517E+03  0.85037393394E+03  0.10100000352E+00 0.  1.
       -3    1    3    3    0  502 -0.43066195771E+02  0.10745905891E+03 -0.40914370127E+03  0.42520668510E+03  0.10100000352E+00 0. -1.
</event>
<event>
 5   0  0.9410666E-04  0.1197234E+04  0.7818609E-02  0.9115281E-01
        2   -1    0    0  501    0  0.00000000000E+00  0.00000000000E+00  0.26782922909E+04  0.26782922909E+04  0.25500000920E-02 0.  1.
       -2   -1    0    0    0  501  0.00000000000E+00  0.00000000000E+00 -0.13379506213E+03  0.13379506215E+03  0.25500000920E-02 0. -1.
    10030    2    1    2    0    0  0.00000000000E+00  0.00000000000E+00  0.25444972288E+04  0.28120873530E+04  0.11972339512E+04 0.  0.
        2    1    3    3  502    0 -0.33973802672E+03 -0.31495789870E+03  0.38179515399E+03  0.60032319992E+03  0.25500000920E-02 0.  1.
       -2    1    3    3    0  502  0.33973802672E+03  0.31495789870E+03  0.21627020748E+04  0.22117641531E+04  0.25500000920E-02 0. -1.
</event>
<event>
 5   0  0.9050363E-04  0.1205853E+04  0.7818609E-02  0.9107748E-01
       -2   -1    0    0    0  501  0.00000000000E+00  0.00000000000E+00  0.22778697149E+03  0.22778697150E+03  0.25500000920E-02 0. -1.
        2   -1    0    0  501    0  0.00000000000E+00  0.00000000000E+00 -0.15958798718E+04  0.15958798718E+04  0.25500000920E-02 0.  1.
    10030    2    1    2    0    0  0.00000000000E+00  0.00000000000E+00 -0.13680929003E+04  0.18236668433E+04  0.12058534619E+04 0.  0.
        3    1    3    3  502    0  0.26776094694E+02  0.41082338786E+03 -0.13502132225E+04  0.14115837105E+04  0.10100000352E+00 0.  1.
       -3    1    3    3    0  502 -0.26776094694E+02 -0.41082338786E+03 -0.17879677783E+02  0.41208313280E+03  0.10100000352E+00 0. -1.
</event>
<event>
 5   0  0.9410666E-04  0.1205723E+04  0.7818609E-02  0.9107862E-01
        2   -1    0    0  501    0  0.00000000000E+00  0.00000000000E+00  0.11408767877E+04  0.11408767877E+04  0.25500000920E-02 0.  1.
       -2   -1    0    0    0  501  0.00000000000E+00  0.00000000000E+00 -0.31856356446E+03  0.31856356447E+03  0.25500000920E-02 0. -1.
    10030    2    1    2    0    0  0.00000000000E+00  0.00000000000E+00  0.82231322321E+03  0.14594403521E+04  0.12057226482E+04 0.  0.
        2    1    3    3  502    0  0.11622036284E+03  0.58051772523E+03  0.27349857659E+03  0.65215755263E+03  0.25500000920E-02 0. -1.
       -2    1    3    3    0  502 -0.11622036284E+03 -0.58051772523E+03  0.54881464663E+03  0.80728279952E+03  0.25500000920E-02 0.  1.
</event>
<event>
 5   0  0.9070772E-04  0.1201397E+04  0.7818609E-02  0.9111635E-01
       -2   -1    0    0    0  501  0.00000000000E+00  0.00000000000E+00  0.44130965784E+03  0.44130965785E+03  0.25500000920E-02 0.  1.
        2   -1    0    0  501    0  0.00000000000E+00  0.00000000000E+00 -0.81765401173E+03  0.81765401173E+03  0.25500000920E-02 0. -1.
    10030    2    1    2    0    0  0.00000000000E+00  0.00000000000E+00 -0.37634435389E+03  0.12589636696E+04  0.12013968739E+04 0.  0.
        4    1    3    3  502    0  0.12925028609E+03  0.40417395472E+01 -0.80289384158E+03  0.81324172659E+03  0.12699999809E+01 0. -1.
       -4    1    3    3    0  502 -0.12925028609E+03 -0.40417395472E+01  0.42654948770E+03  0.44572194299E+03  0.12699999809E+01 0.  1.
</event>
<event>
 5   0  0.5157631E-04  0.1198495E+04  0.7818609E-02  0.9114175E-01
        1   -1    0    0  501    0  0.00000000000E+00  0.00000000000E+00  0.54415796695E+03  0.54415796697E+03  0.50400001928E-02 0. -1.
       -1   -1    0    0    0  501  0.00000000000E+00  0.00000000000E+00 -0.65991420564E+03  0.65991420566E+03  0.50400001928E-02 0.  1.
    10030    2    1    2    0    0  0.00000000000E+00  0.00000000000E+00 -0.11575623869E+03  0.12040721726E+04  0.11984950105E+04 0.  0.
        5    1    3    3  502    0 -0.40788264841E+03  0.36782845422E+03  0.18283956931E+03  0.57889413946E+03  0.46999998093E+01 0.  1.
       -5    1    3    3    0  502  0.40788264841E+03 -0.36782845422E+03 -0.29859580800E+03  0.62517803317E+03  0.46999998093E+01 0. -1.
</event>
<event>
 5   0  0.5447074E-04  0.1217372E+04  0.7818609E-02  0.9097785E-01
        1   -1    0    0  501    0  0.00000000000E+00  0.00000000000E+00  0.37514915161E+03  0.37514915164E+03  0.50400001928E-02 0. -1.
       -1   -1    0    0    0  501  0.00000000000E+00  0.00000000000E+00 -0.98760389846E+03  0.98760389848E+03  0.50400001928E-02 0.  1.
    10030    2    1    2    0    0  0.00000000000E+00  0.00000000000E+00 -0.61245474686E+03  0.13627530501E+04  0.12173721940E+04 0.  0.
        4    1    3    3  502    0  0.22590630369E+02 -0.43133843115E+03 -0.78631969583E+03  0.89714182586E+03  0.12699999809E+01 0.  1.
       -4    1    3    3    0  502 -0.22590630369E+02  0.43133843115E+03  0.17386494897E+03  0.46561122425E+03  0.12699999809E+01 0. -1.
</event>
<event>
 5   0  0.9410666E-04  0.1197669E+04  0.7818609E-02  0.9114899E-01
       -2   -1    0    0    0  501  0.00000000000E+00  0.00000000000E+00  0.47486148290E+03  0.47486148290E+03  0.25500000920E-02 0.  1.
        2   -1    0    0  501    0  0.00000000000E+00  0.00000000000E+00 -0.75517357384E+03  0.75517357385E+03  0.25500000920E-02 0. -1.
    10030    2    1    2    0    0  0.00000000000E+00  0.00000000000E+00 -0.28031209095E+03  0.12300350568E+04  0.11976691415E+04 0.  0.
        2    1    3    3  502    0  0.37418326613E+03 -0.22353183509E+03  0.28157866912E+03  0.51890860935E+03  0.25500000920E-02 0.  1.
       -2    1    3    3    0  502 -0.37418326613E+03  0.22353183509E+03 -0.56189076006E+03  0.71112644740E+03  0.25500000920E-02 0. -1.
</event>
<event>
 5   0  0.9410666E-04  0.1222919E+04  0.7818609E-02  0.9093029E-01
       -2   -1    0    0    0  501  0.00000000000E+00  0.00000000000E+00  0.28458699408E+03  0.28458699409E+03  0.25500000920E-02 0. -1.
        2   -1    0    0  501    0  0.00000000000E+00  0.00000000000E+00 -0.13137721164E+04  0.13137721164E+04  0.25500000920E-02 0.  1.
    10030    2    1    2    0    0  0.00000000000E+00  0.00000000000E+00 -0.10291851223E+04  0.15983591105E+04  0.12229185705E+04 0.  0.
        2    1    3    3  502    0  0.41769852949E+03 -0.44292491891E+03 -0.58884960841E+03  0.84699374653E+03  0.25500000920E-02 0. -1.
       -2    1    3    3    0  502 -0.41769852949E+03  0.44292491891E+03 -0.44033551389E+03  0.75136536394E+03  0.25500000920E-02 0.  1.
</event>
<event>
 5   0  0.3453625E-04  0.1205420E+04  0.7818609E-02  0.9108125E-01
       -3   -1    0    0    0  501  0.00000000000E+00  0.00000000000E+00  0.22640619218E+03  0.22640621471E+03  0.10100000352E+00 0.  1.
        3   -1    0    0  501    0  0.00000000000E+00  0.00000000000E+00 -0.16044593333E+04  0.16044593365E+04  0.10100000352E+00 0. -1.
    10030    2    1    2    0    0  0.00000000000E+00  0.00000000000E+00 -0.13780531411E+04  0.18308655512E+04  0.12054203444E+04 0.  0.
        1    1    3    3  502    0 -0.52227715574E+01  0.60127401609E+03 -0.75168453262E+03  0.96259407663E+03  0.50400001928E-02 0. -1.
       -1    1    3    3    0  502  0.52227715574E+01 -0.60127401609E+03 -0.62636860849E+03  0.86827147454E+03  0.50400001928E-02 0.  1.
</event>
<event>
 5   0  0.9050363E-04  0.1199934E+04  0.7818609E-02  0.9112914E-01
        2   -1    0    0  501    0  0.00000000000E+00  0.00000000000E+00  0.96432325446E+03  0.96432325446E+03  0.25500000920E-02 0.  1.
       -2   -1    0    0    0  501  0.00000000000E+00  0.00000000000E+00 -0.37327787606E+03  0.37327787607E+03  0.25500000920E-02 0. -1.
    10030    2    1    2    0    0  0.00000000000E+00  0.00000000000E+00  0.59104537840E+03  0.13376011305E+04  0.11999342253E+04 0.  0.
        3    1    3    3  502    0  0.59689633842E+02  0.12453538680E+03 -0.35531910313E+03  0.38121331325E+03  0.10100000352E+00 0. -1.
       -3    1    3    3    0  502 -0.59689633842E+02 -0.12453538680E+03  0.94636448152E+03  0.95638781728E+03  0.10100000352E+00 0.  1.
</event>
<event>
 5   0  0.5052959E-04  0.1194993E+04  0.7818609E-02  0.9117250E-01
        1   -1    0    0  501    0  0.00000000000E+00  0.00000000000E+00  0.62366769076E+03  0.62366769078E+03  0.50400001928E-02 0. -1.
       -1   -1    0    0    0  501  0.00000000000E+00  0.00000000000E+00 -0.57242384294E+03  0.57242384296E+03  0.50400001928E-02 0.  1.
    10030    2    1    2    0    0  0.00000000000E+00  0.00000000000E+00  0.51243847817E+02  0.11960915337E+04  0.11949933159E+04 0.  0.
        2    1    3    3  502    0  0.36348350372E+03 -0.46552144602E+03  0.11610291081E+03  0.60192222096E+03  0.25500000920E-02 0.  1.
       -2    1    3    3    0  502 -0.36348350372E+03  0.46552144602E+03 -0.64859062996E+02  0.59416931277E+03  0.25500000920E-02 0. -1.
</event>
<event>
 5   0  0.5001586E-04  0.1195505E+04  0.7818609E-02  0.9116800E-01
       -1   -1    0    0    0  501  0.00000000000E+00  0.00000000000E+00  0.58950277571E+03  0.58950277573E+03  0.50400001928E-02 0. -1.
        1   -1    0    0  501    0  0.00000000000E+00  0.00000000000E+00 -0.60611727658E+03  0.60611727660E+03  0.50400001928E-02 0.  1.
    10030    2    1    2    0    0  0.00000000000E+00  0.00000000000E+00 -0.16614500875E+02  0.11956200523E+04  0.11955046081E+04 0.  0.
        1    1    3    3  502    0 -0.28842767253E+03 -0.47383617907E+03  0.21441712890E+03  0.59471501752E+03  0.50400001928E-02 0. -1.
       -1    1    3    3    0  502  0.28842767253E+03  0.47383617907E+03 -0.23103162978E+03  0.60090503481E+03  0.50400001928E-02 0.  1.
</event>
<event>
 5   0  0.9410666E-04  0.1198522E+04  0.7818609E-02  0.9114151E-01
        2   -1    0    0  501    0  0.00000000000E+00  0.00000000000E+00  0.35514854525E+03  0.35514854525E+03  0.25500000920E-02 0.  1.
       -2   -1    0    0    0  501  0.00000000000E+00  0.00000000000E+00 -0.10111647173E+04  0.10111647173E+04  0.25500000920E-02 0. -1.
    10030    2    1    2    0    0  0.00000000000E+00  0.00000000000E+00 -0.65601617209E+03  0.13663132626E+04  0.11985218869E+04 0.  0.
        2    1    3    3  502    0  0.97177762388E+02 -0.34406480837E+03 -0.87626275342E+03  0.94639342923E+03  0.25500000920E-02 0. -1.
       -2    1    3    3    0  502 -0.97177762388E+02  0.34406480837E+03  0.22024658133E+03  0.41991983336E+03  0.25500000920E-02 0.  1.
</event>
<event>
 5   0  0.9145224E-04  0.1197102E+04  0.7818609E-02  0.9115397E-01
       -2   -1    0    0    0  501  0.00000000000E+00  0.00000000000E+00  0.26443146244E+03  0.26443146246E+03  0.25500000920E-02 0. -1.
        2   -1    0    0  501    0  0.00000000000E+00  0.00000000000E+00 -0.13548433732E+04  0.13548433732E+04  0.25500000920E-02 0.  1.
    10030    2    1    2    0    0  0.00000000000E+00  0.00000000000E+00 -0.10904119107E+04  0.16192748356E+04  0.11971018579E+04 0.  0.
        5    1    3    3  502    0 -0.20641419317E+03 -0.54749177025E+03 -0.37471108202E+03  0.69482698754E+03  0.46999998093E+01 0. -1.
       -5    1    3    3    0  502  0.20641419317E+03  0.54749177025E+03 -0.71570082872E+03  0.92444784810E+03  0.46999998093E+01 0.  1.
</event>
<event>
 5   0  0.3453625E-04  0.1199625E+04  0.7818609E-02  0.9113185E-01
        4   -1    0    0  501    0  0.00000000000E+00  0.00000000000E+00  0.65530594464E+03  0.65530717529E+03  0.12699999809E+01 0.  1.
       -4   -1    0    0    0  501  0.00000000000E+00  0.00000000000E+00 -0.54901613476E+03  0.54901760366E+03  0.12699999809E+01 0. -1.
    10030    2    1    2    0    0  0.00000000000E+00  0.00000000000E+00  0.10628980989E+03  0.12043247789E+04  0.11996252121E+04 0.  0.
        5    1    3    3  502    0  0.21405811367E+03  0.51053318002E+03 -0.17860151119E+03  0.58170920032E+03  0.46999998093E+01 0. -1.
       -5    1    3    3    0  502 -0.21405811367E+03 -0.51053318002E+03  0.28489132108E+03  0.62261557863E+03  0.46999998093E+01 0.  1.
</event>
<event>
 5   0  0.5157631E-04  0.1197145E+04  0.7818609E-02  0.9115359E-01
       -1   -1    0    0    0  501  0.00000000000E+00  0.00000000000E+00  0.35596388192E+03  0.35596388196E+03  0.50400001928E-02 0.  1.
        1   -1    0    0  501    0  0.00000000000E+00  0.00000000000E+00 -0.10065324925E+04  0.10065324925E+04  0.50400001928E-02 0. -1.
    10030    2    1    2    0    0  0.00000000000E+00  0.00000000000E+00 -0.65056861057E+03  0.13624963745E+04  0.11971452933E+04 0.  0.
        5    1    3    3  502    0 -0.54142055062E+03 -0.17154965025E+03 -0.11023774299E+03  0.57856714832E+03  0.46999998093E+01 0.  1.
       -5    1    3    3    0  502  0.54142055062E+03  0.17154965025E+03 -0.54033086758E+03  0.78392922614E+03  0.46999998093E+01 0. -1.
</event>
<event>
 5   0  0.9070772E-04  0.1192903E+04  0.7818609E-02  0.9119091E-01
        2   -1    0    0  501    0  0.00000000000E+00  0.00000000000E+00  0.75948873379E+03  0.75948873380E+03  0.25500000920E-02 0.  1.
       -2   -1    0    0    0  501  0.00000000000E+00  0.00000000000E+00 -0.46841310489E+03  0.46841310490E+03  0.25500000920E-02 0. -1.
    10030    2    1    2    0    0  0.00000000000E+00  0.00000000000E+00  0.29107562891E+03  0.12279018387E+04  0.11929031410E+04 0.  0.
        4    1    3    3  502    0  0.25161765309E+03  0.34784611880E+03 -0.28066885640E+03  0.51291810805E+03  0.12699999809E+01 0. -1.
       -4    1    3    3    0  502 -0.25161765309E+03 -0.34784611880E+03  0.57174448530E+03  0.71498373065E+03  0.12699999809E+01 0.  1.
</event>
<event>
 5   0  0.5003507E-04  0.1202881E+04  0.7818609E-02  0.9110338E-01
        1   -1    0    0  501    0  0.00000000000E+00  0.00000000000E+00  0.95356970562E+03  0.95356970563E+03  0.50400001928E-02 0. -1.
       -1   -1    0    0    0  501  0.00000000000E+00  0.00000000000E+00 -0.37934399092E+03  0.37934399096E+03  0.50400001928E-02 0.  1.
    10030    2    1    2    0    0  0.00000000000E+00  0.00000000000E+00  0.57422571470E+03  0.13329136966E+04  0.12028814369E+04 0.  0.
        3    1    3    3  502    0 -0.18128806300E+02 -0.58729984786E+03  0.14485602604E+03  0.60517191227E+03  0.10100000352E+00 0.  1.
       -3    1    3    3    0  502  0.18128806300E+02  0.58729984786E+03  0.42936968866E+03  0.72774178432E+03  0.10100000352E+00 0. -1.
</event>
<event>
 5   0  0.5052959E-04  0.1204869E+04  0.7818609E-02  0.9108605E-01
       -1   -1    0    0    0  501  0.00000000000E+00  0.00000000000E+00  0.14510536990E+04  0.14510536990E+04  0.50400001928E-02 0.  1.
        1   -1    0    0  501    0  0.00000000000E+00  0.00000000000E+00 -0.25011314850E+03  0.25011314855E+03  0.50400001928E-02 0. -1.
    10030    2    1    2    0    0  0.00000000000E+00  0.00000000000E+00  0.12009405505E+04  0.17011668475E+04  0.12048694690E+04 0.  0.
        2    1    3    3  502    0  0.97984891908E+02  0.38758984222E+03  0.12367712733E+04  0.12997807920E+04  0.25500000920E-02 0.  1.
       -2    1    3    3    0  502 -0.97984891908E+02 -0.38758984222E+03 -0.35830722847E+02  0.40138605549E+03  0.25500000920E-02 0. -1.
</event>
<event>
 5   0  0.9410666E-04  0.1185403E+04  0.7818609E-02  0.9125730E-01
        2   -1    0    0  501    0  0.00000000000E+00  0.00000000000E+00  0.46663688142E+03  0.46663688143E+03  0.25500000920E-02 0.  1.
       -2   -1    0    0    0  501  0.00000000000E+00  0.00000000000E+00 -0.75282341180E+03  0.75282341180E+03  0.25500000920E-02 0. -1.
    10030    2    1    2    0    0  0.00000000000E+00  0.00000000000E+00 -0.28618653037E+03  0.12194602932E+04  0.11854031705E+04 0.  0.
        2    1    3    3  502    0  0.33069336555E+03 -0.46135125399E+03 -0.31855766793E+03  0.65090864903E+03  0.25500000920E-02 0. -1.
       -2    1    3    3    0  502 -0.33069336555E+03  0.46135125399E+03  0.32371137559E+02  0.56855164421E+03  0.25500000920E-02 0.  1.
</event>
<event>
 5   0  0.9145224E-04  0.1191850E+04  0.7818609E-02  0.9120020E-01
       -2   -1    0    0    0  501  0.00000000000E+00  0.00000000000E+00  0.60389524823E+03  0.60389524823E+03  0.25500000920E-02 0.  1.
        2   -1    0    0  501    0  0.00000000000E+00  0.00000000000E+00 -0.58806011552E+03  0.58806011552E+03  0.25500000920E-02 0. -1.
    10030    2    1    2    0    0  0.00000000000E+00  0.00000000000E+00  0.15835132709E+02  0.11919553638E+04  0.11918501742E+04 0.  0.
        5    1    3    3  502    0  0.25920209099E+03  0.45386340129E+03  0.29417159756E+03  0.59978056805E+03  0.46999998093E+01 0.  1.
       -5    1    3    3    0  502 -0.25920209099E+03 -0.45386340129E+03 -0.27833646485E+03  0.59217479570E+03  0.46999998093E+01 0. -1.
</event>
<event>
 5   0  0.5447074E-04  0.1200331E+04  0.7818609E-02  0.9112567E-01
        1   -1    0    0  501    0  0.00000000000E+00  0.00000000000E+00  0.48845711258E+03  0.48845711261E+03  0.50400001928E-02 0.  1.
       -1   -1    0    0    0  501  0.00000000000E+00  0.00000000000E+00 -0.73742119700E+03  0.73742119701E+03  0.50400001928E-02 0. -1.
    10030    2    1    2    0    0  0.00000000000E+00  0.00000000000E+00 -0.24896408442E+03  0.12258783096E+04  0.12003310021E+04 0.  0.
        4    1    3    3  502    0 -0.22612895811E+03 -0.19948950313E+03  0.40547128093E+03  0.50531073620E+03  0.12699999809E+01 0.  1.
       -4    1    3    3    0  502  0.22612895811E+03  0.19948950313E+03 -0.65443536535E+03  0.72056757343E+03  0.12699999809E+01 0. -1.
</event>
<event>
 5   0  0.9145224E-04  0.1201501E+04  0.7818609E-02  0.9111544E-01
        2   -1    0    0  501    0  0.00000000000E+00  0.00000000000E+00  0.80156007568E+03  0.80156007568E+03  0.25500000920E-02 0. -1.
       -2   -1    0    0    0  501  0.00000000000E+00  0.00000000000E+00 -0.45024812395E+03  0.45024812396E+03  0.25500000920E-02 0.  1.
    10030    2    1    2    0    0  0.00000000000E+00  0.00000000000E+00  0.35131195173E+03  0.12518081996E+04  0.12015005956E+04 0.  0.
        5    1    3    3  502    0 -0.52980802432E+03  0.19176744703E+03  0.39272425251E+03  0.68682292105E+03  0.46999998093E+01 0. -1.
       -5    1    3    3    0  502  0.52980802432E+03 -0.19176744703E+03 -0.41412300777E+02  0.56498527859E+03  0.46999998093E+01 0.  1.
</event>
<event>
 5   0  0.5003507E-04  0.1199731E+04  0.7818609E-02  0.9113092E-01
        1   -1    0    0  501    0  0.00000000000E+00  0.00000000000E+00  0.12844657342E+04  0.12844657342E+04  0.50400001928E-02 0.  1.
       -1   -1    0    0    0  501  0.00000000000E+00  0.00000000000E+00 -0.28014670015E+03  0.28014670020E+03  0.50400001928E-02 0. -1.
    10030    2    1    2    0    0  0.00000000000E+00  0.00000000000E+00  0.10043190341E+04  0.15646124344E+04  0.11997313648E+04 0.  0.
        3    1    3    3  502    0  0.23031728131E+03  0.11806670390E+03 -0.20358518320E+03  0.32929125962E+03  0.10100000352E+00 0. -1.
       -3    1    3    3    0  502 -0.23031728131E+03 -0.11806670390E+03  0.12079042173E+04  0.12353211748E+04  0.10100000352E+00 0.  1.
</event>
<event>
 5   0  0.9410666E-04  0.1198250E+04  0.7818609E-02  0.9114390E-01
        2   -1    0    0  501    0  0.00000000000E+00  0.00000000000E+00  0.15848743981E+04  0.15848743981E+04  0.25500000920E-02 0. -1.
       -2   -1    0    0    0  501  0.00000000000E+00  0.00000000000E+00 -0.22648515321E+03  0.22648515323E+03  0.25500000920E-02 0.  1.
    10030    2    1    2    0    0  0.00000000000E+00  0.00000000000E+00  0.13583892449E+04  0.18113595513E+04  0.11982495915E+04 0.  0.
        2    1    3    3  502    0  0.17591384302E+02 -0.56195820575E+03  0.99209247260E+03  0.11403306345E+04  0.25500000920E-02 0. -1.
       -2    1    3    3    0  502 -0.17591384302E+02  0.56195820575E+03  0.36629677231E+03  0.67102891683E+03  0.25500000920E-02 0.  1.
</event>
<event>
 5   0  0.9050363E-04  0.1200963E+04  0.7818609E-02  0.9112014E-01
        2   -1    0    0  501    0  0.00000000000E+00  0.00000000000E+00  0.32610057795E+03  0.32610057796E+03  0.25500000920E-02 0.  1.
       -2   -1    0    0    0  501  0.00000000000E+00  0.00000000000E+00 -0.11057259683E+04  0.11057259683E+04  0.25500000920E-02 0. -1.
    10030    2    1    2    0    0  0.00000000000E+00  0.00000000000E+00 -0.77962539033E+03  0.14318265462E+04  0.12009627427E+04 0.  0.
        3    1    3    3  502    0 -0.46441479015E+03 -0.18804629864E+03  0.47700084702E+01  0.50106413853E+03  0.10100000352E+00 0.  1.
       -3    1    3    3    0  502  0.46441479015E+03  0.18804629864E+03 -0.78439539880E+03  0.93076240771E+03  0.10100000352E+00 0. -1.
</event>
<event>
 5   0  0.9298693E-04  0.1199707E+04  0.7818609E-02  0.9113113E-01
        2   -1    0    0  501    0  0.00000000000E+00  0.00000000000E+00  0.44855102632E+03  0.44855102633E+03  0.25500000920E-02 0. -1.
       -2   -1    0    0    0  501  0.00000000000E+00  0.00000000000E+00 -0.80219284538E+03  0.80219284538E+03  0.25500000920E-02 0.  1.
    10030    2    1    2    0    0  0.00000000000E+00  0.00000000000E+00 -0.35364181906E+03  0.12507438717E+04  0.11997073378E+04 0.  0.
        1    1    3    3  502    0 -0.13180742157E+03 -0.17912122508E+03 -0.75762639284E+03  0.78959189510E+03  0.50400001928E-02 0.  1.
       -1    1    3    3    0  502  0.13180742157E+03  0.17912122508E+03  0.40398457378E+03  0.46115197661E+03  0.50400001928E-02 0. -1.
</event>
<event>
 5   0  0.5001586E-04  0.1200855E+04  0.7818609E-02  0.9112108E-01
        1   -1    0    0  501    0  0.00000000000E+00  0.00000000000E+00  0.40818831833E+03  0.40818831836E+03  0.50400001928E-02 0.  1.
       -1   -1    0    0    0  501  0.00000000000E+00  0.00000000000E+00 -0.88320338159E+03  0.88320338160E+03  0.50400001928E-02 0. -1.
    10030    2    1    2    0    0  0.00000000000E+00  0.00000000000E+00 -0.47501506326E+03  0.12913917000E+04  0.12008552004E+04 0.  0.
        1    1    3    3  502    0 -0.48206149709E+03 -0.46039749552E+02 -0.61924999316E+03  0.78611290510E+03  0.50400001928E-02 0. -1.
       -1    1    3    3    0  502  0.48206149709E+03  0.46039749552E+02  0.14423492990E+03  0.50527879486E+03  0.50400001928E-02 0.  1.
</event>
<event>
 5   0  0.9050363E-04  0.1197911E+04  0.7818609E-02  0.9114687E-01
        2   -1    0    0  501    0  0.00000000000E+00  0.00000000000E+00  0.59581614413E+03  0.59581614414E+03  0.25500000920E-02 0. -1.
       -2   -1    0    0    0  501  0.00000000000E+00  0.00000000000E+00 -0.60211098367E+03  0.60211098368E+03  0.25500000920E-02 0.  1.
    10030    2    1    2    0    0  0.00000000000E+00  0.00000000000E+00 -0.62948395393E+01  0.11979271278E+04  0.11979105887E+04 0.  0.
        3    1    3    3  502    0  0.67861492844E+02  0.30489235972E+03  0.50792020136E+03  0.59627801769E+03  0.10100000352E+00 0. -1.
       -3    1    3    3    0  502 -0.67861492844E+02 -0.30489235972E+03 -0.51421504090E+03  0.60164911013E+03  0.10100000352E+00 0.  1.
</event>
<event>
 5   0  0.5447074E-04  0.1179979E+04  0.7818609E-02  0.9130564E-01
        1   -1    0    0  501    0  0.00000000000E+00  0.00000000000E+00  0.41919899048E+03  0.41919899051E+03  0.50400001928E-02 0. -1.
       -1   -1    0    0    0  501  0.00000000000E+00  0.00000000000E+00 -0.83036308143E+03  0.83036308144E+03  0.50400001928E-02 0.  1.
    10030    2    1    2    0    0  0.00000000000E+00  0.00000000000E+00 -0.41116409095E+03  0.12495620719E+04  0.11799785854E+04 0.  0.
        4    1    3    3  502    0 -0.82270097782E+02  0.38825236471E+03  0.25671328256E+03  0.47266435240E+03  0.12699999809E+01 0. -1.
       -4    1    3    3    0  502  0.82270097782E+02 -0.38825236471E+03 -0.66787737351E+03  0.77689771955E+03  0.12699999809E+01 0.  1.
</event>
<event>
 5   0  0.9145224E-04  0.1210618E+04  0.7818609E-02  0.9103613E-01
       -2   -1    0    0    0  501  0.00000000000E+00  0.00000000000E+00  0.31755023865E+03  0.31755023866E+03  0.25500000920E-02 0.  1.
        2   -1    0    0  501    0  0.00000000000E+00  0.00000000000E+00 -0.11538297839E+04  0.11538297839E+04  0.25500000920E-02 0. -1.
    10030    2    1    2    0    0  0.00000000000E+00  0.00000000000E+00 -0.83627954527E+03  0.14713800226E+04  0.12106178972E+04 0.  0.
        5    1    3    3  502    0 -0.36890157104E+03 -0.47985189645E+03 -0.42486538405E+03  0.73951260720E+03  0.46999998093E+01 0. -1.
       -5    1    3    3    0  502  0.36890157104E+03  0.47985189645E+03 -0.41141416122E+03  0.73186741538E+03  0.46999998093E+01 0.  1.
</event>
<event>
 5   0  0.5447074E-04  0.1198358E+04  0.7818609E-02  0.9114295E-01
        1   -1    0    0  501    0  0.00000000000E+00  0.00000000000E+00  0.34530333496E+03  0.34530333500E+03  0.50400001928E-02 0. -1.
       -1   -1    0    0    0  501  0.00000000000E+00  0.00000000000E+00 -0.10397110648E+04  0.10397110648E+04  0.50400001928E-02 0.  1.
    10030    2    1    2    0    0  0.00000000000E+00  0.00000000000E+00 -0.69440772987E+03  0.13850143998E+04  0.11983583740E+04 0.  0.
        4    1    3    3  502    0 -0.54800539140E+03  0.14185740670E+03 -0.12019001325E+03  0.57868876351E+03  0.12699999809E+01 0. -1.
       -4    1    3    3    0  502  0.54800539140E+03 -0.14185740670E+03 -0.57421771662E+03  0.80632563633E+03  0.12699999809E+01 0.  1.
</event>
<event>
 5   0  0.5003507E-04  0.1197054E+04  0.7818609E-02  0.9115439E-01
       -1   -1    0    0    0  501  0.00000000000E+00  0.00000000000E+00  0.31920007164E+03  0.31920007168E+03  0.50400001928E-02 0.  1.
        1   -1    0    0  501    0  0.00000000000E+00  0.00000000000E+00 -0.11222889346E+04  0.11222889346E+04  0.50400001928E-02 0. -1.
    10030    2    1    2    0    0  0.00000000000E+00  0.00000000000E+00 -0.80308886294E+03  0.14414890063E+04  0.11970542316E+04 0.  0.
        3    1    3    3  502    0 -0.42000159238E+03  0.38505257998E+03 -0.18091705111E+03  0.59782758094E+03  0.10100000352E+00 0.  1.
       -3    1    3    3    0  502  0.42000159238E+03 -0.38505257998E+03 -0.62217181183E+03  0.84366142533E+03  0.10100000352E+00 0. -1.
</event>
<event>
 5   0  0.9298693E-04  0.1206327E+04  0.7818609E-02  0.9107337E-01
        2   -1    0    0  501    0  0.00000000000E+00  0.00000000000E+00  0.64843359183E+03  0.64843359184E+03  0.25500000920E-02 0. -1.
       -2   -1    0    0    0  501  0.00000000000E+00  0.00000000000E+00 -0.56105356594E+03  0.56105356595E+03  0.25500000920E-02 0.  1.
    10030    2    1    2    0    0  0.00000000000E+00  0.00000000000E+00  0.87380025893E+02  0.12094871578E+04  0.12063266207E+04 0.  0.
        1    1    3    3  502    0 -0.55150289316E+03 -0.12085528021E+03  0.25648305494E+03  0.62011692238E+03  0.50400001928E-02 0. -1.
       -1    1    3    3    0  502  0.55150289316E+03  0.12085528021E+03 -0.16910302905E+03  0.58937023540E+03  0.50400001928E-02 0.  1.
</event>
<event>
 5   0  0.9070772E-04  0.1204120E+04  0.7818609E-02  0.9109258E-01
        2   -1    0    0  501    0  0.00000000000E+00  0.00000000000E+00  0.20068027364E+04  0.20068027364E+04  0.25500000920E-02 0.  1.
       -2   -1    0    0    0  501  0.00000000000E+00  0.00000000000E+00 -0.18062378869E+03  0.18062378870E+03  0.25500000920E-02 0. -1.
    10030    2    1    2    0    0  0.00000000000E+00  0.00000000000E+00  0.18261789477E+04  0.21874265251E+04  0.12041201159E+04 0.  0.
        4    1    3    3  502    0 -0.12269783043E+03  0.33941492759E+03  0.17884986368E+04  0.18245509687E+04  0.12699999809E+01 0.  1.
       -4    1    3    3    0  502  0.12269783043E+03 -0.33941492759E+03  0.37680310848E+02  0.36287555634E+03  0.12699999809E+01 0. -1.
</event>
<event>
 5   0  0.9050363E-04  0.1196204E+04  0.7818609E-02  0.9116185E-01
       -2   -1    0    0    0  501  0.00000000000E+00  0.00000000000E+00  0.11975680655E+03  0.11975680658E+03  0.25500000920E-02 0.  1.
        2   -1    0    0  501    0  0.00000000000E+00  0.00000000000E+00 -0.29871053528E+04  0.29871053528E+04  0.25500000920E-02 0. -1.
    10030    2    1    2    0    0  0.00000000000E+00  0.00000000000E+00 -0.28673485462E+04  0.31068621594E+04  0.11962043269E+04 0.  0.
        3    1    3    3  502    0  0.29655586871E+03 -0.51689193420E+03 -0.15661993744E+04  0.16757395817E+04  0.10100000352E+00 0. -1.
       -3    1    3    3    0  502 -0.29655586871E+03  0.51689193420E+03 -0.13011491718E+04  0.14311225777E+04  0.10100000352E+00 0.  1.
</event>
<event>
 5   0  0.5052959E-04  0.1192228E+04  0.7818609E-02  0.9119687E-01
       -1   -1    0    0    0  501  0.00000000000E+00  0.00000000000E+00  0.50592657564E+03  0.50592657567E+03  0.50400001928E-02 0. -1.
        1   -1    0    0  501    0  0.00000000000E+00  0.00000000000E+00 -0.70237853672E+03  0.70237853674E+03  0.50400001928E-02 0.  1.
    10030    2    1    2    0    0  0.00000000000E+00  0.00000000000E+00 -0.19645196108E+03  0.12083051124E+04  0.11922281123E+04 0.  0.
        2    1    3    3  502    0  0.46938477926E+03 -0.23806482463E+03  0.18546838650E+03  0.55802818399E+03  0.25500000920E-02 0. -1.
       -2    1    3    3    0  502 -0.46938477926E+03  0.23806482463E+03 -0.38192034757E+03  0.65027692841E+03  0.25500000920E-02 0.  1.
</event>
<event>
 5   0  0.5052959E-04  0.1206134E+04  0.7818609E-02  0.9107504E-01
        1   -1    0    0  501    0  0.00000000000E+00  0.00000000000E+00  0.77574970008E+03  0.77574970009E+03  0.50400001928E-02 0. -1.
       -1   -1    0    0    0  501  0.00000000000E+00  0.00000000000E+00 -0.46882369582E+03  0.46882369585E+03  0.50400001928E-02 0.  1.
    10030    2    1    2    0    0  0.00000000000E+00  0.00000000000E+00  0.30692600425E+03  0.12445733959E+04  0.12061340580E+04 0.  0.
        2    1    3    3  502    0 -0.31259281709E+03 -0.51289540123E+03  0.20916371199E+03  0.63602312876E+03  0.25500000920E-02 0.  1.
       -2    1    3    3    0  502  0.31259281709E+03  0.51289540123E+03  0.97762292266E+02  0.60855026719E+03  0.25500000920E-02 0. -1.
</event>
<event>
 5   0  0.9145224E-04  0.1200824E+04  0.7818609E-02  0.9112136E-01
       -2   -1    0    0    0  501  0.00000000000E+00  0.00000000000E+00  0.93438051600E+03  0.93438051600E+03  0.25500000920E-02 0. -1.
        2   -1    0    0  501    0  0.00000000000E+00  0.00000000000E+00 -0.38581129053E+03  0.38581129054E+03  0.25500000920E-02 0.  1.
    10030    2    1    2    0    0  0.00000000000E+00  0.00000000000E+00  0.54856922547E+03  0.13201918065E+04  0.12008239717E+04 0.  0.
        5    1    3    3  502    0  0.45177090551E+03  0.19317765595E+03  0.65363174214E+03  0.81772312072E+03  0.46999998093E+01 0. -1.
       -5    1    3    3    0  502 -0.45177090551E+03 -0.19317765595E+03 -0.10506251668E+03  0.50246868582E+03  0.46999998093E+01 0.  1.
</event>
<event>
 5   0  0.5001586E-04  0.1199328E+04  0.7818609E-02  0.9113445E-01
        1   -1    0    0  501    0  0.00000000000E+00  0.00000000000E+00  0.12540422545E+04  0.12540422545E+04  0.50400001928E-02 0.  1.
       -1   -1    0    0    0  501  0.00000000000E+00  0.00000000000E+00 -0.28675045951E+03  0.28675045955E+03  0.50400001928E-02 0. -1.
    10030    2    1    2    0    0  0.00000000000E+00  0.00000000000E+00  0.96729179499E+03  0.15407927141E+04  0.11993284667E+04 0.  0.
        1    1    3    3  502    0 -0.20361092763E+03  0.23616432257E+03  0.11416975940E+04  0.11835135797E+04  0.50400001928E-02 0.  1.
       -1    1    3    3    0  502  0.20361092763E+03 -0.23616432257E+03 -0.17440579902E+03  0.35727913438E+03  0.50400001928E-02 0. -1.
</event>
<event>
 5   0  0.9050363E-04  0.1201449E+04  0.7818609E-02  0.9111589E-01
       -2   -1    0    0    0  501  0.00000000000E+00  0.00000000000E+00  0.34042763075E+03  0.34042763076E+03  0.25500000920E-02 0. -1.
        2   -1    0    0  501    0  0.00000000000E+00  0.00000000000E+00 -0.10600491510E+04  0.10600491510E+04  0.25500000920E-02 0.  1.
    10030    2    1    2    0    0  0.00000000000E+00  0.00000000000E+00 -0.71962152022E+03  0.14004767817E+04  0.12014491599E+04 0.  0.
        3    1    3    3  502    0  0.59364742671E+03 -0.13471637234E+01 -0.25265322068E+03  0.64517652020E+03  0.10100000352E+00 0.  1.
       -3    1    3    3    0  502 -0.59364742671E+03  0.13471637234E+01 -0.46696829955E+03  0.75530026154E+03  0.10100000352E+00 0. -1.
</event>
<event>
 5   0  0.5052959E-04  0.1202922E+04  0.7818609E-02  0.9110302E-01
       -1   -1    0    0    0  501  0.00000000000E+00  0.00000000000E+00  0.35574316684E+03  0.35574316688E+03  0.50400001928E-02 0.  1.
        1   -1    0    0  501    0  0.00000000000E+00  0.00000000000E+00 -0.10169009133E+04  0.10169009133E+04  0.50400001928E-02 0. -1.
    10030    2    1    2    0    0  0.00000000000E+00  0.00000000000E+00 -0.66115774650E+03  0.13726440802E+04  0.12029223604E+04 0.  0.
        2    1    3    3  502    0  0.13410174226E+03  0.24836766172E+03 -0.93663233954E+03  0.97823816739E+03  0.25500000920E-02 0. -1.
       -2    1    3    3    0  502 -0.13410174226E+03 -0.24836766172E+03  0.27547459304E+03  0.39440591284E+03  0.25500000920E-02 0.  1.
</event>
<event>
 5   0  0.5447074E-04  0.1191820E+04  0.7818609E-02  0.9120047E-01
        1   -1    0    0  501    0  0.00000000000E+00  0.00000000000E+00  0.11351888259E+04  0.11351888259E+04  0.50400001928E-02 0.  1.
       -1   -1    0    0    0  501  0.00000000000E+00  0.00000000000E+00 -0.31281886759E+03  0.31281886763E+03  0.50400001928E-02 0. -1.
    10030    2    1    2    0    0  0.00000000000E+00  0.00000000000E+00  0.82236995827E+03  0.14480076935E+04  0.11918195888E+04 0.  0.
        4    1    3    3  502    0 -0.35477096781E+03  0.11057780018E+03  0.97717295974E+03  0.10454465532E+04  0.12699999809E+01 0.  1.
       -4    1    3    3    0  502  0.35477096781E+03 -0.11057780018E+03 -0.15480300147E+03  0.40256114028E+03  0.12699999809E+01 0. -1.
</event>
<event>
 5   0  0.3453625E-04  0.1197614E+04  0.7818609E-02  0.9114947E-01
        3   -1    0    0  501    0  0.00000000000E+00  0.00000000000E+00  0.29188891124E+03  0.29188892871E+03  0.10100000352E+00 0.  1.
       -3   -1    0    0    0  501  0.00000000000E+00  0.00000000000E+00 -0.12284463872E+04  0.12284463914E+04  0.10100000352E+00 0. -1.
    10030    2    1    2    0    0  0.00000000000E+00  0.00000000000E+00 -0.93655747600E+03  0.15203353201E+04  0.11976141197E+04 0.  0.
        2    1    3    3  502    0  0.17835484970E+03  0.29008582105E+03  0.15700411757E+03  0.37498070474E+03  0.25500000920E-02 0.  1.
       -2    1    3    3    0  502 -0.17835484970E+03 -0.29008582105E+03 -0.10935615936E+04  0.11453546154E+04  0.25500000920E-02 0. -1.
</event>
<event>
 5   0  0.9070772E-04  0.1203854E+04  0.7818609E-02  0.9109489E-01
       -2   -1    0    0    0  501  0.00000000000E+00  0.00000000000E+00  0.63906752856E+03  0.63906752856E+03  0.25500000920E-02 0. -1.
        2   -1    0    0  501    0  0.00000000000E+00  0.00000000000E+00 -0.56694539401E+03  0.56694539402E+03  0.25500000920E-02 0.  1.
    10030    2    1    2    0    0  0.00000000000E+00  0.00000000000E+00  0.72122134542E+02  0.12060129226E+04  0.12038544626E+04 0.  0.
        4    1    3    3  502    0  0.37465340850E+03  0.12903661531E+03  0.48997295257E+03  0.63015135622E+03  0.12699999809E+01 0. -1.
       -4    1    3    3    0  502 -0.37465340850E+03 -0.12903661531E+03 -0.41785081803E+03  0.57586156637E+03  0.12699999809E+01 0.  1.
</event>
<event>
 5   0  0.5157631E-04  0.1221882E+04  0.7818609E-02  0.9093916E-01
       -1   -1    0    0    0  501  0.00000000000E+00  0.00000000000E+00  0.49275583539E+03  0.49275583541E+03  0.50400001928E-02 0. -1.
        1   -1    0    0  501    0  0.00000000000E+00  0.00000000000E+00 -0.75747291749E+03  0.75747291751E+03  0.50400001928E-02 0.  1.
    10030    2    1    2    0    0  0.00000000000E+00  0.00000000000E+00 -0.26471708210E+03  0.12502287529E+04  0.12218824825E+04 0.  0.
        5    1    3    3  502    0  0.19059387787E+03 -0.48624743524E+03 -0.45667305994E+03  0.69378308443E+03  0.46999998093E+01 0. -1.
       -5    1    3    3    0  502 -0.19059387787E+03  0.48624743524E+03  0.19195597784E+03  0.55644566850E+03  0.46999998093E+01 0.  1.
</event>
<event>
 5   0  0.9410666E-04  0.1199934E+04  0.7818609E-02  0.9112914E-01
        2   -1    0    0  501    0  0.00000000000E+00  0.00000000000E+00  0.13868413046E+04  0.13868413046E+04  0.25500000920E-02 0.  1.
       -2   -1    0    0    0  501  0.00000000000E+00  0.00000000000E+00 -0.25955412424E+03  0.25955412425E+03  0.25500000920E-02 0. -1.
    10030    2    1    2    0    0  0.00000000000E+00  0.00000000000E+00  0.11272871804E+04  0.16463954289E+04  0.11999339653E+04 0.  0.
        2    1    3    3  502    0  0.45916036372E+03 -0.18689707721E+03  0.10273178030E+04  0.11406755128E+04  0.25500000920E-02 0.  1.
       -2    1    3    3    0  502 -0.45916036372E+03  0.18689707721E+03  0.99969377335E+02  0.50571991605E+03  0.25500000920E-02 0. -1.
</event>
<event>
 5   0  0.5052959E-04  0.1199684E+04  0.7818609E-02  0.9113133E-01
        1   -1    0    0  501    0  0.00000000000E+00  0.00000000000E+00  0.12677478207E+04  0.12677478207E+04  0.50400001928E-02 0. -1.
       -1   -1    0    0    0  501  0.00000000000E+00  0.00000000000E+00 -0.28381858829E+03  0.28381858834E+03  0.50400001928E-02 0.  1.
    10030    2    1    2    0    0  0.00000000000E+00  0.00000000000E+00  0.98392923244E+03  0.15515664091E+04  0.11996839531E+04 0.  0.
        2    1    3    3  502    0 -0.11073870428E+02 -0.27094383812E+03  0.11839499683E+04  0.12146072293E+04  0.25500000920E-02 0. -1.
       -2    1    3    3    0  502  0.11073870428E+02  0.27094383812E+03 -0.20002073589E+03  0.33695917975E+03  0.25500000920E-02 0.  1.
</event>
<event>
 5   0  0.5001586E-04  0.1196202E+04  0.7818609E-02  0.9116188E-01
        1   -1    0    0  501    0  0.00000000000E+00  0.00000000000E+00  0.49296677579E+03  0.49296677582E+03  0.50400001928E-02 0.  1.
       -1   -1    0    0    0  501  0.00000000000E+00  0.00000000000E+00 -0.72565687061E+03  0.72565687063E+03  0.50400001928E-02 0. -1.
    10030    2    1    2    0    0  0.00000000000E+00  0.00000000000E+00 -0.23269009482E+03  0.12186236464E+04  0.11962018690E+04 0.  0.
        1    1    3    3  502    0  0.38234010859E+02 -0.13128937116E+03  0.47682828817E+03  0.49604833937E+03  0.50400001928E-02 0.  1.
       -1    1    3    3    0  502 -0.38234010859E+02  0.13128937116E+03 -0.70951838299E+03  0.72257530707E+03  0.50400001928E-02 0. -1.
</event>
<event>
 5   0  0.9410666E-04  0.1198120E+04  0.7818609E-02  0.9114504E-01
        2   -1    0    0  501    0  0.00000000000E+00  0.00000000000E+00  0.56111663723E+03  0.56111663723E+03  0.25500000920E-02 0.  1.
       -2   -1    0    0    0  501  0.00000000000E+00  0.00000000000E+00 -0.63956879044E+03  0.63956879045E+03  0.25500000920E-02 0. -1.
    10030    2    1    2    0    0  0.00000000000E+00  0.00000000000E+00 -0.78452153217E+02  0.12006854277E+04  0.11981196751E+04 0.  0.
        2    1    3    3  502    0 -0.12890158681E+03 -0.10130139255E+03  0.53819798228E+03  0.56261413007E+03  0.25500000920E-02 0.  1.
       -2    1    3    3    0  502  0.12890158681E+03  0.10130139255E+03 -0.61665013550E+03  0.63807129761E+03  0.25500000920E-02 0. -1.
</event>
<event>
 5   0  0.9298693E-04  0.1201346E+04  0.7818609E-02  0.9111679E-01
       -2   -1    0    0    0  501  0.00000000000E+00  0.00000000000E+00  0.27097433283E+03  0.27097433284E+03  0.25500000920E-02 0.  1.
        2   -1    0    0  501    0  0.00000000000E+00  0.00000000000E+00 -0.13315214180E+04  0.13315214180E+04  0.25500000920E-02 0. -1.
    10030    2    1    2    0    0  0.00000000000E+00  0.00000000000E+00 -0.10605470852E+04  0.16024957509E+04  0.12013461248E+04 0.  0.
        1    1    3    3  502    0  0.29529490591E+03 -0.64941669847E+02  0.16206862044E+03  0.34304917970E+03  0.50400001928E-02 0.  1.
       -1    1    3    3    0  502 -0.29529490591E+03  0.64941669847E+02 -0.12226157056E+04  0.12594465712E+04  0.50400001928E-02 0. -1.
</event>
<event>
 5   0  0.5052959E-04  0.1201659E+04  0.7818609E-02  0.9111406E-01
        1   -1    0    0  501    0  0.00000000000E+00  0.00000000000E+00  0.18030128631E+04  0.18030128631E+04  0.50400001928E-02 0. -1.
       -1   -1    0    0    0  501  0.00000000000E+00  0.00000000000E+00 -0.20021810147E+03  0.20021810153E+03  0.50400001928E-02 0.  1.
    10030    2    1    2    0    0  0.00000000000E+00  0.00000000000E+00  0.16027947616E+04  0.20032309646E+04  0.12016585413E+04 0.  0.
        2    1    3    3  502    0 -0.16126614057E+03 -0.57868009660E+03  0.78325861575E+03  0.98710256886E+03  0.25500000920E-02 0.  1.
       -2    1    3    3    0  502  0.16126614057E+03  0.57868009660E+03  0.81953614589E+03  0.10161283958E+04  0.25500000920E-02 0. -1.
</event>
<event>
 5   0  0.5001586E-04  0.1202052E+04  0.7818609E-02  0.9111062E-01
       -1   -1    0    0    0  501  0.00000000000E+00  0.00000000000E+00  0.32731320283E+03  0.32731320287E+03  0.50400001928E-02 0.  1.
        1   -1    0    0  501    0  0.00000000000E+00  0.00000000000E+00 -0.11036289720E+04  0.11036289720E+04  0.50400001928E-02 0. -1.
    10030    2    1    2    0    0  0.00000000000E+00  0.00000000000E+00 -0.77631576917E+03  0.14309421749E+04  0.12020521346E+04 0.  0.
        1    1    3    3  502    0 -0.32082802213E+03 -0.25050399273E+03  0.13825570752E+03  0.42988081004E+03  0.50400001928E-02 0.  1.
       -1    1    3    3    0  502  0.32082802213E+03  0.25050399273E+03 -0.91457147670E+03  0.10010613648E+04  0.50400001928E-02 0. -1.
</event>
<event>
 5   0  0.5001586E-04  0.1193697E+04  0.7818609E-02  0.9118392E-01
        1   -1    0    0  501    0  0.00000000000E+00  0.00000000000E+00  0.94609339755E+03  0.94609339757E+03  0.50400001928E-02 0.  1.
       -1   -1    0    0    0  501  0.00000000000E+00  0.00000000000E+00 -0.37652530639E+03  0.37652530643E+03  0.50400001928E-02 0. -1.
    10030    2    1    2    0    0  0.00000000000E+00  0.00000000000E+00  0.56956809116E+03  0.13226187040E+04  0.11936969572E+04 0.  0.
        1    1    3    3  502    0  0.21756810665E+03  0.44431992657E+03  0.65471742918E+03  0.82061622594E+03  0.50400001928E-02 0.  1.
       -1    1    3    3    0  502 -0.21756810665E+03 -0.44431992657E+03 -0.85149338020E+02  0.50200247805E+03  0.50400001928E-02 0. -1.
</event>
<event>
 5   0  0.9070772E-04  0.1201747E+04  0.7818609E-02  0.9111329E-01
        2   -1    0    0  501    0  0.00000000000E+00  0.00000000000E+00  0.57893906873E+03  0.57893906874E+03  0.25500000920E-02 0. -1.
       -2   -1    0    0    0  501  0.00000000000E+00  0.00000000000E+00 -0.62363922215E+03  0.62363922215E+03  0.25500000920E-02 0.  1.
    10030    2    1    2    0    0  0.00000000000E+00  0.00000000000E+00 -0.44700153413E+02  0.12025782909E+04  0.12017472455E+04 0.  0.
        4    1    3    3  502    0 -0.46515051904E+02  0.59810157601E+03 -0.56408188100E+02  0.60255509446E+03  0.12699999809E+01 0. -1.
       -4    1    3    3    0  502  0.46515051904E+02 -0.59810157601E+03  0.11708034686E+02  0.60002319643E+03  0.12699999809E+01 0.  1.
</event>
<event>
 5   0  0.5003507E-04  0.1200126E+04  0.7818609E-02  0.9112746E-01
       -1   -1    0    0    0  501  0.00000000000E+00  0.00000000000E+00  0.52544653579E+03  0.52544653581E+03  0.50400001928E-02 0.  1.
        1   -1    0    0  501    0  0.00000000000E+00  0.00000000000E+00 -0.68527591385E+03  0.68527591387E+03  0.50400001928E-02 0. -1.
    10030    2    1    2    0    0  0.00000000000E+00  0.00000000000E+00 -0.15982937806E+03  0.12107224497E+04  0.12001264184E+04 0.  0.
        3    1    3    3  502    0 -0.48158370761E+03 -0.23714906471E+03  0.19061952908E+03  0.56964757648E+03  0.10100000352E+00 0.  1.
       -3    1    3    3    0  502  0.48158370761E+03  0.23714906471E+03 -0.35044890714E+03  0.64107487320E+03  0.10100000352E+00 0. -1.
</event>
<event>
 5   0  0.5001586E-04  0.1203006E+04  0.7818609E-02  0.9110229E-01
       -1   -1    0    0    0  501  0.00000000000E+00  0.00000000000E+00  0.47004029126E+03  0.47004029128E+03  0.50400001928E-02 0. -1.
        1   -1    0    0  501    0  0.00000000000E+00  0.00000000000E+00 -0.76973413810E+03  0.76973413812E+03  0.50400001928E-02 0.  1.
    10030    2    1    2    0    0  0.00000000000E+00  0.00000000000E+00 -0.29969384684E+03  0.12397744294E+04  0.12030063316E+04 0.  0.
        1    1    3    3  502    0  0.23372458516E+03 -0.21531941607E+01  0.42132540387E+03  0.48181626573E+03  0.50400001928E-02 0. -1.
       -1    1    3    3    0  502 -0.23372458516E+03  0.21531941607E+01 -0.72101925071E+03  0.75795816367E+03  0.50400001928E-02 0.  1.
</event>
<event>
 5   0  0.5001586E-04  0.1202393E+04  0.7818609E-02  0.9110764E-01
        1   -1    0    0  501    0  0.00000000000E+00  0.00000000000E+00  0.53459270763E+03  0.53459270766E+03  0.50400001928E-02 0. -1.
       -1   -1    0    0    0  501  0.00000000000E+00  0.00000000000E+00 -0.67609860582E+03  0.67609860584E+03  0.50400001928E-02 0.  1.
    10030    2    1    2    0    0  0.00000000000E+00  0.00000000000E+00 -0.14150589819E+03  0.12106913135E+04  0.12023932540E+04 0.  0.
        1    1    3    3  502    0  0.43846570021E+03  0.34728098242E+03  0.15117945431E+03  0.57940614291E+03  0.50400001928E-02 0. -1.
       -1    1    3    3    0  502 -0.43846570021E+03 -0.34728098242E+03 -0.29268535250E+03  0.63128517059E+03  0.50400001928E-02 0.  1.
</event>
<event>
 5   0  0.9070772E-04  0.1208190E+04  0.7818609E-02  0.9105718E-01
        2   -1    0    0  501    0  0.00000000000E+00  0.00000000000E+00  0.16630588819E+04  0.16630588819E+04  0.25500000920E-02 0. -1.
       -2   -1    0    0    0  501  0.00000000000E+00  0.00000000000E+00 -0.21943332539E+03  0.21943332541E+03  0.25500000920E-02 0.  1.
    10030    2    1    2    0    0  0.00000000000E+00  0.00000000000E+00  0.14436255565E+04  0.18824922073E+04  0.12081896222E+04 0.  0.
        4    1    3    3  502    0  0.14771369540E+02 -0.45441902123E+03  0.10205688992E+03  0.46597431463E+03  0.12699999809E+01 0. -1.
       -4    1    3    3    0  502 -0.14771369540E+02  0.45441902123E+03  0.13415686666E+04  0.14165178927E+04  0.12699999809E+01 0.  1.
</event>
<event>
 5   0  0.9050363E-04  0.1198111E+04  0.7818609E-02  0.9114512E-01
        2   -1    0    0  501    0  0.00000000000E+00  0.00000000000E+00  0.11041781084E+04  0.11041781084E+04  0.25500000920E-02 0. -1.
       -2   -1    0    0    0  501  0.00000000000E+00  0.00000000000E+00 -0.32500853904E+03  0.32500853905E+03  0.25500000920E-02 0.  1.
    10030    2    1    2    0    0  0.00000000000E+00  0.00000000000E+00  0.77916956938E+03  0.14291866475E+04  0.11981107025E+04 0.  0.
        3    1    3    3  502    0  0.37590037004E+03 -0.39207487828E+03  0.69098972343E+03  0.87891444774E+03  0.10100000352E+00 0. -1.
       -3    1    3    3    0  502 -0.37590037004E+03  0.39207487828E+03  0.88179845955E+02  0.55027219974E+03  0.10100000352E+00 0.  1.
</event>
<event>
 5   0  0.9145224E-04  0.1206588E+04  0.7818609E-02  0.9107109E-01
       -2   -1    0    0    0  501  0.00000000000E+00  0.00000000000E+00  0.61535487316E+03  0.61535487317E+03  0.25500000920E-02 0.  1.
        2   -1    0    0  501    0  0.00000000000E+00  0.00000000000E+00 -0.59146995972E+03  0.59146995973E+03  0.25500000920E-02 0. -1.
    10030    2    1    2    0    0  0.00000000000E+00  0.00000000000E+00  0.23884913441E+02  0.12068248329E+04  0.12065884502E+04 0.  0.
        5    1    3    3  502    0  0.33905349992E+03 -0.36652594458E+03 -0.32671402427E+03  0.59670988555E+03  0.46999998093E+01 0. -1.
       -5    1    3    3    0  502 -0.33905349992E+03  0.36652594458E+03  0.35059893771E+03  0.61011494735E+03  0.46999998093E+01 0.  1.
</event>
<event>
 5   0  0.9050363E-04  0.1206485E+04  0.7818609E-02  0.9107199E-01
        2   -1    0    0  501    0  0.00000000000E+00  0.00000000000E+00  0.83814918894E+03  0.83814918895E+03  0.25500000920E-02 0.  1.
       -2   -1    0    0    0  501  0.00000000000E+00  0.00000000000E+00 -0.43417285057E+03  0.43417285057E+03  0.25500000920E-02 0. -1.
    10030    2    1    2    0    0  0.00000000000E+00  0.00000000000E+00  0.40397633838E+03  0.12723220395E+04  0.12064851803E+04 0.  0.
        3    1    3    3  502    0  0.10064815720E+03  0.50264633814E+03 -0.13335523265E+03  0.52968577579E+03  0.10100000352E+00 0. -1.
       -3    1    3    3    0  502 -0.10064815720E+03 -0.50264633814E+03  0.53733157102E+03  0.74263626373E+03  0.10100000352E+00 0.  1.
</event>
<event>
 5   0  0.5157631E-04  0.1198389E+04  0.7818609E-02  0.9114268E-01
        1   -1    0    0  501    0  0.00000000000E+00  0.00000000000E+00  0.96615673403E+03  0.96615673405E+03  0.50400001928E-02 0. -1.
       -1   -1    0    0    0  501  0.00000000000E+00  0.00000000000E+00 -0.37161051231E+03  0.37161051235E+03  0.50400001928E-02 0.  1.
    10030    2    1    2    0    0  0.00000000000E+00  0.00000000000E+00  0.59454622172E+03  0.13377672464E+04  0.11983889167E+04 0.  0.
        5    1    3    3  502    0 -0.52627370345E+02 -0.26723040605E+03 -0.29849297340E+03  0.40410626721E+03  0.46999998093E+01 0.  1.
       -5    1    3    3    0  502  0.52627370345E+02  0.26723040605E+03  0.89303919513E+03  0.93366097919E+03  0.46999998093E+01 0. -1.
</event>
<event>
 5   0  0.9145224E-04  0.1200065E+04  0.7818609E-02  0.9112800E-01
        2   -1    0    0  501    0  0.00000000000E+00  0.00000000000E+00  0.11480549923E+04  0.11480549924E+04  0.25500000920E-02 0.  1.
       -2   -1    0    0    0  501  0.00000000000E+00  0.00000000000E+00 -0.31360758704E+03  0.31360758705E+03  0.25500000920E-02 0. -1.
    10030    2    1    2    0    0  0.00000000000E+00  0.00000000000E+00  0.83444740531E+03  0.14616625794E+04  0.12000645915E+04 0.  0.
        5    1    3    3  502    0 -0.49759867786E+03  0.10233805157E+03  0.80610136725E+03  0.95283735511E+03  0.46999998093E+01 0.  1.
       -5    1    3    3    0  502  0.49759867786E+03 -0.10233805157E+03  0.28346038059E+02  0.50882522430E+03  0.46999998093E+01 0. -1.
</event>
<event>
 5   0  0.9410666E-04  0.1204989E+04  0.7818609E-02  0.9108500E-01
        2   -1    0    0  501    0  0.00000000000E+00  0.00000000000E+00  0.58486712648E+03  0.58486712649E+03  0.25500000920E-02 0.  1.
       -2   -1    0    0    0  501  0.00000000000E+00  0.00000000000E+00 -0.62065359203E+03  0.62065359203E+03  0.25500000920E-02 0. -1.
    10030    2    1    2    0    0  0.00000000000E+00  0.00000000000E+00 -0.35786465548E+02  0.12055207185E+04  0.12049894322E+04 0.  0.
        2    1    3    3  502    0 -0.40112407727E+03 -0.57842963846E+02  0.42812117365E+03  0.58952020590E+03  0.25500000920E-02 0.  1.
       -2    1    3    3    0  502  0.40112407727E+03  0.57842963846E+02 -0.46390763920E+03  0.61600051262E+03  0.25500000920E-02 0. -1.
</event>
<event>
 5   0  0.9145224E-04  0.1196684E+04  0.7818609E-02  0.9115764E-01
       -2   -1    0    0    0  501  0.00000000000E+00  0.00000000000E+00  0.78199656881E+03  0.78199656881E+03  0.25500000920E-02 0. -1.
        2   -1    0    0  501    0  0.00000000000E+00  0.00000000000E+00 -0.45781898023E+03  0.45781898023E+03  0.25500000920E-02 0.  1.
    10030    2    1    2    0    0  0.00000000000E+00  0.00000000000E+00  0.32417758858E+03  0.12398155490E+04  0.11966835366E+04 0.  0.
        5    1    3    3  502    0  0.29172810799E+03 -0.26338173261E+02 -0.37843557156E+03  0.47857555327E+03  0.46999998093E+01 0.  1.
       -5    1    3    3    0  502 -0.29172810799E+03  0.26338173261E+02  0.70261316015E+03  0.76123999578E+03  0.46999998093E+01 0. -1.
</event>
<event>
 5   0  0.5001586E-04  0.1198709E+04  0.7818609E-02  0.9113987E-01
        1   -1    0    0  501    0  0.00000000000E+00  0.00000000000E+00  0.42876187729E+03  0.42876187732E+03  0.50400001928E-02 0. -1.
       -1   -1    0    0    0  501  0.00000000000E+00  0.00000000000E+00 -0.83782114229E+03  0.83782114231E+03  0.50400001928E-02 0.  1.
    10030    2    1    2    0    0  0.00000000000E+00  0.00000000000E+00 -0.40905926500E+03  0.12665830196E+04  0.11987089152E+04 0.  0.
        1    1    3    3  502    0 -0.29145053712E+03 -0.13626032932E+03 -0.73884594057E+03  0.80585582883E+03  0.50400001928E-02 0.  1.
       -1    1    3    3    0  502  0.29145053712E+03  0.13626032932E+03  0.32978667557E+03  0.46072719080E+03  0.50400001928E-02 0. -1.
</event>
<event>
 5   0  0.9410666E-04  0.1196471E+04  0.7818609E-02  0.9115951E-01
        2   -1    0    0  501    0  0.00000000000E+00  0.00000000000E+00  0.24372299984E+04  0.24372299984E+04  0.25500000920E-02 0.  1.
       -2   -1    0    0    0  501  0.00000000000E+00  0.00000000000E+00 -0.14684125488E+03  0.14684125491E+03  0.25500000920E-02 0. -1.
    10030    2    1    2    0    0  0.00000000000E+00  0.00000000000E+00  0.22903887435E+04  0.25840712533E+04  0.11964713309E+04 0.  0.
        2    1    3    3  502    0 -0.51570953452E+03 -0.30205154783E+03  0.12021088347E+04  0.13424816990E+04  0.25500000920E-02 0.  1.
       -2    1    3    3    0  502  0.51570953452E+03  0.30205154783E+03  0.10882799088E+04  0.12415895543E+04  0.25500000920E-02 0. -1.
</event>
<event>
 5   0  0.5157631E-04  0.1194554E+04  0.7818609E-02  0.9117637E-01
       -1   -1    0    0    0  501  0.00000000000E+00  0.00000000000E+00  0.12466636493E+04  0.12466636494E+04  0.50400001928E-02 0.  1.
        1   -1    0    0  501    0  0.00000000000E+00  0.00000000000E+00 -0.28615571120E+03  0.28615571125E+03  0.50400001928E-02 0. -1.
    10030    2    1    2    0    0  0.00000000000E+00  0.00000000000E+00  0.96050793814E+03  0.15328193606E+04  0.11945541817E+04 0.  0.
        5    1    3    3  502    0 -0.89645185550E+02 -0.10551616586E+03  0.12257628780E+04  0.12335666352E+04  0.46999998093E+01 0.  1.
       -5    1    3    3    0  502  0.89645185550E+02  0.10551616586E+03 -0.26525493982E+03  0.29925272538E+03  0.46999998093E+01 0. -1.
</event>
<event>
 5   0  0.5003507E-04  0.1199881E+04  0.7818609E-02  0.9112961E-01
        1   -1    0    0  501    0  0.00000000000E+00  0.00000000000E+00  0.10311418748E+04  0.10311418748E+04  0.50400001928E-02 0. -1.
       -1   -1    0    0    0  501  0.00000000000E+00  0.00000000000E+00 -0.34905827160E+03  0.34905827164E+03  0.50400001928E-02 0.  1.
    10030    2    1    2    0    0  0.00000000000E+00  0.00000000000E+00  0.68208360316E+03  0.13802001464E+04  0.11998809951E+04 0.  0.
        3    1    3    3  502    0  0.22288060031E+03 -0.53487198161E+03  0.16223031140E+03  0.60173289992E+03  0.10100000352E+00 0.  1.
       -3    1    3    3    0  502 -0.22288060031E+03  0.53487198161E+03  0.51985329175E+03  0.77846724649E+03  0.10100000352E+00 0. -1.
</event>
<event>
 5   0  0.9070772E-04  0.1198511E+04  0.7818609E-02  0.9114161E-01
        2   -1    0    0  501    0  0.00000000000E+00  0.00000000000E+00  0.80377217055E+03  0.80377217056E+03  0.25500000920E-02 0.  1.
       -2   -1    0    0    0  501  0.00000000000E+00  0.00000000000E+00 -0.44677711081E+03  0.44677711082E+03  0.25500000920E-02 0. -1.
    10030    2    1    2    0    0  0.00000000000E+00  0.00000000000E+00  0.35699505974E+03  0.12505492814E+04  0.11985107561E+04 0.  0.
        4    1    3    3  502    0 -0.47960610320E+03 -0.35897307385E+03  0.16296097617E+03  0.62083941130E+03  0.12699999809E+01 0. -1.
       -4    1    3    3    0  502  0.47960610320E+03  0.35897307385E+03  0.19403408358E+03  0.62970987007E+03  0.12699999809E+01 0.  1.
</event>
<event>
 5   0  0.5157631E-04  0.1196966E+04  0.7818609E-02  0.9115516E-01
       -1   -1    0    0    0  501  0.00000000000E+00  0.00000000000E+00  0.17638772253E+03  0.17638772261E+03  0.50400001928E-02 0. -1.
        1   -1    0    0  501    0  0.00000000000E+00  0.00000000000E+00 -0.20306508035E+04  0.20306508036E+04  0.50400001928E-02 0.  1.
    10030    2    1    2    0    0  0.00000000000E+00  0.00000000000E+00 -0.18542630810E+04  0.22070385262E+04  0.11969659487E+04 0.  0.
        5    1    3    3  502    0 -0.17147294427E+03  0.45215953472E+03 -0.15772292641E+04  0.16497046575E+04  0.46999998093E+01 0.  1.
       -5    1    3    3    0  502  0.17147294427E+03 -0.45215953472E+03 -0.27703381693E+03  0.55733386867E+03  0.46999998093E+01 0. -1.
</event>
<event>
 5   0  0.5001586E-04  0.1196933E+04  0.7818609E-02  0.9115545E-01
        1   -1    0    0  501    0  0.00000000000E+00  0.00000000000E+00  0.21423147329E+04  0.21423147329E+04  0.50400001928E-02 0.  1.
       -1   -1    0    0    0  501  0.00000000000E+00  0.00000000000E+00 -0.16718462490E+03  0.16718462498E+03  0.50400001928E-02 0. -1.
    10030    2    1    2    0    0  0.00000000000E+00  0.00000000000E+00  0.19751301080E+04  0.23094993579E+04  0.11969328889E+04 0.  0.
        1    1    3    3  502    0 -0.37292713196E+03 -0.27280361580E+03  0.17214546340E+04  0.17823867469E+04  0.50400001928E-02 0.  1.
       -1    1    3    3    0  502  0.37292713196E+03  0.27280361580E+03  0.25367547401E+03  0.52711261100E+03  0.50400001928E-02 0. -1.
</event>
<event>
 5   0  0.5003507E-04  0.1196478E+04  0.7818609E-02  0.9115945E-01
        1   -1    0    0  501    0  0.00000000000E+00  0.00000000000E+00  0.39965547188E+03  0.39965547191E+03  0.50400001928E-02 0.  1.
       -1   -1    0    0    0  501  0.00000000000E+00  0.00000000000E+00 -0.89549617474E+03  0.89549617476E+03  0.50400001928E-02 0. -1.
    10030    2    1    2    0    0  0.00000000000E+00  0.00000000000E+00 -0.49584070287E+03  0.12951516467E+04  0.11964780755E+04 0.  0.
        3    1    3    3  502    0 -0.43389574564E+03 -0.61039938083E+02  0.19297666945E+03  0.47878115802E+03  0.10100000352E+00 0.  1.
       -3    1    3    3    0  502  0.43389574564E+03  0.61039938083E+02 -0.68881737232E+03  0.81637048864E+03  0.10100000352E+00 0. -1.
</event>
<event>
 5   0  0.9145224E-04  0.1199171E+04  0.7818609E-02  0.9113582E-01
       -2   -1    0    0    0  501  0.00000000000E+00  0.00000000000E+00  0.16682474023E+03  0.16682474025E+03  0.25500000920E-02 0. -1.
        2   -1    0    0  501    0  0.00000000000E+00  0.00000000000E+00 -0.21549735826E+04  0.21549735826E+04  0.25500000920E-02 0.  1.
    10030    2    1    2    0    0  0.00000000000E+00  0.00000000000E+00 -0.19881488423E+04  0.23217983228E+04  0.11991712274E+04 0.  0.
        5    1    3    3  502    0  0.15943426895E+03  0.15944093524E+03  0.81571867861E+02  0.23982651557E+03  0.46999998093E+01 0. -1.
       -5    1    3    3    0  502 -0.15943426895E+03 -0.15944093524E+03 -0.20697207102E+04  0.20819718072E+04  0.46999998093E+01 0.  1.
</event>
<event>
 5   0  0.5447074E-04  0.1197069E+04  0.7818609E-02  0.9115426E-01
       -1   -1    0    0    0  501  0.00000000000E+00  0.00000000000E+00  0.43973088081E+03  0.43973088084E+03  0.50400001928E-02 0. -1.
        1   -1    0    0  501    0  0.00000000000E+00  0.00000000000E+00 -0.81468839120E+03  0.81468839121E+03  0.50400001928E-02 0.  1.
    10030    2    1    2    0    0  0.00000000000E+00  0.00000000000E+00 -0.37495751038E+03  0.12544192721E+04  0.11970691607E+04 0.  0.
        4    1    3    3  502    0 -0.56502319658E+03 -0.13948005607E+03 -0.33394676098E+03  0.67099027622E+03  0.12699999809E+01 0.  1.
       -4    1    3    3    0  502  0.56502319658E+03  0.13948005607E+03 -0.41010749404E+02  0.58342899583E+03  0.12699999809E+01 0. -1.
</event>
<event>
 5   0  0.5157631E-04  0.1203179E+04  0.7818609E-02  0.9110079E-01
        1   -1    0    0  501    0  0.00000000000E+00  0.00000000000E+00  0.63572774849E+03  0.63572774851E+03  0.50400001928E-02 0.  1.
       -1   -1    0    0    0  501  0.00000000000E+00  0.00000000000E+00 -0.56928402431E+03  0.56928402433E+03  0.50400001928E-02 0. -1.
    10030    2    1    2    0    0  0.00000000000E+00  0.00000000000E+00  0.66443724179E+02  0.12050117728E+04  0.12031785421E+04 0.  0.
        5    1    3    3  502    0 -0.29614630256E+03 -0.26267414682E+03  0.48688800269E+03  0.62752080212E+03  0.46999998093E+01 0.  1.
       -5    1    3    3    0  502  0.29614630256E+03  0.26267414682E+03 -0.42044427851E+03  0.57749097072E+03  0.46999998093E+01 0. -1.
</event>
<event>
 5   0  0.9145224E-04  0.1199601E+04  0.7818609E-02  0.9113205E-01
       -2   -1    0    0    0  501  0.00000000000E+00  0.00000000000E+00  0.31052974844E+03  0.31052974845E+03  0.25500000920E-02 0. -1.
        2   -1    0    0  501    0  0.00000000000E+00  0.00000000000E+00 -0.11585393502E+04  0.11585393502E+04  0.25500000920E-02 0.  1.
    10030    2    1    2    0    0  0.00000000000E+00  0.00000000000E+00 -0.84800960175E+03  0.14690690986E+04  0.11996014888E+04 0.  0.
        5    1    3    3  502    0 -0.12963823294E+03  0.56663918024E+03 -0.60503827339E+03  0.83903482305E+03  0.46999998093E+01 0. -1.
       -5    1    3    3    0  502  0.12963823294E+03 -0.56663918024E+03 -0.24297132836E+03  0.63003427560E+03  0.46999998093E+01 0.  1.
</event>
<event>
 5   0  0.5157631E-04  0.1199738E+04  0.7818609E-02  0.9113085E-01
       -1   -1    0    0    0  501  0.00000000000E+00  0.00000000000E+00  0.55460099505E+03  0.55460099507E+03  0.50400001928E-02 0.  1.
        1   -1    0    0  501    0  0.00000000000E+00  0.00000000000E+00 -0.64883241460E+03  0.64883241462E+03  0.50400001928E-02 0. -1.
    10030    2    1    2    0    0  0.00000000000E+00  0.00000000000E+00 -0.94231419552E+02  0.12034334097E+04  0.11997384761E+04 0.  0.
        5    1    3    3  502    0 -0.39034237083E+03  0.12220150566E+03  0.39300735005E+03  0.56725412439E+03  0.46999998093E+01 0.  1.
       -5    1    3    3    0  502  0.39034237083E+03 -0.12220150566E+03 -0.48723876960E+03  0.63617928530E+03  0.46999998093E+01 0. -1.
</event>
<event>
 5   0  0.9070772E-04  0.1200284E+04  0.7818609E-02  0.9112608E-01
       -2   -1    0    0    0  501  0.00000000000E+00  0.00000000000E+00  0.19134002490E+03  0.19134002492E+03  0.25500000920E-02 0.  1.
        2   -1    0    0  501    0  0.00000000000E+00  0.00000000000E+00 -0.18823579456E+04  0.18823579456E+04  0.25500000920E-02 0. -1.
    10030    2    1    2    0    0  0.00000000000E+00  0.00000000000E+00 -0.16910179207E+04  0.20736979705E+04  0.12002839934E+04 0.  0.
        4    1    3    3  502    0  0.59860396937E+03 -0.17644394726E+02 -0.77791374398E+03  0.98172778446E+03  0.12699999809E+01 0.  1.
       -4    1    3    3    0  502 -0.59860396937E+03  0.17644394726E+02 -0.91310417672E+03  0.10919701861E+04  0.12699999809E+01 0. -1.
</event>
<event>
 5   0  0.5447074E-04  0.1191298E+04  0.7818609E-02  0.9120507E-01
       -1   -1    0    0    0  501  0.00000000000E+00  0.00000000000E+00  0.40536349547E+03  0.40536349550E+03  0.50400001928E-02 0.  1.
        1   -1    0    0  501    0  0.00000000000E+00  0.00000000000E+00 -0.87525869171E+03  0.87525869173E+03  0.50400001928E-02 0. -1.
    10030    2    1    2    0    0  0.00000000000E+00  0.00000000000E+00 -0.46989519625E+03  0.12806221872E+04  0.11912983216E+04 0.  0.
        4    1    3    3  502    0 -0.21607108477E+03 -0.17033132097E+03  0.33296035343E+03  0.43193018236E+03  0.12699999809E+01 0.  1.
       -4    1    3    3    0  502  0.21607108477E+03  0.17033132097E+03 -0.80285554968E+03  0.84869200486E+03  0.12699999809E+01 0. -1.
</event>
<event>
 5   0  0.5052959E-04  0.1209553E+04  0.7818609E-02  0.9104536E-01
       -1   -1    0    0    0  501  0.00000000000E+00  0.00000000000E+00  0.38704691681E+03  0.38704691685E+03  0.50400001928E-02 0.  1.
        1   -1    0    0  501    0  0.00000000000E+00  0.00000000000E+00 -0.94498749735E+03  0.94498749736E+03  0.50400001928E-02 0. -1.
    10030    2    1    2    0    0  0.00000000000E+00  0.00000000000E+00 -0.55794058053E+03  0.13320344142E+04  0.12095528055E+04 0.  0.
        2    1    3    3  502    0  0.34350199372E+03 -0.31742633902E+03  0.14326190289E+03  0.48915955804E+03  0.25500000920E-02 0.  1.
       -2    1    3    3    0  502 -0.34350199372E+03  0.31742633902E+03 -0.70120248343E+03  0.84287485617E+03  0.25500000920E-02 0. -1.
</event>
<event>
 5   0  0.5003507E-04  0.1198306E+04  0.7818609E-02  0.9114340E-01
        1   -1    0    0  501    0  0.00000000000E+00  0.00000000000E+00  0.18687061623E+04  0.18687061623E+04  0.50400001928E-02 0. -1.
       -1   -1    0    0    0  501  0.00000000000E+00  0.00000000000E+00 -0.19210320291E+03  0.19210320298E+03  0.50400001928E-02 0.  1.
    10030    2    1    2    0    0  0.00000000000E+00  0.00000000000E+00  0.16766029593E+04  0.20608093652E+04  0.11983062032E+04 0.  0.
        3    1    3    3  502    0 -0.14383526155E+03 -0.51805105020E+03  0.12930460046E+04  0.14003690418E+04  0.10100000352E+00 0. -1.
       -3    1    3    3    0  502  0.14383526155E+03  0.51805105020E+03  0.38355695479E+03  0.66044032346E+03  0.10100000352E+00 0.  1.
</event>
<event>
 5   0  0.9050363E-04  0.1223099E+04  0.7818609E-02  0.9092874E-01
        2   -1    0    0  501    0  0.00000000000E+00  0.00000000000E+00  0.85310237143E+03  0.85310237144E+03  0.25500000920E-02 0. -1.
       -2   -1    0    0    0  501  0.00000000000E+00  0.00000000000E+00 -0.43839178524E+03  0.43839178524E+03  0.25500000920E-02 0.  1.
    10030    2    1    2    0    0  0.00000000000E+00  0.00000000000E+00  0.41471058620E+03  0.12914941567E+04  0.12230994589E+04 0.  0.
        3    1    3    3  502    0 -0.19278744167E+03  0.44341940507E+03  0.60273363812E+03  0.77270668120E+03  0.10100000352E+00 0. -1.
       -3    1    3    3    0  502  0.19278744167E+03 -0.44341940507E+03 -0.18802305192E+03  0.51878747548E+03  0.10100000352E+00 0.  1.
</event>
<event>
 5   0  0.5052959E-04  0.1200371E+04  0.7818609E-02  0.9112532E-01
        1   -1    0    0  501    0  0.00000000000E+00  0.00000000000E+00  0.46276299589E+03  0.46276299592E+03  0.50400001928E-02 0.  1.
       -1   -1    0    0    0  501  0.00000000000E+00  0.00000000000E+00 -0.77841675186E+03  0.77841675187E+03  0.50400001928E-02 0. -1.
    10030    2    1    2    0    0  0.00000000000E+00  0.00000000000E+00 -0.31565375596E+03  0.12411797478E+04  0.12003707230E+04 0.  0.
        2    1    3    3  502    0  0.16181395107E+03 -0.55834249301E+03 -0.31220915619E+03  0.65985199210E+03  0.25500000920E-02 0.  1.
       -2    1    3    3    0  502 -0.16181395107E+03  0.55834249301E+03 -0.34445997724E+01  0.58132775569E+03  0.25500000920E-02 0. -1.
</event>
<event>
 5   0  0.5052959E-04  0.1199816E+04  0.7818609E-02  0.9113018E-01
       -1   -1    0    0    0  501  0.00000000000E+00  0.00000000000E+00  0.51152944092E+03  0.51152944094E+03  0.50400001928E-02 0. -1.
        1   -1    0    0  501    0  0.00000000000E+00  0.00000000000E+00 -0.70355553952E+03  0.70355553954E+03  0.50400001928E-02 0.  1.
    10030    2    1    2    0    0  0.00000000000E+00  0.00000000000E+00 -0.19202609860E+03  0.12150849805E+04  0.11998156055E+04 0.  0.
        2    1    3    3  502    0  0.33667979446E+03  0.91375934683E+02  0.39824157548E+03  0.52943290215E+03  0.25500000920E-02 0.  1.
       -2    1    3    3    0  502 -0.33667979446E+03 -0.91375934683E+02 -0.59026767408E+03  0.68565207832E+03  0.25500000920E-02 0. -1.
</event>
<event>
 5   0  0.9145224E-04  0.1195688E+04  0.7818609E-02  0.9116639E-01
        2   -1    0    0  501    0  0.00000000000E+00  0.00000000000E+00  0.15836948752E+04  0.15836948752E+04  0.25500000920E-02 0.  1.
       -2   -1    0    0    0  501  0.00000000000E+00  0.00000000000E+00 -0.22568581676E+03  0.22568581677E+03  0.25500000920E-02 0. -1.
    10030    2    1    2    0    0  0.00000000000E+00  0.00000000000E+00  0.13580090584E+04  0.18093806920E+04  0.11956880386E+04 0.  0.
        5    1    3    3  502    0 -0.13467631898E+03 -0.21896077821E+03  0.14957610905E+04  0.15176972238E+04  0.46999998093E+01 0.  1.
       -5    1    3    3    0  502  0.13467631898E+03  0.21896077821E+03 -0.13775203203E+03  0.29168346820E+03  0.46999998093E+01 0. -1.
</event>
<event>
 5   0  0.9070772E-04  0.1193538E+04  0.7818609E-02  0.9118532E-01
        2   -1    0    0  501    0  0.00000000000E+00  0.00000000000E+00  0.70478107392E+03  0.70478107392E+03  0.25500000920E-02 0.  1.
       -2   -1    0    0    0  501  0.00000000000E+00  0.00000000000E+00 -0.50531046166E+03  0.50531046167E+03  0.25500000920E-02 0. -1.
    10030    2    1    2    0    0  0.00000000000E+00  0.00000000000E+00  0.19947061226E+03  0.12100915356E+04  0.11935380176E+04 0.  0.
        4    1    3    3  502    0  0.28808116695E+03  0.40320739136E+03 -0.23738907970E+03  0.54947442821E+03  0.12699999809E+01 0. -1.
       -4    1    3    3    0  502 -0.28808116695E+03 -0.40320739136E+03  0.43685969196E+03  0.66061710738E+03  0.12699999809E+01 0.  1.
</event>
<event>
 5   0  0.5052959E-04  0.1193026E+04  0.7818609E-02  0.9118983E-01
        1   -1    0    0  501    0  0.00000000000E+00  0.00000000000E+00  0.15790241777E+04  0.15790241778E+04  0.50400001928E-02 0.  1.
       -1   -1    0    0    0  501  0.00000000000E+00  0.00000000000E+00 -0.22534649645E+03  0.22534649650E+03  0.50400001928E-02 0. -1.
    10030    2    1    2    0    0  0.00000000000E+00  0.00000000000E+00  0.13536776813E+04  0.18043706743E+04  0.11930256767E+04 0.  0.
        2    1    3    3  502    0 -0.19011183305E+03 -0.49936308294E+03  0.10779089018E+04  0.12030767217E+04  0.25500000920E-02 0.  1.
       -2    1    3    3    0  502  0.19011183305E+03  0.49936308294E+03  0.27576877952E+03  0.60129395260E+03  0.25500000920E-02 0. -1.
</event>
<event>
 5   0  0.5003507E-04  0.1200789E+04  0.7818609E-02  0.9112166E-01
       -1   -1    0    0    0  501  0.00000000000E+00  0.00000000000E+00  0.41776606414E+03  0.41776606417E+03  0.50400001928E-02 0.  1.
        1   -1    0    0  501    0  0.00000000000E+00  0.00000000000E+00 -0.86286039624E+03  0.86286039625E+03  0.50400001928E-02 0. -1.
    10030    2    1    2    0    0  0.00000000000E+00  0.00000000000E+00 -0.44509433209E+03  0.12806264604E+04  0.12007893931E+04 0.  0.
        3    1    3    3  502    0 -0.33923759474E+03  0.48911297330E+03 -0.13884229193E+03  0.61122077727E+03  0.10100000352E+00 0.  1.
       -3    1    3    3    0  502  0.33923759474E+03 -0.48911297330E+03 -0.30625204017E+03  0.66940568316E+03  0.10100000352E+00 0. -1.
</event>
<event>
 5   0  0.5003507E-04  0.1198824E+04  0.7818609E-02  0.9113887E-01
        1   -1    0    0  501    0  0.00000000000E+00  0.00000000000E+00  0.12263895965E+04  0.12263895965E+04  0.50400001928E-02 0.  1.
       -1   -1    0    0    0  501  0.00000000000E+00  0.00000000000E+00 -0.29296931732E+03  0.29296931736E+03  0.50400001928E-02 0. -1.
    10030    2    1    2    0    0  0.00000000000E+00  0.00000000000E+00  0.93342027916E+03  0.15193589139E+04  0.11988236282E+04 0.  0.
        3    1    3    3  502    0 -0.72635187970E+02 -0.57880689807E+03  0.64141130086E+03  0.86700736033E+03  0.10100000352E+00 0.  1.
       -3    1    3    3    0  502  0.72635187970E+02  0.57880689807E+03  0.29200897830E+03  0.65235155353E+03  0.10100000352E+00 0. -1.
</event>
<event>
 5   0  0.9410666E-04  0.1202209E+04  0.7818609E-02  0.9110925E-01
        2   -1    0    0  501    0  0.00000000000E+00  0.00000000000E+00  0.15425071439E+04  0.15425071439E+04  0.25500000920E-02 0. -1.
       -2   -1    0    0    0  501  0.00000000000E+00  0.00000000000E+00 -0.23424630227E+03  0.23424630228E+03  0.25500000920E-02 0.  1.
    10030    2    1    2    0    0  0.00000000000E+00  0.00000000000E+00  0.13082608417E+04  0.17767534462E+04  0.12022089580E+04 0.  0.
        2    1    3    3  502    0  0.39067257440E+03  0.22765985442E+03  0.12394871971E+04  0.13193871992E+04  0.25500000920E-02 0. -1.
       -2    1    3    3    0  502 -0.39067257440E+03 -0.22765985442E+03  0.68773644572E+02  0.45736624700E+03  0.25500000920E-02 0.  1.
</event>
<event>
 5   0  0.5001586E-04  0.1200215E+04  0.7818609E-02  0.9112669E-01
        1   -1    0    0  501    0  0.00000000000E+00  0.00000000000E+00  0.19942708275E+04  0.19942708275E+04  0.50400001928E-02 0. -1.
       -1   -1    0    0    0  501  0.00000000000E+00  0.00000000000E+00 -0.18058165831E+03  0.18058165838E+03  0.50400001928E-02 0.  1.
    10030    2    1    2    0    0  0.00000000000E+00  0.00000000000E+00  0.18136891692E+04  0.21748524859E+04  0.12002145362E+04 0.  0.
        1    1    3    3  502    0  0.76347981643E+02  0.35023924866E+03  0.17789527995E+04  0.18147092352E+04  0.50400001928E-02 0. -1.
       -1    1    3    3    0  502 -0.76347981643E+02 -0.35023924866E+03  0.34736369733E+02  0.36014325068E+03  0.50400001928E-02 0.  1.
</event>
<event>
 5   0  0.9145224E-04  0.1201119E+04  0.7818609E-02  0.9111878E-01
       -2   -1    0    0    0  501  0.00000000000E+00  0.00000000000E+00  0.64185290960E+03  0.64185290961E+03  0.25500000920E-02 0. -1.
        2   -1    0    0  501    0  0.00000000000E+00  0.00000000000E+00 -0.56192247772E+03  0.56192247773E+03  0.25500000920E-02 0.  1.
    10030    2    1    2    0    0  0.00000000000E+00  0.00000000000E+00  0.79930431881E+02  0.12037753873E+04  0.12011187740E+04 0.  0.
        5    1    3    3  502    0 -0.33058436073E+03  0.36063303818E+03  0.38902750775E+03  0.62506535624E+03  0.46999998093E+01 0. -1.
       -5    1    3    3    0  502  0.33058436073E+03 -0.36063303818E+03 -0.30909707587E+03  0.57871003110E+03  0.46999998093E+01 0.  1.
</event>
<event>
 5   0  0.5003507E-04  0.1205496E+04  0.7818609E-02  0.9108060E-01
       -1   -1    0    0    0  501  0.00000000000E+00  0.00000000000E+00  0.49276856239E+03  0.49276856241E+03  0.50400001928E-02 0.  1.
        1   -1    0    0  501    0  0.00000000000E+00  0.00000000000E+00 -0.73727307269E+03  0.73727307270E+03  0.50400001928E-02 0. -1.
    10030    2    1    2    0    0  0.00000000000E+00  0.00000000000E+00 -0.24450451030E+03  0.12300416351E+04  0.12054957356E+04 0.  0.
        3    1    3    3  502    0 -0.19877126559E+03  0.10118047714E+03  0.44911153549E+03  0.50144659385E+03  0.10100000352E+00 0.  1.
       -3    1    3    3    0  502  0.19877126559E+03 -0.10118047714E+03 -0.69361604579E+03  0.72859504126E+03  0.10100000352E+00 0. -1.
</event>
<event>
 5   0  0.9410666E-04  0.1196504E+04  0.7818609E-02  0.9115922E-01
        2   -1    0    0  501    0  0.00000000000E+00  0.00000000000E+00  0.15831986421E+04  0.15831986421E+04  0.25500000920E-02 0. -1.
       -2   -1    0    0    0  501  0.00000000000E+00  0.00000000000E+00 -0.22606485724E+03  0.22606485726E+03  0.25500000920E-02 0.  1.
    10030    2    1    2    0    0  0.00000000000E+00  0.00000000000E+00  0.13571337848E+04  0.18092634993E+04  0.11965041998E+04 0.  0.
        2    1    3    3  502    0 -0.13071380287E+03  0.30584143277E+03 -0.73371959284E+02  0.34060024174E+03  0.25500000920E-02 0.  1.
       -2    1    3    3    0  502  0.13071380287E+03 -0.30584143277E+03  0.14305057441E+04  0.14686632576E+04  0.25500000920E-02 0. -1.
</event>
<event>
 5   0  0.3453625E-04  0.1200299E+04  0.7818609E-02  0.9112595E-01
        3   -1    0    0  501    0  0.00000000000E+00  0.00000000000E+00  0.81165325796E+03  0.81165326424E+03  0.10100000352E+00 0.  1.
       -3   -1    0    0    0  501  0.00000000000E+00  0.00000000000E+00 -0.44376009518E+03  0.44376010667E+03  0.10100000352E+00 0. -1.
    10030    2    1    2    0    0  0.00000000000E+00  0.00000000000E+00  0.36789316278E+03  0.12554133709E+04  0.12002988597E+04 0.  0.
        1    1    3    3  502    0  0.16799497136E+03  0.31647083038E+03 -0.31962024063E+03  0.48013872488E+03  0.50400001928E-02 0. -1.
       -1    1    3    3    0  502 -0.16799497136E+03 -0.31647083038E+03  0.68751340341E+03  0.77527464603E+03  0.50400001928E-02 0.  1.
</event>
<event>
 5   0  0.9145224E-04  0.1199578E+04  0.7818609E-02  0.9113226E-01
       -2   -1    0    0    0  501  0.00000000000E+00  0.00000000000E+00  0.35469018874E+03  0.35469018875E+03  0.25500000920E-02 0. -1.
        2   -1    0    0  501    0  0.00000000000E+00  0.00000000000E+00 -0.10142572407E+04  0.10142572407E+04  0.25500000920E-02 0.  1.
    10030    2    1    2    0    0  0.00000000000E+00  0.00000000000E+00 -0.65956705191E+03  0.13689474294E+04  0.11995784128E+04 0.  0.
        5    1    3    3  502    0 -0.36529784714E+03  0.41709601929E+03 -0.59079799612E+03  0.81023204617E+03  0.46999998093E+01 0. -1.
       -5    1    3    3    0  502  0.36529784714E+03 -0.41709601929E+03 -0.68769055797E+02  0.55871538324E+03  0.46999998093E+01 0.  1.
</event>
<event>
 5   0  0.5001586E-04  0.1200404E+04  0.7818609E-02  0.9112503E-01
        1   -1    0    0  501    0  0.00000000000E+00  0.00000000000E+00  0.36671608756E+03  0.36671608760E+03  0.50400001928E-02 0. -1.
       -1   -1    0    0    0  501  0.00000000000E+00  0.00000000000E+00 -0.98234632139E+03  0.98234632141E+03  0.50400001928E-02 0.  1.
    10030    2    1    2    0    0  0.00000000000E+00  0.00000000000E+00 -0.61563023383E+03  0.13490624090E+04  0.12004035982E+04 0.  0.
        1    1    3    3  502    0 -0.18886049849E+03 -0.46286663164E+03  0.65476639070E+02  0.50418349524E+03  0.50400001928E-02 0. -1.
       -1    1    3    3    0  502  0.18886049849E+03  0.46286663164E+03 -0.68110687290E+03  0.84487891376E+03  0.50400001928E-02 0.  1.
</event>
<event>
 5   0  0.5447074E-04  0.1200015E+04  0.7818609E-02  0.9112843E-01
       -1   -1    0    0    0  501  0.00000000000E+00  0.00000000000E+00  0.62897832105E+03  0.62897832107E+03  0.50400001928E-02 0.  1.
        1   -1    0    0  501    0  0.00000000000E+00  0.00000000000E+00 -0.57237111329E+03  0.57237111331E+03  0.50400001928E-02 0. -1.
    10030    2    1    2    0    0  0.00000000000E+00  0.00000000000E+00  0.56607207755E+02  0.12013494344E+04  0.12000150364E+04 0.  0.
        4    1    3    3  502    0 -0.45287811725E+03 -0.40756818382E+02  0.42020755800E+03  0.61914110833E+03  0.12699999809E+01 0.  1.
       -4    1    3    3    0  502  0.45287811725E+03  0.40756818382E+02 -0.36360035024E+03  0.58220832605E+03  0.12699999809E+01 0. -1.
</event>
<event>
 5   0  0.9050363E-04  0.1202368E+04  0.7818609E-02  0.9110786E-01
       -2   -1    0    0    0  501  0.00000000000E+00  0.00000000000E+00  0.30666795122E+03  0.30666795124E+03  0.25500000920E-02 0. -1.
        2   -1    0    0  501    0  0.00000000000E+00  0.00000000000E+00 -0.11785464802E+04  0.11785464802E+04  0.25500000920E-02 0.  1.
    10030    2    1    2    0    0  0.00000000000E+00  0.00000000000E+00 -0.87187852894E+03  0.14852144314E+04  0.12023683870E+04 0.  0.
        3    1    3    3  502    0  0.57923759549E+03  0.14871733110E+03 -0.51197821820E+03  0.78724503346E+03  0.10100000352E+00 0. -1.
       -3    1    3    3    0  502 -0.57923759549E+03 -0.14871733110E+03 -0.35990031075E+03  0.69796939795E+03  0.10100000352E+00 0.  1.
</event>
<event>
 5   0  0.5157631E-04  0.1203162E+04  0.7818609E-02  0.9110093E-01
       -1   -1    0    0    0  501  0.00000000000E+00  0.00000000000E+00  0.47978094699E+03  0.47978094702E+03  0.50400001928E-02 0. -1.
        1   -1    0    0  501    0  0.00000000000E+00  0.00000000000E+00 -0.75430224778E+03  0.75430224780E+03  0.50400001928E-02 0.  1.
    10030    2    1    2    0    0  0.00000000000E+00  0.00000000000E+00 -0.27452130079E+03  0.12340831948E+04  0.12031622447E+04 0.  0.
        5    1    3    3  502    0 -0.85901817716E+01 -0.22341171907E+03  0.43556411033E+03  0.48961696421E+03  0.46999998093E+01 0. -1.
       -5    1    3    3    0  502  0.85901817716E+01  0.22341171907E+03 -0.71008541111E+03  0.74446623061E+03  0.46999998093E+01 0.  1.
</event>
<event>
 5   0  0.9298693E-04  0.1205151E+04  0.7818609E-02  0.9108360E-01
        2   -1    0    0  501    0  0.00000000000E+00  0.00000000000E+00  0.49099963031E+03  0.49099963032E+03  0.25500000920E-02 0. -1.
       -2   -1    0    0    0  501  0.00000000000E+00  0.00000000000E+00 -0.73950651417E+03  0.73950651418E+03  0.25500000920E-02 0.  1.
    10030    2    1    2    0    0  0.00000000000E+00  0.00000000000E+00 -0.24850688386E+03  0.12305061445E+04  0.12051513184E+04 0.  0.
        1    1    3    3  502    0 -0.32756867832E+03 -0.31022247706E+03 -0.53210466749E+03  0.69762067163E+03  0.50400001928E-02 0.  1.
       -1    1    3    3    0  502  0.32756867832E+03  0.31022247706E+03  0.28359778363E+03  0.53288547287E+03  0.50400001928E-02 0. -1.
</event>
<event>
 5   0  0.5001586E-04  0.1205599E+04  0.7818609E-02  0.9107970E-01
       -1   -1    0    0    0  501  0.00000000000E+00  0.00000000000E+00  0.50082232726E+03  0.50082232729E+03  0.50400001928E-02 0. -1.
        1   -1    0    0  501    0  0.00000000000E+00  0.00000000000E+00 -0.72554116680E+03  0.72554116682E+03  0.50400001928E-02 0.  1.
    10030    2    1    2    0    0  0.00000000000E+00  0.00000000000E+00 -0.22471883954E+03  0.12263634941E+04  0.12055989643E+04 0.  0.
        1    1    3    3  502    0  0.48299410786E+03  0.32667121318E+03  0.43145483236E+02  0.58468702953E+03  0.50400001928E-02 0.  1.
       -1    1    3    3    0  502 -0.48299410786E+03 -0.32667121318E+03 -0.26786432277E+03  0.64167646457E+03  0.50400001928E-02 0. -1.
</event>
<event>
 5   0  0.9410666E-04  0.1206009E+04  0.7818609E-02  0.9107613E-01
       -2   -1    0    0    0  501  0.00000000000E+00  0.00000000000E+00  0.17212581444E+03  0.17212581446E+03  0.25500000920E-02 0. -1.
        2   -1    0    0  501    0  0.00000000000E+00  0.00000000000E+00 -0.21124908857E+04  0.21124908857E+04  0.25500000920E-02 0.  1.
    10030    2    1    2    0    0  0.00000000000E+00  0.00000000000E+00 -0.19403650713E+04  0.22846167002E+04  0.12060086471E+04 0.  0.
        2    1    3    3  502    0 -0.10764579030E+03  0.77504981919E+02 -0.20845110919E+04  0.20887271556E+04  0.25500000920E-02 0.  1.
       -2    1    3    3    0  502  0.10764579030E+03 -0.77504981919E+02  0.14414602063E+03  0.19588954454E+03  0.25500000920E-02 0. -1.
</event>
<event>
 5   0  0.5003507E-04  0.1206161E+04  0.7818609E-02  0.9107481E-01
        1   -1    0    0  501    0  0.00000000000E+00  0.00000000000E+00  0.63584807466E+03  0.63584807468E+03  0.50400001928E-02 0. -1.
       -1   -1    0    0    0  501  0.00000000000E+00  0.00000000000E+00 -0.57200169153E+03  0.57200169155E+03  0.50400001928E-02 0.  1.
    10030    2    1    2    0    0  0.00000000000E+00  0.00000000000E+00  0.63846383131E+02  0.12078497662E+04  0.12061611406E+04 0.  0.
        3    1    3    3  502    0 -0.16706209949E+03 -0.48611083270E+03 -0.28394300135E+03  0.58722834143E+03  0.10100000352E+00 0.  1.
       -3    1    3    3    0  502  0.16706209949E+03  0.48611083270E+03  0.34778938448E+03  0.62062142480E+03  0.10100000352E+00 0. -1.
</event>
<event>
 5   0  0.9070772E-04  0.1202100E+04  0.7818609E-02  0.9111020E-01
       -2   -1    0    0    0  501  0.00000000000E+00  0.00000000000E+00  0.19780012605E+03  0.19780012607E+03  0.25500000920E-02 0.  1.
        2   -1    0    0  501    0  0.00000000000E+00  0.00000000000E+00 -0.18263955213E+04  0.18263955213E+04  0.25500000920E-02 0. -1.
    10030    2    1    2    0    0  0.00000000000E+00  0.00000000000E+00 -0.16285953952E+04  0.20241956474E+04  0.12021002693E+04 0.  0.
        4    1    3    3  502    0  0.10548073965E+03  0.18309243016E+02 -0.18102088602E+04  0.18133723129E+04  0.12699999809E+01 0. -1.
       -4    1    3    3    0  502 -0.10548073965E+03 -0.18309243016E+02  0.18161346493E+03  0.21082333448E+03  0.12699999809E+01 0.  1.
</event>
<event>
 5   0  0.9298693E-04  0.1200675E+04  0.7818609E-02  0.9112266E-01
        2   -1    0    0  501    0  0.00000000000E+00  0.00000000000E+00  0.11031713320E+04  0.11031713320E+04  0.25500000920E-02 0.  1.
       -2   -1    0    0    0  501  0.00000000000E+00  0.00000000000E+00 -0.32669900502E+03  0.32669900503E+03  0.25500000920E-02 0. -1.
    10030    2    1    2    0    0  0.00000000000E+00  0.00000000000E+00  0.77647232701E+03  0.14298703371E+04  0.12006747712E+04 0.  0.
        1    1    3    3  502    0  0.59531939926E+03 -0.33470088245E+02  0.47142419123E+03  0.76010933558E+03  0.50400001928E-02 0.  1.
       -1    1    3    3    0  502 -0.59531939926E+03  0.33470088245E+02  0.30504813579E+03  0.66976100149E+03  0.50400001928E-02 0. -1.
</event>
<event>
 5   0  0.5003507E-04  0.1196323E+04  0.7818609E-02  0.9116081E-01
       -1   -1    0    0    0  501  0.00000000000E+00  0.00000000000E+00  0.36191672825E+03  0.36191672829E+03  0.50400001928E-02 0. -1.
        1   -1    0    0  501    0  0.00000000000E+00  0.00000000000E+00 -0.98861761729E+03  0.98861761730E+03  0.50400001928E-02 0.  1.
    10030    2    1    2    0    0  0.00000000000E+00  0.00000000000E+00 -0.62670088904E+03  0.13505343456E+04  0.11963231229E+04 0.  0.
        3    1    3    3  502    0  0.70684622494E+02 -0.14090206575E+03  0.33804548213E+03  0.37299392245E+03  0.10100000352E+00 0. -1.
       -3    1    3    3    0  502 -0.70684622494E+02  0.14090206575E+03 -0.96474637117E+03  0.97754042315E+03  0.10100000352E+00 0.  1.
</event>
<event>
 5   0  0.5157631E-04  0.1198309E+04  0.7818609E-02  0.9114338E-01
       -1   -1    0    0    0  501  0.00000000000E+00  0.00000000000E+00  0.69141244034E+03  0.69141244035E+03  0.50400001928E-02 0.  1.
        1   -1    0    0  501    0  0.00000000000E+00  0.00000000000E+00 -0.51920732275E+03  0.51920732277E+03  0.50400001928E-02 0. -1.
    10030    2    1    2    0    0  0.00000000000E+00  0.00000000000E+00  0.17220511759E+03  0.12106197631E+04  0.11983094794E+04 0.  0.
        5    1    3    3  502    0 -0.58856282997E+03  0.11152996739E+03  0.97131374411E+02  0.60687868008E+03  0.46999998093E+01 0.  1.
       -5    1    3    3    0  502  0.58856282997E+03 -0.11152996739E+03  0.75073743177E+02  0.60374108305E+03  0.46999998093E+01 0. -1.
</event>
<event>
 5   0  0.5003507E-04  0.1205651E+04  0.7818609E-02  0.9107924E-01
        1   -1    0    0  501    0  0.00000000000E+00  0.00000000000E+00  0.14715251302E+04  0.14715251302E+04  0.50400001928E-02 0. -1.
       -1   -1    0    0    0  501  0.00000000000E+00  0.00000000000E+00 -0.24695376588E+03  0.24695376593E+03  0.50400001928E-02 0.  1.
    10030    2    1    2    0    0  0.00000000000E+00  0.00000000000E+00  0.12245713643E+04  0.17184788961E+04  0.12056511478E+04 0.  0.
        3    1    3    3  502    0  0.55940629691E+03 -0.22455015632E+03  0.60321651314E+03  0.85277684635E+03  0.10100000352E+00 0. -1.
       -3    1    3    3    0  502 -0.55940629691E+03  0.22455015632E+03  0.62135485117E+03  0.86570204979E+03  0.10100000352E+00 0.  1.
</event>
<event>
 5   0  0.5157631E-04  0.1200788E+04  0.7818609E-02  0.9112167E-01
        1   -1    0    0  501    0  0.00000000000E+00  0.00000000000E+00  0.11473564571E+04  0.11473564571E+04  0.50400001928E-02 0.  1.
       -1   -1    0    0    0  501  0.00000000000E+00  0.00000000000E+00 -0.31417715400E+03  0.31417715404E+03  0.50400001928E-02 0. -1.
    10030    2    1    2    0    0  0.00000000000E+00  0.00000000000E+00  0.83317930311E+03  0.14615336112E+04  0.12007883849E+04 0.  0.
        5    1    3    3  502    0  0.35210713799E+03 -0.43817368623E+03  0.67327592975E+03  0.87709645051E+03  0.46999998093E+01 0.  1.
       -5    1    3    3    0  502 -0.35210713799E+03  0.43817368623E+03  0.15990337337E+03  0.58443716065E+03  0.46999998093E+01 0. -1.
</event>
<event>
 5   0  0.9410666E-04  0.1197114E+04  0.7818609E-02  0.9115386E-01
       -2   -1    0    0    0  501  0.00000000000E+00  0.00000000000E+00  0.38986946329E+03  0.38986946330E+03  0.25500000920E-02 0. -1.
        2   -1    0    0  501    0  0.00000000000E+00  0.00000000000E+00 -0.91895000523E+03  0.91895000523E+03  0.25500000920E-02 0.  1.
    10030    2    1    2    0    0  0.00000000000E+00  0.00000000000E+00 -0.52908054193E+03  0.13088194685E+04  0.11971141054E+04 0.  0.
        2    1    3    3  502    0  0.17938065689E+01 -0.39285424159E+03  0.22918779640E+03  0.45482383282E+03  0.25500000920E-02 0. -1.
       -2    1    3    3    0  502 -0.17938065689E+01  0.39285424159E+03 -0.75826833833E+03  0.85399563571E+03  0.25500000920E-02 0.  1.
</event>
<event>
 5   0  0.5003507E-04  0.1204416E+04  0.7818609E-02  0.9109000E-01
        1   -1    0    0  501    0  0.00000000000E+00  0.00000000000E+00  0.72821623671E+03  0.72821623673E+03  0.50400001928E-02 0. -1.
       -1   -1    0    0    0  501  0.00000000000E+00  0.00000000000E+00 -0.49800419930E+03  0.49800419932E+03  0.50400001928E-02 0.  1.
    10030    2    1    2    0    0  0.00000000000E+00  0.00000000000E+00  0.23021203742E+03  0.12262204361E+04  0.12044164461E+04 0.  0.
        3    1    3    3  502    0 -0.35517659763E+02  0.70464649586E+02 -0.49271785887E+03  0.49899666296E+03  0.10100000352E+00 0.  1.
       -3    1    3    3    0  502  0.35517659763E+02 -0.70464649586E+02  0.72292989629E+03  0.72722377309E+03  0.10100000352E+00 0. -1.
</event>
<event>
 5   0  0.9298693E-04  0.1198761E+04  0.7818609E-02  0.9113942E-01
        2   -1    0    0  501    0  0.00000000000E+00  0.00000000000E+00  0.52305649282E+03  0.52305649283E+03  0.25500000920E-02 0. -1.
       -2   -1    0    0    0  501  0.00000000000E+00  0.00000000000E+00 -0.68684176586E+03  0.68684176586E+03  0.25500000920E-02 0.  1.
    10030    2    1    2    0    0  0.00000000000E+00  0.00000000000E+00 -0.16378527303E+03  0.12098982587E+04  0.11987611024E+04 0.  0.
        1    1    3    3  502    0 -0.27796660546E+03  0.32087995112E+03 -0.50894023799E+03  0.66275903816E+03  0.50400001928E-02 0.  1.
       -1    1    3    3    0  502  0.27796660546E+03 -0.32087995112E+03  0.34515496496E+03  0.54713922054E+03  0.50400001928E-02 0. -1.
</event>
<event>
 5   0  0.9070772E-04  0.1202008E+04  0.7818609E-02  0.9111101E-01
       -2   -1    0    0    0  501  0.00000000000E+00  0.00000000000E+00  0.37315500275E+03  0.37315500275E+03  0.25500000920E-02 0.  1.
        2   -1    0    0  501    0  0.00000000000E+00  0.00000000000E+00 -0.96797813279E+03  0.96797813280E+03  0.25500000920E-02 0. -1.
    10030    2    1    2    0    0  0.00000000000E+00  0.00000000000E+00 -0.59482313005E+03  0.13411331356E+04  0.12020081244E+04 0.  0.
        4    1    3    3  502    0  0.45939244846E+03 -0.38566175913E+03 -0.25525097722E+03  0.65186738562E+03  0.12699999809E+01 0. -1.
       -4    1    3    3    0  502 -0.45939244846E+03  0.38566175913E+03 -0.33957215282E+03  0.68926574993E+03  0.12699999809E+01 0.  1.
</event>
<event>
 5   0  0.5003507E-04  0.1153044E+04  0.7818609E-02  0.9154980E-01
       -1   -1    0    0    0  501  0.00000000000E+00  0.00000000000E+00  0.32568652858E+03  0.32568652862E+03  0.50400001928E-02 0. -1.
        1   -1    0    0  501    0  0.00000000000E+00  0.00000000000E+00 -0.10205444127E+04  0.10205444127E+04  0.50400001928E-02 0.  1.
    10030    2    1    2    0    0  0.00000000000E+00  0.00000000000E+00 -0.69485788414E+03  0.13462309414E+04  0.11530439143E+04 0.  0.
        3    1    3    3  502    0  0.56268277189E+03 -0.39113776753E+02 -0.48673312720E+03  0.74501740693E+03  0.10100000352E+00 0.  1.
       -3    1    3    3    0  502 -0.56268277189E+03  0.39113776753E+02 -0.20812475694E+03  0.60121353442E+03  0.10100000352E+00 0. -1.
</event>
<event>
 5   0  0.9050363E-04  0.1183425E+04  0.7818609E-02  0.9127490E-01
        2   -1    0    0  501    0  0.00000000000E+00  0.00000000000E+00  0.14384912718E+04  0.14384912718E+04  0.25500000920E-02 0.  1.
       -2   -1    0    0    0  501  0.00000000000E+00  0.00000000000E+00 -0.24339640444E+03  0.24339640445E+03  0.25500000920E-02 0. -1.
    10030    2    1    2    0    0  0.00000000000E+00  0.00000000000E+00  0.11950948674E+04  0.16818876763E+04  0.11834248661E+04 0.  0.
        3    1    3    3  502    0  0.52059224039E+03 -0.32019917432E+02  0.20041819228E+03  0.55875667143E+03  0.10100000352E+00 0. -1.
       -3    1    3    3    0  502 -0.52059224039E+03  0.32019917432E+02  0.99467667512E+03  0.11231310049E+04  0.10100000352E+00 0.  1.
</event>
<event>
 5   0  0.9050363E-04  0.1199473E+04  0.7818609E-02  0.9113318E-01
        2   -1    0    0  501    0  0.00000000000E+00  0.00000000000E+00  0.17101992659E+04  0.17101992659E+04  0.25500000920E-02 0.  1.
       -2   -1    0    0    0  501  0.00000000000E+00  0.00000000000E+00 -0.21031698749E+03  0.21031698750E+03  0.25500000920E-02 0. -1.
    10030    2    1    2    0    0  0.00000000000E+00  0.00000000000E+00  0.14998822784E+04  0.19205162534E+04  0.11994731471E+04 0.  0.
        3    1    3    3  502    0 -0.34178619416E+03  0.48033560138E+03  0.92638467129E+03  0.10980567662E+04  0.10100000352E+00 0. -1.
       -3    1    3    3    0  502  0.34178619416E+03 -0.48033560138E+03  0.57349760714E+03  0.82245948719E+03  0.10100000352E+00 0.  1.
</event>
<event>
 5   0  0.5052959E-04  0.1197631E+04  0.7818609E-02  0.9114933E-01
        1   -1    0    0  501    0  0.00000000000E+00  0.00000000000E+00  0.79934236258E+03  0.79934236260E+03  0.50400001928E-02 0.  1.
       -1   -1    0    0    0  501  0.00000000000E+00  0.00000000000E+00 -0.44859384531E+03  0.44859384534E+03  0.50400001928E-02 0. -1.
    10030    2    1    2    0    0  0.00000000000E+00  0.00000000000E+00  0.35074851727E+03  0.12479362079E+04  0.11976311021E+04 0.  0.
        2    1    3    3  502    0  0.43503580927E+01 -0.33182688925E+03 -0.34401219154E+03  0.47798786384E+03  0.25500000920E-02 0. -1.
       -2    1    3    3    0  502 -0.43503580927E+01  0.33182688925E+03  0.69476070882E+03  0.76994834409E+03  0.25500000920E-02 0.  1.
</event>
<event>
 5   0  0.5157631E-04  0.1202893E+04  0.7818609E-02  0.9110328E-01
       -1   -1    0    0    0  501  0.00000000000E+00  0.00000000000E+00  0.22726692368E+03  0.22726692374E+03  0.50400001928E-02 0. -1.
        1   -1    0    0  501    0  0.00000000000E+00  0.00000000000E+00 -0.15916879121E+04  0.15916879121E+04  0.50400001928E-02 0.  1.
    10030    2    1    2    0    0  0.00000000000E+00  0.00000000000E+00 -0.13644209884E+04  0.18189548359E+04  0.12028932044E+04 0.  0.
        5    1    3    3  502    0  0.49003945370E+03  0.21768044836E+03 -0.27032661631E+03  0.60051812068E+03  0.46999998093E+01 0.  1.
       -5    1    3    3    0  502 -0.49003945370E+03 -0.21768044836E+03 -0.10940943721E+04  0.12184367152E+04  0.46999998093E+01 0. -1.
</event>
<event>
 5   0  0.5001586E-04  0.1218926E+04  0.7818609E-02  0.9096450E-01
       -1   -1    0    0    0  501  0.00000000000E+00  0.00000000000E+00  0.22096704695E+03  0.22096704701E+03  0.50400001928E-02 0.  1.
        1   -1    0    0  501    0  0.00000000000E+00  0.00000000000E+00 -0.16809981176E+04  0.16809981176E+04  0.50400001928E-02 0. -1.
    10030    2    1    2    0    0  0.00000000000E+00  0.00000000000E+00 -0.14600310707E+04  0.19019651646E+04  0.12189260684E+04 0.  0.
        1    1    3    3  502    0 -0.44780686724E+03  0.29411370027E+03 -0.11833571294E+04  0.12989872804E+04  0.50400001928E-02 0. -1.
       -1    1    3    3    0  502  0.44780686724E+03 -0.29411370027E+03 -0.27667394129E+03  0.60297788421E+03  0.50400001928E-02 0.  1.
</event>
<event>
 5   0  0.9145224E-04  0.1200134E+04  0.7818609E-02  0.9112740E-01
       -2   -1    0    0    0  501  0.00000000000E+00  0.00000000000E+00  0.56596234129E+03  0.56596234129E+03  0.25500000920E-02 0.  1.
        2   -1    0    0  501    0  0.00000000000E+00  0.00000000000E+00 -0.63622641228E+03  0.63622641229E+03  0.25500000920E-02 0. -1.
    10030    2    1    2    0    0  0.00000000000E+00  0.00000000000E+00 -0.70264070995E+02  0.12021887536E+04  0.12001336424E+04 0.  0.
        5    1    3    3  502    0 -0.39221194667E+03  0.32818755117E+03  0.27928571754E+03  0.58271766909E+03  0.46999998093E+01 0.  1.
       -5    1    3    3    0  502  0.39221194667E+03 -0.32818755117E+03 -0.34954978854E+03  0.61947108449E+03  0.46999998093E+01 0. -1.
</event>
<event>
 5   0  0.9050363E-04  0.1200375E+04  0.7818609E-02  0.9112529E-01
        2   -1    0    0  501    0  0.00000000000E+00  0.00000000000E+00  0.13653247716E+04  0.13653247716E+04  0.25500000920E-02 0.  1.
       -2   -1    0    0    0  501  0.00000000000E+00  0.00000000000E+00 -0.26383815552E+03  0.26383815553E+03  0.25500000920E-02 0. -1.
    10030    2    1    2    0    0  0.00000000000E+00  0.00000000000E+00  0.11014866161E+04  0.16291629272E+04  0.12003745573E+04 0.  0.
        3    1    3    3  502    0  0.23596921806E+03  0.36961430315E+03  0.11069164488E+04  0.11906133881E+04  0.10100000352E+00 0. -1.
       -3    1    3    3    0  502 -0.23596921806E+03 -0.36961430315E+03 -0.54298327147E+01  0.43854953910E+03  0.10100000352E+00 0.  1.
</event>
<event>
 5   0  0.9070772E-04  0.1202195E+04  0.7818609E-02  0.9110938E-01
       -2   -1    0    0    0  501  0.00000000000E+00  0.00000000000E+00  0.45172486270E+03  0.45172486271E+03  0.25500000920E-02 0.  1.
        2   -1    0    0  501    0  0.00000000000E+00  0.00000000000E+00 -0.79986312988E+03  0.79986312988E+03  0.25500000920E-02 0. -1.
    10030    2    1    2    0    0  0.00000000000E+00  0.00000000000E+00 -0.34813826718E+03  0.12515879926E+04  0.12021947638E+04 0.  0.
        4    1    3    3  502    0  0.35975886835E+03  0.29073170349E+03 -0.57372284667E+03  0.73696057185E+03  0.12699999809E+01 0. -1.
       -4    1    3    3    0  502 -0.35975886835E+03 -0.29073170349E+03  0.22558457949E+03  0.51462742074E+03  0.12699999809E+01 0.  1.
</event>
<event>
 5   0  0.9050363E-04  0.1200513E+04  0.7818609E-02  0.9112408E-01
        2   -1    0    0  501    0  0.00000000000E+00  0.00000000000E+00  0.57547057652E+03  0.57547057652E+03  0.25500000920E-02 0.  1.
       -2   -1    0    0    0  501  0.00000000000E+00  0.00000000000E+00 -0.62611008179E+03  0.62611008179E+03  0.25500000920E-02 0. -1.
    10030    2    1    2    0    0  0.00000000000E+00  0.00000000000E+00 -0.50639505271E+02  0.12015806583E+04  0.12005131065E+04 0.  0.
        3    1    3    3  502    0  0.10689024563E+03 -0.53352370942E+03  0.22835156698E+03  0.59009958606E+03  0.10100000352E+00 0.  1.
       -3    1    3    3    0  502 -0.10689024563E+03  0.53352370942E+03 -0.27899107225E+03  0.61148107225E+03  0.10100000352E+00 0. -1.
</event>
<event>
 5   0  0.5157631E-04  0.1206443E+04  0.7818609E-02  0.9107235E-01
       -1   -1    0    0    0  501  0.00000000000E+00  0.00000000000E+00  0.19770292455E+03  0.19770292462E+03  0.50400001928E-02 0. -1.
        1   -1    0    0  501    0  0.00000000000E+00  0.00000000000E+00 -0.18405214627E+04  0.18405214627E+04  0.50400001928E-02 0.  1.
    10030    2    1    2    0    0  0.00000000000E+00  0.00000000000E+00 -0.16428185382E+04  0.20382243873E+04  0.12064434938E+04 0.  0.
        5    1    3    3  502    0  0.30797645864E+03 -0.19891660205E+02 -0.16970086719E+04  0.17248494716E+04  0.46999998093E+01 0.  1.
       -5    1    3    3    0  502 -0.30797645864E+03  0.19891660205E+02  0.54190133733E+02  0.31337491573E+03  0.46999998093E+01 0. -1.
</event>
<event>
 5   0  0.5447074E-04  0.1197026E+04  0.7818609E-02  0.9115464E-01
        1   -1    0    0  501    0  0.00000000000E+00  0.00000000000E+00  0.58118086707E+03  0.58118086709E+03  0.50400001928E-02 0. -1.
       -1   -1    0    0    0  501  0.00000000000E+00  0.00000000000E+00 -0.61636209948E+03  0.61636209950E+03  0.50400001928E-02 0.  1.
    10030    2    1    2    0    0  0.00000000000E+00  0.00000000000E+00 -0.35181232410E+02  0.11975429666E+04  0.11970260806E+04 0.  0.
        4    1    3    3  502    0 -0.27126320317E+03 -0.14321483694E+03  0.49655934354E+03  0.58366686515E+03  0.12699999809E+01 0. -1.
       -4    1    3    3    0  502  0.27126320317E+03  0.14321483694E+03 -0.53174057595E+03  0.61387610145E+03  0.12699999809E+01 0.  1.
</event>
<event>
 5   0  0.5157631E-04  0.1200507E+04  0.7818609E-02  0.9112413E-01
        1   -1    0    0  501    0  0.00000000000E+00  0.00000000000E+00  0.88710137474E+03  0.88710137475E+03  0.50400001928E-02 0. -1.
       -1   -1    0    0    0  501  0.00000000000E+00  0.00000000000E+00 -0.40615912493E+03  0.40615912496E+03  0.50400001928E-02 0.  1.
    10030    2    1    2    0    0  0.00000000000E+00  0.00000000000E+00  0.48094224981E+03  0.12932604997E+04  0.12005070897E+04 0.  0.
        5    1    3    3  502    0  0.26403230186E+03 -0.53195184243E+03  0.33436244703E+03  0.68154688399E+03  0.46999998093E+01 0. -1.
       -5    1    3    3    0  502 -0.26403230186E+03  0.53195184243E+03  0.14657980278E+03  0.61171361573E+03  0.46999998093E+01 0.  1.
</event>
<event>
 5   0  0.5447074E-04  0.1198016E+04  0.7818609E-02  0.9114595E-01
        1   -1    0    0  501    0  0.00000000000E+00  0.00000000000E+00  0.18781222917E+04  0.18781222917E+04  0.50400001928E-02 0. -1.
       -1   -1    0    0    0  501  0.00000000000E+00  0.00000000000E+00 -0.19104750269E+03  0.19104750276E+03  0.50400001928E-02 0.  1.
    10030    2    1    2    0    0  0.00000000000E+00  0.00000000000E+00  0.16870747890E+04  0.20691697944E+04  0.11980159826E+04 0.  0.
        4    1    3    3  502    0  0.13645827882E+03 -0.83690856575E+02 -0.15341758623E+03  0.22172864045E+03  0.12699999809E+01 0.  1.
       -4    1    3    3    0  502 -0.13645827882E+03  0.83690856575E+02  0.18404923752E+04  0.18474411540E+04  0.12699999809E+01 0. -1.
</event>
<event>
 5   0  0.9050363E-04  0.1204990E+04  0.7818609E-02  0.9108500E-01
       -2   -1    0    0    0  501  0.00000000000E+00  0.00000000000E+00  0.34130716265E+03  0.34130716266E+03  0.25500000920E-02 0.  1.
        2   -1    0    0  501    0  0.00000000000E+00  0.00000000000E+00 -0.10635588882E+04  0.10635588882E+04  0.25500000920E-02 0. -1.
    10030    2    1    2    0    0  0.00000000000E+00  0.00000000000E+00 -0.72225172555E+03  0.14048660509E+04  0.12049900688E+04 0.  0.
        3    1    3    3  502    0 -0.32572050185E+03 -0.43385784275E+03 -0.55600733358E+02  0.54536036232E+03  0.10100000352E+00 0.  1.
       -3    1    3    3    0  502  0.32572050185E+03  0.43385784275E+03 -0.66665099220E+03  0.85950568854E+03  0.10100000352E+00 0. -1.
</event>
<event>
 5   0  0.5003507E-04  0.1200842E+04  0.7818609E-02  0.9112120E-01
       -1   -1    0    0    0  501  0.00000000000E+00  0.00000000000E+00  0.11256589230E+04  0.11256589230E+04  0.50400001928E-02 0. -1.
        1   -1    0    0  501    0  0.00000000000E+00  0.00000000000E+00 -0.32026146837E+03  0.32026146841E+03  0.50400001928E-02 0.  1.
    10030    2    1    2    0    0  0.00000000000E+00  0.00000000000E+00  0.80539745462E+03  0.14459203914E+04  0.12008416708E+04 0.  0.
        3    1    3    3  502    0 -0.35433452873E+03 -0.12076023106E+03 -0.16254279582E+03  0.40811292840E+03  0.10100000352E+00 0.  1.
       -3    1    3    3    0  502  0.35433452873E+03  0.12076023106E+03  0.96794025044E+03  0.10378074630E+04  0.10100000352E+00 0. -1.
</event>
<event>
 5   0  0.3453625E-04  0.1196842E+04  0.7818609E-02  0.9115626E-01
       -4   -1    0    0    0  501  0.00000000000E+00  0.00000000000E+00  0.46743237750E+03  0.46743410278E+03  0.12699999809E+01 0.  1.
        4   -1    0    0  501    0  0.00000000000E+00  0.00000000000E+00 -0.76611231393E+03  0.76611336659E+03  0.12699999809E+01 0. -1.
    10030    2    1    2    0    0  0.00000000000E+00  0.00000000000E+00 -0.29867993643E+03  0.12335474694E+04  0.11968415328E+04 0.  0.
        4    1    3    3  502    0 -0.53498515475E+03 -0.25098659025E+03 -0.24658628678E+03  0.64032007154E+03  0.12699999809E+01 0. -1.
       -4    1    3    3    0  502  0.53498515475E+03  0.25098659025E+03 -0.52093649651E+02  0.59322739782E+03  0.12699999809E+01 0.  1.
</event>
<event>
 5   0  0.9050363E-04  0.1193004E+04  0.7818609E-02  0.9119002E-01
       -2   -1    0    0    0  501  0.00000000000E+00  0.00000000000E+00  0.40610427393E+03  0.40610427394E+03  0.25500000920E-02 0.  1.
        2   -1    0    0  501    0  0.00000000000E+00  0.00000000000E+00 -0.87616556883E+03  0.87616556883E+03  0.25500000920E-02 0. -1.
    10030    2    1    2    0    0  0.00000000000E+00  0.00000000000E+00 -0.47006129489E+03  0.12822698428E+04  0.11930039098E+04 0.  0.
        3    1    3    3  502    0  0.49779091428E+03  0.25581069805E+03 -0.13242323721E+02  0.55983057875E+03  0.10100000352E+00 0.  1.
       -3    1    3    3    0  502 -0.49779091428E+03 -0.25581069805E+03 -0.45681897117E+03  0.72243926402E+03  0.10100000352E+00 0. -1.
</event>
<event>
 5   0  0.5003507E-04  0.1199880E+04  0.7818609E-02  0.9112962E-01
       -1   -1    0    0    0  501  0.00000000000E+00  0.00000000000E+00  0.75474038910E+03  0.75474038912E+03  0.50400001928E-02 0.  1.
        1   -1    0    0  501    0  0.00000000000E+00  0.00000000000E+00 -0.47688953375E+03  0.47688953378E+03  0.50400001928E-02 0. -1.
    10030    2    1    2    0    0  0.00000000000E+00  0.00000000000E+00  0.27785085535E+03  0.12316299229E+04  0.11998796478E+04 0.  0.
        3    1    3    3  502    0  0.11366764729E+03  0.37143452655E+03  0.60823696688E+03  0.72168979460E+03  0.10100000352E+00 0.  1.
       -3    1    3    3    0  502 -0.11366764729E+03 -0.37143452655E+03 -0.33038611153E+03  0.50994012830E+03  0.10100000352E+00 0. -1.
</event>
<event>
 5   0  0.9070772E-04  0.1184985E+04  0.7818609E-02  0.9126102E-01
        2   -1    0    0  501    0  0.00000000000E+00  0.00000000000E+00  0.11421112744E+04  0.11421112744E+04  0.25500000920E-02 0. -1.
       -2   -1    0    0    0  501  0.00000000000E+00  0.00000000000E+00 -0.30736707527E+03  0.30736707528E+03  0.25500000920E-02 0.  1.
    10030    2    1    2    0    0  0.00000000000E+00  0.00000000000E+00  0.83474419915E+03  0.14494783497E+04  0.11849850667E+04 0.  0.
        4    1    3    3  502    0 -0.16137165745E+03 -0.37240134752E+03 -0.11062455791E+03  0.42066968179E+03  0.12699999809E+01 0.  1.
       -4    1    3    3    0  502  0.16137165745E+03  0.37240134752E+03  0.94536875706E+03  0.10288086679E+04  0.12699999809E+01 0. -1.
</event>
<event>
 5   0  0.3453625E-04  0.1215449E+04  0.7818609E-02  0.9099440E-01
       -4   -1    0    0    0  501  0.00000000000E+00  0.00000000000E+00  0.15369814342E+04  0.15369819589E+04  0.12699999809E+01 0.  1.
        4   -1    0    0  501    0  0.00000000000E+00  0.00000000000E+00 -0.24029296304E+03  0.24029631913E+03  0.12699999809E+01 0. -1.
    10030    2    1    2    0    0  0.00000000000E+00  0.00000000000E+00  0.12966884711E+04  0.17772782780E+04  0.12154493351E+04 0.  0.
        1    1    3    3  502    0 -0.23107643283E+03 -0.37390695570E+03  0.12620087025E+04  0.13363639828E+04  0.50400001928E-02 0.  1.
       -1    1    3    3    0  502  0.23107643283E+03  0.37390695570E+03  0.34679768627E+02  0.44091429519E+03  0.50400001928E-02 0. -1.
</event>
<event>
 5   0  0.5052959E-04  0.1198220E+04  0.7818609E-02  0.9114416E-01
       -1   -1    0    0    0  501  0.00000000000E+00  0.00000000000E+00  0.35600312619E+03  0.35600312623E+03  0.50400001928E-02 0. -1.
        1   -1    0    0  501    0  0.00000000000E+00  0.00000000000E+00 -0.10082289221E+04  0.10082289221E+04  0.50400001928E-02 0.  1.
    10030    2    1    2    0    0  0.00000000000E+00  0.00000000000E+00 -0.65222579590E+03  0.13642320483E+04  0.11982197598E+04 0.  0.
        2    1    3    3  502    0  0.45904320585E+03 -0.18110963059E+03 -0.71290349597E+03  0.86703676837E+03  0.25500000920E-02 0.  1.
       -2    1    3    3    0  502 -0.45904320585E+03  0.18110963059E+03  0.60677700068E+02  0.49719527997E+03  0.25500000920E-02 0. -1.
</event>
<event>
 5   0  0.5447074E-04  0.1202376E+04  0.7818609E-02  0.9110779E-01
       -1   -1    0    0    0  501  0.00000000000E+00  0.00000000000E+00  0.38775056495E+03  0.38775056498E+03  0.50400001928E-02 0.  1.
        1   -1    0    0  501    0  0.00000000000E+00  0.00000000000E+00 -0.93211249647E+03  0.93211249648E+03  0.50400001928E-02 0. -1.
    10030    2    1    2    0    0  0.00000000000E+00  0.00000000000E+00 -0.54436193152E+03  0.13198630615E+04  0.12023762259E+04 0.  0.
        4    1    3    3  502    0 -0.12946796186E+03  0.26341114332E+03 -0.84811715045E+03  0.89746960804E+03  0.12699999809E+01 0. -1.
       -4    1    3    3    0  502  0.12946796186E+03 -0.26341114332E+03  0.30375521893E+03  0.42239345343E+03  0.12699999809E+01 0.  1.
</event>
<event>
 5   0  0.5003507E-04  0.1202611E+04  0.7818609E-02  0.9110574E-01
        1   -1    0    0  501    0  0.00000000000E+00  0.00000000000E+00  0.82605519508E+03  0.82605519509E+03  0.50400001928E-02 0. -1.
       -1   -1    0    0    0  501  0.00000000000E+00  0.00000000000E+00 -0.43770500314E+03  0.43770500317E+03  0.50400001928E-02 0.  1.
    10030    2    1    2    0    0  0.00000000000E+00  0.00000000000E+00  0.38835019193E+03  0.12637601983E+04  0.12026113117E+04 0.  0.
        3    1    3    3  502    0 -0.60404170683E+02  0.52727194834E+03  0.49122126020E+03  0.72316160574E+03  0.10100000352E+00 0. -1.
       -3    1    3    3    0  502  0.60404170683E+02 -0.52727194834E+03 -0.10287106827E+03  0.54059859252E+03  0.10100000352E+00 0.  1.
</event>
<event>
 5   0  0.5157631E-04  0.1200878E+04  0.7818609E-02  0.9112088E-01
       -1   -1    0    0    0  501  0.00000000000E+00  0.00000000000E+00  0.70185790368E+03  0.70185790370E+03  0.50400001928E-02 0. -1.
        1   -1    0    0  501    0  0.00000000000E+00  0.00000000000E+00 -0.51367545370E+03  0.51367545372E+03  0.50400001928E-02 0.  1.
    10030    2    1    2    0    0  0.00000000000E+00  0.00000000000E+00  0.18818244998E+03  0.12155333574E+04  0.12008783071E+04 0.  0.
        5    1    3    3  502    0  0.52273197818E+03  0.18267325105E+03  0.32905952692E+03  0.64414322934E+03  0.46999998093E+01 0. -1.
       -5    1    3    3    0  502 -0.52273197818E+03 -0.18267325105E+03 -0.14087707693E+03  0.57139012807E+03  0.46999998093E+01 0.  1.
</event>
<event>
 5   0  0.9050363E-04  0.1200769E+04  0.7818609E-02  0.9112184E-01
        2   -1    0    0  501    0  0.00000000000E+00  0.00000000000E+00  0.41785044667E+03  0.41785044668E+03  0.25500000920E-02 0.  1.
       -2   -1    0    0    0  501  0.00000000000E+00  0.00000000000E+00 -0.86265645175E+03  0.86265645176E+03  0.25500000920E-02 0. -1.
    10030    2    1    2    0    0  0.00000000000E+00  0.00000000000E+00 -0.44480600508E+03  0.12805068984E+04  0.12007687266E+04 0.  0.
        3    1    3    3  502    0 -0.15788022984E+03  0.12212854235E+03 -0.82623724967E+03  0.85000561809E+03  0.10100000352E+00 0. -1.
       -3    1    3    3    0  502  0.15788022984E+03 -0.12212854235E+03  0.38143124459E+03  0.43050128035E+03  0.10100000352E+00 0.  1.
</event>
<event>
 5   0  0.5001586E-04  0.1198312E+04  0.7818609E-02  0.9114335E-01
        1   -1    0    0  501    0  0.00000000000E+00  0.00000000000E+00  0.51826032554E+03  0.51826032557E+03  0.50400001928E-02 0. -1.
       -1   -1    0    0    0  501  0.00000000000E+00  0.00000000000E+00 -0.69267932342E+03  0.69267932344E+03  0.50400001928E-02 0.  1.
    10030    2    1    2    0    0  0.00000000000E+00  0.00000000000E+00 -0.17441899788E+03  0.12109396490E+04  0.11983124996E+04 0.  0.
        1    1    3    3  502    0  0.28512038252E+03 -0.33622552097E+03  0.32283339688E+03  0.54640885393E+03  0.50400001928E-02 0. -1.
       -1    1    3    3    0  502 -0.28512038252E+03  0.33622552097E+03 -0.49725239476E+03  0.66453079507E+03  0.50400001928E-02 0.  1.
</event>
<event>
 5   0  0.9298693E-04  0.1201385E+04  0.7818609E-02  0.9111645E-01
       -2   -1    0    0    0  501  0.00000000000E+00  0.00000000000E+00  0.69007208851E+03  0.69007208851E+03  0.25500000920E-02 0. -1.
        2   -1    0    0  501    0  0.00000000000E+00  0.00000000000E+00 -0.52288976780E+03  0.52288976781E+03  0.25500000920E-02 0.  1.
    10030    2    1    2    0    0  0.00000000000E+00  0.00000000000E+00  0.16718232070E+03  0.12129618563E+04  0.12013852573E+04 0.  0.
        1    1    3    3  502    0  0.16049435268E+03  0.57607762865E+03  0.14077403152E+03  0.61436243330E+03  0.50400001928E-02 0.  1.
       -1    1    3    3    0  502 -0.16049435268E+03 -0.57607762865E+03  0.26408289181E+02  0.59859942302E+03  0.50400001928E-02 0. -1.
</event>
<event>
 5   0  0.5003507E-04  0.1201872E+04  0.7818609E-02  0.9111220E-01
       -1   -1    0    0    0  501  0.00000000000E+00  0.00000000000E+00  0.71187391759E+03  0.71187391761E+03  0.50400001928E-02 0.  1.
        1   -1    0    0  501    0  0.00000000000E+00  0.00000000000E+00 -0.50728628695E+03  0.50728628697E+03  0.50400001928E-02 0. -1.
    10030    2    1    2    0    0  0.00000000000E+00  0.00000000000E+00  0.20458763064E+03  0.12191602046E+04  0.12018716678E+04 0.  0.
        3    1    3    3  502    0 -0.27887589172E+03  0.54289667932E+02  0.63944353362E+03  0.69971935368E+03  0.10100000352E+00 0.  1.
       -3    1    3    3    0  502  0.27887589172E+03 -0.54289667932E+02 -0.43485590298E+03  0.51944085090E+03  0.10100000352E+00 0. -1.
</event>
<event>
 5   0  0.5052959E-04  0.1196968E+04  0.7818609E-02  0.9115515E-01
       -1   -1    0    0    0  501  0.00000000000E+00  0.00000000000E+00  0.31336653620E+03  0.31336653624E+03  0.50400001928E-02 0.  1.
        1   -1    0    0  501    0  0.00000000000E+00  0.00000000000E+00 -0.11430158676E+04  0.11430158676E+04  0.50400001928E-02 0. -1.
    10030    2    1    2    0    0  0.00000000000E+00  0.00000000000E+00 -0.82964933141E+03  0.14563824039E+04  0.11969677077E+04 0.  0.
        2    1    3    3  502    0  0.29472506249E+02 -0.59668194957E+03 -0.37120971542E+03  0.70334531376E+03  0.25500000920E-02 0.  1.
       -2    1    3    3    0  502 -0.29472506249E+02  0.59668194957E+03 -0.45843961599E+03  0.75303709011E+03  0.25500000920E-02 0. -1.
</event>
<event>
 5   0  0.5157631E-04  0.1212936E+04  0.7818609E-02  0.9101608E-01
       -1   -1    0    0    0  501  0.00000000000E+00  0.00000000000E+00  0.32913983887E+03  0.32913983890E+03  0.50400001928E-02 0. -1.
        1   -1    0    0  501    0  0.00000000000E+00  0.00000000000E+00 -0.11174691511E+04  0.11174691511E+04  0.50400001928E-02 0.  1.
    10030    2    1    2    0    0  0.00000000000E+00  0.00000000000E+00 -0.78832931221E+03  0.14466089900E+04  0.12129362990E+04 0.  0.
        5    1    3    3  502    0  0.33783158326E+03  0.48401755219E+03 -0.56018894985E+03  0.81377940439E+03  0.46999998093E+01 0.  1.
       -5    1    3    3    0  502 -0.33783158326E+03 -0.48401755219E+03 -0.22814036236E+03  0.63282958560E+03  0.46999998093E+01 0. -1.
</event>
<event>
 5   0  0.9145224E-04  0.1201966E+04  0.7818609E-02  0.9111137E-01
        2   -1    0    0  501    0  0.00000000000E+00  0.00000000000E+00  0.18077117523E+04  0.18077117523E+04  0.25500000920E-02 0. -1.
       -2   -1    0    0    0  501  0.00000000000E+00  0.00000000000E+00 -0.19979989647E+03  0.19979989649E+03  0.25500000920E-02 0.  1.
    10030    2    1    2    0    0  0.00000000000E+00  0.00000000000E+00  0.16079118559E+04  0.20075116488E+04  0.12019660910E+04 0.  0.
        5    1    3    3  502    0 -0.97322481026E+02 -0.19070075016E+03  0.17418238432E+04  0.17549389825E+04  0.46999998093E+01 0. -1.
       -5    1    3    3    0  502  0.97322481026E+02  0.19070075016E+03 -0.13391198737E+03  0.25257266634E+03  0.46999998093E+01 0.  1.
</event>
<event>
 5   0  0.9145224E-04  0.1200556E+04  0.7818609E-02  0.9112370E-01
        2   -1    0    0  501    0  0.00000000000E+00  0.00000000000E+00  0.17374087801E+04  0.17374087801E+04  0.25500000920E-02 0. -1.
       -2   -1    0    0    0  501  0.00000000000E+00  0.00000000000E+00 -0.20739702756E+03  0.20739702758E+03  0.25500000920E-02 0.  1.
    10030    2    1    2    0    0  0.00000000000E+00  0.00000000000E+00  0.15300117526E+04  0.19448058077E+04  0.12005555659E+04 0.  0.
        5    1    3    3  502    0 -0.19932448143E+03  0.33855405597E+03  0.15001758633E+04  0.15507736161E+04  0.46999998093E+01 0. -1.
       -5    1    3    3    0  502  0.19932448143E+03 -0.33855405597E+03  0.29835889284E+02  0.39403219158E+03  0.46999998093E+01 0.  1.
</event>
<event>
 5   0  0.9145224E-04  0.1197774E+04  0.7818609E-02  0.9114808E-01
        2   -1    0    0  501    0  0.00000000000E+00  0.00000000000E+00  0.74573801910E+03  0.74573801910E+03  0.25500000920E-02 0. -1.
       -2   -1    0    0    0  501  0.00000000000E+00  0.00000000000E+00 -0.48095361449E+03  0.48095361449E+03  0.25500000920E-02 0.  1.
    10030    2    1    2    0    0  0.00000000000E+00  0.00000000000E+00  0.26478440461E+03  0.12266916336E+04  0.11977735942E+04 0.  0.
        5    1    3    3  502    0  0.42033654303E+03 -0.35939356378E+03  0.36771516941E+03  0.66414085773E+03  0.46999998093E+01 0. -1.
       -5    1    3    3    0  502 -0.42033654303E+03  0.35939356378E+03 -0.10293076480E+03  0.56255077587E+03  0.46999998093E+01 0.  1.
</event>
<event>
 5   0  0.5447074E-04  0.1233470E+04  0.7818609E-02  0.9084054E-01
        1   -1    0    0  501    0  0.00000000000E+00  0.00000000000E+00  0.13076557425E+04  0.13076557425E+04  0.50400001928E-02 0. -1.
       -1   -1    0    0    0  501  0.00000000000E+00  0.00000000000E+00 -0.29087322080E+03  0.29087322084E+03  0.50400001928E-02 0.  1.
    10030    2    1    2    0    0  0.00000000000E+00  0.00000000000E+00  0.10167825217E+04  0.15985289633E+04  0.12334699632E+04 0.  0.
        4    1    3    3  502    0  0.38115353008E+03 -0.48231326357E+03  0.44416169041E+03  0.75840972952E+03  0.12699999809E+01 0. -1.
       -4    1    3    3    0  502 -0.38115353008E+03  0.48231326357E+03  0.57262083128E+03  0.84011923381E+03  0.12699999809E+01 0.  1.
</event>
<event>
 5   0  0.9410666E-04  0.1172813E+04  0.7818609E-02  0.9136992E-01
       -2   -1    0    0    0  501  0.00000000000E+00  0.00000000000E+00  0.38890712391E+03  0.38890712392E+03  0.25500000920E-02 0. -1.
        2   -1    0    0  501    0  0.00000000000E+00  0.00000000000E+00 -0.88420187699E+03  0.88420187699E+03  0.25500000920E-02 0.  1.
    10030    2    1    2    0    0  0.00000000000E+00  0.00000000000E+00 -0.49529475308E+03  0.12731090009E+04  0.11728127028E+04 0.  0.
        2    1    3    3  502    0  0.50121991392E+03 -0.18047187857E+03  0.18428297325E+02  0.53303949499E+03  0.25500000920E-02 0. -1.
       -2    1    3    3    0  502 -0.50121991392E+03  0.18047187857E+03 -0.51372305040E+03  0.74006950592E+03  0.25500000920E-02 0.  1.
</event>
<event>
 5   0  0.9050363E-04  0.1202435E+04  0.7818609E-02  0.9110728E-01
        2   -1    0    0  501    0  0.00000000000E+00  0.00000000000E+00  0.40387873504E+03  0.40387873504E+03  0.25500000920E-02 0. -1.
       -2   -1    0    0    0  501  0.00000000000E+00  0.00000000000E+00 -0.89497732006E+03  0.89497732006E+03  0.25500000920E-02 0.  1.
    10030    2    1    2    0    0  0.00000000000E+00  0.00000000000E+00 -0.49109858502E+03  0.12988560551E+04  0.12024347099E+04 0.  0.
        3    1    3    3  502    0 -0.50631818508E+03  0.12675223280E+03  0.76770796872E+02  0.52755852616E+03  0.10100000352E+00 0. -1.
       -3    1    3    3    0  502  0.50631818508E+03 -0.12675223280E+03 -0.56786938189E+03  0.77129752895E+03  0.10100000352E+00 0.  1.
</event>
<event>
 5   0  0.5001586E-04  0.1194840E+04  0.7818609E-02  0.9117385E-01
        1   -1    0    0  501    0  0.00000000000E+00  0.00000000000E+00  0.69674731896E+03  0.69674731898E+03  0.50400001928E-02 0.  1.
       -1   -1    0    0    0  501  0.00000000000E+00  0.00000000000E+00 -0.51225271848E+03  0.51225271851E+03  0.50400001928E-02 0. -1.
    10030    2    1    2    0    0  0.00000000000E+00  0.00000000000E+00  0.18449460047E+03  0.12090000375E+04  0.11948400868E+04 0.  0.
        1    1    3    3  502    0 -0.44748406642E+03 -0.25771414846E+03 -0.21173288458E+03  0.55811234214E+03  0.50400001928E-02 0. -1.
       -1    1    3    3    0  502  0.44748406642E+03  0.25771414846E+03  0.39622748505E+03  0.65088769534E+03  0.50400001928E-02 0.  1.
</event>
<event>
 5   0  0.9050363E-04  0.1196880E+04  0.7818609E-02  0.9115592E-01
       -2   -1    0    0    0  501  0.00000000000E+00  0.00000000000E+00  0.53492544736E+03  0.53492544737E+03  0.25500000920E-02 0. -1.
        2   -1    0    0  501    0  0.00000000000E+00  0.00000000000E+00 -0.66949625153E+03  0.66949625153E+03  0.25500000920E-02 0.  1.
    10030    2    1    2    0    0  0.00000000000E+00  0.00000000000E+00 -0.13457080416E+03  0.12044216989E+04  0.11968802477E+04 0.  0.
        3    1    3    3  502    0  0.46381887914E+03  0.22717578484E+03 -0.37150430480E+03  0.63620142137E+03  0.10100000352E+00 0.  1.
       -3    1    3    3    0  502 -0.46381887914E+03 -0.22717578484E+03  0.23693350064E+03  0.56822027753E+03  0.10100000352E+00 0. -1.
</event>
<event>
 5   0  0.5447074E-04  0.1206693E+04  0.7818609E-02  0.9107019E-01
       -1   -1    0    0    0  501  0.00000000000E+00  0.00000000000E+00  0.68136806513E+03  0.68136806515E+03  0.50400001928E-02 0. -1.
        1   -1    0    0  501    0  0.00000000000E+00  0.00000000000E+00 -0.53425864262E+03  0.53425864265E+03  0.50400001928E-02 0.  1.
    10030    2    1    2    0    0  0.00000000000E+00  0.00000000000E+00  0.14710942251E+03  0.12156267078E+04  0.12066926330E+04 0.  0.
        4    1    3    3  502    0 -0.16378479014E+03 -0.48668880129E+03 -0.24554545074E+03  0.56919735422E+03  0.12699999809E+01 0.  1.
       -4    1    3    3    0  502  0.16378479014E+03  0.48668880129E+03  0.39265487325E+03  0.64642935357E+03  0.12699999809E+01 0. -1.
</event>
<event>
 5   0  0.9145224E-04  0.1203843E+04  0.7818609E-02  0.9109499E-01
       -2   -1    0    0    0  501  0.00000000000E+00  0.00000000000E+00  0.73626584232E+03  0.73626584233E+03  0.25500000920E-02 0. -1.
        2   -1    0    0  501    0  0.00000000000E+00  0.00000000000E+00 -0.49209071009E+03  0.49209071009E+03  0.25500000920E-02 0.  1.
    10030    2    1    2    0    0  0.00000000000E+00  0.00000000000E+00  0.24417513223E+03  0.12283565524E+04  0.12038431479E+04 0.  0.
        5    1    3    3  502    0 -0.52021580721E+03 -0.22334028061E+03 -0.86481453299E+02  0.57271851618E+03  0.46999998093E+01 0.  1.
       -5    1    3    3    0  502  0.52021580721E+03  0.22334028061E+03  0.33065658553E+03  0.65563803624E+03  0.46999998093E+01 0. -1.
</event>
<event>
 5   0  0.5003507E-04  0.1202781E+04  0.7818609E-02  0.9110426E-01
       -1   -1    0    0    0  501  0.00000000000E+00  0.00000000000E+00  0.67044294618E+03  0.67044294619E+03  0.50400001928E-02 0. -1.
        1   -1    0    0  501    0  0.00000000000E+00  0.00000000000E+00 -0.53945027080E+03  0.53945027083E+03  0.50400001928E-02 0.  1.
    10030    2    1    2    0    0  0.00000000000E+00  0.00000000000E+00  0.13099267537E+03  0.12098932170E+04  0.12027811586E+04 0.  0.
        3    1    3    3  502    0  0.43623057176E+03 -0.11222286549E+03 -0.33533132760E+03  0.56154981324E+03  0.10100000352E+00 0.  1.
       -3    1    3    3    0  502 -0.43623057176E+03  0.11222286549E+03  0.46632400297E+03  0.64834340378E+03  0.10100000352E+00 0. -1.
</event>
<event>
 5   0  0.9410666E-04  0.1198783E+04  0.7818609E-02  0.9113923E-01
        2   -1    0    0  501    0  0.00000000000E+00  0.00000000000E+00  0.49400301086E+03  0.49400301087E+03  0.25500000920E-02 0. -1.
       -2   -1    0    0    0  501  0.00000000000E+00  0.00000000000E+00 -0.72726289207E+03  0.72726289207E+03  0.25500000920E-02 0.  1.
    10030    2    1    2    0    0  0.00000000000E+00  0.00000000000E+00 -0.23325988121E+03  0.12212659029E+04  0.11987828133E+04 0.  0.
        2    1    3    3  502    0  0.51894383234E+03 -0.29956937799E+03 -0.13192976140E+03  0.61355519336E+03  0.25500000920E-02 0.  1.
       -2    1    3    3    0  502 -0.51894383234E+03  0.29956937799E+03 -0.10133011980E+03  0.60771070958E+03  0.25500000920E-02 0. -1.
</event>
<event>
 5   0  0.5157631E-04  0.1203023E+04  0.7818609E-02  0.9110215E-01
        1   -1    0    0  501    0  0.00000000000E+00  0.00000000000E+00  0.10646505205E+04  0.10646505205E+04  0.50400001928E-02 0.  1.
       -1   -1    0    0    0  501  0.00000000000E+00  0.00000000000E+00 -0.33984483201E+03  0.33984483205E+03  0.50400001928E-02 0. -1.
    10030    2    1    2    0    0  0.00000000000E+00  0.00000000000E+00  0.72480568851E+03  0.14044953526E+04  0.12030228216E+04 0.  0.
        5    1    3    3  502    0 -0.44158473657E+03 -0.28660871985E+03  0.22726195610E+02  0.52695370559E+03  0.46999998093E+01 0. -1.
       -5    1    3    3    0  502  0.44158473657E+03  0.28660871985E+03  0.70207949290E+03  0.87754164700E+03  0.46999998093E+01 0.  1.
</event>
<event>
 5   0  0.5052959E-04  0.1202285E+04  0.7818609E-02  0.9110859E-01
       -1   -1    0    0    0  501  0.00000000000E+00  0.00000000000E+00  0.49333986417E+03  0.49333986420E+03  0.50400001928E-02 0. -1.
        1   -1    0    0  501    0  0.00000000000E+00  0.00000000000E+00 -0.73250203843E+03  0.73250203845E+03  0.50400001928E-02 0.  1.
    10030    2    1    2    0    0  0.00000000000E+00  0.00000000000E+00 -0.23916217426E+03  0.12258419026E+04  0.12022852510E+04 0.  0.
        2    1    3    3  502    0  0.45906313032E+03 -0.43493075516E+02  0.27364609757E+03  0.53620219317E+03  0.25500000920E-02 0.  1.
       -2    1    3    3    0  502 -0.45906313032E+03  0.43493075516E+02 -0.51280827183E+03  0.68963970948E+03  0.25500000920E-02 0. -1.
</event>
<event>
 5   0  0.5157631E-04  0.1192605E+04  0.7818609E-02  0.9119354E-01
       -1   -1    0    0    0  501  0.00000000000E+00  0.00000000000E+00  0.20823742472E+03  0.20823742478E+03  0.50400001928E-02 0.  1.
        1   -1    0    0  501    0  0.00000000000E+00  0.00000000000E+00 -0.17075553209E+04  0.17075553209E+04  0.50400001928E-02 0. -1.
    10030    2    1    2    0    0  0.00000000000E+00  0.00000000000E+00 -0.14993178962E+04  0.19157927457E+04  0.11926054212E+04 0.  0.
        5    1    3    3  502    0  0.18307688216E+03 -0.15624857033E+03 -0.16260254575E+04  0.16437492628E+04  0.46999998093E+01 0. -1.
       -5    1    3    3    0  502 -0.18307688216E+03  0.15624857033E+03  0.12670756129E+03  0.27204348291E+03  0.46999998093E+01 0.  1.
</event>
<event>
 5   0  0.9145224E-04  0.1200879E+04  0.7818609E-02  0.9112088E-01
       -2   -1    0    0    0  501  0.00000000000E+00  0.00000000000E+00  0.76647401850E+03  0.76647401850E+03  0.25500000920E-02 0.  1.
        2   -1    0    0  501    0  0.00000000000E+00  0.00000000000E+00 -0.47037121855E+03  0.47037121856E+03  0.25500000920E-02 0. -1.
    10030    2    1    2    0    0  0.00000000000E+00  0.00000000000E+00  0.29610279995E+03  0.12368452371E+04  0.12008785419E+04 0.  0.
        5    1    3    3  502    0  0.56187112555E+03  0.10642998852E+03  0.33650338839E+03  0.66353833694E+03  0.46999998093E+01 0.  1.
       -5    1    3    3    0  502 -0.56187112555E+03 -0.10642998852E+03 -0.40400588446E+02  0.57330690012E+03  0.46999998093E+01 0. -1.
</event>
<event>
 5   0  0.5157631E-04  0.1199645E+04  0.7818609E-02  0.9113167E-01
        1   -1    0    0  501    0  0.00000000000E+00  0.00000000000E+00  0.12290570122E+04  0.12290570122E+04  0.50400001928E-02 0.  1.
       -1   -1    0    0    0  501  0.00000000000E+00  0.00000000000E+00 -0.29273423762E+03  0.29273423766E+03  0.50400001928E-02 0. -1.
    10030    2    1    2    0    0  0.00000000000E+00  0.00000000000E+00  0.93632277457E+03  0.15217912499E+04  0.11996450600E+04 0.  0.
        5    1    3    3  502    0  0.42676027360E+03  0.39949642236E+03  0.63855752826E+03  0.86573640878E+03  0.46999998093E+01 0. -1.
       -5    1    3    3    0  502 -0.42676027360E+03 -0.39949642236E+03  0.29776524631E+03  0.65605484108E+03  0.46999998093E+01 0.  1.
</event>
<event>
 5   0  0.9298693E-04  0.1209497E+04  0.7818609E-02  0.9104585E-01
        2   -1    0    0  501    0  0.00000000000E+00  0.00000000000E+00  0.13393038288E+04  0.13393038288E+04  0.25500000920E-02 0.  1.
       -2   -1    0    0    0  501  0.00000000000E+00  0.00000000000E+00 -0.27306760529E+03  0.27306760531E+03  0.25500000920E-02 0. -1.
    10030    2    1    2    0    0  0.00000000000E+00  0.00000000000E+00  0.10662362235E+04  0.16123714341E+04  0.12094965718E+04 0.  0.
        1    1    3    3  502    0  0.58227749275E+03 -0.16002641431E+03  0.48961437364E+03  0.77741736972E+03  0.50400001928E-02 0. -1.
       -1    1    3    3    0  502 -0.58227749275E+03  0.16002641431E+03  0.57662184983E+03  0.83495406435E+03  0.50400001928E-02 0.  1.
</event>
<event>
 5   0  0.9145224E-04  0.1202299E+04  0.7818609E-02  0.9110847E-01
        2   -1    0    0  501    0  0.00000000000E+00  0.00000000000E+00  0.98332023252E+03  0.98332023252E+03  0.25500000920E-02 0. -1.
       -2   -1    0    0    0  501  0.00000000000E+00  0.00000000000E+00 -0.36751056190E+03  0.36751056191E+03  0.25500000920E-02 0.  1.
    10030    2    1    2    0    0  0.00000000000E+00  0.00000000000E+00  0.61580967062E+03  0.13508307944E+04  0.12022987502E+04 0.  0.
        5    1    3    3  502    0  0.79794341707E+02 -0.16767325705E+02  0.97705778403E+03  0.98046534029E+03  0.46999998093E+01 0. -1.
       -5    1    3    3    0  502 -0.79794341707E+02  0.16767325705E+02 -0.36124811341E+03  0.37036545414E+03  0.46999998093E+01 0.  1.
</event>
<event>
 5   0  0.9145224E-04  0.1197790E+04  0.7818609E-02  0.9114793E-01
       -2   -1    0    0    0  501  0.00000000000E+00  0.00000000000E+00  0.43930514090E+03  0.43930514091E+03  0.25500000920E-02 0.  1.
        2   -1    0    0  501    0  0.00000000000E+00  0.00000000000E+00 -0.81646032382E+03  0.81646032382E+03  0.25500000920E-02 0. -1.
    10030    2    1    2    0    0  0.00000000000E+00  0.00000000000E+00 -0.37715518292E+03  0.12557654647E+04  0.11977899943E+04 0.  0.
        5    1    3    3  502    0  0.14586465200E+03  0.15652817123E+03  0.39784902821E+03  0.45175602303E+03  0.46999998093E+01 0.  1.
       -5    1    3    3    0  502 -0.14586465200E+03 -0.15652817123E+03 -0.77500421113E+03  0.80400944171E+03  0.46999998093E+01 0. -1.
</event>
<event>
 5   0  0.5157631E-04  0.1201468E+04  0.7818609E-02  0.9111572E-01
       -1   -1    0    0    0  501  0.00000000000E+00  0.00000000000E+00  0.67680204434E+03  0.67680204436E+03  0.50400001928E-02 0. -1.
        1   -1    0    0  501    0  0.00000000000E+00  0.00000000000E+00 -0.53321585249E+03  0.53321585251E+03  0.50400001928E-02 0.  1.
    10030    2    1    2    0    0  0.00000000000E+00  0.00000000000E+00  0.14358619185E+03  0.12100178969E+04  0.12014684000E+04 0.  0.
        5    1    3    3  502    0  0.70371254979E+02  0.14847098809E+03 -0.51012795608E+03  0.53595556663E+03  0.46999998093E+01 0.  1.
       -5    1    3    3    0  502 -0.70371254979E+02 -0.14847098809E+03  0.65371414793E+03  0.67406233023E+03  0.46999998093E+01 0. -1.
</event>
<event>
 5   0  0.5157631E-04  0.1199602E+04  0.7818609E-02  0.9113205E-01
       -1   -1    0    0    0  501  0.00000000000E+00  0.00000000000E+00  0.21174988442E+03  0.21174988448E+03  0.50400001928E-02 0.  1.
        1   -1    0    0  501    0  0.00000000000E+00  0.00000000000E+00 -0.16989926605E+04  0.16989926605E+04  0.50400001928E-02 0. -1.
    10030    2    1    2    0    0  0.00000000000E+00  0.00000000000E+00 -0.14872427761E+04  0.19107425450E+04  0.11996024334E+04 0.  0.
        5    1    3    3  502    0 -0.57369614805E+03  0.14801812912E+03 -0.59502999417E+03  0.83971389222E+03  0.46999998093E+01 0. -1.
       -5    1    3    3    0  502  0.57369614805E+03 -0.14801812912E+03 -0.89221278194E+03  0.10710286528E+04  0.46999998093E+01 0.  1.
</event>
<event>
 5   0  0.9145224E-04  0.1201845E+04  0.7818609E-02  0.9111243E-01
        2   -1    0    0  501    0  0.00000000000E+00  0.00000000000E+00  0.11117223613E+04  0.11117223613E+04  0.25500000920E-02 0.  1.
       -2   -1    0    0    0  501  0.00000000000E+00  0.00000000000E+00 -0.32481835391E+03  0.32481835392E+03  0.25500000920E-02 0. -1.
    10030    2    1    2    0    0  0.00000000000E+00  0.00000000000E+00  0.78690400737E+03  0.14365407152E+04  0.12018449607E+04 0.  0.
        5    1    3    3  502    0  0.22869161155E+03 -0.24528655590E+03 -0.20253647476E+03  0.39180155858E+03  0.46999998093E+01 0. -1.
       -5    1    3    3    0  502 -0.22869161155E+03  0.24528655590E+03  0.98944048213E+03  0.10447391566E+04  0.46999998093E+01 0.  1.
</event>
<event>
 5   0  0.5447074E-04  0.1202354E+04  0.7818609E-02  0.9110799E-01
        1   -1    0    0  501    0  0.00000000000E+00  0.00000000000E+00  0.11696212249E+04  0.11696212249E+04  0.50400001928E-02 0.  1.
       -1   -1    0    0    0  501  0.00000000000E+00  0.00000000000E+00 -0.30900065603E+03  0.30900065607E+03  0.50400001928E-02 0. -1.
    10030    2    1    2    0    0  0.00000000000E+00  0.00000000000E+00  0.86062056886E+03  0.14786218810E+04  0.12023539010E+04 0.  0.
        4    1    3    3  502    0 -0.33775968875E+03 -0.49645946230E+03  0.46634299695E+03  0.76028350551E+03  0.12699999809E+01 0.  1.
       -4    1    3    3    0  502  0.33775968875E+03  0.49645946230E+03  0.39427757191E+03  0.71833837546E+03  0.12699999809E+01 0. -1.
</event>
<event>
 5   0  0.9298693E-04  0.1202334E+04  0.7818609E-02  0.9110816E-01
        2   -1    0    0  501    0  0.00000000000E+00  0.00000000000E+00  0.46095468534E+03  0.46095468535E+03  0.25500000920E-02 0. -1.
       -2   -1    0    0    0  501  0.00000000000E+00  0.00000000000E+00 -0.78402827444E+03  0.78402827445E+03  0.25500000920E-02 0.  1.
    10030    2    1    2    0    0  0.00000000000E+00  0.00000000000E+00 -0.32307358910E+03  0.12449829598E+04  0.12023335753E+04 0.  0.
        1    1    3    3  502    0  0.39844933706E+03  0.19024052099E+03  0.26091577213E+03  0.51286486544E+03  0.50400001928E-02 0. -1.
       -1    1    3    3    0  502 -0.39844933706E+03 -0.19024052099E+03 -0.58398936123E+03  0.73211809436E+03  0.50400001928E-02 0.  1.
</event>
<event>
 5   0  0.5157631E-04  0.1199050E+04  0.7818609E-02  0.9113689E-01
        1   -1    0    0  501    0  0.00000000000E+00  0.00000000000E+00  0.72716658867E+03  0.72716658869E+03  0.50400001928E-02 0.  1.
       -1   -1    0    0    0  501  0.00000000000E+00  0.00000000000E+00 -0.49428834189E+03  0.49428834192E+03  0.50400001928E-02 0. -1.
    10030    2    1    2    0    0  0.00000000000E+00  0.00000000000E+00  0.23287824678E+03  0.12214549306E+04  0.11990495693E+04 0.  0.
        5    1    3    3  502    0  0.35246647044E+03  0.36491005336E+01  0.61043558106E+03  0.70491107052E+03  0.46999998093E+01 0.  1.
       -5    1    3    3    0  502 -0.35246647044E+03 -0.36491005336E+01 -0.37755733429E+03  0.51654386008E+03  0.46999998093E+01 0. -1.
</event>
<event>
 5   0  0.5001586E-04  0.1199925E+04  0.7818609E-02  0.9112922E-01
        1   -1    0    0  501    0  0.00000000000E+00  0.00000000000E+00  0.80889807760E+03  0.80889807761E+03  0.50400001928E-02 0. -1.
       -1   -1    0    0    0  501  0.00000000000E+00  0.00000000000E+00 -0.44499462161E+03  0.44499462164E+03  0.50400001928E-02 0.  1.
    10030    2    1    2    0    0  0.00000000000E+00  0.00000000000E+00  0.36390345598E+03  0.12538926993E+04  0.11999254877E+04 0.  0.
        1    1    3    3  502    0 -0.13808276453E+03  0.15753374939E+03  0.76943946630E+03  0.79744643982E+03  0.50400001928E-02 0. -1.
       -1    1    3    3    0  502  0.13808276453E+03 -0.15753374939E+03 -0.40553601032E+03  0.45644625943E+03  0.50400001928E-02 0.  1.
</event>
<event>
 5   0  0.5001586E-04  0.1216289E+04  0.7818609E-02  0.9098717E-01
       -1   -1    0    0    0  501  0.00000000000E+00  0.00000000000E+00  0.38712072404E+03  0.38712072407E+03  0.50400001928E-02 0.  1.
        1   -1    0    0  501    0  0.00000000000E+00  0.00000000000E+00 -0.95535985401E+03  0.95535985402E+03  0.50400001928E-02 0. -1.
    10030    2    1    2    0    0  0.00000000000E+00  0.00000000000E+00 -0.56823912997E+03  0.13424805781E+04  0.12162887789E+04 0.  0.
        1    1    3    3  502    0 -0.50184421329E+03  0.30398500175E+03 -0.46066841524E+03  0.74596909087E+03  0.50400001928E-02 0.  1.
       -1    1    3    3    0  502  0.50184421329E+03 -0.30398500175E+03 -0.10757071473E+03  0.59651148722E+03  0.50400001928E-02 0. -1.
</event>
<event>
 5   0  0.5447074E-04  0.1198093E+04  0.7818609E-02  0.9114527E-01
        1   -1    0    0  501    0  0.00000000000E+00  0.00000000000E+00  0.53945789400E+03  0.53945789402E+03  0.50400001928E-02 0. -1.
       -1   -1    0    0    0  501  0.00000000000E+00  0.00000000000E+00 -0.66521761333E+03  0.66521761335E+03  0.50400001928E-02 0.  1.
    10030    2    1    2    0    0  0.00000000000E+00  0.00000000000E+00 -0.12575971933E+03  0.12046755074E+04  0.11980933065E+04 0.  0.
        4    1    3    3  502    0  0.37010496595E+03  0.37012452686E+03  0.23007183311E+03  0.57175564055E+03  0.12699999809E+01 0. -1.
       -4    1    3    3    0  502 -0.37010496595E+03 -0.37012452686E+03 -0.35583155245E+03  0.63291986683E+03  0.12699999809E+01 0.  1.
</event>
<event>
 5   0  0.9070772E-04  0.1202019E+04  0.7818609E-02  0.9111091E-01
       -2   -1    0    0    0  501  0.00000000000E+00  0.00000000000E+00  0.29288084212E+03  0.29288084214E+03  0.25500000920E-02 0.  1.
        2   -1    0    0  501    0  0.00000000000E+00  0.00000000000E+00 -0.12333092604E+04  0.12333092604E+04  0.25500000920E-02 0. -1.
    10030    2    1    2    0    0  0.00000000000E+00  0.00000000000E+00 -0.94042841830E+03  0.15261901026E+04  0.12020193922E+04 0.  0.
        4    1    3    3  502    0 -0.22863757643E+03 -0.46968645217E+02 -0.11734082433E+04  0.11963986431E+04  0.12699999809E+01 0. -1.
       -4    1    3    3    0  502  0.22863757643E+03  0.46968645217E+02  0.23297982496E+03  0.32979145945E+03  0.12699999809E+01 0.  1.
</event>
<event>
 5   0  0.9050363E-04  0.1205022E+04  0.7818609E-02  0.9108472E-01
       -2   -1    0    0    0  501  0.00000000000E+00  0.00000000000E+00  0.25304633796E+03  0.25304633797E+03  0.25500000920E-02 0. -1.
        2   -1    0    0  501    0  0.00000000000E+00  0.00000000000E+00 -0.14345959125E+04  0.14345959125E+04  0.25500000920E-02 0.  1.
    10030    2    1    2    0    0  0.00000000000E+00  0.00000000000E+00 -0.11815495746E+04  0.16876422505E+04  0.12050215635E+04 0.  0.
        3    1    3    3  502    0  0.10976381208E+03  0.42699617707E+03 -0.11659137949E+04  0.12464865892E+04  0.10100000352E+00 0.  1.
       -3    1    3    3    0  502 -0.10976381208E+03 -0.42699617707E+03 -0.15635779627E+02  0.44115566128E+03  0.10100000352E+00 0. -1.
</event>
<event>
 5   0  0.5447074E-04  0.1197666E+04  0.7818609E-02  0.9114902E-01
       -1   -1    0    0    0  501  0.00000000000E+00  0.00000000000E+00  0.37110703720E+03  0.37110703723E+03  0.50400001928E-02 0. -1.
        1   -1    0    0  501    0  0.00000000000E+00  0.00000000000E+00 -0.96629989103E+03  0.96629989104E+03  0.50400001928E-02 0.  1.
    10030    2    1    2    0    0  0.00000000000E+00  0.00000000000E+00 -0.59519285383E+03  0.13374069283E+04  0.11976655454E+04 0.  0.
        4    1    3    3  502    0  0.47628477472E+03  0.35350476265E+03 -0.20560578007E+03  0.62776440927E+03  0.12699999809E+01 0. -1.
       -4    1    3    3    0  502 -0.47628477472E+03 -0.35350476265E+03 -0.38958707376E+03  0.70964251901E+03  0.12699999809E+01 0.  1.
</event>
<event>
 5   0  0.9145224E-04  0.1204875E+04  0.7818609E-02  0.9108600E-01
        2   -1    0    0  501    0  0.00000000000E+00  0.00000000000E+00  0.50682143453E+03  0.50682143454E+03  0.25500000920E-02 0. -1.
       -2   -1    0    0    0  501  0.00000000000E+00  0.00000000000E+00 -0.71609268359E+03  0.71609268359E+03  0.25500000920E-02 0.  1.
    10030    2    1    2    0    0  0.00000000000E+00  0.00000000000E+00 -0.20927124906E+03  0.12229141181E+04  0.12048752984E+04 0.  0.
        5    1    3    3  502    0 -0.14048504731E+03  0.59802662117E+02 -0.69610946322E+03  0.71267305385E+03  0.46999998093E+01 0.  1.
       -5    1    3    3    0  502  0.14048504731E+03 -0.59802662117E+02  0.48683821416E+03  0.51024106428E+03  0.46999998093E+01 0. -1.
</event>
<event>
 5   0  0.9050363E-04  0.1201064E+04  0.7818609E-02  0.9111925E-01
       -2   -1    0    0    0  501  0.00000000000E+00  0.00000000000E+00  0.11137715287E+04  0.11137715287E+04  0.25500000920E-02 0. -1.
        2   -1    0    0  501    0  0.00000000000E+00  0.00000000000E+00 -0.32379970757E+03  0.32379970758E+03  0.25500000920E-02 0.  1.
    10030    2    1    2    0    0  0.00000000000E+00  0.00000000000E+00  0.78997182108E+03  0.14375712362E+04  0.12010643535E+04 0.  0.
        3    1    3    3  502    0 -0.59941706704E+03  0.33808718930E+02  0.41170142589E+03  0.72797110109E+03  0.10100000352E+00 0. -1.
       -3    1    3    3    0  502  0.59941706704E+03 -0.33808718930E+02  0.37827039518E+03  0.70960013515E+03  0.10100000352E+00 0.  1.
</event>
<event>
 5   0  0.9070772E-04  0.1201710E+04  0.7818609E-02  0.9111361E-01
       -2   -1    0    0    0  501  0.00000000000E+00  0.00000000000E+00  0.30791875409E+03  0.30791875410E+03  0.25500000920E-02 0. -1.
        2   -1    0    0  501    0  0.00000000000E+00  0.00000000000E+00 -0.11724740728E+04  0.11724740728E+04  0.25500000920E-02 0.  1.
    10030    2    1    2    0    0  0.00000000000E+00  0.00000000000E+00 -0.86455531871E+03  0.14803928269E+04  0.12017100411E+04 0.  0.
        4    1    3    3  502    0  0.56251915506E+03 -0.17816685450E+03 -0.29261027715E+03  0.65863010488E+03  0.12699999809E+01 0.  1.
       -4    1    3    3    0  502 -0.56251915506E+03  0.17816685450E+03 -0.57194504156E+03  0.82176272204E+03  0.12699999809E+01 0. -1.
</event>
<event>
 5   0  0.9410666E-04  0.1198017E+04  0.7818609E-02  0.9114594E-01
       -2   -1    0    0    0  501  0.00000000000E+00  0.00000000000E+00  0.30969044134E+03  0.30969044135E+03  0.25500000920E-02 0. -1.
        2   -1    0    0  501    0  0.00000000000E+00  0.00000000000E+00 -0.11586124642E+04  0.11586124642E+04  0.25500000920E-02 0.  1.
    10030    2    1    2    0    0  0.00000000000E+00  0.00000000000E+00 -0.84892202289E+03  0.14683029056E+04  0.11980170373E+04 0.  0.
        2    1    3    3  502    0 -0.53047422151E+03 -0.46139898557E+02 -0.88188952500E+02  0.53973056359E+03  0.25500000920E-02 0. -1.
       -2    1    3    3    0  502  0.53047422151E+03  0.46139898557E+02 -0.76073307039E+03  0.92857234200E+03  0.25500000920E-02 0.  1.
</event>
<event>
 5   0  0.9410666E-04  0.1201498E+04  0.7818609E-02  0.9111546E-01
       -2   -1    0    0    0  501  0.00000000000E+00  0.00000000000E+00  0.58297535095E+03  0.58297535095E+03  0.25500000920E-02 0. -1.
        2   -1    0    0  501    0  0.00000000000E+00  0.00000000000E+00 -0.61906447810E+03  0.61906447810E+03  0.25500000920E-02 0.  1.
    10030    2    1    2    0    0  0.00000000000E+00  0.00000000000E+00 -0.36089127152E+02  0.12020398291E+04  0.12014979507E+04 0.  0.
        2    1    3    3  502    0  0.17243387360E+02  0.36040248675E+03  0.46249700047E+03  0.58659250107E+03  0.25500000920E-02 0. -1.
       -2    1    3    3    0  502 -0.17243387360E+02 -0.36040248675E+03 -0.49858612762E+03  0.61544732799E+03  0.25500000920E-02 0.  1.
</event>
<event>
 5   0  0.9410666E-04  0.1208441E+04  0.7818609E-02  0.9105500E-01
        2   -1    0    0  501    0  0.00000000000E+00  0.00000000000E+00  0.14149593990E+04  0.14149593990E+04  0.25500000920E-02 0. -1.
       -2   -1    0    0    0  501  0.00000000000E+00  0.00000000000E+00 -0.25801602723E+03  0.25801602725E+03  0.25500000920E-02 0.  1.
    10030    2    1    2    0    0  0.00000000000E+00  0.00000000000E+00  0.11569433718E+04  0.16729754263E+04  0.12084406528E+04 0.  0.
        2    1    3    3  502    0 -0.30018007373E+03  0.13870930690E+03 -0.12162552442E+03  0.35233665248E+03  0.25500000920E-02 0.  1.
       -2    1    3    3    0  502  0.30018007373E+03 -0.13870930690E+03  0.12785688962E+04  0.13206387738E+04  0.25500000920E-02 0. -1.
</event>
<event>
 5   0  0.9050363E-04  0.1197902E+04  0.7818609E-02  0.9114695E-01
       -2   -1    0    0    0  501  0.00000000000E+00  0.00000000000E+00  0.14074807565E+03  0.14074807568E+03  0.25500000920E-02 0.  1.
        2   -1    0    0  501    0  0.00000000000E+00  0.00000000000E+00 -0.25488257644E+04  0.25488257644E+04  0.25500000920E-02 0. -1.
    10030    2    1    2    0    0  0.00000000000E+00  0.00000000000E+00 -0.24080776888E+04  0.26895738401E+04  0.11979020353E+04 0.  0.
        3    1    3    3  502    0  0.52437216069E+03  0.22759279373E+03 -0.16055388618E+04  0.17042651466E+04  0.10100000352E+00 0. -1.
       -3    1    3    3    0  502 -0.52437216069E+03 -0.22759279373E+03 -0.80253882694E+03  0.98530869356E+03  0.10100000352E+00 0.  1.
</event>
<event>
 5   0  0.9070772E-04  0.1200830E+04  0.7818609E-02  0.9112130E-01
        2   -1    0    0  501    0  0.00000000000E+00  0.00000000000E+00  0.11106165180E+04  0.11106165180E+04  0.25500000920E-02 0.  1.
       -2   -1    0    0    0  501  0.00000000000E+00  0.00000000000E+00 -0.32459282883E+03  0.32459282884E+03  0.25500000920E-02 0. -1.
    10030    2    1    2    0    0  0.00000000000E+00  0.00000000000E+00  0.78602368920E+03  0.14352093469E+04  0.12008299752E+04 0.  0.
        4    1    3    3  502    0  0.24229144145E+03  0.54886466780E+03  0.36526463160E+03  0.70240830730E+03  0.12699999809E+01 0.  1.
       -4    1    3    3    0  502 -0.24229144145E+03 -0.54886466780E+03  0.42075905760E+03  0.73280103958E+03  0.12699999809E+01 0. -1.
</event>
<event>
 5   0  0.9298693E-04  0.1205458E+04  0.7818609E-02  0.9108093E-01
        2   -1    0    0  501    0  0.00000000000E+00  0.00000000000E+00  0.28551523079E+03  0.28551523080E+03  0.25500000920E-02 0. -1.
       -2   -1    0    0    0  501  0.00000000000E+00  0.00000000000E+00 -0.12723743263E+04  0.12723743263E+04  0.25500000920E-02 0.  1.
    10030    2    1    2    0    0  0.00000000000E+00  0.00000000000E+00 -0.98685909549E+03  0.15578895571E+04  0.12054580033E+04 0.  0.
        1    1    3    3  502    0 -0.26888304570E+03  0.17758351235E+03  0.16484938605E+03  0.36195209108E+03  0.50400001928E-02 0. -1.
       -1    1    3    3    0  502  0.26888304570E+03 -0.17758351235E+03 -0.11517084815E+04  0.11959374660E+04  0.50400001928E-02 0.  1.
</event>
<event>
 5   0  0.5001586E-04  0.1205937E+04  0.7818609E-02  0.9107676E-01
        1   -1    0    0  501    0  0.00000000000E+00  0.00000000000E+00  0.14143982453E+04  0.14143982454E+04  0.50400001928E-02 0.  1.
       -1   -1    0    0    0  501  0.00000000000E+00  0.00000000000E+00 -0.25704998871E+03  0.25704998876E+03  0.50400001928E-02 0. -1.
    10030    2    1    2    0    0  0.00000000000E+00  0.00000000000E+00  0.11573482566E+04  0.16714482341E+04  0.12059370681E+04 0.  0.
        1    1    3    3  502    0  0.20773352937E+02  0.43881037009E+03  0.11511256055E+04  0.12321023630E+04  0.50400001928E-02 0.  1.
       -1    1    3    3    0  502 -0.20773352937E+02 -0.43881037009E+03  0.62226511121E+01  0.43934587116E+03  0.50400001928E-02 0. -1.
</event>
<event>
 5   0  0.5003507E-04  0.1133162E+04  0.7818609E-02  0.9173459E-01
       -1   -1    0    0    0  501  0.00000000000E+00  0.00000000000E+00  0.36952421445E+03  0.36952421449E+03  0.50400001928E-02 0. -1.
        1   -1    0    0  501    0  0.00000000000E+00  0.00000000000E+00 -0.86872324198E+03  0.86872324200E+03  0.50400001928E-02 0.  1.
    10030    2    1    2    0    0  0.00000000000E+00  0.00000000000E+00 -0.49919902753E+03  0.12382474565E+04  0.11331624307E+04 0.  0.
        3    1    3    3  502    0 -0.42868282701E+03  0.30338956434E+03 -0.17280460936E+02  0.52546438362E+03  0.10100000352E+00 0. -1.
       -3    1    3    3    0  502  0.42868282701E+03 -0.30338956434E+03 -0.48191856659E+03  0.71278307286E+03  0.10100000352E+00 0.  1.
</event>
<event>
 5   0  0.5001586E-04  0.1200948E+04  0.7818609E-02  0.9112027E-01
        1   -1    0    0  501    0  0.00000000000E+00  0.00000000000E+00  0.11289267006E+04  0.11289267007E+04  0.50400001928E-02 0. -1.
       -1   -1    0    0    0  501  0.00000000000E+00  0.00000000000E+00 -0.31939101847E+03  0.31939101851E+03  0.50400001928E-02 0.  1.
    10030    2    1    2    0    0  0.00000000000E+00  0.00000000000E+00  0.80953568218E+03  0.14483177192E+04  0.12009480401E+04 0.  0.
        1    1    3    3  502    0  0.38966460931E+03  0.31665922076E+03  0.76042958570E+01  0.50216470922E+03  0.50400001928E-02 0.  1.
       -1    1    3    3    0  502 -0.38966460931E+03 -0.31665922076E+03  0.80193138632E+03  0.94615300995E+03  0.50400001928E-02 0. -1.
</event>
<event>
 5   0  0.9070772E-04  0.1216664E+04  0.7818609E-02  0.9098394E-01
       -2   -1    0    0    0  501  0.00000000000E+00  0.00000000000E+00  0.37590507134E+03  0.37590507135E+03  0.25500000920E-02 0.  1.
        2   -1    0    0  501    0  0.00000000000E+00  0.00000000000E+00 -0.98447175865E+03  0.98447175865E+03  0.25500000920E-02 0. -1.
    10030    2    1    2    0    0  0.00000000000E+00  0.00000000000E+00 -0.60856668730E+03  0.13603768300E+04  0.12166641717E+04 0.  0.
        4    1    3    3  502    0  0.58757570936E+02 -0.26566505978E+03 -0.91264344734E+03  0.95233925205E+03  0.12699999809E+01 0. -1.
       -4    1    3    3    0  502 -0.58757570936E+02  0.26566505978E+03  0.30407676003E+03  0.40803757795E+03  0.12699999809E+01 0.  1.
</event>
<event>
 5   0  0.9410666E-04  0.1172670E+04  0.7818609E-02  0.9137121E-01
       -2   -1    0    0    0  501  0.00000000000E+00  0.00000000000E+00  0.34857199120E+03  0.34857199121E+03  0.25500000920E-02 0.  1.
        2   -1    0    0  501    0  0.00000000000E+00  0.00000000000E+00 -0.98627717194E+03  0.98627717194E+03  0.25500000920E-02 0. -1.
    10030    2    1    2    0    0  0.00000000000E+00  0.00000000000E+00 -0.63770518073E+03  0.13348491632E+04  0.11726697706E+04 0.  0.
        2    1    3    3  502    0 -0.63763863678E+02 -0.51881948237E+03 -0.62119720670E+03  0.81186541693E+03  0.25500000920E-02 0. -1.
       -2    1    3    3    0  502  0.63763863678E+02  0.51881948237E+03 -0.16507974035E+02  0.52298374622E+03  0.25500000920E-02 0.  1.
</event>
<event>
 5   0  0.9410666E-04  0.1195284E+04  0.7818609E-02  0.9116994E-01
       -2   -1    0    0    0  501  0.00000000000E+00  0.00000000000E+00  0.40952459215E+03  0.40952459216E+03  0.25500000920E-02 0. -1.
        2   -1    0    0  501    0  0.00000000000E+00  0.00000000000E+00 -0.87217245436E+03  0.87217245437E+03  0.25500000920E-02 0.  1.
    10030    2    1    2    0    0  0.00000000000E+00  0.00000000000E+00 -0.46264786221E+03  0.12816970465E+04  0.11952841816E+04 0.  0.
        2    1    3    3  502    0 -0.34764823576E+03  0.39603440520E+03  0.70967226315E+02  0.53173197492E+03  0.25500000920E-02 0. -1.
       -2    1    3    3    0  502  0.34764823576E+03 -0.39603440520E+03 -0.53361508853E+03  0.74996507161E+03  0.25500000920E-02 0.  1.
</event>
<event>
 5   0  0.9298693E-04  0.1202864E+04  0.7818609E-02  0.9110353E-01
        2   -1    0    0  501    0  0.00000000000E+00  0.00000000000E+00  0.76754911228E+03  0.76754911228E+03  0.25500000920E-02 0.  1.
       -2   -1    0    0    0  501  0.00000000000E+00  0.00000000000E+00 -0.47126682412E+03  0.47126682412E+03  0.25500000920E-02 0. -1.
    10030    2    1    2    0    0  0.00000000000E+00  0.00000000000E+00  0.29628228816E+03  0.12388159364E+04  0.12028639699E+04 0.  0.
        1    1    3    3  502    0  0.51384409301E+03 -0.28460521901E+03  0.28117050796E+03  0.65122402995E+03  0.50400001928E-02 0.  1.
       -1    1    3    3    0  502 -0.51384409301E+03  0.28460521901E+03  0.15111780196E+02  0.58759190646E+03  0.50400001928E-02 0. -1.
</event>
<event>
 5   0  0.9145224E-04  0.1206310E+04  0.7818609E-02  0.9107351E-01
       -2   -1    0    0    0  501  0.00000000000E+00  0.00000000000E+00  0.23676605007E+03  0.23676605009E+03  0.25500000920E-02 0. -1.
        2   -1    0    0  501    0  0.00000000000E+00  0.00000000000E+00 -0.15365207332E+04  0.15365207332E+04  0.25500000920E-02 0.  1.
    10030    2    1    2    0    0  0.00000000000E+00  0.00000000000E+00 -0.12997546831E+04  0.17732867833E+04  0.12063099848E+04 0.  0.
        5    1    3    3  502    0  0.48941358611E+03  0.14557398590E+03 -0.17796910005E+03  0.54075182312E+03  0.46999998093E+01 0. -1.
       -5    1    3    3    0  502 -0.48941358611E+03 -0.14557398590E+03 -0.11217855831E+04  0.12325349602E+04  0.46999998093E+01 0.  1.
</event>
<event>
 5   0  0.5052959E-04  0.1196295E+04  0.7818609E-02  0.9116105E-01
        1   -1    0    0  501    0  0.00000000000E+00  0.00000000000E+00  0.78814856000E+03  0.78814856001E+03  0.50400001928E-02 0.  1.
       -1   -1    0    0    0  501  0.00000000000E+00  0.00000000000E+00 -0.45395070199E+03  0.45395070201E+03  0.50400001928E-02 0. -1.
    10030    2    1    2    0    0  0.00000000000E+00  0.00000000000E+00  0.33419785801E+03  0.12420992620E+04  0.11962952681E+04 0.  0.
        2    1    3    3  502    0  0.83740347617E+02 -0.20589410704E+03 -0.40947903117E+03  0.46591620073E+03  0.25500000920E-02 0. -1.
       -2    1    3    3    0  502 -0.83740347617E+02  0.20589410704E+03  0.74367688918E+03  0.77618306129E+03  0.25500000920E-02 0.  1.
</event>
<event>
 5   0  0.5003507E-04  0.1215878E+04  0.7818609E-02  0.9099071E-01
        1   -1    0    0  501    0  0.00000000000E+00  0.00000000000E+00  0.10242334262E+04  0.10242334263E+04  0.50400001928E-02 0. -1.
       -1   -1    0    0    0  501  0.00000000000E+00  0.00000000000E+00 -0.36084558908E+03  0.36084558911E+03  0.50400001928E-02 0.  1.
    10030    2    1    2    0    0  0.00000000000E+00  0.00000000000E+00  0.66338783717E+03  0.13850790154E+04  0.12158784710E+04 0.  0.
        3    1    3    3  502    0  0.39566737297E+02  0.40714670944E+03  0.84400674826E+03  0.93791330677E+03  0.10100000352E+00 0. -1.
       -3    1    3    3    0  502 -0.39566737297E+02 -0.40714670944E+03 -0.18061891109E+03  0.44716570860E+03  0.10100000352E+00 0.  1.
</event>
<event>
 5   0  0.5001586E-04  0.1225650E+04  0.7818609E-02  0.9090697E-01
        1   -1    0    0  501    0  0.00000000000E+00  0.00000000000E+00  0.43721249918E+03  0.43721249921E+03  0.50400001928E-02 0. -1.
       -1   -1    0    0    0  501  0.00000000000E+00  0.00000000000E+00 -0.85897490720E+03  0.85897490721E+03  0.50400001928E-02 0.  1.
    10030    2    1    2    0    0  0.00000000000E+00  0.00000000000E+00 -0.42176240802E+03  0.12961874064E+04  0.12256501392E+04 0.  0.
        1    1    3    3  502    0 -0.42648270225E+03  0.42646850656E+03 -0.96042261219E+02  0.61072661508E+03  0.50400001928E-02 0. -1.
       -1    1    3    3    0  502  0.42648270225E+03 -0.42646850656E+03 -0.32572014680E+03  0.68546079134E+03  0.50400001928E-02 0.  1.
</event>
<event>
 5   0  0.5052959E-04  0.1203148E+04  0.7818609E-02  0.9110105E-01
        1   -1    0    0  501    0  0.00000000000E+00  0.00000000000E+00  0.75995622941E+03  0.75995622943E+03  0.50400001928E-02 0. -1.
       -1   -1    0    0    0  501  0.00000000000E+00  0.00000000000E+00 -0.47620021050E+03  0.47620021053E+03  0.50400001928E-02 0.  1.
    10030    2    1    2    0    0  0.00000000000E+00  0.00000000000E+00  0.28375601891E+03  0.12361564400E+04  0.12031480648E+04 0.  0.
        2    1    3    3  502    0  0.12249581524E+03 -0.58894863911E+03  0.13668034867E+03  0.61688511247E+03  0.25500000920E-02 0. -1.
       -2    1    3    3    0  502 -0.12249581524E+03  0.58894863911E+03  0.14707567025E+03  0.61927132749E+03  0.25500000920E-02 0.  1.
</event>
<event>
 5   0  0.9050363E-04  0.1239446E+04  0.7818609E-02  0.9079014E-01
       -2   -1    0    0    0  501  0.00000000000E+00  0.00000000000E+00  0.21598817362E+03  0.21598817364E+03  0.25500000920E-02 0.  1.
        2   -1    0    0  501    0  0.00000000000E+00  0.00000000000E+00 -0.17781363562E+04  0.17781363562E+04  0.25500000920E-02 0. -1.
    10030    2    1    2    0    0  0.00000000000E+00  0.00000000000E+00 -0.15621481826E+04  0.19941245299E+04  0.12394457214E+04 0.  0.
        3    1    3    3  502    0 -0.82095189664E+02  0.59269231980E+03 -0.52148669624E+03  0.79370787490E+03  0.10100000352E+00 0.  1.
       -3    1    3    3    0  502  0.82095189664E+02 -0.59269231980E+03 -0.10406614864E+04  0.12004166550E+04  0.10100000352E+00 0. -1.
</event>
<event>
 5   0  0.5052959E-04  0.1171032E+04  0.7818609E-02  0.9138597E-01
        1   -1    0    0  501    0  0.00000000000E+00  0.00000000000E+00  0.87759582962E+03  0.87759582963E+03  0.50400001928E-02 0.  1.
       -1   -1    0    0    0  501  0.00000000000E+00  0.00000000000E+00 -0.39064552116E+03  0.39064552119E+03  0.50400001928E-02 0. -1.
    10030    2    1    2    0    0  0.00000000000E+00  0.00000000000E+00  0.48695030846E+03  0.12682413508E+04  0.11710318190E+04 0.  0.
        2    1    3    3  502    0  0.54121053261E+03  0.10407520638E+03  0.45759509308E+03  0.71633355248E+03  0.25500000920E-02 0. -1.
       -2    1    3    3    0  502 -0.54121053261E+03 -0.10407520638E+03  0.29355215382E+02  0.55190779834E+03  0.25500000920E-02 0.  1.
</event>
<event>
 5   0  0.9145224E-04  0.1173707E+04  0.7818609E-02  0.9136187E-01
        2   -1    0    0  501    0  0.00000000000E+00  0.00000000000E+00  0.86990790949E+03  0.86990790950E+03  0.25500000920E-02 0. -1.
       -2   -1    0    0    0  501  0.00000000000E+00  0.00000000000E+00 -0.39590035618E+03  0.39590035619E+03  0.25500000920E-02 0.  1.
    10030    2    1    2    0    0  0.00000000000E+00  0.00000000000E+00  0.47400755331E+03  0.12658082657E+04  0.11737066946E+04 0.  0.
        5    1    3    3  502    0 -0.47944242411E+03 -0.22014551892E+03  0.51416376397E+03  0.73669230600E+03  0.46999998093E+01 0.  1.
       -5    1    3    3    0  502  0.47944242411E+03  0.22014551892E+03 -0.40156210657E+02  0.52911595968E+03  0.46999998093E+01 0. -1.
</event>
<event>
 5   0  0.9298693E-04  0.1194243E+04  0.7818609E-02  0.9117910E-01
        2   -1    0    0  501    0  0.00000000000E+00  0.00000000000E+00  0.71263355811E+03  0.71263355812E+03  0.25500000920E-02 0.  1.
       -2   -1    0    0    0  501  0.00000000000E+00  0.00000000000E+00 -0.50033329361E+03  0.50033329362E+03  0.25500000920E-02 0. -1.
    10030    2    1    2    0    0  0.00000000000E+00  0.00000000000E+00  0.21230026450E+03  0.12129668517E+04  0.11942433509E+04 0.  0.
        1    1    3    3  502    0 -0.12978395643E+03  0.25974707131E+03 -0.42379824571E+03  0.51372888715E+03  0.50400001928E-02 0. -1.
       -1    1    3    3    0  502  0.12978395643E+03 -0.25974707131E+03  0.63609851021E+03  0.69923796459E+03  0.50400001928E-02 0.  1.
</event>
<event>
 5   0  0.5157631E-04  0.1198033E+04  0.7818609E-02  0.9114580E-01
       -1   -1    0    0    0  501  0.00000000000E+00  0.00000000000E+00  0.69235496776E+03  0.69235496778E+03  0.50400001928E-02 0.  1.
        1   -1    0    0  501    0  0.00000000000E+00  0.00000000000E+00 -0.51826125880E+03  0.51826125882E+03  0.50400001928E-02 0. -1.
    10030    2    1    2    0    0  0.00000000000E+00  0.00000000000E+00  0.17409370896E+03  0.12106162266E+04  0.11980329831E+04 0.  0.
        5    1    3    3  502    0  0.30883171749E+03 -0.40745381462E+03 -0.22832573306E+03  0.55995568677E+03  0.46999998093E+01 0. -1.
       -5    1    3    3    0  502 -0.30883171749E+03  0.40745381462E+03  0.40241944203E+03  0.65066053983E+03  0.46999998093E+01 0.  1.
</event>
<event>
 5   0  0.5003507E-04  0.1198962E+04  0.7818609E-02  0.9113766E-01
       -1   -1    0    0    0  501  0.00000000000E+00  0.00000000000E+00  0.53322714852E+03  0.53322714855E+03  0.50400001928E-02 0. -1.
        1   -1    0    0  501    0  0.00000000000E+00  0.00000000000E+00 -0.67396638318E+03  0.67396638320E+03  0.50400001928E-02 0.  1.
    10030    2    1    2    0    0  0.00000000000E+00  0.00000000000E+00 -0.14073923466E+03  0.12071935318E+04  0.11989615052E+04 0.  0.
        3    1    3    3  502    0  0.28324832396E+03 -0.26330478147E+03  0.39083450268E+03  0.54982782729E+03  0.10100000352E+00 0. -1.
       -3    1    3    3    0  502 -0.28324832396E+03  0.26330478147E+03 -0.53157373734E+03  0.65736570446E+03  0.10100000352E+00 0.  1.
</event>
<event>
 5   0  0.5001586E-04  0.1200958E+04  0.7818609E-02  0.9112019E-01
       -1   -1    0    0    0  501  0.00000000000E+00  0.00000000000E+00  0.35161659512E+03  0.35161659515E+03  0.50400001928E-02 0.  1.
        1   -1    0    0  501    0  0.00000000000E+00  0.00000000000E+00 -0.10254776549E+04  0.10254776549E+04  0.50400001928E-02 0. -1.
    10030    2    1    2    0    0  0.00000000000E+00  0.00000000000E+00 -0.67386105977E+03  0.13770942501E+04  0.12009578867E+04 0.  0.
        1    1    3    3  502    0 -0.55305219216E+02  0.10230268257E+03  0.33858011264E+03  0.35799580841E+03  0.50400001928E-02 0.  1.
       -1    1    3    3    0  502  0.55305219216E+02 -0.10230268257E+03 -0.10124411724E+04  0.10190984416E+04  0.50400001928E-02 0. -1.
</event>
<event>
 5   0  0.5157631E-04  0.1197427E+04  0.7818609E-02  0.9115112E-01
        1   -1    0    0  501    0  0.00000000000E+00  0.00000000000E+00  0.83181451815E+03  0.83181451816E+03  0.50400001928E-02 0.  1.
       -1   -1    0    0    0  501  0.00000000000E+00  0.00000000000E+00 -0.43093472367E+03  0.43093472369E+03  0.50400001928E-02 0. -1.
    10030    2    1    2    0    0  0.00000000000E+00  0.00000000000E+00  0.40087979448E+03  0.12627492419E+04  0.11974268404E+04 0.  0.
        5    1    3    3  502    0 -0.43356182299E+03  0.37747533647E+03  0.24067211589E+02  0.57538231174E+03  0.46999998093E+01 0.  1.
       -5    1    3    3    0  502  0.43356182299E+03 -0.37747533647E+03  0.37681258289E+03  0.68736693012E+03  0.46999998093E+01 0. -1.
</event>
<event>
 5   0  0.9410666E-04  0.1198753E+04  0.7818609E-02  0.9113949E-01
        2   -1    0    0  501    0  0.00000000000E+00  0.00000000000E+00  0.49941479335E+03  0.49941479336E+03  0.25500000920E-02 0. -1.
       -2   -1    0    0    0  501  0.00000000000E+00  0.00000000000E+00 -0.71934618101E+03  0.71934618101E+03  0.25500000920E-02 0.  1.
    10030    2    1    2    0    0  0.00000000000E+00  0.00000000000E+00 -0.21993138766E+03  0.12187609744E+04  0.11987528925E+04 0.  0.
        2    1    3    3  502    0  0.25394071123E+03  0.32176601613E+03 -0.55456639484E+03  0.68961086146E+03  0.25500000920E-02 0.  1.
       -2    1    3    3    0  502 -0.25394071123E+03 -0.32176601613E+03  0.33463500718E+03  0.52915011291E+03  0.25500000920E-02 0. -1.
</event>
<event>
 5   0  0.5052959E-04  0.1199548E+04  0.7818609E-02  0.9113253E-01
        1   -1    0    0  501    0  0.00000000000E+00  0.00000000000E+00  0.39259934491E+03  0.39259934494E+03  0.50400001928E-02 0.  1.
       -1   -1    0    0    0  501  0.00000000000E+00  0.00000000000E+00 -0.91627420008E+03  0.91627420010E+03  0.50400001928E-02 0. -1.
    10030    2    1    2    0    0  0.00000000000E+00  0.00000000000E+00 -0.52367485518E+03  0.13088735450E+04  0.11995476660E+04 0.  0.
        2    1    3    3  502    0 -0.28774462731E+03 -0.12551398833E+03  0.29579549728E+03  0.43133016128E+03  0.25500000920E-02 0.  1.
       -2    1    3    3    0  502  0.28774462731E+03  0.12551398833E+03 -0.81947035246E+03  0.87754338376E+03  0.25500000920E-02 0. -1.
</event>
<event>
 5   0  0.9145224E-04  0.1198629E+04  0.7818609E-02  0.9114057E-01
       -2   -1    0    0    0  501  0.00000000000E+00  0.00000000000E+00  0.39544391268E+03  0.39544391269E+03  0.25500000920E-02 0.  1.
        2   -1    0    0  501    0  0.00000000000E+00  0.00000000000E+00 -0.90829035956E+03  0.90829035956E+03  0.25500000920E-02 0. -1.
    10030    2    1    2    0    0  0.00000000000E+00  0.00000000000E+00 -0.51284644688E+03  0.13037342722E+04  0.11986290396E+04 0.  0.
        5    1    3    3  502    0  0.42155521685E+03 -0.28565522399E+03  0.87272541260E+02  0.51666845685E+03  0.46999998093E+01 0.  1.
       -5    1    3    3    0  502 -0.42155521685E+03  0.28565522399E+03 -0.60011898814E+03  0.78706581540E+03  0.46999998093E+01 0. -1.
</event>
<event>
 5   0  0.5001586E-04  0.1200095E+04  0.7818609E-02  0.9112774E-01
       -1   -1    0    0    0  501  0.00000000000E+00  0.00000000000E+00  0.25280593967E+03  0.25280593972E+03  0.50400001928E-02 0. -1.
        1   -1    0    0  501    0  0.00000000000E+00  0.00000000000E+00 -0.14242415448E+04  0.14242415448E+04  0.50400001928E-02 0.  1.
    10030    2    1    2    0    0  0.00000000000E+00  0.00000000000E+00 -0.11714356052E+04  0.16770474845E+04  0.12000945331E+04 0.  0.
        1    1    3    3  502    0  0.27236172527E+03  0.36202098746E+02  0.15973613342E+03  0.31781619482E+03  0.50400001928E-02 0. -1.
       -1    1    3    3    0  502 -0.27236172527E+03 -0.36202098746E+02 -0.13311717386E+04  0.13592312897E+04  0.50400001928E-02 0.  1.
</event>
<event>
 5   0  0.9145224E-04  0.1196498E+04  0.7818609E-02  0.9115928E-01
       -2   -1    0    0    0  501  0.00000000000E+00  0.00000000000E+00  0.68195374150E+03  0.68195374151E+03  0.25500000920E-02 0.  1.
        2   -1    0    0  501    0  0.00000000000E+00  0.00000000000E+00 -0.52481823115E+03  0.52481823115E+03  0.25500000920E-02 0. -1.
    10030    2    1    2    0    0  0.00000000000E+00  0.00000000000E+00  0.15713551036E+03  0.12067719727E+04  0.11964978167E+04 0.  0.
        5    1    3    3  502    0 -0.58258289921E+03 -0.87019516877E+02 -0.26753226903E+02  0.58967199011E+03  0.46999998093E+01 0. -1.
       -5    1    3    3    0  502  0.58258289921E+03  0.87019516877E+02  0.18388873726E+03  0.61709998255E+03  0.46999998093E+01 0.  1.
</event>
<event>
 5   0  0.9145224E-04  0.1216006E+04  0.7818609E-02  0.9098961E-01
       -2   -1    0    0    0  501  0.00000000000E+00  0.00000000000E+00  0.27102126598E+03  0.27102126600E+03  0.25500000920E-02 0. -1.
        2   -1    0    0  501    0  0.00000000000E+00  0.00000000000E+00 -0.13639802786E+04  0.13639802786E+04  0.25500000920E-02 0.  1.
    10030    2    1    2    0    0  0.00000000000E+00  0.00000000000E+00 -0.10929590126E+04  0.16350015446E+04  0.12160060228E+04 0.  0.
        5    1    3    3  502    0  0.51468420247E+03 -0.25688185412E+03 -0.81118324556E+03  0.99444882378E+03  0.46999998093E+01 0.  1.
       -5    1    3    3    0  502 -0.51468420247E+03  0.25688185412E+03 -0.28177576705E+03  0.64055272081E+03  0.46999998093E+01 0. -1.
</event>
<event>
 5   0  0.9145224E-04  0.1200437E+04  0.7818609E-02  0.9112474E-01
       -2   -1    0    0    0  501  0.00000000000E+00  0.00000000000E+00  0.41656686887E+03  0.41656686888E+03  0.25500000920E-02 0. -1.
        2   -1    0    0  501    0  0.00000000000E+00  0.00000000000E+00 -0.86483688294E+03  0.86483688294E+03  0.25500000920E-02 0.  1.
    10030    2    1    2    0    0  0.00000000000E+00  0.00000000000E+00 -0.44827001406E+03  0.12814037518E+04  0.12004372410E+04 0.  0.
        5    1    3    3  502    0  0.39401517879E+03 -0.20664196234E+03 -0.65416063527E+03  0.79113658015E+03  0.46999998093E+01 0.  1.
       -5    1    3    3    0  502 -0.39401517879E+03  0.20664196234E+03  0.20589062121E+03  0.49026717167E+03  0.46999998093E+01 0. -1.
</event>
<event>
 5   0  0.9050363E-04  0.1201636E+04  0.7818609E-02  0.9111426E-01
        2   -1    0    0  501    0  0.00000000000E+00  0.00000000000E+00  0.67415927810E+03  0.67415927810E+03  0.25500000920E-02 0.  1.
       -2   -1    0    0    0  501  0.00000000000E+00  0.00000000000E+00 -0.53545538380E+03  0.53545538380E+03  0.25500000920E-02 0. -1.
    10030    2    1    2    0    0  0.00000000000E+00  0.00000000000E+00  0.13870389430E+03  0.12096146619E+04  0.12016359099E+04 0.  0.
        3    1    3    3  502    0 -0.29675666941E+03  0.20662488321E+02  0.59482448327E+03  0.66506212895E+03  0.10100000352E+00 0.  1.
       -3    1    3    3    0  502  0.29675666941E+03 -0.20662488321E+02 -0.45612058897E+03  0.54455253296E+03  0.10100000352E+00 0. -1.
</event>
<event>
 5   0  0.5001586E-04  0.1200430E+04  0.7818609E-02  0.9112480E-01
        1   -1    0    0  501    0  0.00000000000E+00  0.00000000000E+00  0.50728739329E+03  0.50728739331E+03  0.50400001928E-02 0.  1.
       -1   -1    0    0    0  501  0.00000000000E+00  0.00000000000E+00 -0.71016547639E+03  0.71016547641E+03  0.50400001928E-02 0. -1.
    10030    2    1    2    0    0  0.00000000000E+00  0.00000000000E+00 -0.20287808310E+03  0.12174528697E+04  0.12004299119E+04 0.  0.
        1    1    3    3  502    0 -0.15030279777E+03 -0.27304598386E+03  0.41878026238E+03  0.52203634788E+03  0.50400001928E-02 0.  1.
       -1    1    3    3    0  502  0.15030279777E+03  0.27304598386E+03 -0.62165834548E+03  0.69541652184E+03  0.50400001928E-02 0. -1.
</event>
<event>
 5   0  0.5447074E-04  0.1193721E+04  0.7818609E-02  0.9118370E-01
        1   -1    0    0  501    0  0.00000000000E+00  0.00000000000E+00  0.10309578581E+04  0.10309578581E+04  0.50400001928E-02 0. -1.
       -1   -1    0    0    0  501  0.00000000000E+00  0.00000000000E+00 -0.34554535721E+03  0.34554535724E+03  0.50400001928E-02 0.  1.
    10030    2    1    2    0    0  0.00000000000E+00  0.00000000000E+00  0.68541250088E+03  0.13765032153E+04  0.11937214103E+04 0.  0.
        4    1    3    3  502    0 -0.26018915825E+02  0.26079614525E+03  0.96105079916E+03  0.99614851545E+03  0.12699999809E+01 0. -1.
       -4    1    3    3    0  502  0.26018915825E+02 -0.26079614525E+03 -0.27563829828E+03  0.38035469990E+03  0.12699999809E+01 0.  1.
</event>
<event>
 5   0  0.5157631E-04  0.1201743E+04  0.7818609E-02  0.9111332E-01
       -1   -1    0    0    0  501  0.00000000000E+00  0.00000000000E+00  0.32635061508E+03  0.32635061512E+03  0.50400001928E-02 0.  1.
        1   -1    0    0  501    0  0.00000000000E+00  0.00000000000E+00 -0.11063148340E+04  0.11063148340E+04  0.50400001928E-02 0. -1.
    10030    2    1    2    0    0  0.00000000000E+00  0.00000000000E+00 -0.77996421895E+03  0.14326654492E+04  0.12017429452E+04 0.  0.
        5    1    3    3  502    0  0.56842281924E+03 -0.29855684738E+02 -0.16057773489E+03  0.59144159668E+03  0.46999998093E+01 0.  1.
       -5    1    3    3    0  502 -0.56842281924E+03  0.29855684738E+02 -0.61938648405E+03  0.84122385247E+03  0.46999998093E+01 0. -1.
</event>
<event>
 5   0  0.9410666E-04  0.1195232E+04  0.7818609E-02  0.9117040E-01
       -2   -1    0    0    0  501  0.00000000000E+00  0.00000000000E+00  0.78602556872E+03  0.78602556872E+03  0.25500000920E-02 0. -1.
        2   -1    0    0  501    0  0.00000000000E+00  0.00000000000E+00 -0.45436811584E+03  0.45436811585E+03  0.25500000920E-02 0.  1.
    10030    2    1    2    0    0  0.00000000000E+00  0.00000000000E+00  0.33165745288E+03  0.12403936846E+04  0.11952321225E+04 0.  0.
        2    1    3    3  502    0  0.58279285252E+03  0.13205187767E+03  0.17385056191E+03  0.62234172705E+03  0.25500000920E-02 0. -1.
       -2    1    3    3    0  502 -0.58279285252E+03 -0.13205187767E+03  0.15780689097E+03  0.61805195752E+03  0.25500000920E-02 0.  1.
</event>
<event>
 5   0  0.5003507E-04  0.1196783E+04  0.7818609E-02  0.9115677E-01
       -1   -1    0    0    0  501  0.00000000000E+00  0.00000000000E+00  0.39824449336E+03  0.39824449339E+03  0.50400001928E-02 0. -1.
        1   -1    0    0  501    0  0.00000000000E+00  0.00000000000E+00 -0.89912680133E+03  0.89912680134E+03  0.50400001928E-02 0.  1.
    10030    2    1    2    0    0  0.00000000000E+00  0.00000000000E+00 -0.50088230797E+03  0.12973712947E+04  0.11967828500E+04 0.  0.
        3    1    3    3  502    0  0.23833853525E+03  0.28626146786E+03 -0.75812042855E+03  0.84468780017E+03  0.10100000352E+00 0.  1.
       -3    1    3    3    0  502 -0.23833853525E+03 -0.28626146786E+03  0.25723812059E+03  0.45268349456E+03  0.10100000352E+00 0. -1.
</event>
<event>
 5   0  0.5447074E-04  0.1238803E+04  0.7818609E-02  0.9079554E-01
       -1   -1    0    0    0  501  0.00000000000E+00  0.00000000000E+00  0.13314060410E+04  0.13314060410E+04  0.50400001928E-02 0. -1.
        1   -1    0    0  501    0  0.00000000000E+00  0.00000000000E+00 -0.28816020472E+03  0.28816020477E+03  0.50400001928E-02 0.  1.
    10030    2    1    2    0    0  0.00000000000E+00  0.00000000000E+00  0.10432458363E+04  0.16195662458E+04  0.12388030310E+04 0.  0.
        4    1    3    3  502    0  0.26657096432E+03 -0.97076601388E+02  0.12414720550E+04  0.12734749396E+04  0.12699999809E+01 0. -1.
       -4    1    3    3    0  502 -0.26657096432E+03  0.97076601388E+02 -0.19822621869E+03  0.34609130621E+03  0.12699999809E+01 0.  1.
</event>
<event>
 5   0  0.9070772E-04  0.1200234E+04  0.7818609E-02  0.9112652E-01
       -2   -1    0    0    0  501  0.00000000000E+00  0.00000000000E+00  0.53024476904E+03  0.53024476904E+03  0.25500000920E-02 0.  1.
        2   -1    0    0  501    0  0.00000000000E+00  0.00000000000E+00 -0.67919617625E+03  0.67919617626E+03  0.25500000920E-02 0. -1.
    10030    2    1    2    0    0  0.00000000000E+00  0.00000000000E+00 -0.14895140722E+03  0.12094409453E+04  0.12002336766E+04 0.  0.
        4    1    3    3  502    0  0.28144540667E+03  0.28857333620E+03 -0.52246747444E+03  0.65989390211E+03  0.12699999809E+01 0. -1.
       -4    1    3    3    0  502 -0.28144540667E+03 -0.28857333620E+03  0.37351606722E+03  0.54954704319E+03  0.12699999809E+01 0.  1.
</event>
<event>
 5   0  0.5447074E-04  0.1197639E+04  0.7818609E-02  0.9114926E-01
        1   -1    0    0  501    0  0.00000000000E+00  0.00000000000E+00  0.52046798578E+03  0.52046798581E+03  0.50400001928E-02 0. -1.
       -1   -1    0    0    0  501  0.00000000000E+00  0.00000000000E+00 -0.68896608676E+03  0.68896608677E+03  0.50400001928E-02 0.  1.
    10030    2    1    2    0    0  0.00000000000E+00  0.00000000000E+00 -0.16849810098E+03  0.12094340726E+04  0.11976389965E+04 0.  0.
        4    1    3    3  502    0 -0.42758711461E+03  0.24743056199E+03  0.25750758338E+03  0.55710357384E+03  0.12699999809E+01 0. -1.
       -4    1    3    3    0  502  0.42758711461E+03 -0.24743056199E+03 -0.42600568435E+03  0.65233049874E+03  0.12699999809E+01 0.  1.
</event>
<event>
 5   0  0.5447074E-04  0.1201027E+04  0.7818609E-02  0.9111958E-01
        1   -1    0    0  501    0  0.00000000000E+00  0.00000000000E+00  0.80223854615E+03  0.80223854616E+03  0.50400001928E-02 0.  1.
       -1   -1    0    0    0  501  0.00000000000E+00  0.00000000000E+00 -0.44951267312E+03  0.44951267315E+03  0.50400001928E-02 0. -1.
    10030    2    1    2    0    0  0.00000000000E+00  0.00000000000E+00  0.35272587303E+03  0.12517512193E+04  0.12010268829E+04 0.  0.
        4    1    3    3  502    0  0.59023403224E+03  0.32439950849E+02  0.66131131321E+02  0.59481383866E+03  0.12699999809E+01 0. -1.
       -4    1    3    3    0  502 -0.59023403224E+03 -0.32439950849E+02  0.28659474170E+03  0.65693738065E+03  0.12699999809E+01 0.  1.
</event>
<event>
 5   0  0.5001586E-04  0.1195881E+04  0.7818609E-02  0.9116469E-01
       -1   -1    0    0    0  501  0.00000000000E+00  0.00000000000E+00  0.56025850658E+03  0.56025850661E+03  0.50400001928E-02 0.  1.
        1   -1    0    0  501    0  0.00000000000E+00  0.00000000000E+00 -0.63815727554E+03  0.63815727556E+03  0.50400001928E-02 0. -1.
    10030    2    1    2    0    0  0.00000000000E+00  0.00000000000E+00 -0.77898768952E+02  0.11984157822E+04  0.11958813356E+04 0.  0.
        1    1    3    3  502    0  0.23951935644E+03  0.10561409100E+03  0.49978569293E+03  0.56418932745E+03  0.50400001928E-02 0.  1.
       -1    1    3    3    0  502 -0.23951935644E+03 -0.10561409100E+03 -0.57768446189E+03  0.63422645471E+03  0.50400001928E-02 0. -1.
</event>
<event>
 5   0  0.9298693E-04  0.1199577E+04  0.7818609E-02  0.9113227E-01
       -2   -1    0    0    0  501  0.00000000000E+00  0.00000000000E+00  0.46921267821E+03  0.46921267822E+03  0.25500000920E-02 0.  1.
        2   -1    0    0  501    0  0.00000000000E+00  0.00000000000E+00 -0.76670222128E+03  0.76670222129E+03  0.25500000920E-02 0. -1.
    10030    2    1    2    0    0  0.00000000000E+00  0.00000000000E+00 -0.29748954307E+03  0.12359148995E+04  0.11995772633E+04 0.  0.
        1    1    3    3  502    0  0.40383971484E+03  0.43805090139E+03 -0.21991174270E+03  0.63508761765E+03  0.50400001928E-02 0. -1.
       -1    1    3    3    0  502 -0.40383971484E+03 -0.43805090139E+03 -0.77577800373E+02  0.60082728186E+03  0.50400001928E-02 0.  1.
</event>
<event>
 5   0  0.5003507E-04  0.1199458E+04  0.7818609E-02  0.9113331E-01
        1   -1    0    0  501    0  0.00000000000E+00  0.00000000000E+00  0.30473024785E+03  0.30473024789E+03  0.50400001928E-02 0. -1.
       -1   -1    0    0    0  501  0.00000000000E+00  0.00000000000E+00 -0.11803060080E+04  0.11803060080E+04  0.50400001928E-02 0.  1.
    10030    2    1    2    0    0  0.00000000000E+00  0.00000000000E+00 -0.87557576016E+03  0.14850362559E+04  0.11994581150E+04 0.  0.
        3    1    3    3  502    0  0.21531311428E+03 -0.55851658060E+03 -0.39188791359E+03  0.71545555767E+03  0.10100000352E+00 0. -1.
       -3    1    3    3    0  502 -0.21531311428E+03  0.55851658060E+03 -0.48368784657E+03  0.76958069824E+03  0.10100000352E+00 0.  1.
</event>
<event>
 5   0  0.9410666E-04  0.1199835E+04  0.7818609E-02  0.9113001E-01
        2   -1    0    0  501    0  0.00000000000E+00  0.00000000000E+00  0.90478486485E+03  0.90478486486E+03  0.25500000920E-02 0.  1.
       -2   -1    0    0    0  501  0.00000000000E+00  0.00000000000E+00 -0.39777528167E+03  0.39777528168E+03  0.25500000920E-02 0. -1.
    10030    2    1    2    0    0  0.00000000000E+00  0.00000000000E+00  0.50700958318E+03  0.13025601465E+04  0.11998350795E+04 0.  0.
        2    1    3    3  502    0 -0.42302684553E+02  0.48189095763E+03  0.63869603479E+03  0.80121222971E+03  0.25500000920E-02 0.  1.
       -2    1    3    3    0  502  0.42302684553E+02 -0.48189095763E+03 -0.13168645161E+03  0.50134791683E+03  0.25500000920E-02 0. -1.
</event>
<event>
 5   0  0.9050363E-04  0.1202730E+04  0.7818609E-02  0.9110470E-01
       -2   -1    0    0    0  501  0.00000000000E+00  0.00000000000E+00  0.36538131125E+03  0.36538131126E+03  0.25500000920E-02 0. -1.
        2   -1    0    0  501    0  0.00000000000E+00  0.00000000000E+00 -0.98976028271E+03  0.98976028272E+03  0.25500000920E-02 0.  1.
    10030    2    1    2    0    0  0.00000000000E+00  0.00000000000E+00 -0.62437897147E+03  0.13551415940E+04  0.12027300777E+04 0.  0.
        3    1    3    3  502    0  0.38556462401E+03  0.44180731563E+03 -0.46245421992E+03  0.74680499406E+03  0.10100000352E+00 0.  1.
       -3    1    3    3    0  502 -0.38556462401E+03 -0.44180731563E+03 -0.16192475155E+03  0.60833659991E+03  0.10100000352E+00 0. -1.
</event>
<event>
 5   0  0.3453625E-04  0.1198716E+04  0.7818609E-02  0.9113981E-01
        3   -1    0    0  501    0  0.00000000000E+00  0.00000000000E+00  0.49150700255E+03  0.49150701292E+03  0.10100000352E+00 0. -1.
       -3   -1    0    0    0  501  0.00000000000E+00  0.00000000000E+00 -0.73087473765E+03  0.73087474463E+03  0.10100000352E+00 0.  1.
    10030    2    1    2    0    0  0.00000000000E+00  0.00000000000E+00 -0.23936773510E+03  0.12223817576E+04  0.11987160834E+04 0.  0.
        1    1    3    3  502    0 -0.66278775046E+02  0.56778118403E+03  0.64044512402E+02  0.57521304623E+03  0.50400001928E-02 0. -1.
       -1    1    3    3    0  502  0.66278775046E+02 -0.56778118403E+03 -0.30341224750E+03  0.64716871133E+03  0.50400001928E-02 0.  1.
</event>
<event>
 5   0  0.5157631E-04  0.1197489E+04  0.7818609E-02  0.9115057E-01
       -1   -1    0    0    0  501  0.00000000000E+00  0.00000000000E+00  0.22267319271E+03  0.22267319277E+03  0.50400001928E-02 0. -1.
        1   -1    0    0  501    0  0.00000000000E+00  0.00000000000E+00 -0.16099606640E+04  0.16099606640E+04  0.50400001928E-02 0.  1.
    10030    2    1    2    0    0  0.00000000000E+00  0.00000000000E+00 -0.13872874713E+04  0.18326338568E+04  0.11974891753E+04 0.  0.
        5    1    3    3  502    0  0.47651897322E+03 -0.32415656728E+03 -0.94195120183E+03  0.11042834639E+04  0.46999998093E+01 0.  1.
       -5    1    3    3    0  502 -0.47651897322E+03  0.32415656728E+03 -0.44533626944E+03  0.72835039289E+03  0.46999998093E+01 0. -1.
</event>
<event>
 5   0  0.9070772E-04  0.1201086E+04  0.7818609E-02  0.9111906E-01
        2   -1    0    0  501    0  0.00000000000E+00  0.00000000000E+00  0.21106530671E+04  0.21106530671E+04  0.25500000920E-02 0. -1.
       -2   -1    0    0    0  501  0.00000000000E+00  0.00000000000E+00 -0.17087228938E+03  0.17087228940E+03  0.25500000920E-02 0.  1.
    10030    2    1    2    0    0  0.00000000000E+00  0.00000000000E+00  0.19397807777E+04  0.22815253565E+04  0.12010863777E+04 0.  0.
        4    1    3    3  502    0 -0.43596355369E+03  0.30507841626E+03  0.44103176816E+03  0.69112060716E+03  0.12699999809E+01 0.  1.
       -4    1    3    3    0  502  0.43596355369E+03 -0.30507841626E+03  0.14987490096E+04  0.15904047494E+04  0.12699999809E+01 0. -1.
</event>
<event>
 5   0  0.9070772E-04  0.1201001E+04  0.7818609E-02  0.9111981E-01
        2   -1    0    0  501    0  0.00000000000E+00  0.00000000000E+00  0.14924021685E+04  0.14924021685E+04  0.25500000920E-02 0.  1.
       -2   -1    0    0    0  501  0.00000000000E+00  0.00000000000E+00 -0.24162425943E+03  0.24162425944E+03  0.25500000920E-02 0. -1.
    10030    2    1    2    0    0  0.00000000000E+00  0.00000000000E+00  0.12507779091E+04  0.17340264280E+04  0.12010005308E+04 0.  0.
        4    1    3    3  502    0 -0.34552452143E+03  0.84337079611E+02  0.13239627793E+04  0.13709044429E+04  0.12699999809E+01 0.  1.
       -4    1    3    3    0  502  0.34552452143E+03 -0.84337079611E+02 -0.73184870154E+02  0.36312198505E+03  0.12699999809E+01 0. -1.
</event>
<event>
 5   0  0.9410666E-04  0.1195471E+04  0.7818609E-02  0.9116830E-01
        2   -1    0    0  501    0  0.00000000000E+00  0.00000000000E+00  0.19902269717E+04  0.19902269717E+04  0.25500000920E-02 0. -1.
       -2   -1    0    0    0  501  0.00000000000E+00  0.00000000000E+00 -0.17952109845E+03  0.17952109847E+03  0.25500000920E-02 0.  1.
    10030    2    1    2    0    0  0.00000000000E+00  0.00000000000E+00  0.18107058733E+04  0.21697480702E+04  0.11954710070E+04 0.  0.
        2    1    3    3  502    0  0.43614604256E+03  0.39574088100E+03  0.71978562592E+03  0.93001374325E+03  0.25500000920E-02 0. -1.
       -2    1    3    3    0  502 -0.43614604256E+03 -0.39574088100E+03  0.10909202474E+04  0.12397343270E+04  0.25500000920E-02 0.  1.
</event>
<event>
 5   0  0.5157631E-04  0.1204049E+04  0.7818609E-02  0.9109320E-01
       -1   -1    0    0    0  501  0.00000000000E+00  0.00000000000E+00  0.28380721931E+03  0.28380721935E+03  0.50400001928E-02 0. -1.
        1   -1    0    0  501    0  0.00000000000E+00  0.00000000000E+00 -0.12770419244E+04  0.12770419244E+04  0.50400001928E-02 0.  1.
    10030    2    1    2    0    0  0.00000000000E+00  0.00000000000E+00 -0.99323470505E+03  0.15608491437E+04  0.12040493637E+04 0.  0.
        5    1    3    3  502    0 -0.19288471437E+03  0.39848270120E+03 -0.10254492433E+04  0.11169427992E+04  0.46999998093E+01 0.  1.
       -5    1    3    3    0  502  0.19288471437E+03 -0.39848270120E+03  0.32214538250E+02  0.44390634448E+03  0.46999998093E+01 0. -1.
</event>
<event>
 5   0  0.9050363E-04  0.1197378E+04  0.7818609E-02  0.9115154E-01
       -2   -1    0    0    0  501  0.00000000000E+00  0.00000000000E+00  0.47385929256E+03  0.47385929257E+03  0.25500000920E-02 0. -1.
        2   -1    0    0  501    0  0.00000000000E+00  0.00000000000E+00 -0.75640326606E+03  0.75640326607E+03  0.25500000920E-02 0.  1.
    10030    2    1    2    0    0  0.00000000000E+00  0.00000000000E+00 -0.28254397350E+03  0.12302625586E+04  0.11973783304E+04 0.  0.
        3    1    3    3  502    0 -0.58143751970E+03 -0.71153273141E+02 -0.26834695720E+03  0.64431551063E+03  0.10100000352E+00 0.  1.
       -3    1    3    3    0  502  0.58143751970E+03  0.71153273141E+02 -0.14197016302E+02  0.58594704801E+03  0.10100000352E+00 0. -1.
</event>
<event>
 5   0  0.3453625E-04  0.1197677E+04  0.7818609E-02  0.9114893E-01
       -3   -1    0    0    0  501  0.00000000000E+00  0.00000000000E+00  0.35634715434E+03  0.35634716866E+03  0.10100000352E+00 0. -1.
        3   -1    0    0  501    0  0.00000000000E+00  0.00000000000E+00 -0.10063423962E+04  0.10063424013E+04  0.10100000352E+00 0.  1.
    10030    2    1    2    0    0  0.00000000000E+00  0.00000000000E+00 -0.64999524188E+03  0.13626895699E+04  0.11976765213E+04 0.  0.
        2    1    3    3  502    0 -0.77233168074E+02  0.57520130191E+03 -0.49293361041E+03  0.76144930511E+03  0.25500000920E-02 0.  1.
       -2    1    3    3    0  502  0.77233168074E+02 -0.57520130191E+03 -0.15706163146E+03  0.60124026483E+03  0.25500000920E-02 0. -1.
</event>
<event>
 5   0  0.5003507E-04  0.1193373E+04  0.7818609E-02  0.9118677E-01
       -1   -1    0    0    0  501  0.00000000000E+00  0.00000000000E+00  0.36077560329E+03  0.36077560333E+03  0.50400001928E-02 0. -1.
        1   -1    0    0  501    0  0.00000000000E+00  0.00000000000E+00 -0.98685903436E+03  0.98685903437E+03  0.50400001928E-02 0.  1.
    10030    2    1    2    0    0  0.00000000000E+00  0.00000000000E+00 -0.62608343107E+03  0.13476346377E+04  0.11933728060E+04 0.  0.
        3    1    3    3  502    0  0.31499701053E+03  0.49389371019E+03 -0.44120483167E+03  0.73335927573E+03  0.10100000352E+00 0. -1.
       -3    1    3    3    0  502 -0.31499701053E+03 -0.49389371019E+03 -0.18487859939E+03  0.61427536197E+03  0.10100000352E+00 0.  1.
</event>
<event>
 5   0  0.3453625E-04  0.1197946E+04  0.7818609E-02  0.9114656E-01
       -3   -1    0    0    0  501  0.00000000000E+00  0.00000000000E+00  0.76830491224E+03  0.76830491888E+03  0.10100000352E+00 0. -1.
        3   -1    0    0  501    0  0.00000000000E+00  0.00000000000E+00 -0.46696112014E+03  0.46696113106E+03  0.10100000352E+00 0.  1.
    10030    2    1    2    0    0  0.00000000000E+00  0.00000000000E+00  0.30134379210E+03  0.12352660499E+04  0.11979457972E+04 0.  0.
        4    1    3    3  502    0  0.35655668685E+03  0.18922925766E+03  0.60698097489E+03  0.72894986088E+03  0.12699999809E+01 0. -1.
       -4    1    3    3    0  502 -0.35655668685E+03 -0.18922925766E+03 -0.30563718279E+03  0.50631618905E+03  0.12699999809E+01 0.  1.
</event>
<event>
 5   0  0.9070772E-04  0.1200397E+04  0.7818609E-02  0.9112509E-01
       -2   -1    0    0    0  501  0.00000000000E+00  0.00000000000E+00  0.33410346522E+03  0.33410346523E+03  0.25500000920E-02 0. -1.
        2   -1    0    0  501    0  0.00000000000E+00  0.00000000000E+00 -0.10782234869E+04  0.10782234869E+04  0.25500000920E-02 0.  1.
    10030    2    1    2    0    0  0.00000000000E+00  0.00000000000E+00 -0.74412002168E+03  0.14123269521E+04  0.12003969398E+04 0.  0.
        4    1    3    3  502    0  0.25834841839E+03  0.53696272722E+03 -0.28751431853E+03  0.66161844894E+03  0.12699999809E+01 0.  1.
       -4    1    3    3    0  502 -0.25834841839E+03 -0.53696272722E+03 -0.45660570314E+03  0.75070850318E+03  0.12699999809E+01 0. -1.
</event>
<event>
 5   0  0.5447074E-04  0.1198392E+04  0.7818609E-02  0.9114265E-01
       -1   -1    0    0    0  501  0.00000000000E+00  0.00000000000E+00  0.29570975777E+03  0.29570975782E+03  0.50400001928E-02 0. -1.
        1   -1    0    0  501    0  0.00000000000E+00  0.00000000000E+00 -0.12141488348E+04  0.12141488348E+04  0.50400001928E-02 0.  1.
    10030    2    1    2    0    0  0.00000000000E+00  0.00000000000E+00 -0.91843907702E+03  0.15098585926E+04  0.11983916853E+04 0.  0.
        4    1    3    3  502    0 -0.11428957294E+03 -0.20945056625E+03  0.23327216494E+03  0.33369021864E+03  0.12699999809E+01 0. -1.
       -4    1    3    3    0  502  0.11428957294E+03  0.20945056625E+03 -0.11517112420E+04  0.11761683740E+04  0.12699999809E+01 0.  1.
</event>
<event>
 5   0  0.5003507E-04  0.1196647E+04  0.7818609E-02  0.9115796E-01
       -1   -1    0    0    0  501  0.00000000000E+00  0.00000000000E+00  0.82175138806E+03  0.82175138807E+03  0.50400001928E-02 0. -1.
        1   -1    0    0  501    0  0.00000000000E+00  0.00000000000E+00 -0.43564413349E+03  0.43564413352E+03  0.50400001928E-02 0.  1.
    10030    2    1    2    0    0  0.00000000000E+00  0.00000000000E+00  0.38610725457E+03  0.12573955216E+04  0.11966472687E+04 0.  0.
        3    1    3    3  502    0 -0.43018586308E+02  0.59620339322E+03  0.22049603785E+03  0.63712447587E+03  0.10100000352E+00 0.  1.
       -3    1    3    3    0  502  0.43018586308E+02 -0.59620339322E+03  0.16561121673E+03  0.62027104572E+03  0.10100000352E+00 0. -1.
</event>
<event>
 5   0  0.9410666E-04  0.1194411E+04  0.7818609E-02  0.9117763E-01
       -2   -1    0    0    0  501  0.00000000000E+00  0.00000000000E+00  0.41340018493E+03  0.41340018494E+03  0.25500000920E-02 0. -1.
        2   -1    0    0  501    0  0.00000000000E+00  0.00000000000E+00 -0.86273377136E+03  0.86273377136E+03  0.25500000920E-02 0.  1.
    10030    2    1    2    0    0  0.00000000000E+00  0.00000000000E+00 -0.44933358643E+03  0.12761339563E+04  0.11944108182E+04 0.  0.
        2    1    3    3  502    0 -0.77855150108E+02  0.30303129767E+03 -0.76816138543E+03  0.82943432883E+03  0.25500000920E-02 0.  1.
       -2    1    3    3    0  502  0.77855150108E+02 -0.30303129767E+03  0.31882779900E+03  0.44669962748E+03  0.25500000920E-02 0. -1.
</event>
<event>
 5   0  0.5003507E-04  0.1200736E+04  0.7818609E-02  0.9112213E-01
        1   -1    0    0  501    0  0.00000000000E+00  0.00000000000E+00  0.53353272514E+03  0.53353272516E+03  0.50400001928E-02 0.  1.
       -1   -1    0    0    0  501  0.00000000000E+00  0.00000000000E+00 -0.67557518818E+03  0.67557518820E+03  0.50400001928E-02 0. -1.
    10030    2    1    2    0    0  0.00000000000E+00  0.00000000000E+00 -0.14204246304E+03  0.12091079134E+04  0.12007355599E+04 0.  0.
        3    1    3    3  502    0 -0.66379368069E+02 -0.23790902414E+03 -0.62204284768E+03  0.66928636533E+03  0.10100000352E+00 0. -1.
       -3    1    3    3    0  502  0.66379368069E+02  0.23790902414E+03  0.48000038463E+03  0.53982154803E+03  0.10100000352E+00 0.  1.
</event>
<event>
 5   0  0.9298693E-04  0.1202842E+04  0.7818609E-02  0.9110373E-01
       -2   -1    0    0    0  501  0.00000000000E+00  0.00000000000E+00  0.40098356055E+03  0.40098356055E+03  0.25500000920E-02 0.  1.
        2   -1    0    0  501    0  0.00000000000E+00  0.00000000000E+00 -0.90204929964E+03  0.90204929964E+03  0.25500000920E-02 0. -1.
    10030    2    1    2    0    0  0.00000000000E+00  0.00000000000E+00 -0.50106573909E+03  0.13030328602E+04  0.12028415356E+04 0.  0.
        1    1    3    3  502    0 -0.16707313076E+03  0.17645059126E+03 -0.84650167896E+03  0.88068912488E+03  0.50400001928E-02 0. -1.
       -1    1    3    3    0  502  0.16707313076E+03 -0.17645059126E+03  0.34543593987E+03  0.42234373531E+03  0.50400001928E-02 0.  1.
</event>
<event>
 5   0  0.9298693E-04  0.1199076E+04  0.7818609E-02  0.9113665E-01
        2   -1    0    0  501    0  0.00000000000E+00  0.00000000000E+00  0.45648839247E+03  0.45648839248E+03  0.25500000920E-02 0.  1.
       -2   -1    0    0    0  501  0.00000000000E+00  0.00000000000E+00 -0.78741535714E+03  0.78741535715E+03  0.25500000920E-02 0. -1.
    10030    2    1    2    0    0  0.00000000000E+00  0.00000000000E+00 -0.33092696467E+03  0.12439037496E+04  0.11990762621E+04 0.  0.
        1    1    3    3  502    0 -0.50799389830E+03 -0.65984479241E+02  0.15768522832E+03  0.53598170068E+03  0.50400001928E-02 0.  1.
       -1    1    3    3    0  502  0.50799389830E+03  0.65984479241E+02 -0.48861219300E+03  0.70792204894E+03  0.50400001928E-02 0. -1.
</event>
<event>
 5   0  0.9050363E-04  0.1197488E+04  0.7818609E-02  0.9115058E-01
        2   -1    0    0  501    0  0.00000000000E+00  0.00000000000E+00  0.17133089298E+04  0.17133089298E+04  0.25500000920E-02 0. -1.
       -2   -1    0    0    0  501  0.00000000000E+00  0.00000000000E+00 -0.20924100252E+03  0.20924100254E+03  0.25500000920E-02 0.  1.
    10030    2    1    2    0    0  0.00000000000E+00  0.00000000000E+00  0.15040679273E+04  0.19225499324E+04  0.11974881680E+04 0.  0.
        3    1    3    3  502    0 -0.98629946969E+02 -0.42751280402E+03  0.97910599979E+02  0.44953482605E+03  0.10100000352E+00 0. -1.
       -3    1    3    3    0  502  0.98629946969E+02  0.42751280402E+03  0.14061573273E+04  0.14730151063E+04  0.10100000352E+00 0.  1.
</event>
<event>
 5   0  0.9050363E-04  0.1199973E+04  0.7818609E-02  0.9112880E-01
       -2   -1    0    0    0  501  0.00000000000E+00  0.00000000000E+00  0.30515828872E+03  0.30515828873E+03  0.25500000920E-02 0. -1.
        2   -1    0    0  501    0  0.00000000000E+00  0.00000000000E+00 -0.11796626458E+04  0.11796626458E+04  0.25500000920E-02 0.  1.
    10030    2    1    2    0    0  0.00000000000E+00  0.00000000000E+00 -0.87450435705E+03  0.14848209345E+04  0.11999730568E+04 0.  0.
        3    1    3    3  502    0  0.39600945133E+02  0.30014661139E+03 -0.10782185740E+04  0.11199158570E+04  0.10100000352E+00 0.  1.
       -3    1    3    3    0  502 -0.39600945133E+02 -0.30014661139E+03  0.20371421698E+03  0.36490507750E+03  0.10100000352E+00 0. -1.
</event>
<event>
 5   0  0.9145224E-04  0.1199585E+04  0.7818609E-02  0.9113220E-01
       -2   -1    0    0    0  501  0.00000000000E+00  0.00000000000E+00  0.68342668187E+03  0.68342668188E+03  0.25500000920E-02 0.  1.
        2   -1    0    0  501    0  0.00000000000E+00  0.00000000000E+00 -0.52639336141E+03  0.52639336142E+03  0.25500000920E-02 0. -1.
    10030    2    1    2    0    0  0.00000000000E+00  0.00000000000E+00  0.15703332046E+03  0.12098200433E+04  0.11995853756E+04 0.  0.
        5    1    3    3  502    0  0.38842880774E+03  0.13476088854E+03  0.51892502238E+03  0.66207454612E+03  0.46999998093E+01 0.  1.
       -5    1    3    3    0  502 -0.38842880774E+03 -0.13476088854E+03 -0.36189170192E+03  0.54774549718E+03  0.46999998093E+01 0. -1.
</event>
<event>
 5   0  0.5003507E-04  0.1202782E+04  0.7818609E-02  0.9110425E-01
        1   -1    0    0  501    0  0.00000000000E+00  0.00000000000E+00  0.37397484774E+03  0.37397484777E+03  0.50400001928E-02 0. -1.
       -1   -1    0    0    0  501  0.00000000000E+00  0.00000000000E+00 -0.96710009335E+03  0.96710009336E+03  0.50400001928E-02 0.  1.
    10030    2    1    2    0    0  0.00000000000E+00  0.00000000000E+00 -0.59312524561E+03  0.13410749411E+04  0.12027819589E+04 0.  0.
        3    1    3    3  502    0 -0.16102449890E+03  0.22809598755E+03 -0.89045377561E+03  0.93320126740E+03  0.10100000352E+00 0.  1.
       -3    1    3    3    0  502  0.16102449890E+03 -0.22809598755E+03  0.29732852999E+03  0.40787367374E+03  0.10100000352E+00 0. -1.
</event>
<event>
 5   0  0.5447074E-04  0.1209167E+04  0.7818609E-02  0.9104870E-01
       -1   -1    0    0    0  501  0.00000000000E+00  0.00000000000E+00  0.37099439064E+03  0.37099439067E+03  0.50400001928E-02 0.  1.
        1   -1    0    0  501    0  0.00000000000E+00  0.00000000000E+00 -0.98524703597E+03  0.98524703598E+03  0.50400001928E-02 0. -1.
    10030    2    1    2    0    0  0.00000000000E+00  0.00000000000E+00 -0.61425264533E+03  0.13562414266E+04  0.12091668599E+04 0.  0.
        4    1    3    3  502    0 -0.24338566518E+03  0.95933359320E+02 -0.91847260083E+03  0.95500435749E+03  0.12699999809E+01 0. -1.
       -4    1    3    3    0  502  0.24338566518E+03 -0.95933359320E+02  0.30421995550E+03  0.40123706916E+03  0.12699999809E+01 0.  1.
</event>
<event>
 5   0  0.9070772E-04  0.1197088E+04  0.7818609E-02  0.9115410E-01
        2   -1    0    0  501    0  0.00000000000E+00  0.00000000000E+00  0.81192592064E+03  0.81192592064E+03  0.25500000920E-02 0.  1.
       -2   -1    0    0    0  501  0.00000000000E+00  0.00000000000E+00 -0.44124053075E+03  0.44124053076E+03  0.25500000920E-02 0. -1.
    10030    2    1    2    0    0  0.00000000000E+00  0.00000000000E+00  0.37068538989E+03  0.12531664514E+04  0.11970875058E+04 0.  0.
        4    1    3    3  502    0 -0.50913593073E+03 -0.56780611031E+02  0.50937426441E+03  0.72243144166E+03  0.12699999809E+01 0.  1.
       -4    1    3    3    0  502  0.50913593073E+03  0.56780611031E+02 -0.13868887452E+03  0.53073500974E+03  0.12699999809E+01 0. -1.
</event>
<event>
 5   0  0.5003507E-04  0.1201281E+04  0.7818609E-02  0.9111736E-01
        1   -1    0    0  501    0  0.00000000000E+00  0.00000000000E+00  0.42242119586E+03  0.42242119589E+03  0.50400001928E-02 0.  1.
       -1   -1    0    0    0  501  0.00000000000E+00  0.00000000000E+00 -0.85405107257E+03  0.85405107259E+03  0.50400001928E-02 0. -1.
    10030    2    1    2    0    0  0.00000000000E+00  0.00000000000E+00 -0.43162987671E+03  0.12764722685E+04  0.12012814415E+04 0.  0.
        3    1    3    3  502    0 -0.19215064985E+03  0.36923642598E+03 -0.67594539545E+03  0.79382592445E+03  0.10100000352E+00 0. -1.
       -3    1    3    3    0  502  0.19215064985E+03 -0.36923642598E+03  0.24431551874E+03  0.48264634402E+03  0.10100000352E+00 0.  1.
</event>
<event>
 5   0  0.5052959E-04  0.1203170E+04  0.7818609E-02  0.9110086E-01
        1   -1    0    0  501    0  0.00000000000E+00  0.00000000000E+00  0.89617828534E+03  0.89617828535E+03  0.50400001928E-02 0. -1.
       -1   -1    0    0    0  501  0.00000000000E+00  0.00000000000E+00 -0.40383086953E+03  0.40383086956E+03  0.50400001928E-02 0.  1.
    10030    2    1    2    0    0  0.00000000000E+00  0.00000000000E+00  0.49234741581E+03  0.13000091549E+04  0.12031699070E+04 0.  0.
        2    1    3    3  502    0 -0.54497176077E+03 -0.25386899384E+03  0.26936695904E+03  0.65878846734E+03  0.25500000920E-02 0.  1.
       -2    1    3    3    0  502  0.54497176077E+03  0.25386899384E+03  0.22298045676E+03  0.64122068757E+03  0.25500000920E-02 0. -1.
</event>
<event>
 5   0  0.5003507E-04  0.1190878E+04  0.7818609E-02  0.9120879E-01
       -1   -1    0    0    0  501  0.00000000000E+00  0.00000000000E+00  0.44656173786E+03  0.44656173789E+03  0.50400001928E-02 0.  1.
        1   -1    0    0  501    0  0.00000000000E+00  0.00000000000E+00 -0.79394983219E+03  0.79394983220E+03  0.50400001928E-02 0. -1.
    10030    2    1    2    0    0  0.00000000000E+00  0.00000000000E+00 -0.34738809433E+03  0.12405115701E+04  0.11908780237E+04 0.  0.
        3    1    3    3  502    0  0.80110139099E+02  0.15807684110E+02 -0.78808996967E+03  0.79230885882E+03  0.10100000352E+00 0. -1.
       -3    1    3    3    0  502 -0.80110139099E+02 -0.15807684110E+02  0.44070187534E+03  0.44820271127E+03  0.10100000352E+00 0.  1.
</event>
<event>
 5   0  0.5003507E-04  0.1174712E+04  0.7818609E-02  0.9135284E-01
        1   -1    0    0  501    0  0.00000000000E+00  0.00000000000E+00  0.10922272690E+04  0.10922272690E+04  0.50400001928E-02 0. -1.
       -1   -1    0    0    0  501  0.00000000000E+00  0.00000000000E+00 -0.31585624780E+03  0.31585624784E+03  0.50400001928E-02 0.  1.
    10030    2    1    2    0    0  0.00000000000E+00  0.00000000000E+00  0.77637102120E+03  0.14080835169E+04  0.11747115509E+04 0.  0.
        3    1    3    3  502    0  0.11520347187E+03  0.47055880020E+03 -0.98886684431E+01  0.48455672562E+03  0.10100000352E+00 0.  1.
       -3    1    3    3    0  502 -0.11520347187E+03 -0.47055880020E+03  0.78625968965E+03  0.92352679124E+03  0.10100000352E+00 0. -1.
</event>
<event>
 5   0  0.5157631E-04  0.1201351E+04  0.7818609E-02  0.9111674E-01
        1   -1    0    0  501    0  0.00000000000E+00  0.00000000000E+00  0.50155833285E+03  0.50155833288E+03  0.50400001928E-02 0.  1.
       -1   -1    0    0    0  501  0.00000000000E+00  0.00000000000E+00 -0.71938050221E+03  0.71938050223E+03  0.50400001928E-02 0. -1.
    10030    2    1    2    0    0  0.00000000000E+00  0.00000000000E+00 -0.21782216936E+03  0.12209388351E+04  0.12013513814E+04 0.  0.
        5    1    3    3  502    0 -0.22164945857E+03 -0.22355563754E+03 -0.62880184631E+03  0.70322077436E+03  0.46999998093E+01 0. -1.
       -5    1    3    3    0  502  0.22164945857E+03  0.22355563754E+03  0.41097967695E+03  0.51771806075E+03  0.46999998093E+01 0.  1.
</event>
<event>
 5   0  0.5052959E-04  0.1205999E+04  0.7818609E-02  0.9107622E-01
        1   -1    0    0  501    0  0.00000000000E+00  0.00000000000E+00  0.36514648911E+03  0.36514648914E+03  0.50400001928E-02 0.  1.
       -1   -1    0    0    0  501  0.00000000000E+00  0.00000000000E+00 -0.99578737460E+03  0.99578737461E+03  0.50400001928E-02 0. -1.
    10030    2    1    2    0    0  0.00000000000E+00  0.00000000000E+00 -0.63064088549E+03  0.13609338638E+04  0.12059987790E+04 0.  0.
        2    1    3    3  502    0  0.44812914006E+03 -0.37444842679E+03 -0.48488006279E+03  0.75903888293E+03  0.25500000920E-02 0. -1.
       -2    1    3    3    0  502 -0.44812914006E+03  0.37444842679E+03 -0.14576082270E+03  0.60189498082E+03  0.25500000920E-02 0.  1.
</event>
<event>
 5   0  0.3453625E-04  0.1126717E+04  0.7818609E-02  0.9179536E-01
       -3   -1    0    0    0  501  0.00000000000E+00  0.00000000000E+00  0.63276336140E+03  0.63276336946E+03  0.10100000352E+00 0. -1.
        3   -1    0    0  501    0  0.00000000000E+00  0.00000000000E+00 -0.50156610450E+03  0.50156611466E+03  0.10100000352E+00 0.  1.
    10030    2    1    2    0    0  0.00000000000E+00  0.00000000000E+00  0.13119725690E+03  0.11343294841E+04  0.11267167605E+04 0.  0.
        3    1    3    3  502    0  0.23494702126E+03  0.32731008000E+03  0.46201106820E+03  0.61301405254E+03  0.10100000352E+00 0. -1.
       -3    1    3    3    0  502 -0.23494702126E+03 -0.32731008000E+03 -0.33081381129E+03  0.52131543159E+03  0.10100000352E+00 0.  1.
</event>
<event>
 5   0  0.5052959E-04  0.1211009E+04  0.7818609E-02  0.9103274E-01
        1   -1    0    0  501    0  0.00000000000E+00  0.00000000000E+00  0.61095240121E+03  0.61095240123E+03  0.50400001928E-02 0.  1.
       -1   -1    0    0    0  501  0.00000000000E+00  0.00000000000E+00 -0.60010549369E+03  0.60010549371E+03  0.50400001928E-02 0. -1.
    10030    2    1    2    0    0  0.00000000000E+00  0.00000000000E+00  0.10846907521E+02  0.12110578949E+04  0.12110093185E+04 0.  0.
        2    1    3    3  502    0 -0.18286826339E+03 -0.36926825159E+03  0.44910333883E+03  0.60950279109E+03  0.25500000920E-02 0. -1.
       -2    1    3    3    0  502  0.18286826339E+03  0.36926825159E+03 -0.43825643131E+03  0.60155510386E+03  0.25500000920E-02 0.  1.
</event>
<event>
 5   0  0.9145224E-04  0.1202025E+04  0.7818609E-02  0.9111086E-01
       -2   -1    0    0    0  501  0.00000000000E+00  0.00000000000E+00  0.30560496516E+03  0.30560496517E+03  0.25500000920E-02 0. -1.
        2   -1    0    0  501    0  0.00000000000E+00  0.00000000000E+00 -0.11819706308E+04  0.11819706308E+04  0.25500000920E-02 0.  1.
    10030    2    1    2    0    0  0.00000000000E+00  0.00000000000E+00 -0.87636566563E+03  0.14875755960E+04  0.12020251136E+04 0.  0.
        5    1    3    3  502    0 -0.51010368412E+03  0.27412675817E+03 -0.23923697017E+03  0.62658412523E+03  0.46999998093E+01 0. -1.
       -5    1    3    3    0  502  0.51010368412E+03 -0.27412675817E+03 -0.63712869545E+03  0.86099147073E+03  0.46999998093E+01 0.  1.
</event>
<event>
 5   0  0.5003507E-04  0.1197771E+04  0.7818609E-02  0.9114809E-01
       -1   -1    0    0    0  501  0.00000000000E+00  0.00000000000E+00  0.68347544125E+03  0.68347544127E+03  0.50400001928E-02 0.  1.
        1   -1    0    0  501    0  0.00000000000E+00  0.00000000000E+00 -0.52476512997E+03  0.52476512999E+03  0.50400001928E-02 0. -1.
    10030    2    1    2    0    0  0.00000000000E+00  0.00000000000E+00  0.15871031128E+03  0.12082405713E+04  0.11977713952E+04 0.  0.
        3    1    3    3  502    0  0.16627656404E+02 -0.26232545190E+03  0.62217844256E+03  0.67542367908E+03  0.10100000352E+00 0.  1.
       -3    1    3    3    0  502 -0.16627656404E+02  0.26232545190E+03 -0.46346813128E+03  0.53281689218E+03  0.10100000352E+00 0. -1.
</event>
<event>
 5   0  0.9145224E-04  0.1205150E+04  0.7818609E-02  0.9108361E-01
       -2   -1    0    0    0  501  0.00000000000E+00  0.00000000000E+00  0.50533524709E+03  0.50533524710E+03  0.25500000920E-02 0. -1.
        2   -1    0    0  501    0  0.00000000000E+00  0.00000000000E+00 -0.71852634067E+03  0.71852634068E+03  0.25500000920E-02 0.  1.
    10030    2    1    2    0    0  0.00000000000E+00  0.00000000000E+00 -0.21319109358E+03  0.12238615878E+04  0.12051500918E+04 0.  0.
        5    1    3    3  502    0 -0.15390649391E+03 -0.49295081720E+03 -0.42187823497E+03  0.66685159682E+03  0.46999998093E+01 0.  1.
       -5    1    3    3    0  502  0.15390649391E+03  0.49295081720E+03  0.20868714138E+03  0.55700999095E+03  0.46999998093E+01 0. -1.
</event>
<event>
 5   0  0.5003507E-04  0.1202457E+04  0.7818609E-02  0.9110709E-01
       -1   -1    0    0    0  501  0.00000000000E+00  0.00000000000E+00  0.10765055551E+04  0.10765055551E+04  0.50400001928E-02 0. -1.
        1   -1    0    0  501    0  0.00000000000E+00  0.00000000000E+00 -0.33578619165E+03  0.33578619169E+03  0.50400001928E-02 0.  1.
    10030    2    1    2    0    0  0.00000000000E+00  0.00000000000E+00  0.74071936341E+03  0.14122917468E+04  0.12024569858E+04 0.  0.
        3    1    3    3  502    0  0.21217369712E+03  0.24472908153E+03  0.96527364191E+03  0.10181665949E+04  0.10100000352E+00 0. -1.
       -3    1    3    3    0  502 -0.21217369712E+03 -0.24472908153E+03 -0.22455427850E+03  0.39412515181E+03  0.10100000352E+00 0.  1.
</event>
<event>
 5   0  0.9070772E-04  0.1201681E+04  0.7818609E-02  0.9111386E-01
        2   -1    0    0  501    0  0.00000000000E+00  0.00000000000E+00  0.13280045810E+04  0.13280045810E+04  0.25500000920E-02 0.  1.
       -2   -1    0    0    0  501  0.00000000000E+00  0.00000000000E+00 -0.27184360659E+03  0.27184360660E+03  0.25500000920E-02 0. -1.
    10030    2    1    2    0    0  0.00000000000E+00  0.00000000000E+00  0.10561609744E+04  0.15998481876E+04  0.12016814135E+04 0.  0.
        4    1    3    3  502    0 -0.21366515581E+03 -0.12169100909E+03  0.12579500027E+04  0.12817571231E+04  0.12699999809E+01 0.  1.
       -4    1    3    3    0  502  0.21366515581E+03  0.12169100909E+03 -0.20178902825E+03  0.31809106451E+03  0.12699999809E+01 0. -1.
</event>
<event>
 5   0  0.5447074E-04  0.1196038E+04  0.7818609E-02  0.9116331E-01
        1   -1    0    0  501    0  0.00000000000E+00  0.00000000000E+00  0.49251679786E+03  0.49251679789E+03  0.50400001928E-02 0. -1.
       -1   -1    0    0    0  501  0.00000000000E+00  0.00000000000E+00 -0.72612098450E+03  0.72612098452E+03  0.50400001928E-02 0.  1.
    10030    2    1    2    0    0  0.00000000000E+00  0.00000000000E+00 -0.23360418664E+03  0.12186377824E+04  0.11960380967E+04 0.  0.
        4    1    3    3  502    0  0.23882068056E+03  0.22276915800E+01  0.44181368417E+03  0.50223622379E+03  0.12699999809E+01 0. -1.
       -4    1    3    3    0  502 -0.23882068056E+03 -0.22276915800E+01 -0.67541787081E+03  0.71640155861E+03  0.12699999809E+01 0.  1.
</event>
<event>
 5   0  0.9070772E-04  0.1197830E+04  0.7818609E-02  0.9114758E-01
        2   -1    0    0  501    0  0.00000000000E+00  0.00000000000E+00  0.93555908436E+03  0.93555908437E+03  0.25500000920E-02 0.  1.
       -2   -1    0    0    0  501  0.00000000000E+00  0.00000000000E+00 -0.38340599050E+03  0.38340599050E+03  0.25500000920E-02 0. -1.
    10030    2    1    2    0    0  0.00000000000E+00  0.00000000000E+00  0.55215309387E+03  0.13189650749E+04  0.11978296330E+04 0.  0.
        4    1    3    3  502    0  0.31982071953E+03 -0.48330456686E+03  0.44244818230E+03  0.72913003224E+03  0.12699999809E+01 0.  1.
       -4    1    3    3    0  502 -0.31982071953E+03  0.48330456686E+03  0.10970491156E+03  0.58983504263E+03  0.12699999809E+01 0. -1.
</event>
<event>
 5   0  0.9410666E-04  0.1203272E+04  0.7818609E-02  0.9109997E-01
       -2   -1    0    0    0  501  0.00000000000E+00  0.00000000000E+00  0.40276779294E+03  0.40276779294E+03  0.25500000920E-02 0. -1.
        2   -1    0    0  501    0  0.00000000000E+00  0.00000000000E+00 -0.89869613663E+03  0.89869613663E+03  0.25500000920E-02 0.  1.
    10030    2    1    2    0    0  0.00000000000E+00  0.00000000000E+00 -0.49592834369E+03  0.13014639296E+04  0.12032719717E+04 0.  0.
        2    1    3    3  502    0 -0.88709151726E+02  0.12126478512E+03 -0.87807762292E+03  0.89083936464E+03  0.25500000920E-02 0.  1.
       -2    1    3    3    0  502  0.88709151726E+02 -0.12126478512E+03  0.38214927923E+03  0.41062456494E+03  0.25500000920E-02 0. -1.
</event>
<event>
 5   0  0.5001586E-04  0.1200095E+04  0.7818609E-02  0.9112773E-01
       -1   -1    0    0    0  501  0.00000000000E+00  0.00000000000E+00  0.60408142931E+03  0.60408142933E+03  0.50400001928E-02 0. -1.
        1   -1    0    0  501    0  0.00000000000E+00  0.00000000000E+00 -0.59604079076E+03  0.59604079078E+03  0.50400001928E-02 0.  1.
    10030    2    1    2    0    0  0.00000000000E+00  0.00000000000E+00  0.80406385504E+01  0.12001222201E+04  0.12000952843E+04 0.  0.
        1    1    3    3  502    0  0.37146212610E+03 -0.10486066891E+03 -0.45542149103E+03  0.59698291896E+03  0.50400001928E-02 0.  1.
       -1    1    3    3    0  502 -0.37146212610E+03  0.10486066891E+03  0.46346212958E+03  0.60313930115E+03  0.50400001928E-02 0. -1.
</event>
<event>
 5   0  0.3453625E-04  0.1198217E+04  0.7818609E-02  0.9114418E-01
        3   -1    0    0  501    0  0.00000000000E+00  0.00000000000E+00  0.15108733092E+04  0.15108733126E+04  0.10100000352E+00 0. -1.
       -3   -1    0    0    0  501  0.00000000000E+00  0.00000000000E+00 -0.23756538954E+03  0.23756541101E+03  0.10100000352E+00 0.  1.
    10030    2    1    2    0    0  0.00000000000E+00  0.00000000000E+00  0.12733079197E+04  0.17484387236E+04  0.11982173892E+04 0.  0.
        4    1    3    3  502    0  0.31150855434E+03 -0.45520839766E+03  0.97786142838E+03  0.11227051486E+04  0.12699999809E+01 0.  1.
       -4    1    3    3    0  502 -0.31150855434E+03  0.45520839766E+03  0.29544649128E+03  0.62573357497E+03  0.12699999809E+01 0. -1.
</event>
<event>
 5   0  0.5001586E-04  0.1200320E+04  0.7818609E-02  0.9112577E-01
       -1   -1    0    0    0  501  0.00000000000E+00  0.00000000000E+00  0.48081888383E+03  0.48081888385E+03  0.50400001928E-02 0.  1.
        1   -1    0    0  501    0  0.00000000000E+00  0.00000000000E+00 -0.74912169826E+03  0.74912169828E+03  0.50400001928E-02 0. -1.
    10030    2    1    2    0    0  0.00000000000E+00  0.00000000000E+00 -0.26830281444E+03  0.12299405821E+04  0.12003197221E+04 0.  0.
        1    1    3    3  502    0  0.21434164273E+03  0.25027460912E+03  0.37983659829E+03  0.50284745321E+03  0.50400001928E-02 0.  1.
       -1    1    3    3    0  502 -0.21434164273E+03 -0.25027460912E+03 -0.64813941273E+03  0.72709312892E+03  0.50400001928E-02 0. -1.
</event>
<event>
 5   0  0.9145224E-04  0.1215036E+04  0.7818609E-02  0.9099797E-01
       -2   -1    0    0    0  501  0.00000000000E+00  0.00000000000E+00  0.19094868079E+03  0.19094868081E+03  0.25500000920E-02 0.  1.
        2   -1    0    0  501    0  0.00000000000E+00  0.00000000000E+00 -0.19328641867E+04  0.19328641867E+04  0.25500000920E-02 0. -1.
    10030    2    1    2    0    0  0.00000000000E+00  0.00000000000E+00 -0.17419155059E+04  0.21238128675E+04  0.12150355824E+04 0.  0.
        5    1    3    3  502    0 -0.50662540499E+03  0.29433832725E+03 -0.11514545344E+04  0.12919651647E+04  0.46999998093E+01 0. -1.
       -5    1    3    3    0  502  0.50662540499E+03 -0.29433832725E+03 -0.59046097146E+03  0.83184770282E+03  0.46999998093E+01 0.  1.
</event>
<event>
 5   0  0.9050363E-04  0.1200600E+04  0.7818609E-02  0.9112332E-01
       -2   -1    0    0    0  501  0.00000000000E+00  0.00000000000E+00  0.31446628060E+03  0.31446628061E+03  0.25500000920E-02 0. -1.
        2   -1    0    0  501    0  0.00000000000E+00  0.00000000000E+00 -0.11459413966E+04  0.11459413966E+04  0.25500000920E-02 0.  1.
    10030    2    1    2    0    0  0.00000000000E+00  0.00000000000E+00 -0.83147511601E+03  0.14604076772E+04  0.12005997314E+04 0.  0.
        3    1    3    3  502    0 -0.23418263252E+03 -0.51265729214E+03 -0.16437855153E+03  0.58709396434E+03  0.10100000352E+00 0. -1.
       -3    1    3    3    0  502  0.23418263252E+03  0.51265729214E+03 -0.66709656448E+03  0.87331371288E+03  0.10100000352E+00 0.  1.
</event>
<event>
 5   0  0.9145224E-04  0.1191692E+04  0.7818609E-02  0.9120160E-01
       -2   -1    0    0    0  501  0.00000000000E+00  0.00000000000E+00  0.70550899094E+03  0.70550899094E+03  0.25500000920E-02 0.  1.
        2   -1    0    0  501    0  0.00000000000E+00  0.00000000000E+00 -0.50322845050E+03  0.50322845050E+03  0.25500000920E-02 0. -1.
    10030    2    1    2    0    0  0.00000000000E+00  0.00000000000E+00  0.20228054044E+03  0.12087374414E+04  0.11916915647E+04 0.  0.
        5    1    3    3  502    0  0.58895505945E+03 -0.14521331675E+02  0.19147128343E+03  0.61948549095E+03  0.46999998093E+01 0. -1.
       -5    1    3    3    0  502 -0.58895505945E+03  0.14521331675E+02  0.10809257010E+02  0.58925195049E+03  0.46999998093E+01 0.  1.
</event>
<event>
 5   0  0.5052959E-04  0.1183656E+04  0.7818609E-02  0.9127283E-01
        1   -1    0    0  501    0  0.00000000000E+00  0.00000000000E+00  0.29371571765E+03  0.29371571769E+03  0.50400001928E-02 0. -1.
       -1   -1    0    0    0  501  0.00000000000E+00  0.00000000000E+00 -0.11925158502E+04  0.11925158502E+04  0.50400001928E-02 0.  1.
    10030    2    1    2    0    0  0.00000000000E+00  0.00000000000E+00 -0.89880013254E+03  0.14862315679E+04  0.11836564515E+04 0.  0.
        2    1    3    3  502    0 -0.51577124869E+02 -0.40358807452E+03  0.90252666430E+02  0.41676021584E+03  0.25500000920E-02 0. -1.
       -2    1    3    3    0  502  0.51577124869E+02  0.40358807452E+03 -0.98905279897E+03  0.10694713521E+04  0.25500000920E-02 0.  1.
</event>
<event>
 5   0  0.9070772E-04  0.1206203E+04  0.7818609E-02  0.9107444E-01
        2   -1    0    0  501    0  0.00000000000E+00  0.00000000000E+00  0.92109761582E+03  0.92109761582E+03  0.25500000920E-02 0. -1.
       -2   -1    0    0    0  501  0.00000000000E+00  0.00000000000E+00 -0.39488910917E+03  0.39488910918E+03  0.25500000920E-02 0.  1.
    10030    2    1    2    0    0  0.00000000000E+00  0.00000000000E+00  0.52620850665E+03  0.13159867250E+04  0.12062029961E+04 0.  0.
        4    1    3    3  502    0  0.30517086198E+03 -0.44051076205E+03 -0.38756062563E+02  0.53729194278E+03  0.12699999809E+01 0.  1.
       -4    1    3    3    0  502 -0.30517086198E+03  0.44051076205E+03  0.56496456922E+03  0.77869478222E+03  0.12699999809E+01 0. -1.
</event>
<event>
 5   0  0.5001586E-04  0.1192949E+04  0.7818609E-02  0.9119050E-01
        1   -1    0    0  501    0  0.00000000000E+00  0.00000000000E+00  0.74633859835E+03  0.74633859837E+03  0.50400001928E-02 0.  1.
       -1   -1    0    0    0  501  0.00000000000E+00  0.00000000000E+00 -0.47670337238E+03  0.47670337241E+03  0.50400001928E-02 0. -1.
    10030    2    1    2    0    0  0.00000000000E+00  0.00000000000E+00  0.26963522596E+03  0.12230419708E+04  0.11929494990E+04 0.  0.
        1    1    3    3  502    0 -0.24296597957E+03 -0.18626632293E+02  0.69297976624E+03  0.73457496221E+03  0.50400001928E-02 0.  1.
       -1    1    3    3    0  502  0.24296597957E+03  0.18626632293E+02 -0.42334454027E+03  0.48846700857E+03  0.50400001928E-02 0. -1.
</event>
<event>
 5   0  0.9050363E-04  0.1205591E+04  0.7818609E-02  0.9107977E-01
       -2   -1    0    0    0  501  0.00000000000E+00  0.00000000000E+00  0.19267868345E+03  0.19267868346E+03  0.25500000920E-02 0.  1.
        2   -1    0    0  501    0  0.00000000000E+00  0.00000000000E+00 -0.18858458064E+04  0.18858458064E+04  0.25500000920E-02 0. -1.
    10030    2    1    2    0    0  0.00000000000E+00  0.00000000000E+00 -0.16931671229E+04  0.20785244898E+04  0.12055907882E+04 0.  0.
        3    1    3    3  502    0 -0.61843391649E+02  0.28485925628E+03  0.63087300210E+02  0.29824389118E+03  0.10100000352E+00 0.  1.
       -3    1    3    3    0  502  0.61843391649E+02 -0.28485925628E+03 -0.17562544231E+04  0.17802805987E+04  0.10100000352E+00 0. -1.
</event>
<event>
 5   0  0.5001586E-04  0.1197966E+04  0.7818609E-02  0.9114639E-01
        1   -1    0    0  501    0  0.00000000000E+00  0.00000000000E+00  0.17041929005E+04  0.17041929005E+04  0.50400001928E-02 0.  1.
       -1   -1    0    0    0  501  0.00000000000E+00  0.00000000000E+00 -0.21052827114E+03  0.21052827120E+03  0.50400001928E-02 0. -1.
    10030    2    1    2    0    0  0.00000000000E+00  0.00000000000E+00  0.14936646294E+04  0.19147211717E+04  0.11979662518E+04 0.  0.
        1    1    3    3  502    0  0.43894075729E+03 -0.10544101963E+03  0.13760752993E+04  0.14482299633E+04  0.50400001928E-02 0.  1.
       -1    1    3    3    0  502 -0.43894075729E+03  0.10544101963E+03  0.11758933007E+03  0.46649120849E+03  0.50400001928E-02 0. -1.
</event>
<event>
 5   0  0.9145224E-04  0.1200717E+04  0.7818609E-02  0.9112229E-01
       -2   -1    0    0    0  501  0.00000000000E+00  0.00000000000E+00  0.10145584129E+04  0.10145584129E+04  0.25500000920E-02 0.  1.
        2   -1    0    0  501    0  0.00000000000E+00  0.00000000000E+00 -0.35525839081E+03  0.35525839082E+03  0.25500000920E-02 0. -1.
    10030    2    1    2    0    0  0.00000000000E+00  0.00000000000E+00  0.65930002207E+03  0.13698168037E+04  0.12007171010E+04 0.  0.
        5    1    3    3  502    0  0.24109194413E+02  0.37739951155E+03  0.86157234034E+03  0.94092541267E+03  0.46999998093E+01 0.  1.
       -5    1    3    3    0  502 -0.24109194413E+02 -0.37739951155E+03 -0.20227231827E+03  0.42889139104E+03  0.46999998093E+01 0. -1.
</event>
<event>
 5   0  0.3453625E-04  0.1191813E+04  0.7818609E-02  0.9120053E-01
        3   -1    0    0  501    0  0.00000000000E+00  0.00000000000E+00  0.84555478740E+03  0.84555479343E+03  0.10100000352E+00 0. -1.
       -3   -1    0    0    0  501  0.00000000000E+00  0.00000000000E+00 -0.41996632536E+03  0.41996633750E+03  0.10100000352E+00 0.  1.
    10030    2    1    2    0    0  0.00000000000E+00  0.00000000000E+00  0.42558846204E+03  0.12655211309E+04  0.11918129861E+04 0.  0.
        1    1    3    3  502    0  0.37399304435E+03 -0.45145725661E+03  0.32626818234E+03  0.67092129091E+03  0.50400001928E-02 0.  1.
       -1    1    3    3    0  502 -0.37399304435E+03  0.45145725661E+03  0.99320279695E+02  0.59459984002E+03  0.50400001928E-02 0. -1.
</event>
<event>
 5   0  0.5447074E-04  0.1206091E+04  0.7818609E-02  0.9107542E-01
       -1   -1    0    0    0  501  0.00000000000E+00  0.00000000000E+00  0.43037793587E+03  0.43037793590E+03  0.50400001928E-02 0. -1.
        1   -1    0    0  501    0  0.00000000000E+00  0.00000000000E+00 -0.84498753699E+03  0.84498753700E+03  0.50400001928E-02 0.  1.
    10030    2    1    2    0    0  0.00000000000E+00  0.00000000000E+00 -0.41460960112E+03  0.12753654729E+04  0.12060911940E+04 0.  0.
        4    1    3    3  502    0  0.22196745663E+03 -0.49782423315E+03 -0.48012326418E+03  0.72637351316E+03  0.12699999809E+01 0.  1.
       -4    1    3    3    0  502 -0.22196745663E+03  0.49782423315E+03  0.65513663059E+02  0.54899195974E+03  0.12699999809E+01 0. -1.
</event>
<event>
 5   0  0.9410666E-04  0.1205844E+04  0.7818609E-02  0.9107756E-01
        2   -1    0    0  501    0  0.00000000000E+00  0.00000000000E+00  0.39688516245E+03  0.39688516246E+03  0.25500000920E-02 0.  1.
       -2   -1    0    0    0  501  0.00000000000E+00  0.00000000000E+00 -0.91591994009E+03  0.91591994009E+03  0.25500000920E-02 0. -1.
    10030    2    1    2    0    0  0.00000000000E+00  0.00000000000E+00 -0.51903477764E+03  0.13128051025E+04  0.12058441594E+04 0.  0.
        2    1    3    3  502    0 -0.20235215489E+03 -0.23102759416E+03  0.30534476537E+03  0.43307686338E+03  0.25500000920E-02 0.  1.
       -2    1    3    3    0  502  0.20235215489E+03  0.23102759416E+03 -0.82437954301E+03  0.87972823917E+03  0.25500000920E-02 0. -1.
</event>
<event>
 5   0  0.9050363E-04  0.1187380E+04  0.7818609E-02  0.9123975E-01
        2   -1    0    0  501    0  0.00000000000E+00  0.00000000000E+00  0.65178907718E+03  0.65178907718E+03  0.25500000920E-02 0.  1.
       -2   -1    0    0    0  501  0.00000000000E+00  0.00000000000E+00 -0.54076968349E+03  0.54076968350E+03  0.25500000920E-02 0. -1.
    10030    2    1    2    0    0  0.00000000000E+00  0.00000000000E+00  0.11101939369E+03  0.11925587607E+04  0.11873799274E+04 0.  0.
        3    1    3    3  502    0 -0.45365982994E+03  0.28526527739E+03 -0.20111253073E+03  0.57238953520E+03  0.10100000352E+00 0.  1.
       -3    1    3    3    0  502  0.45365982994E+03 -0.28526527739E+03  0.31213192442E+03  0.62016922548E+03  0.10100000352E+00 0. -1.
</event>
<event>
 5   0  0.5157631E-04  0.1178251E+04  0.7818609E-02  0.9132109E-01
        1   -1    0    0  501    0  0.00000000000E+00  0.00000000000E+00  0.39614346219E+03  0.39614346222E+03  0.50400001928E-02 0. -1.
       -1   -1    0    0    0  501  0.00000000000E+00  0.00000000000E+00 -0.87611968256E+03  0.87611968258E+03  0.50400001928E-02 0.  1.
    10030    2    1    2    0    0  0.00000000000E+00  0.00000000000E+00 -0.47997622038E+03  0.12722631448E+04  0.11782513898E+04 0.  0.
        5    1    3    3  502    0  0.18855066889E+03  0.55800934673E+03 -0.22810019516E+03  0.63164671677E+03  0.46999998093E+01 0. -1.
       -5    1    3    3    0  502 -0.18855066889E+03 -0.55800934673E+03 -0.25187602522E+03  0.64061642803E+03  0.46999998093E+01 0.  1.
</event>
<event>
 5   0  0.3453625E-04  0.1160218E+04  0.7818609E-02  0.9148409E-01
        4   -1    0    0  501    0  0.00000000000E+00  0.00000000000E+00  0.49531611713E+03  0.49531774528E+03  0.12699999809E+01 0.  1.
       -4   -1    0    0    0  501  0.00000000000E+00  0.00000000000E+00 -0.67941386602E+03  0.67941505300E+03  0.12699999809E+01 0. -1.
    10030    2    1    2    0    0  0.00000000000E+00  0.00000000000E+00 -0.18409774889E+03  0.11747327983E+04  0.11602177236E+04 0.  0.
        3    1    3    3  502    0 -0.30013355621E+03 -0.44632232899E+03  0.12802377575E+03  0.55287780773E+03  0.10100000352E+00 0.  1.
       -3    1    3    3    0  502  0.30013355621E+03  0.44632232899E+03 -0.31212152464E+03  0.62185499054E+03  0.10100000352E+00 0. -1.
</event>
<event>
 5   0  0.9298693E-04  0.1201275E+04  0.7818609E-02  0.9111741E-01
       -2   -1    0    0    0  501  0.00000000000E+00  0.00000000000E+00  0.59039447495E+03  0.59039447496E+03  0.25500000920E-02 0. -1.
        2   -1    0    0  501    0  0.00000000000E+00  0.00000000000E+00 -0.61105844615E+03  0.61105844616E+03  0.25500000920E-02 0.  1.
    10030    2    1    2    0    0  0.00000000000E+00  0.00000000000E+00 -0.20663971200E+02  0.12014529211E+04  0.12012752066E+04 0.  0.
        1    1    3    3  502    0 -0.15353999830E+03 -0.71280163776E+02  0.56604324676E+03  0.59081329543E+03  0.50400001928E-02 0. -1.
       -1    1    3    3    0  502  0.15353999830E+03  0.71280163776E+02 -0.58670721796E+03  0.61063962569E+03  0.50400001928E-02 0.  1.
</event>
<event>
 5   0  0.9410666E-04  0.1201732E+04  0.7818609E-02  0.9111342E-01
       -2   -1    0    0    0  501  0.00000000000E+00  0.00000000000E+00  0.39165958323E+03  0.39165958324E+03  0.25500000920E-02 0.  1.
        2   -1    0    0  501    0  0.00000000000E+00  0.00000000000E+00 -0.92182019197E+03  0.92182019197E+03  0.25500000920E-02 0. -1.
    10030    2    1    2    0    0  0.00000000000E+00  0.00000000000E+00 -0.53016060873E+03  0.13134797752E+04  0.12017316043E+04 0.  0.
        2    1    3    3  502    0 -0.43815279574E+03  0.33519472336E+03 -0.48057538035E+01  0.55168511876E+03  0.25500000920E-02 0.  1.
       -2    1    3    3    0  502  0.43815279574E+03 -0.33519472336E+03 -0.52535485493E+03  0.76179465645E+03  0.25500000920E-02 0. -1.
</event>
<event>
 5   0  0.5052959E-04  0.1198231E+04  0.7818609E-02  0.9114406E-01
        1   -1    0    0  501    0  0.00000000000E+00  0.00000000000E+00  0.76210300179E+03  0.76210300181E+03  0.50400001928E-02 0. -1.
       -1   -1    0    0    0  501  0.00000000000E+00  0.00000000000E+00 -0.47098531605E+03  0.47098531607E+03  0.50400001928E-02 0.  1.
    10030    2    1    2    0    0  0.00000000000E+00  0.00000000000E+00  0.29111768575E+03  0.12330883179E+04  0.11982309013E+04 0.  0.
        2    1    3    3  502    0 -0.42503582122E+03 -0.41122721758E+03  0.46980494182E+02  0.59327096730E+03  0.25500000920E-02 0.  1.
       -2    1    3    3    0  502  0.42503582122E+03  0.41122721758E+03  0.24413719156E+03  0.63981735058E+03  0.25500000920E-02 0. -1.
</event>
<event>
 5   0  0.9070772E-04  0.1196004E+04  0.7818609E-02  0.9116361E-01
       -2   -1    0    0    0  501  0.00000000000E+00  0.00000000000E+00  0.21456556915E+03  0.21456556917E+03  0.25500000920E-02 0. -1.
        2   -1    0    0  501    0  0.00000000000E+00  0.00000000000E+00 -0.16666537389E+04  0.16666537389E+04  0.25500000920E-02 0.  1.
    10030    2    1    2    0    0  0.00000000000E+00  0.00000000000E+00 -0.14520881697E+04  0.18812193081E+04  0.11960041941E+04 0.  0.
        4    1    3    3  502    0 -0.49960723870E+03  0.32441111148E+03 -0.80860267032E+03  0.10043355284E+04  0.12699999809E+01 0.  1.
       -4    1    3    3    0  502  0.49960723870E+03 -0.32441111148E+03 -0.64348549942E+03  0.87688377969E+03  0.12699999809E+01 0. -1.
</event>
<event>
 5   0  0.9145224E-04  0.1192241E+04  0.7818609E-02  0.9119675E-01
        2   -1    0    0  501    0  0.00000000000E+00  0.00000000000E+00  0.98593356445E+03  0.98593356445E+03  0.25500000920E-02 0. -1.
       -2   -1    0    0    0  501  0.00000000000E+00  0.00000000000E+00 -0.36042960886E+03  0.36042960887E+03  0.25500000920E-02 0.  1.
    10030    2    1    2    0    0  0.00000000000E+00  0.00000000000E+00  0.62550395559E+03  0.13463631733E+04  0.11922409975E+04 0.  0.
        5    1    3    3  502    0  0.36618725876E+03 -0.42751907933E+03  0.91253922118E+02  0.57027628389E+03  0.46999998093E+01 0. -1.
       -5    1    3    3    0  502 -0.36618725876E+03  0.42751907933E+03  0.53425003347E+03  0.77608688942E+03  0.46999998093E+01 0.  1.
</event>
<event>
 5   0  0.9070772E-04  0.1199651E+04  0.7818609E-02  0.9113162E-01
       -2   -1    0    0    0  501  0.00000000000E+00  0.00000000000E+00  0.80464878421E+03  0.80464878421E+03  0.25500000920E-02 0.  1.
        2   -1    0    0  501    0  0.00000000000E+00  0.00000000000E+00 -0.44713983528E+03  0.44713983529E+03  0.25500000920E-02 0. -1.
    10030    2    1    2    0    0  0.00000000000E+00  0.00000000000E+00  0.35750894893E+03  0.12517886195E+04  0.11996508239E+04 0.  0.
        4    1    3    3  502    0 -0.33939396621E+03  0.47857256280E+03  0.30895292060E+03  0.66307879034E+03  0.12699999809E+01 0.  1.
       -4    1    3    3    0  502  0.33939396621E+03 -0.47857256280E+03  0.48556028332E+02  0.58870982916E+03  0.12699999809E+01 0. -1.
</event>
<event>
 5   0  0.9410666E-04  0.1199478E+04  0.7818609E-02  0.9113314E-01
       -2   -1    0    0    0  501  0.00000000000E+00  0.00000000000E+00  0.76090641767E+03  0.76090641767E+03  0.25500000920E-02 0. -1.
        2   -1    0    0  501    0  0.00000000000E+00  0.00000000000E+00 -0.47270836918E+03  0.47270836919E+03  0.25500000920E-02 0.  1.
    10030    2    1    2    0    0  0.00000000000E+00  0.00000000000E+00  0.28819804849E+03  0.12336147869E+04  0.11994779394E+04 0.  0.
        2    1    3    3  502    0  0.30451186498E+03 -0.18266067103E+03  0.64117016320E+03  0.73293354053E+03  0.25500000920E-02 0. -1.
       -2    1    3    3    0  502 -0.30451186498E+03  0.18266067103E+03 -0.35297211471E+03  0.50068124633E+03  0.25500000920E-02 0.  1.
</event>
<event>
 5   0  0.3453625E-04  0.1199198E+04  0.7818609E-02  0.9113559E-01
       -4   -1    0    0    0  501  0.00000000000E+00  0.00000000000E+00  0.36514712459E+03  0.36514933315E+03  0.12699999809E+01 0.  1.
        4   -1    0    0  501    0  0.00000000000E+00  0.00000000000E+00 -0.98458031572E+03  0.98458113480E+03  0.12699999809E+01 0. -1.
    10030    2    1    2    0    0  0.00000000000E+00  0.00000000000E+00 -0.61943319113E+03  0.13497304679E+04  0.11991975892E+04 0.  0.
        4    1    3    3  502    0 -0.88228772793E+02  0.15685900870E+03 -0.95346355126E+03  0.97030068610E+03  0.12699999809E+01 0. -1.
       -4    1    3    3    0  502  0.88228772793E+02 -0.15685900870E+03  0.33403036014E+03  0.37942978185E+03  0.12699999809E+01 0.  1.
</event>
<event>
 5   0  0.5001586E-04  0.1200278E+04  0.7818609E-02  0.9112613E-01
       -1   -1    0    0    0  501  0.00000000000E+00  0.00000000000E+00  0.21561964198E+03  0.21561964204E+03  0.50400001928E-02 0.  1.
        1   -1    0    0  501    0  0.00000000000E+00  0.00000000000E+00 -0.16703811022E+04  0.16703811023E+04  0.50400001928E-02 0. -1.
    10030    2    1    2    0    0  0.00000000000E+00  0.00000000000E+00 -0.14547614603E+04  0.18860007443E+04  0.12002782599E+04 0.  0.
        1    1    3    3  502    0 -0.30823997380E+03 -0.11383695248E+03 -0.15164756097E+04  0.15516665261E+04  0.50400001928E-02 0. -1.
       -1    1    3    3    0  502  0.30823997380E+03  0.11383695248E+03  0.61714149479E+02  0.33433421821E+03  0.50400001928E-02 0.  1.
</event>
<event>
 5   0  0.9050363E-04  0.1194108E+04  0.7818609E-02  0.9118029E-01
        2   -1    0    0  501    0  0.00000000000E+00  0.00000000000E+00  0.87121754061E+03  0.87121754061E+03  0.25500000920E-02 0. -1.
       -2   -1    0    0    0  501  0.00000000000E+00  0.00000000000E+00 -0.40916722710E+03  0.40916722710E+03  0.25500000920E-02 0.  1.
    10030    2    1    2    0    0  0.00000000000E+00  0.00000000000E+00  0.46205031351E+03  0.12803847677E+04  0.11941083122E+04 0.  0.
        3    1    3    3  502    0  0.80466250045E+02 -0.59146794177E+03  0.21727223455E+03  0.63522938978E+03  0.10100000352E+00 0. -1.
       -3    1    3    3    0  502 -0.80466250045E+02  0.59146794177E+03  0.24477807896E+03  0.64515537793E+03  0.10100000352E+00 0.  1.
</event>
<event>
 5   0  0.5001586E-04  0.1192844E+04  0.7818609E-02  0.9119143E-01
       -1   -1    0    0    0  501  0.00000000000E+00  0.00000000000E+00  0.38602474913E+03  0.38602474917E+03  0.50400001928E-02 0. -1.
        1   -1    0    0  501    0  0.00000000000E+00  0.00000000000E+00 -0.92149401538E+03  0.92149401539E+03  0.50400001928E-02 0.  1.
    10030    2    1    2    0    0  0.00000000000E+00  0.00000000000E+00 -0.53546926624E+03  0.13075187646E+04  0.11928444930E+04 0.  0.
        1    1    3    3  502    0 -0.47474694867E+03  0.19358600211E+03  0.66288681389E+02  0.51696653159E+03  0.50400001928E-02 0. -1.
       -1    1    3    3    0  502  0.47474694867E+03 -0.19358600211E+03 -0.60175794763E+03  0.79055223297E+03  0.50400001928E-02 0.  1.
</event>
<event>
 5   0  0.9410666E-04  0.1192808E+04  0.7818609E-02  0.9119175E-01
        2   -1    0    0  501    0  0.00000000000E+00  0.00000000000E+00  0.69944888151E+03  0.69944888151E+03  0.25500000920E-02 0. -1.
       -2   -1    0    0    0  501  0.00000000000E+00  0.00000000000E+00 -0.50853980971E+03  0.50853980972E+03  0.25500000920E-02 0.  1.
    10030    2    1    2    0    0  0.00000000000E+00  0.00000000000E+00  0.19090907180E+03  0.12079886912E+04  0.11928077819E+04 0.  0.
        2    1    3    3  502    0  0.53680751862E+03 -0.19776969412E+02  0.35787429293E+03  0.64546684664E+03  0.25500000920E-02 0. -1.
       -2    1    3    3    0  502 -0.53680751862E+03  0.19776969412E+02 -0.16696522113E+03  0.56252184459E+03  0.25500000920E-02 0.  1.
</event>
<event>
 5   0  0.9145224E-04  0.1194416E+04  0.7818609E-02  0.9117758E-01
        2   -1    0    0  501    0  0.00000000000E+00  0.00000000000E+00  0.22123309837E+04  0.22123309837E+04  0.25500000920E-02 0.  1.
       -2   -1    0    0    0  501  0.00000000000E+00  0.00000000000E+00 -0.16121333592E+03  0.16121333594E+03  0.25500000920E-02 0. -1.
    10030    2    1    2    0    0  0.00000000000E+00  0.00000000000E+00  0.20511176478E+04  0.23735443197E+04  0.11944157703E+04 0.  0.
        5    1    3    3  502    0 -0.19451234333E+03 -0.24674429934E+03  0.20347701363E+04  0.20588903318E+04  0.46999998093E+01 0.  1.
       -5    1    3    3    0  502  0.19451234333E+03  0.24674429934E+03  0.16347511573E+02  0.31465398789E+03  0.46999998093E+01 0. -1.
</event>
<event>
 5   0  0.5003507E-04  0.1198659E+04  0.7818609E-02  0.9114031E-01
       -1   -1    0    0    0  501  0.00000000000E+00  0.00000000000E+00  0.50946966701E+03  0.50946966703E+03  0.50400001928E-02 0. -1.
        1   -1    0    0  501    0  0.00000000000E+00  0.00000000000E+00 -0.70503920086E+03  0.70503920088E+03  0.50400001928E-02 0.  1.
    10030    2    1    2    0    0  0.00000000000E+00  0.00000000000E+00 -0.19556953385E+03  0.12145088679E+04  0.11986593960E+04 0.  0.
        3    1    3    3  502    0 -0.26431032469E+03 -0.47578383909E+03  0.15646320158E+03  0.56631347585E+03  0.10100000352E+00 0. -1.
       -3    1    3    3    0  502  0.26431032469E+03  0.47578383909E+03 -0.35203273543E+03  0.64819539206E+03  0.10100000352E+00 0.  1.
</event>
<event>
 5   0  0.5001586E-04  0.1200201E+04  0.7818609E-02  0.9112681E-01
        1   -1    0    0  501    0  0.00000000000E+00  0.00000000000E+00  0.12876372768E+04  0.12876372768E+04  0.50400001928E-02 0.  1.
       -1   -1    0    0    0  501  0.00000000000E+00  0.00000000000E+00 -0.27967546528E+03  0.27967546532E+03  0.50400001928E-02 0. -1.
    10030    2    1    2    0    0  0.00000000000E+00  0.00000000000E+00  0.10079618115E+04  0.15673127421E+04  0.12002009074E+04 0.  0.
        1    1    3    3  502    0 -0.18880656984E+03 -0.56619377156E+03  0.58550400190E+03  0.83608506986E+03  0.50400001928E-02 0. -1.
       -1    1    3    3    0  502  0.18880656984E+03  0.56619377156E+03  0.42245780962E+03  0.73122767228E+03  0.50400001928E-02 0.  1.
</event>
<event>
 5   0  0.5157631E-04  0.1198452E+04  0.7818609E-02  0.9114212E-01
        1   -1    0    0  501    0  0.00000000000E+00  0.00000000000E+00  0.34918339643E+03  0.34918339647E+03  0.50400001928E-02 0.  1.
       -1   -1    0    0    0  501  0.00000000000E+00  0.00000000000E+00 -0.10283188527E+04  0.10283188527E+04  0.50400001928E-02 0. -1.
    10030    2    1    2    0    0  0.00000000000E+00  0.00000000000E+00 -0.67913545625E+03  0.13775022492E+04  0.11984521177E+04 0.  0.
        5    1    3    3  502    0  0.32872032426E+03  0.11911983946E+02  0.23610996713E+03  0.40493080090E+03  0.46999998093E+01 0.  1.
       -5    1    3    3    0  502 -0.32872032426E+03 -0.11911983946E+02 -0.91524542339E+03  0.97257144826E+03  0.46999998093E+01 0. -1.
</event>
<event>
 5   0  0.3453625E-04  0.1199780E+04  0.7818609E-02  0.9113049E-01
        3   -1    0    0  501    0  0.00000000000E+00  0.00000000000E+00  0.41447823806E+03  0.41447825037E+03  0.10100000352E+00 0. -1.
       -3   -1    0    0    0  501  0.00000000000E+00  0.00000000000E+00 -0.86824318649E+03  0.86824319237E+03  0.10100000352E+00 0.  1.
    10030    2    1    2    0    0  0.00000000000E+00  0.00000000000E+00 -0.45376494843E+03  0.12827214427E+04  0.11997798428E+04 0.  0.
        1    1    3    3  502    0  0.59567264031E+03  0.37297148619E+02 -0.16228232770E+03  0.61850830683E+03  0.50400001928E-02 0. -1.
       -1    1    3    3    0  502 -0.59567264031E+03 -0.37297148619E+02 -0.29148262073E+03  0.66421313591E+03  0.50400001928E-02 0.  1.
</event>
<event>
 5   0  0.3453625E-04  0.1200256E+04  0.7818609E-02  0.9112633E-01
        3   -1    0    0  501    0  0.00000000000E+00  0.00000000000E+00  0.13205755260E+04  0.13205755298E+04  0.10100000352E+00 0. -1.
       -3   -1    0    0    0  501  0.00000000000E+00  0.00000000000E+00 -0.27272462366E+03  0.27272464236E+03  0.10100000352E+00 0.  1.
    10030    2    1    2    0    0  0.00000000000E+00  0.00000000000E+00  0.10478509023E+04  0.15933001722E+04  0.12002557749E+04 0.  0.
        2    1    3    3  502    0 -0.28724293839E+03 -0.24527293217E+03 -0.95144345282E+02  0.38951221207E+03  0.25500000920E-02 0.  1.
       -2    1    3    3    0  502  0.28724293839E+03  0.24527293217E+03  0.11429952476E+04  0.12037879601E+04  0.25500000920E-02 0. -1.
</event>
<event>
 5   0  0.5003507E-04  0.1198690E+04  0.7818609E-02  0.9114004E-01
        1   -1    0    0  501    0  0.00000000000E+00  0.00000000000E+00  0.98613069634E+03  0.98613069635E+03  0.50400001928E-02 0.  1.
       -1   -1    0    0    0  501  0.00000000000E+00  0.00000000000E+00 -0.36426632418E+03  0.36426632421E+03  0.50400001928E-02 0. -1.
    10030    2    1    2    0    0  0.00000000000E+00  0.00000000000E+00  0.62186437216E+03  0.13503970206E+04  0.11986896245E+04 0.  0.
        3    1    3    3  502    0 -0.24596193252E+03 -0.27827605064E+03 -0.21900595664E+03  0.43115942742E+03  0.10100000352E+00 0. -1.
       -3    1    3    3    0  502  0.24596193252E+03  0.27827605064E+03  0.84087032880E+03  0.91923759315E+03  0.10100000352E+00 0.  1.
</event>
<event>
 5   0  0.9145224E-04  0.1197777E+04  0.7818609E-02  0.9114804E-01
        2   -1    0    0  501    0  0.00000000000E+00  0.00000000000E+00  0.44056599046E+03  0.44056599046E+03  0.25500000920E-02 0.  1.
       -2   -1    0    0    0  501  0.00000000000E+00  0.00000000000E+00 -0.81410625282E+03  0.81410625283E+03  0.25500000920E-02 0. -1.
    10030    2    1    2    0    0  0.00000000000E+00  0.00000000000E+00 -0.37354026237E+03  0.12546722433E+04  0.11977771539E+04 0.  0.
        5    1    3    3  502    0  0.18941161934E+03 -0.60172142325E+02 -0.77853655685E+03  0.80351646443E+03  0.46999998093E+01 0. -1.
       -5    1    3    3    0  502 -0.18941161934E+03  0.60172142325E+02  0.40499629449E+03  0.45115577886E+03  0.46999998093E+01 0.  1.
</event>
<event>
 5   0  0.3453625E-04  0.1199398E+04  0.7818609E-02  0.9113383E-01
        3   -1    0    0  501    0  0.00000000000E+00  0.00000000000E+00  0.27856572534E+03  0.27856574365E+03  0.10100000352E+00 0.  1.
       -3   -1    0    0    0  501  0.00000000000E+00  0.00000000000E+00 -0.12910387464E+04  0.12910387503E+04  0.10100000352E+00 0. -1.
    10030    2    1    2    0    0  0.00000000000E+00  0.00000000000E+00 -0.10124730211E+04  0.15696044940E+04  0.11993984531E+04 0.  0.
        2    1    3    3  502    0  0.23572219968E+03 -0.16932774954E+02  0.21505644466E+03  0.31953239067E+03  0.25500000920E-02 0.  1.
       -2    1    3    3    0  502 -0.23572219968E+03  0.16932774954E+02 -0.12275294657E+04  0.12500721033E+04  0.25500000920E-02 0. -1.
</event>
<event>
 5   0  0.9145224E-04  0.1200963E+04  0.7818609E-02  0.9112014E-01
        2   -1    0    0  501    0  0.00000000000E+00  0.00000000000E+00  0.13753483297E+04  0.13753483297E+04  0.25500000920E-02 0. -1.
       -2   -1    0    0    0  501  0.00000000000E+00  0.00000000000E+00 -0.26217198597E+03  0.26217198599E+03  0.25500000920E-02 0.  1.
    10030    2    1    2    0    0  0.00000000000E+00  0.00000000000E+00  0.11131763438E+04  0.16375203157E+04  0.12009626189E+04 0.  0.
        5    1    3    3  502    0  0.29535496982E+03 -0.14604867173E+03 -0.12787434590E+03  0.35346670430E+03  0.46999998093E+01 0.  1.
       -5    1    3    3    0  502 -0.29535496982E+03  0.14604867173E+03  0.12410506897E+04  0.12840536114E+04  0.46999998093E+01 0. -1.
</event>
<event>
 5   0  0.5001586E-04  0.1205786E+04  0.7818609E-02  0.9107807E-01
        1   -1    0    0  501    0  0.00000000000E+00  0.00000000000E+00  0.44508637440E+03  0.44508637443E+03  0.50400001928E-02 0. -1.
       -1   -1    0    0    0  501  0.00000000000E+00  0.00000000000E+00 -0.81665097574E+03  0.81665097576E+03  0.50400001928E-02 0.  1.
    10030    2    1    2    0    0  0.00000000000E+00  0.00000000000E+00 -0.37156460134E+03  0.12617373502E+04  0.12057864189E+04 0.  0.
        1    1    3    3  502    0 -0.57773049335E+03 -0.46938275219E+02 -0.12241967286E+02  0.57976339175E+03  0.50400001928E-02 0. -1.
       -1    1    3    3    0  502  0.57773049335E+03  0.46938275219E+02 -0.35932263405E+03  0.68197395844E+03  0.50400001928E-02 0.  1.
</event>
<event>
 5   0  0.5157631E-04  0.1198595E+04  0.7818609E-02  0.9114087E-01
        1   -1    0    0  501    0  0.00000000000E+00  0.00000000000E+00  0.37624650827E+03  0.37624650831E+03  0.50400001928E-02 0.  1.
       -1   -1    0    0    0  501  0.00000000000E+00  0.00000000000E+00 -0.95458104339E+03  0.95458104341E+03  0.50400001928E-02 0. -1.
    10030    2    1    2    0    0  0.00000000000E+00  0.00000000000E+00 -0.57833453512E+03  0.13308275517E+04  0.11985954855E+04 0.  0.
        5    1    3    3  502    0  0.64864174989E+01  0.17933213360E+03 -0.92402867645E+03  0.94130397463E+03  0.46999998093E+01 0. -1.
       -5    1    3    3    0  502 -0.64864174989E+01 -0.17933213360E+03  0.34569414133E+03  0.38952357708E+03  0.46999998093E+01 0.  1.
</event>
<event>
 5   0  0.9050363E-04  0.1198743E+04  0.7818609E-02  0.9113958E-01
       -2   -1    0    0    0  501  0.00000000000E+00  0.00000000000E+00  0.85241869657E+03  0.85241869657E+03  0.25500000920E-02 0.  1.
        2   -1    0    0  501    0  0.00000000000E+00  0.00000000000E+00 -0.42144307692E+03  0.42144307693E+03  0.25500000920E-02 0. -1.
    10030    2    1    2    0    0  0.00000000000E+00  0.00000000000E+00  0.43097561965E+03  0.12738617735E+04  0.11987426051E+04 0.  0.
        3    1    3    3  502    0 -0.26687195408E+03 -0.29918624800E+03 -0.25798029511E+03  0.47674615230E+03  0.10100000352E+00 0. -1.
       -3    1    3    3    0  502  0.26687195408E+03  0.29918624800E+03  0.68895591476E+03  0.79711562120E+03  0.10100000352E+00 0.  1.
</event>
<event>
 5   0  0.9145224E-04  0.1193721E+04  0.7818609E-02  0.9118370E-01
        2   -1    0    0  501    0  0.00000000000E+00  0.00000000000E+00  0.88854094836E+03  0.88854094836E+03  0.25500000920E-02 0.  1.
       -2   -1    0    0    0  501  0.00000000000E+00  0.00000000000E+00 -0.40092957920E+03  0.40092957921E+03  0.25500000920E-02 0. -1.
    10030    2    1    2    0    0  0.00000000000E+00  0.00000000000E+00  0.48761136916E+03  0.12894705276E+04  0.11937208192E+04 0.  0.
        5    1    3    3  502    0 -0.30881237634E+01 -0.77013213775E+01  0.88845865334E+03  0.88850982862E+03  0.46999998093E+01 0.  1.
       -5    1    3    3    0  502  0.30881237634E+01  0.77013213775E+01 -0.40084728419E+03  0.40096069894E+03  0.46999998093E+01 0. -1.
</event>
<event>
 5   0  0.3453625E-04  0.1200939E+04  0.7818609E-02  0.9112035E-01
        3   -1    0    0  501    0  0.00000000000E+00  0.00000000000E+00  0.52546263193E+03  0.52546264163E+03  0.10100000352E+00 0. -1.
       -3   -1    0    0    0  501  0.00000000000E+00  0.00000000000E+00 -0.68618313214E+03  0.68618313957E+03  0.10100000352E+00 0.  1.
    10030    2    1    2    0    0  0.00000000000E+00  0.00000000000E+00 -0.16072050021E+03  0.12116457812E+04  0.12009389743E+04 0.  0.
        4    1    3    3  502    0 -0.42683746680E+03  0.25044639819E+03  0.26274273331E+03  0.56031150107E+03  0.12699999809E+01 0. -1.
       -4    1    3    3    0  502  0.42683746680E+03 -0.25044639819E+03 -0.42346323352E+03  0.65133428013E+03  0.12699999809E+01 0.  1.
</event>
<event>
 5   0  0.9070772E-04  0.1188648E+04  0.7818609E-02  0.9122851E-01
       -2   -1    0    0    0  501  0.00000000000E+00  0.00000000000E+00  0.28297681416E+03  0.28297681417E+03  0.25500000920E-02 0. -1.
        2   -1    0    0  501    0  0.00000000000E+00  0.00000000000E+00 -0.12482330513E+04  0.12482330513E+04  0.25500000920E-02 0.  1.
    10030    2    1    2    0    0  0.00000000000E+00  0.00000000000E+00 -0.96525623712E+03  0.15312098655E+04  0.11886479920E+04 0.  0.
        4    1    3    3  502    0 -0.48969919239E+03 -0.17297236158E+03 -0.85485764009E+03  0.10002539351E+04  0.12699999809E+01 0. -1.
       -4    1    3    3    0  502  0.48969919239E+03  0.17297236158E+03 -0.11039859703E+03  0.53095593039E+03  0.12699999809E+01 0.  1.
</event>
<event>
 5   0  0.5001586E-04  0.1198209E+04  0.7818609E-02  0.9114426E-01
        1   -1    0    0  501    0  0.00000000000E+00  0.00000000000E+00  0.13908512478E+04  0.13908512478E+04  0.50400001928E-02 0. -1.
       -1   -1    0    0    0  501  0.00000000000E+00  0.00000000000E+00 -0.25806223630E+03  0.25806223635E+03  0.50400001928E-02 0.  1.
    10030    2    1    2    0    0  0.00000000000E+00  0.00000000000E+00  0.11327890115E+04  0.16489134841E+04  0.11982089691E+04 0.  0.
        1    1    3    3  502    0  0.21798591898E+03 -0.11551387754E+03 -0.18491813766E+03  0.30831158661E+03  0.50400001928E-02 0.  1.
       -1    1    3    3    0  502 -0.21798591898E+03  0.11551387754E+03  0.13177071491E+04  0.13406018975E+04  0.50400001928E-02 0. -1.
</event>
<event>
 5   0  0.5447074E-04  0.1199630E+04  0.7818609E-02  0.9113180E-01
        1   -1    0    0  501    0  0.00000000000E+00  0.00000000000E+00  0.45170781318E+03  0.45170781321E+03  0.50400001928E-02 0.  1.
       -1   -1    0    0    0  501  0.00000000000E+00  0.00000000000E+00 -0.79648396704E+03  0.79648396706E+03  0.50400001928E-02 0. -1.
    10030    2    1    2    0    0  0.00000000000E+00  0.00000000000E+00 -0.34477615386E+03  0.12481917803E+04  0.11996299946E+04 0.  0.
        4    1    3    3  502    0 -0.46732125615E+03  0.34253795865E+03 -0.33376326452E+03  0.66867102465E+03  0.12699999809E+01 0. -1.
       -4    1    3    3    0  502  0.46732125615E+03 -0.34253795865E+03 -0.11012889340E+02  0.57952075562E+03  0.12699999809E+01 0.  1.
</event>
<event>
 5   0  0.5447074E-04  0.1221976E+04  0.7818609E-02  0.9093835E-01
        1   -1    0    0  501    0  0.00000000000E+00  0.00000000000E+00  0.26958082586E+03  0.26958082591E+03  0.50400001928E-02 0.  1.
       -1   -1    0    0    0  501  0.00000000000E+00  0.00000000000E+00 -0.13847662736E+04  0.13847662736E+04  0.50400001928E-02 0. -1.
    10030    2    1    2    0    0  0.00000000000E+00  0.00000000000E+00 -0.11151854477E+04  0.16543470995E+04  0.12219761630E+04 0.  0.
        4    1    3    3  502    0  0.25313261440E+03  0.15997360587E+03 -0.12786096414E+04  0.13132067251E+04  0.12699999809E+01 0. -1.
       -4    1    3    3    0  502 -0.25313261440E+03 -0.15997360587E+03  0.16342419365E+03  0.34114037436E+03  0.12699999809E+01 0.  1.
</event>
<event>
 5   0  0.5447074E-04  0.1198905E+04  0.7818609E-02  0.9113815E-01
        1   -1    0    0  501    0  0.00000000000E+00  0.00000000000E+00  0.70536459545E+03  0.70536459546E+03  0.50400001928E-02 0.  1.
       -1   -1    0    0    0  501  0.00000000000E+00  0.00000000000E+00 -0.50944342110E+03  0.50944342112E+03  0.50400001928E-02 0. -1.
    10030    2    1    2    0    0  0.00000000000E+00  0.00000000000E+00  0.19592117435E+03  0.12148080166E+04  0.11989050882E+04 0.  0.
        4    1    3    3  502    0 -0.47146377211E+02  0.33668192819E+02  0.70251994271E+03  0.70490581704E+03  0.12699999809E+01 0.  1.
       -4    1    3    3    0  502  0.47146377211E+02 -0.33668192819E+02 -0.50659876837E+03  0.50990219955E+03  0.12699999809E+01 0. -1.
</event>
<event>
 5   0  0.5001586E-04  0.1197526E+04  0.7818609E-02  0.9115025E-01
       -1   -1    0    0    0  501  0.00000000000E+00  0.00000000000E+00  0.36116732894E+03  0.36116732898E+03  0.50400001928E-02 0. -1.
        1   -1    0    0  501    0  0.00000000000E+00  0.00000000000E+00 -0.99266214186E+03  0.99266214187E+03  0.50400001928E-02 0.  1.
    10030    2    1    2    0    0  0.00000000000E+00  0.00000000000E+00 -0.63149481292E+03  0.13538294709E+04  0.11975260070E+04 0.  0.
        1    1    3    3  502    0  0.40705331959E+03  0.43823452211E+03 -0.34722453633E+03  0.69159726721E+03  0.50400001928E-02 0. -1.
       -1    1    3    3    0  502 -0.40705331959E+03 -0.43823452211E+03 -0.28427027659E+03  0.66223220364E+03  0.50400001928E-02 0.  1.
</event>
<event>
 5   0  0.5157631E-04  0.1201829E+04  0.7818609E-02  0.9111257E-01
       -1   -1    0    0    0  501  0.00000000000E+00  0.00000000000E+00  0.52302794815E+03  0.52302794817E+03  0.50400001928E-02 0. -1.
        1   -1    0    0  501    0  0.00000000000E+00  0.00000000000E+00 -0.69039977153E+03  0.69039977155E+03  0.50400001928E-02 0.  1.
    10030    2    1    2    0    0  0.00000000000E+00  0.00000000000E+00 -0.16737182338E+03  0.12134277197E+04  0.12018292323E+04 0.  0.
        5    1    3    3  502    0  0.24911425872E+03 -0.26963070728E+03 -0.56400557330E+03  0.67296583042E+03  0.46999998093E+01 0.  1.
       -5    1    3    3    0  502 -0.24911425872E+03  0.26963070728E+03  0.39663374992E+03  0.54046188929E+03  0.46999998093E+01 0. -1.
</event>
<event>
 5   0  0.9070772E-04  0.1198872E+04  0.7818609E-02  0.9113844E-01
        2   -1    0    0  501    0  0.00000000000E+00  0.00000000000E+00  0.40772934573E+03  0.40772934574E+03  0.25500000920E-02 0.  1.
       -2   -1    0    0    0  501  0.00000000000E+00  0.00000000000E+00 -0.88127959693E+03  0.88127959693E+03  0.25500000920E-02 0. -1.
    10030    2    1    2    0    0  0.00000000000E+00  0.00000000000E+00 -0.47355025120E+03  0.12890089427E+04  0.11988720590E+04 0.  0.
        4    1    3    3  502    0  0.14226927484E+03 -0.21794938125E+03  0.34380418625E+03  0.43121388050E+03  0.12699999809E+01 0.  1.
       -4    1    3    3    0  502 -0.14226927484E+03  0.21794938125E+03 -0.81735443745E+03  0.85779506216E+03  0.12699999809E+01 0. -1.
</event>
<event>
 5   0  0.5157631E-04  0.1217640E+04  0.7818609E-02  0.9097555E-01
        1   -1    0    0  501    0  0.00000000000E+00  0.00000000000E+00  0.80907063337E+03  0.80907063338E+03  0.50400001928E-02 0.  1.
       -1   -1    0    0    0  501  0.00000000000E+00  0.00000000000E+00 -0.45813286367E+03  0.45813286370E+03  0.50400001928E-02 0. -1.
    10030    2    1    2    0    0  0.00000000000E+00  0.00000000000E+00  0.35093776970E+03  0.12672034971E+04  0.12176400884E+04 0.  0.
        5    1    3    3  502    0 -0.72597551338E+02  0.19833415079E+03 -0.41876600756E+03  0.46903507216E+03  0.46999998093E+01 0. -1.
       -5    1    3    3    0  502  0.72597551338E+02 -0.19833415079E+03  0.76970377725E+03  0.79816842493E+03  0.46999998093E+01 0.  1.
</event>
<event>
 5   0  0.9070772E-04  0.1181994E+04  0.7818609E-02  0.9128765E-01
        2   -1    0    0  501    0  0.00000000000E+00  0.00000000000E+00  0.24146537118E+04  0.24146537118E+04  0.25500000920E-02 0. -1.
       -2   -1    0    0    0  501  0.00000000000E+00  0.00000000000E+00 -0.14464910468E+03  0.14464910470E+03  0.25500000920E-02 0.  1.
    10030    2    1    2    0    0  0.00000000000E+00  0.00000000000E+00  0.22700046071E+04  0.25593028165E+04  0.11819940737E+04 0.  0.
        4    1    3    3  502    0  0.21541641248E+03 -0.45701031063E+03  0.17988995421E+04  0.18685030988E+04  0.12699999809E+01 0. -1.
       -4    1    3    3    0  502 -0.21541641248E+03  0.45701031063E+03  0.47110506504E+03  0.69079971772E+03  0.12699999809E+01 0.  1.
</event>
<event>
 5   0  0.5001586E-04  0.1201425E+04  0.7818609E-02  0.9111610E-01
       -1   -1    0    0    0  501  0.00000000000E+00  0.00000000000E+00  0.11148872600E+04  0.11148872600E+04  0.50400001928E-02 0. -1.
        1   -1    0    0  501    0  0.00000000000E+00  0.00000000000E+00 -0.32367015658E+03  0.32367015662E+03  0.50400001928E-02 0.  1.
    10030    2    1    2    0    0  0.00000000000E+00  0.00000000000E+00  0.79121710342E+03  0.14385574166E+04  0.12014253769E+04 0.  0.
        1    1    3    3  502    0 -0.23577484073E+02  0.24254581154E+03 -0.26182737551E+03  0.35768413865E+03  0.50400001928E-02 0.  1.
       -1    1    3    3    0  502  0.23577484073E+02 -0.24254581154E+03  0.10530444789E+04  0.10808732780E+04  0.50400001928E-02 0. -1.
</event>
<event>
 5   0  0.9298693E-04  0.1202634E+04  0.7818609E-02  0.9110554E-01
        2   -1    0    0  501    0  0.00000000000E+00  0.00000000000E+00  0.33109179082E+03  0.33109179083E+03  0.25500000920E-02 0. -1.
       -2   -1    0    0    0  501  0.00000000000E+00  0.00000000000E+00 -0.10920910265E+04  0.10920910265E+04  0.25500000920E-02 0.  1.
    10030    2    1    2    0    0  0.00000000000E+00  0.00000000000E+00 -0.76099923568E+03  0.14231828173E+04  0.12026343978E+04 0.  0.
        1    1    3    3  502    0 -0.10411330927E+03 -0.29909666423E+03 -0.98539944442E+03  0.10350412846E+04  0.50400001928E-02 0.  1.
       -1    1    3    3    0  502  0.10411330927E+03  0.29909666423E+03  0.22440020875E+03  0.38814153273E+03  0.50400001928E-02 0. -1.
</event>
<event>
 5   0  0.5003507E-04  0.1199703E+04  0.7818609E-02  0.9113116E-01
       -1   -1    0    0    0  501  0.00000000000E+00  0.00000000000E+00  0.10384769528E+04  0.10384769528E+04  0.50400001928E-02 0. -1.
        1   -1    0    0  501    0  0.00000000000E+00  0.00000000000E+00 -0.34649017540E+03  0.34649017544E+03  0.50400001928E-02 0.  1.
    10030    2    1    2    0    0  0.00000000000E+00  0.00000000000E+00  0.69198677736E+03  0.13849671282E+04  0.11997033993E+04 0.  0.
        3    1    3    3  502    0  0.11720967549E+03  0.58828534739E+03  0.34360137175E+03  0.69128841366E+03  0.10100000352E+00 0.  1.
       -3    1    3    3    0  502 -0.11720967549E+03 -0.58828534739E+03  0.34838540561E+03  0.69367871456E+03  0.10100000352E+00 0. -1.
</event>
<event>
 5   0  0.9410666E-04  0.1218811E+04  0.7818609E-02  0.9096549E-01
       -2   -1    0    0    0  501  0.00000000000E+00  0.00000000000E+00  0.18178307224E+03  0.18178307226E+03  0.25500000920E-02 0.  1.
        2   -1    0    0  501    0  0.00000000000E+00  0.00000000000E+00 -0.20429576802E+04  0.20429576802E+04  0.25500000920E-02 0. -1.
    10030    2    1    2    0    0  0.00000000000E+00  0.00000000000E+00 -0.18611746080E+04  0.22247407525E+04  0.12188110987E+04 0.  0.
        2    1    3    3  502    0  0.27142446569E+03  0.27532334086E+03 -0.70737529229E+02  0.39303686932E+03  0.25500000920E-02 0.  1.
       -2    1    3    3    0  502 -0.27142446569E+03 -0.27532334086E+03 -0.17904370788E+04  0.18317038832E+04  0.25500000920E-02 0. -1.
</event>
<event>
 5   0  0.5001586E-04  0.1201185E+04  0.7818609E-02  0.9111820E-01
        1   -1    0    0  501    0  0.00000000000E+00  0.00000000000E+00  0.12173064085E+04  0.12173064085E+04  0.50400001928E-02 0.  1.
       -1   -1    0    0    0  501  0.00000000000E+00  0.00000000000E+00 -0.29631931869E+03  0.29631931874E+03  0.50400001928E-02 0. -1.
    10030    2    1    2    0    0  0.00000000000E+00  0.00000000000E+00  0.92098708983E+03  0.15136257273E+04  0.12011850909E+04 0.  0.
        1    1    3    3  502    0  0.27059942639E+03 -0.95153527537E+02 -0.20442592150E+03  0.35223316251E+03  0.50400001928E-02 0. -1.
       -1    1    3    3    0  502 -0.27059942639E+03  0.95153527537E+02  0.11254130113E+04  0.11613925648E+04  0.50400001928E-02 0.  1.
</event>
<event>
 5   0  0.5003507E-04  0.1195154E+04  0.7818609E-02  0.9117109E-01
        1   -1    0    0  501    0  0.00000000000E+00  0.00000000000E+00  0.61787029723E+03  0.61787029725E+03  0.50400001928E-02 0.  1.
       -1   -1    0    0    0  501  0.00000000000E+00  0.00000000000E+00 -0.57795018913E+03  0.57795018915E+03  0.50400001928E-02 0. -1.
    10030    2    1    2    0    0  0.00000000000E+00  0.00000000000E+00  0.39920108101E+02  0.11958204864E+04  0.11951539736E+04 0.  0.
        3    1    3    3  502    0  0.55880391986E+03  0.19101415680E+03 -0.71469327898E+02  0.59485805364E+03  0.10100000352E+00 0. -1.
       -3    1    3    3    0  502 -0.55880391986E+03 -0.19101415680E+03  0.11138943600E+03  0.60096243277E+03  0.10100000352E+00 0.  1.
</event>
<event>
 5   0  0.5001586E-04  0.1195159E+04  0.7818609E-02  0.9117105E-01
       -1   -1    0    0    0  501  0.00000000000E+00  0.00000000000E+00  0.93616358692E+03  0.93616358693E+03  0.50400001928E-02 0. -1.
        1   -1    0    0  501    0  0.00000000000E+00  0.00000000000E+00 -0.38145167614E+03  0.38145167617E+03  0.50400001928E-02 0.  1.
    10030    2    1    2    0    0  0.00000000000E+00  0.00000000000E+00  0.55471191078E+03  0.13176152631E+04  0.11951588504E+04 0.  0.
        1    1    3    3  502    0  0.55437345873E+02 -0.52651707096E+03  0.58289393827E+03  0.78743816813E+03  0.50400001928E-02 0. -1.
       -1    1    3    3    0  502 -0.55437345873E+02  0.52651707096E+03 -0.28182027492E+02  0.53017709497E+03  0.50400001928E-02 0.  1.
</event>
<event>
 5   0  0.9145224E-04  0.1199262E+04  0.7818609E-02  0.9113503E-01
        2   -1    0    0  501    0  0.00000000000E+00  0.00000000000E+00  0.95436326639E+03  0.95436326639E+03  0.25500000920E-02 0. -1.
       -2   -1    0    0    0  501  0.00000000000E+00  0.00000000000E+00 -0.37675093149E+03  0.37675093150E+03  0.25500000920E-02 0.  1.
    10030    2    1    2    0    0  0.00000000000E+00  0.00000000000E+00  0.57761233490E+03  0.13311141979E+04  0.11992618556E+04 0.  0.
        5    1    3    3  502    0 -0.43642932895E+03  0.29412535976E+03 -0.30107147980E+02  0.52717057655E+03  0.46999998093E+01 0.  1.
       -5    1    3    3    0  502  0.43642932895E+03 -0.29412535976E+03  0.60771948288E+03  0.80394362134E+03  0.46999998093E+01 0. -1.
</event>
<event>
 5   0  0.9050363E-04  0.1250360E+04  0.7818609E-02  0.9069884E-01
        2   -1    0    0  501    0  0.00000000000E+00  0.00000000000E+00  0.43518474163E+03  0.43518474163E+03  0.25500000920E-02 0. -1.
       -2   -1    0    0    0  501  0.00000000000E+00  0.00000000000E+00 -0.89812416556E+03  0.89812416556E+03  0.25500000920E-02 0.  1.
    10030    2    1    2    0    0  0.00000000000E+00  0.00000000000E+00 -0.46293942393E+03  0.13333089072E+04  0.12503598409E+04 0.  0.
        3    1    3    3  502    0 -0.11724954962E+03  0.59490337234E+03 -0.39386335212E+03  0.72303930021E+03  0.10100000352E+00 0. -1.
       -3    1    3    3    0  502  0.11724954962E+03 -0.59490337234E+03 -0.69076071815E+02  0.61026960698E+03  0.10100000352E+00 0.  1.
</event>
<event>
 5   0  0.9298693E-04  0.1223075E+04  0.7818609E-02  0.9092895E-01
        2   -1    0    0  501    0  0.00000000000E+00  0.00000000000E+00  0.13301704090E+04  0.13301704090E+04  0.25500000920E-02 0. -1.
       -2   -1    0    0    0  501  0.00000000000E+00  0.00000000000E+00 -0.28115062668E+03  0.28115062669E+03  0.25500000920E-02 0.  1.
    10030    2    1    2    0    0  0.00000000000E+00  0.00000000000E+00  0.10490197823E+04  0.16113210357E+04  0.12230752129E+04 0.  0.
        1    1    3    3  502    0 -0.60426785870E+03 -0.73926278428E+02  0.60102893782E+03  0.85547678158E+03  0.50400001928E-02 0.  1.
       -1    1    3    3    0  502  0.60426785870E+03  0.73926278428E+02  0.44799084452E+03  0.75584425413E+03  0.50400001928E-02 0. -1.
</event>
<event>
 5   0  0.5052959E-04  0.1199914E+04  0.7818609E-02  0.9112932E-01
       -1   -1    0    0    0  501  0.00000000000E+00  0.00000000000E+00  0.39228401943E+03  0.39228401946E+03  0.50400001928E-02 0.  1.
        1   -1    0    0  501    0  0.00000000000E+00  0.00000000000E+00 -0.91757023234E+03  0.91757023236E+03  0.50400001928E-02 0. -1.
    10030    2    1    2    0    0  0.00000000000E+00  0.00000000000E+00 -0.52528621291E+03  0.13098542518E+04  0.11999135617E+04 0.  0.
        2    1    3    3  502    0 -0.15169528326E+03  0.58035799352E+03 -0.25062139494E+03  0.65010610150E+03  0.25500000920E-02 0. -1.
       -2    1    3    3    0  502  0.15169528326E+03 -0.58035799352E+03 -0.27466481797E+03  0.65974815031E+03  0.25500000920E-02 0.  1.
</event>
<event>
 5   0  0.5001586E-04  0.1196666E+04  0.7818609E-02  0.9115780E-01
       -1   -1    0    0    0  501  0.00000000000E+00  0.00000000000E+00  0.49803224057E+03  0.49803224060E+03  0.50400001928E-02 0.  1.
        1   -1    0    0  501    0  0.00000000000E+00  0.00000000000E+00 -0.71883326343E+03  0.71883326344E+03  0.50400001928E-02 0. -1.
    10030    2    1    2    0    0  0.00000000000E+00  0.00000000000E+00 -0.22080102285E+03  0.12168655040E+04  0.11966656021E+04 0.  0.
        1    1    3    3  502    0 -0.49463279373E+03  0.18111611897E+03  0.17818121141E+03  0.55606941411E+03  0.50400001928E-02 0. -1.
       -1    1    3    3    0  502  0.49463279373E+03 -0.18111611897E+03 -0.39898223426E+03  0.66079608993E+03  0.50400001928E-02 0.  1.
</event>
<event>
 5   0  0.9145224E-04  0.1200864E+04  0.7818609E-02  0.9112100E-01
       -2   -1    0    0    0  501  0.00000000000E+00  0.00000000000E+00  0.31619067562E+03  0.31619067563E+03  0.25500000920E-02 0.  1.
        2   -1    0    0  501    0  0.00000000000E+00  0.00000000000E+00 -0.11401938959E+04  0.11401938959E+04  0.25500000920E-02 0. -1.
    10030    2    1    2    0    0  0.00000000000E+00  0.00000000000E+00 -0.82400322031E+03  0.14563845716E+04  0.12008641527E+04 0.  0.
        5    1    3    3  502    0 -0.51458045506E+03 -0.26428050066E+03 -0.21697625412E+03  0.61784950645E+03  0.46999998093E+01 0.  1.
       -5    1    3    3    0  502  0.51458045506E+03  0.26428050066E+03 -0.60702696618E+03  0.83853506512E+03  0.46999998093E+01 0. -1.
</event>
<event>
 5   0  0.5157631E-04  0.1200311E+04  0.7818609E-02  0.9112584E-01
       -1   -1    0    0    0  501  0.00000000000E+00  0.00000000000E+00  0.10955010758E+04  0.10955010758E+04  0.50400001928E-02 0. -1.
        1   -1    0    0  501    0  0.00000000000E+00  0.00000000000E+00 -0.32878715263E+03  0.32878715267E+03  0.50400001928E-02 0.  1.
    10030    2    1    2    0    0  0.00000000000E+00  0.00000000000E+00  0.76671392313E+03  0.14242882284E+04  0.12003110921E+04 0.  0.
        5    1    3    3  502    0  0.48217444690E+02  0.16516991274E+03  0.10655829737E+04  0.10793957504E+04  0.46999998093E+01 0. -1.
       -5    1    3    3    0  502 -0.48217444690E+02 -0.16516991274E+03 -0.29886905058E+03  0.34489247809E+03  0.46999998093E+01 0.  1.
</event>
<event>
 5   0  0.5447074E-04  0.1198645E+04  0.7818609E-02  0.9114044E-01
        1   -1    0    0  501    0  0.00000000000E+00  0.00000000000E+00  0.84772459734E+03  0.84772459736E+03  0.50400001928E-02 0. -1.
       -1   -1    0    0    0  501  0.00000000000E+00  0.00000000000E+00 -0.42370751368E+03  0.42370751371E+03  0.50400001928E-02 0.  1.
    10030    2    1    2    0    0  0.00000000000E+00  0.00000000000E+00  0.42401708367E+03  0.12714321111E+04  0.11986447037E+04 0.  0.
        4    1    3    3  502    0  0.18482088428E+03 -0.80110911818E+02 -0.38672257233E+03  0.43604183092E+03  0.12699999809E+01 0.  1.
       -4    1    3    3    0  502 -0.18482088428E+03  0.80110911818E+02  0.81073965600E+03  0.83539028015E+03  0.12699999809E+01 0. -1.
</event>
<event>
 5   0  0.9145224E-04  0.1202347E+04  0.7818609E-02  0.9110805E-01
       -2   -1    0    0    0  501  0.00000000000E+00  0.00000000000E+00  0.44990126726E+03  0.44990126726E+03  0.25500000920E-02 0.  1.
        2   -1    0    0  501    0  0.00000000000E+00  0.00000000000E+00 -0.80330826284E+03  0.80330826285E+03  0.25500000920E-02 0. -1.
    10030    2    1    2    0    0  0.00000000000E+00  0.00000000000E+00 -0.35340699559E+03  0.12532095301E+04  0.12023467145E+04 0.  0.
        5    1    3    3  502    0  0.16106956224E+03 -0.29975362735E+03 -0.69323972720E+03  0.77226876821E+03  0.46999998093E+01 0.  1.
       -5    1    3    3    0  502 -0.16106956224E+03  0.29975362735E+03  0.33983273161E+03  0.48094076190E+03  0.46999998093E+01 0. -1.
</event>
<event>
 5   0  0.3453625E-04  0.1196292E+04  0.7818609E-02  0.9116108E-01
       -3   -1    0    0    0  501  0.00000000000E+00  0.00000000000E+00  0.34485711747E+03  0.34485713226E+03  0.10100000352E+00 0. -1.
        3   -1    0    0  501    0  0.00000000000E+00  0.00000000000E+00 -0.10374694154E+04  0.10374694203E+04  0.10100000352E+00 0.  1.
    10030    2    1    2    0    0  0.00000000000E+00  0.00000000000E+00 -0.69261229791E+03  0.13823265526E+04  0.11962921477E+04 0.  0.
        2    1    3    3  502    0 -0.16619803576E+03 -0.56592784980E+03 -0.46117682306E+03  0.74871902634E+03  0.25500000920E-02 0. -1.
       -2    1    3    3    0  502  0.16619803576E+03  0.56592784980E+03 -0.23143547485E+03  0.63360752623E+03  0.25500000920E-02 0.  1.
</event>
<event>
 5   0  0.9145224E-04  0.1204394E+04  0.7818609E-02  0.9109019E-01
        2   -1    0    0  501    0  0.00000000000E+00  0.00000000000E+00  0.12557843373E+04  0.12557843373E+04  0.25500000920E-02 0.  1.
       -2   -1    0    0    0  501  0.00000000000E+00  0.00000000000E+00 -0.28877678291E+03  0.28877678293E+03  0.25500000920E-02 0. -1.
    10030    2    1    2    0    0  0.00000000000E+00  0.00000000000E+00  0.96700755435E+03  0.15445611202E+04  0.12043942228E+04 0.  0.
        5    1    3    3  502    0  0.12602557119E+03  0.74399946581E+01  0.12385990499E+04  0.12450250980E+04  0.46999998093E+01 0.  1.
       -5    1    3    3    0  502 -0.12602557119E+03 -0.74399946581E+01 -0.27159149560E+03  0.29953602220E+03  0.46999998093E+01 0. -1.
</event>
<event>
 5   0  0.9070772E-04  0.1219724E+04  0.7818609E-02  0.9095765E-01
        2   -1    0    0  501    0  0.00000000000E+00  0.00000000000E+00  0.12875191625E+04  0.12875191625E+04  0.25500000920E-02 0.  1.
       -2   -1    0    0    0  501  0.00000000000E+00  0.00000000000E+00 -0.28887473248E+03  0.28887473249E+03  0.25500000920E-02 0. -1.
    10030    2    1    2    0    0  0.00000000000E+00  0.00000000000E+00  0.99864443003E+03  0.15763938950E+04  0.12197241551E+04 0.  0.
        4    1    3    3  502    0 -0.16927239367E+02  0.54939401479E+02  0.12840077962E+04  0.12852947144E+04  0.12699999809E+01 0.  1.
       -4    1    3    3    0  502  0.16927239367E+02 -0.54939401479E+02 -0.28536336619E+03  0.29109918058E+03  0.12699999809E+01 0. -1.
</event>
<event>
 5   0  0.9298693E-04  0.1197360E+04  0.7818609E-02  0.9115171E-01
        2   -1    0    0  501    0  0.00000000000E+00  0.00000000000E+00  0.16971558082E+04  0.16971558082E+04  0.25500000920E-02 0.  1.
       -2   -1    0    0    0  501  0.00000000000E+00  0.00000000000E+00 -0.21118713507E+03  0.21118713509E+03  0.25500000920E-02 0. -1.
    10030    2    1    2    0    0  0.00000000000E+00  0.00000000000E+00  0.14859686731E+04  0.19083429433E+04  0.11973595499E+04 0.  0.
        1    1    3    3  502    0  0.30088530326E+03 -0.64209774581E+02  0.15615216060E+04  0.15915415756E+04  0.50400001928E-02 0.  1.
       -1    1    3    3    0  502 -0.30088530326E+03  0.64209774581E+02 -0.75552932878E+02  0.31680136768E+03  0.50400001928E-02 0. -1.
</event>
<event>
 5   0  0.9298693E-04  0.1200592E+04  0.7818609E-02  0.9112339E-01
        2   -1    0    0  501    0  0.00000000000E+00  0.00000000000E+00  0.11067804624E+04  0.11067804624E+04  0.25500000920E-02 0. -1.
       -2   -1    0    0    0  501  0.00000000000E+00  0.00000000000E+00 -0.32558855424E+03  0.32558855425E+03  0.25500000920E-02 0.  1.
    10030    2    1    2    0    0  0.00000000000E+00  0.00000000000E+00  0.78119190815E+03  0.14323690166E+04  0.12005916052E+04 0.  0.
        1    1    3    3  502    0 -0.16759494467E+03 -0.25356657343E+03  0.10081905633E+04  0.10530110563E+04  0.50400001928E-02 0. -1.
       -1    1    3    3    0  502  0.16759494467E+03  0.25356657343E+03 -0.22699865515E+03  0.37935796038E+03  0.50400001928E-02 0.  1.
</event>
<event>
 5   0  0.5052959E-04  0.1200336E+04  0.7818609E-02  0.9112563E-01
        1   -1    0    0  501    0  0.00000000000E+00  0.00000000000E+00  0.62644314559E+03  0.62644314561E+03  0.50400001928E-02 0. -1.
       -1   -1    0    0    0  501  0.00000000000E+00  0.00000000000E+00 -0.57499465217E+03  0.57499465219E+03  0.50400001928E-02 0.  1.
    10030    2    1    2    0    0  0.00000000000E+00  0.00000000000E+00  0.51448493421E+02  0.12014377978E+04  0.12003357174E+04 0.  0.
        2    1    3    3  502    0 -0.36644013218E+03 -0.23338611304E+03 -0.38872598392E+03  0.58297113035E+03  0.25500000920E-02 0.  1.
       -2    1    3    3    0  502  0.36644013218E+03  0.23338611304E+03  0.44017447734E+03  0.61846666745E+03  0.25500000920E-02 0. -1.
</event>
<event>
 5   0  0.9298693E-04  0.1199634E+04  0.7818609E-02  0.9113177E-01
       -2   -1    0    0    0  501  0.00000000000E+00  0.00000000000E+00  0.22055739942E+03  0.22055739943E+03  0.25500000920E-02 0.  1.
        2   -1    0    0  501    0  0.00000000000E+00  0.00000000000E+00 -0.16312332280E+04  0.16312332280E+04  0.25500000920E-02 0. -1.
    10030    2    1    2    0    0  0.00000000000E+00  0.00000000000E+00 -0.14106758286E+04  0.18517906274E+04  0.11996342086E+04 0.  0.
        1    1    3    3  502    0 -0.50098613793E+03  0.29491847655E+03 -0.93333850982E+03  0.10995839177E+04  0.50400001928E-02 0. -1.
       -1    1    3    3    0  502  0.50098613793E+03 -0.29491847655E+03 -0.47733731878E+03  0.75220670971E+03  0.50400001928E-02 0.  1.
</event>
<event>
 5   0  0.5157631E-04  0.1205342E+04  0.7818609E-02  0.9108193E-01
       -1   -1    0    0    0  501  0.00000000000E+00  0.00000000000E+00  0.56139404609E+03  0.56139404612E+03  0.50400001928E-02 0.  1.
        1   -1    0    0  501    0  0.00000000000E+00  0.00000000000E+00 -0.64698301185E+03  0.64698301187E+03  0.50400001928E-02 0. -1.
    10030    2    1    2    0    0  0.00000000000E+00  0.00000000000E+00 -0.85588965753E+02  0.12083770580E+04  0.12053421270E+04 0.  0.
        5    1    3    3  502    0 -0.35263738317E+03  0.12407274578E+03 -0.51668242549E+03  0.63775386245E+03  0.46999998093E+01 0. -1.
       -5    1    3    3    0  502  0.35263738317E+03 -0.12407274578E+03  0.43109345974E+03  0.57062319554E+03  0.46999998093E+01 0.  1.
</event>
<event>
 5   0  0.5003507E-04  0.1197279E+04  0.7818609E-02  0.9115242E-01
        1   -1    0    0  501    0  0.00000000000E+00  0.00000000000E+00  0.47766057132E+03  0.47766057134E+03  0.50400001928E-02 0.  1.
       -1   -1    0    0    0  501  0.00000000000E+00  0.00000000000E+00 -0.75025896286E+03  0.75025896288E+03  0.50400001928E-02 0. -1.
    10030    2    1    2    0    0  0.00000000000E+00  0.00000000000E+00 -0.27259839155E+03  0.12279195342E+04  0.11972787894E+04 0.  0.
        3    1    3    3  502    0 -0.32725819142E+03  0.32382337558E+03 -0.52872667873E+03  0.70107874981E+03  0.10100000352E+00 0. -1.
       -3    1    3    3    0  502  0.32725819142E+03 -0.32382337558E+03  0.25612828718E+03  0.52684078442E+03  0.10100000352E+00 0.  1.
</event>
<event>
 5   0  0.9070772E-04  0.1197546E+04  0.7818609E-02  0.9115007E-01
       -2   -1    0    0    0  501  0.00000000000E+00  0.00000000000E+00  0.41842645593E+03  0.41842645593E+03  0.25500000920E-02 0.  1.
        2   -1    0    0  501    0  0.00000000000E+00  0.00000000000E+00 -0.85685125246E+03  0.85685125247E+03  0.25500000920E-02 0. -1.
    10030    2    1    2    0    0  0.00000000000E+00  0.00000000000E+00 -0.43842479654E+03  0.12752777084E+04  0.11975462126E+04 0.  0.
        4    1    3    3  502    0 -0.48568955423E+03  0.27776809860E+03  0.78859265126E+01  0.55956524233E+03  0.12699999809E+01 0.  1.
       -4    1    3    3    0  502  0.48568955423E+03 -0.27776809860E+03 -0.44631072305E+03  0.71571246607E+03  0.12699999809E+01 0. -1.
</event>
<event>
 5   0  0.5001586E-04  0.1153028E+04  0.7818609E-02  0.9154995E-01
        1   -1    0    0  501    0  0.00000000000E+00  0.00000000000E+00  0.13996939823E+04  0.13996939823E+04  0.50400001928E-02 0.  1.
       -1   -1    0    0    0  501  0.00000000000E+00  0.00000000000E+00 -0.23745777375E+03  0.23745777380E+03  0.50400001928E-02 0. -1.
    10030    2    1    2    0    0  0.00000000000E+00  0.00000000000E+00  0.11622362086E+04  0.16371517561E+04  0.11530276961E+04 0.  0.
        1    1    3    3  502    0 -0.48510381800E+03  0.20211399769E+03  0.24453824563E+03  0.57963327708E+03  0.50400001928E-02 0. -1.
       -1    1    3    3    0  502  0.48510381800E+03 -0.20211399769E+03  0.91769796294E+03  0.10575184790E+04  0.50400001928E-02 0.  1.
</event>
<event>
 5   0  0.9050363E-04  0.1200308E+04  0.7818609E-02  0.9112587E-01
       -2   -1    0    0    0  501  0.00000000000E+00  0.00000000000E+00  0.30862940954E+03  0.30862940955E+03  0.25500000920E-02 0.  1.
        2   -1    0    0  501    0  0.00000000000E+00  0.00000000000E+00 -0.11670471987E+04  0.11670471987E+04  0.25500000920E-02 0. -1.
    10030    2    1    2    0    0  0.00000000000E+00  0.00000000000E+00 -0.85841778913E+03  0.14756766082E+04  0.12003084401E+04 0.  0.
        3    1    3    3  502    0  0.46284320999E+03  0.16181795288E+03 -0.85469323578E+03  0.98534736231E+03  0.10100000352E+00 0. -1.
       -3    1    3    3    0  502 -0.46284320999E+03 -0.16181795288E+03 -0.37245533509E+01  0.49032924593E+03  0.10100000352E+00 0.  1.
</event>
<event>
 5   0  0.9050363E-04  0.1202027E+04  0.7818609E-02  0.9111084E-01
       -2   -1    0    0    0  501  0.00000000000E+00  0.00000000000E+00  0.39072021903E+03  0.39072021904E+03  0.25500000920E-02 0. -1.
        2   -1    0    0  501    0  0.00000000000E+00  0.00000000000E+00 -0.92449091315E+03  0.92449091316E+03  0.25500000920E-02 0.  1.
    10030    2    1    2    0    0  0.00000000000E+00  0.00000000000E+00 -0.53377069412E+03  0.13152111322E+04  0.12020271080E+04 0.  0.
        3    1    3    3  502    0 -0.58305386351E+03  0.13936351323E+03 -0.21990918903E+03  0.63854056895E+03  0.10100000352E+00 0.  1.
       -3    1    3    3    0  502  0.58305386351E+03 -0.13936351323E+03 -0.31386150510E+03  0.67667056324E+03  0.10100000352E+00 0. -1.
</event>
<event>
 5   0  0.9050363E-04  0.1190548E+04  0.7818609E-02  0.9121170E-01
       -2   -1    0    0    0  501  0.00000000000E+00  0.00000000000E+00  0.20032192389E+03  0.20032192391E+03  0.25500000920E-02 0. -1.
        2   -1    0    0  501    0  0.00000000000E+00  0.00000000000E+00 -0.17689081962E+04  0.17689081962E+04  0.25500000920E-02 0.  1.
    10030    2    1    2    0    0  0.00000000000E+00  0.00000000000E+00 -0.15685862723E+04  0.19692301201E+04  0.11905479294E+04 0.  0.
        3    1    3    3  502    0  0.18993011581E+03 -0.47091419973E+02 -0.17141891280E+04  0.17253218330E+04  0.10100000352E+00 0.  1.
       -3    1    3    3    0  502 -0.18993011581E+03  0.47091419973E+02  0.14560285569E+03  0.24390828710E+03  0.10100000352E+00 0. -1.
</event>
<event>
 5   0  0.5052959E-04  0.1197387E+04  0.7818609E-02  0.9115147E-01
        1   -1    0    0  501    0  0.00000000000E+00  0.00000000000E+00  0.15705665021E+04  0.15705665021E+04  0.50400001928E-02 0. -1.
       -1   -1    0    0    0  501  0.00000000000E+00  0.00000000000E+00 -0.22821960628E+03  0.22821960633E+03  0.50400001928E-02 0.  1.
    10030    2    1    2    0    0  0.00000000000E+00  0.00000000000E+00  0.13423468958E+04  0.17987861084E+04  0.11973872703E+04 0.  0.
        2    1    3    3  502    0 -0.20764095496E+03  0.42378422907E+03  0.12246213951E+04  0.13124044347E+04  0.25500000920E-02 0. -1.
       -2    1    3    3    0  502  0.20764095496E+03 -0.42378422907E+03  0.11772550073E+03  0.48638167370E+03  0.25500000920E-02 0.  1.
</event>
<event>
 5   0  0.9145224E-04  0.1198629E+04  0.7818609E-02  0.9114057E-01
       -2   -1    0    0    0  501  0.00000000000E+00  0.00000000000E+00  0.60268749298E+03  0.60268749298E+03  0.25500000920E-02 0.  1.
        2   -1    0    0  501    0  0.00000000000E+00  0.00000000000E+00 -0.59596043947E+03  0.59596043947E+03  0.25500000920E-02 0. -1.
    10030    2    1    2    0    0  0.00000000000E+00  0.00000000000E+00  0.67270535130E+01  0.11986479325E+04  0.11986290555E+04 0.  0.
        5    1    3    3  502    0  0.49386988874E+03  0.22297283786E+03 -0.25263163697E+03  0.59788726983E+03  0.46999998093E+01 0. -1.
       -5    1    3    3    0  502 -0.49386988874E+03 -0.22297283786E+03  0.25935869049E+03  0.60076066263E+03  0.46999998093E+01 0.  1.
</event>
<event>
 5   0  0.9145224E-04  0.1204929E+04  0.7818609E-02  0.9108553E-01
       -2   -1    0    0    0  501  0.00000000000E+00  0.00000000000E+00  0.22715318759E+03  0.22715318761E+03  0.25500000920E-02 0.  1.
        2   -1    0    0  501    0  0.00000000000E+00  0.00000000000E+00 -0.15978806396E+04  0.15978806396E+04  0.25500000920E-02 0. -1.
    10030    2    1    2    0    0  0.00000000000E+00  0.00000000000E+00 -0.13707274520E+04  0.18250338272E+04  0.12049293435E+04 0.  0.
        5    1    3    3  502    0 -0.25219076175E+03 -0.21902877550E+03  0.74025034367E+02  0.34216309053E+03  0.46999998093E+01 0.  1.
       -5    1    3    3    0  502  0.25219076175E+03  0.21902877550E+03 -0.14447524864E+04  0.14828707367E+04  0.46999998093E+01 0. -1.
</event>
<event>
 5   0  0.9070772E-04  0.1209388E+04  0.7818609E-02  0.9104678E-01
       -2   -1    0    0    0  501  0.00000000000E+00  0.00000000000E+00  0.11441436754E+04  0.11441436754E+04  0.25500000920E-02 0. -1.
        2   -1    0    0  501    0  0.00000000000E+00  0.00000000000E+00 -0.31958841015E+03  0.31958841016E+03  0.25500000920E-02 0.  1.
    10030    2    1    2    0    0  0.00000000000E+00  0.00000000000E+00  0.82455526521E+03  0.14637320855E+04  0.12093883714E+04 0.  0.
        4    1    3    3  502    0  0.57201803326E+03 -0.12931792565E+03  0.23388267123E+03  0.63137189759E+03  0.12699999809E+01 0.  1.
       -4    1    3    3    0  502 -0.57201803326E+03  0.12931792565E+03  0.59067259398E+03  0.83236018793E+03  0.12699999809E+01 0. -1.
</event>
<event>
 5   0  0.9070772E-04  0.1189799E+04  0.7818609E-02  0.9121833E-01
       -2   -1    0    0    0  501  0.00000000000E+00  0.00000000000E+00  0.48425007569E+03  0.48425007569E+03  0.25500000920E-02 0.  1.
        2   -1    0    0  501    0  0.00000000000E+00  0.00000000000E+00 -0.73083186272E+03  0.73083186272E+03  0.25500000920E-02 0. -1.
    10030    2    1    2    0    0  0.00000000000E+00  0.00000000000E+00 -0.24658178703E+03  0.12150819384E+04  0.11897989491E+04 0.  0.
        4    1    3    3  502    0 -0.55970880027E+03 -0.35297565398E+02  0.79380015088E+02  0.56641209284E+03  0.12699999809E+01 0.  1.
       -4    1    3    3    0  502  0.55970880027E+03  0.35297565398E+02 -0.32596180212E+03  0.64866984558E+03  0.12699999809E+01 0. -1.
</event>
<event>
 5   0  0.5052959E-04  0.1194756E+04  0.7818609E-02  0.9117459E-01
        1   -1    0    0  501    0  0.00000000000E+00  0.00000000000E+00  0.10473975127E+04  0.10473975127E+04  0.50400001928E-02 0. -1.
       -1   -1    0    0    0  501  0.00000000000E+00  0.00000000000E+00 -0.34071173817E+03  0.34071173821E+03  0.50400001928E-02 0.  1.
    10030    2    1    2    0    0  0.00000000000E+00  0.00000000000E+00  0.70668577451E+03  0.13881092509E+04  0.11947562549E+04 0.  0.
        2    1    3    3  502    0 -0.32550321815E+03  0.37338581619E+03  0.74128314802E+03  0.89155483191E+03  0.25500000920E-02 0. -1.
       -2    1    3    3    0  502  0.32550321815E+03 -0.37338581619E+03 -0.34597373511E+02  0.49655441899E+03  0.25500000920E-02 0.  1.
</event>
<event>
 5   0  0.9050363E-04  0.1201744E+04  0.7818609E-02  0.9111332E-01
       -2   -1    0    0    0  501  0.00000000000E+00  0.00000000000E+00  0.43875903303E+03  0.43875903304E+03  0.25500000920E-02 0. -1.
        2   -1    0    0  501    0  0.00000000000E+00  0.00000000000E+00 -0.82288189670E+03  0.82288189671E+03  0.25500000920E-02 0.  1.
    10030    2    1    2    0    0  0.00000000000E+00  0.00000000000E+00 -0.38412286367E+03  0.12616409298E+04  0.12017435089E+04 0.  0.
        3    1    3    3  502    0  0.37116301168E+03 -0.41921620053E+03  0.36849051517E+02  0.56112571392E+03  0.10100000352E+00 0. -1.
       -3    1    3    3    0  502 -0.37116301168E+03  0.41921620053E+03 -0.42097191519E+03  0.70051521583E+03  0.10100000352E+00 0.  1.
</event>
<event>
 5   0  0.5447074E-04  0.1225184E+04  0.7818609E-02  0.9091094E-01
        1   -1    0    0  501    0  0.00000000000E+00  0.00000000000E+00  0.10928490488E+04  0.10928490488E+04  0.50400001928E-02 0. -1.
       -1   -1    0    0    0  501  0.00000000000E+00  0.00000000000E+00 -0.34338603193E+03  0.34338603197E+03  0.50400001928E-02 0.  1.
    10030    2    1    2    0    0  0.00000000000E+00  0.00000000000E+00  0.74946301689E+03  0.14362350808E+04  0.12251842284E+04 0.  0.
        4    1    3    3  502    0  0.14690196259E+02 -0.43560378510E+03  0.87934986501E+03  0.98143988989E+03  0.12699999809E+01 0. -1.
       -4    1    3    3    0  502 -0.14690196259E+02  0.43560378510E+03 -0.12988684812E+03  0.45479519091E+03  0.12699999809E+01 0.  1.
</event>
<event>
 5   0  0.9298693E-04  0.1201442E+04  0.7818609E-02  0.9111596E-01
        2   -1    0    0  501    0  0.00000000000E+00  0.00000000000E+00  0.76834253999E+03  0.76834253999E+03  0.25500000920E-02 0. -1.
       -2   -1    0    0    0  501  0.00000000000E+00  0.00000000000E+00 -0.46966755475E+03  0.46966755475E+03  0.25500000920E-02 0.  1.
    10030    2    1    2    0    0  0.00000000000E+00  0.00000000000E+00  0.29867498524E+03  0.12380100947E+04  0.12014417372E+04 0.  0.
        1    1    3    3  502    0  0.58274001073E+02 -0.68336549514E+02 -0.46271073927E+03  0.47134591486E+03  0.50400001928E-02 0.  1.
       -1    1    3    3    0  502 -0.58274001073E+02  0.68336549514E+02  0.76138572451E+03  0.76666417988E+03  0.50400001928E-02 0. -1.
</event>
<event>
 5   0  0.9410666E-04  0.1203638E+04  0.7818609E-02  0.9109678E-01
       -2   -1    0    0    0  501  0.00000000000E+00  0.00000000000E+00  0.71521334610E+03  0.71521334611E+03  0.25500000920E-02 0. -1.
        2   -1    0    0  501    0  0.00000000000E+00  0.00000000000E+00 -0.50640273204E+03  0.50640273205E+03  0.25500000920E-02 0.  1.
    10030    2    1    2    0    0  0.00000000000E+00  0.00000000000E+00  0.20881061406E+03  0.12216160782E+04  0.12036378068E+04 0.  0.
        2    1    3    3  502    0  0.39713428402E+03 -0.35327255762E+03 -0.18206736674E+03  0.56184131705E+03  0.25500000920E-02 0.  1.
       -2    1    3    3    0  502 -0.39713428402E+03  0.35327255762E+03  0.39087798080E+03  0.65977476111E+03  0.25500000920E-02 0. -1.
</event>
<event>
 5   0  0.5447074E-04  0.1211062E+04  0.7818609E-02  0.9103229E-01
        1   -1    0    0  501    0  0.00000000000E+00  0.00000000000E+00  0.67750680264E+03  0.67750680266E+03  0.50400001928E-02 0. -1.
       -1   -1    0    0    0  501  0.00000000000E+00  0.00000000000E+00 -0.54120158925E+03  0.54120158928E+03  0.50400001928E-02 0.  1.
    10030    2    1    2    0    0  0.00000000000E+00  0.00000000000E+00  0.13630521338E+03  0.12187083919E+04  0.12110619445E+04 0.  0.
        4    1    3    3  502    0 -0.24587732049E+03  0.33230095783E+03 -0.37711887889E+03  0.55955325486E+03  0.12699999809E+01 0.  1.
       -4    1    3    3    0  502  0.24587732049E+03 -0.33230095783E+03  0.51342409228E+03  0.65915513708E+03  0.12699999809E+01 0. -1.
</event>
<event>
 5   0  0.5052959E-04  0.1200289E+04  0.7818609E-02  0.9112604E-01
        1   -1    0    0  501    0  0.00000000000E+00  0.00000000000E+00  0.36174511499E+03  0.36174511502E+03  0.50400001928E-02 0.  1.
       -1   -1    0    0    0  501  0.00000000000E+00  0.00000000000E+00 -0.99565514619E+03  0.99565514620E+03  0.50400001928E-02 0. -1.
    10030    2    1    2    0    0  0.00000000000E+00  0.00000000000E+00 -0.63391003120E+03  0.13574002612E+04  0.12002889408E+04 0.  0.
        2    1    3    3  502    0  0.41753364821E+03  0.36331430044E+03 -0.57936583414E+03  0.80124677726E+03  0.25500000920E-02 0. -1.
       -2    1    3    3    0  502 -0.41753364821E+03 -0.36331430044E+03 -0.54544197061E+02  0.55615348397E+03  0.25500000920E-02 0.  1.
</event>
<event>
 5   0  0.9070772E-04  0.1207295E+04  0.7818609E-02  0.9106495E-01
       -2   -1    0    0    0  501  0.00000000000E+00  0.00000000000E+00  0.58249260602E+03  0.58249260602E+03  0.25500000920E-02 0. -1.
        2   -1    0    0  501    0  0.00000000000E+00  0.00000000000E+00 -0.62557085530E+03  0.62557085530E+03  0.25500000920E-02 0.  1.
    10030    2    1    2    0    0  0.00000000000E+00  0.00000000000E+00 -0.43078249277E+02  0.12080634613E+04  0.12072951549E+04 0.  0.
        4    1    3    3  502    0 -0.33164782507E+03  0.50429608414E+03 -0.30708170539E+02  0.60435868902E+03  0.12699999809E+01 0.  1.
       -4    1    3    3    0  502  0.33164782507E+03 -0.50429608414E+03 -0.12370078738E+02  0.60370477231E+03  0.12699999809E+01 0. -1.
</event>
<event>
 5   0  0.9070772E-04  0.1196973E+04  0.7818609E-02  0.9115510E-01
        2   -1    0    0  501    0  0.00000000000E+00  0.00000000000E+00  0.10016964921E+04  0.10016964921E+04  0.25500000920E-02 0.  1.
       -2   -1    0    0    0  501  0.00000000000E+00  0.00000000000E+00 -0.35757956841E+03  0.35757956842E+03  0.25500000920E-02 0. -1.
    10030    2    1    2    0    0  0.00000000000E+00  0.00000000000E+00  0.64411692373E+03  0.13592760606E+04  0.11969731816E+04 0.  0.
        4    1    3    3  502    0 -0.51085848812E+02 -0.58954941983E+03  0.42366912557E+03  0.72778803455E+03  0.12699999809E+01 0.  1.
       -4    1    3    3    0  502  0.51085848812E+02  0.58954941983E+03  0.22044779816E+03  0.63148802600E+03  0.12699999809E+01 0. -1.
</event>
<event>
 5   0  0.5447074E-04  0.1194626E+04  0.7818609E-02  0.9117573E-01
       -1   -1    0    0    0  501  0.00000000000E+00  0.00000000000E+00  0.11911699104E+04  0.11911699104E+04  0.50400001928E-02 0. -1.
        1   -1    0    0  501    0  0.00000000000E+00  0.00000000000E+00 -0.29952300227E+03  0.29952300231E+03  0.50400001928E-02 0.  1.
    10030    2    1    2    0    0  0.00000000000E+00  0.00000000000E+00  0.89164690815E+03  0.14906929127E+04  0.11946259462E+04 0.  0.
        4    1    3    3  502    0  0.24034120390E+03  0.54530708165E+03  0.49662521106E+03  0.77573315048E+03  0.12699999809E+01 0.  1.
       -4    1    3    3    0  502 -0.24034120390E+03 -0.54530708165E+03  0.39502169709E+03  0.71495976227E+03  0.12699999809E+01 0. -1.
</event>
<event>
 5   0  0.5052959E-04  0.1197053E+04  0.7818609E-02  0.9115440E-01
        1   -1    0    0  501    0  0.00000000000E+00  0.00000000000E+00  0.24533501675E+03  0.24533501681E+03  0.50400001928E-02 0. -1.
       -1   -1    0    0    0  501  0.00000000000E+00  0.00000000000E+00 -0.14601829938E+04  0.14601829939E+04  0.50400001928E-02 0.  1.
    10030    2    1    2    0    0  0.00000000000E+00  0.00000000000E+00 -0.12148479771E+04  0.17055180107E+04  0.11970530804E+04 0.  0.
        2    1    3    3  502    0 -0.52457425679E+03 -0.20528914977E+03 -0.31924023372E+03  0.64748444980E+03  0.25500000920E-02 0. -1.
       -2    1    3    3    0  502  0.52457425679E+03  0.20528914977E+03 -0.89560774337E+03  0.10580335609E+04  0.25500000920E-02 0.  1.
</event>
<event>
 5   0  0.9145224E-04  0.1171943E+04  0.7818609E-02  0.9137776E-01
       -2   -1    0    0    0  501  0.00000000000E+00  0.00000000000E+00  0.45783790860E+03  0.45783790861E+03  0.25500000920E-02 0.  1.
        2   -1    0    0  501    0  0.00000000000E+00  0.00000000000E+00 -0.74996532393E+03  0.74996532394E+03  0.25500000920E-02 0. -1.
    10030    2    1    2    0    0  0.00000000000E+00  0.00000000000E+00 -0.29212741533E+03  0.12078032325E+04  0.11719429260E+04 0.  0.
        5    1    3    3  502    0 -0.29174636205E+03  0.10735843222E+03 -0.65794958736E+03  0.72770977885E+03  0.46999998093E+01 0. -1.
       -5    1    3    3    0  502  0.29174636205E+03 -0.10735843222E+03  0.36582217203E+03  0.48009345370E+03  0.46999998093E+01 0.  1.
</event>
<event>
 5   0  0.3453625E-04  0.1193903E+04  0.7818609E-02  0.9118210E-01
        4   -1    0    0  501    0  0.00000000000E+00  0.00000000000E+00  0.32075436532E+03  0.32075687954E+03  0.12699999809E+01 0.  1.
       -4   -1    0    0    0  501  0.00000000000E+00  0.00000000000E+00 -0.11109704853E+04  0.11109712112E+04  0.12699999809E+01 0. -1.
    10030    2    1    2    0    0  0.00000000000E+00  0.00000000000E+00 -0.79021611998E+03  0.14317280907E+04  0.11939027638E+04 0.  0.
        4    1    3    3  502    0 -0.22885009890E+03  0.11130907233E+03 -0.10426618692E+04  0.10732695205E+04  0.12699999809E+01 0. -1.
       -4    1    3    3    0  502  0.22885009890E+03 -0.11130907233E+03  0.25244574922E+03  0.35845857019E+03  0.12699999809E+01 0.  1.
</event>
<event>
 5   0  0.5157631E-04  0.1202432E+04  0.7818609E-02  0.9110730E-01
       -1   -1    0    0    0  501  0.00000000000E+00  0.00000000000E+00  0.17877583269E+03  0.17877583276E+03  0.50400001928E-02 0. -1.
        1   -1    0    0  501    0  0.00000000000E+00  0.00000000000E+00 -0.20218668988E+04  0.20218668988E+04  0.50400001928E-02 0.  1.
    10030    2    1    2    0    0  0.00000000000E+00  0.00000000000E+00 -0.18430910661E+04  0.22006427316E+04  0.12024324322E+04 0.  0.
        5    1    3    3  502    0 -0.57337162898E+03 -0.13555287648E+03 -0.11404714430E+04  0.12836770659E+04  0.46999998093E+01 0. -1.
       -5    1    3    3    0  502  0.57337162898E+03  0.13555287648E+03 -0.70261962313E+03  0.91696566569E+03  0.46999998093E+01 0.  1.
</event>
<event>
 5   0  0.9410666E-04  0.1198559E+04  0.7818609E-02  0.9114119E-01
       -2   -1    0    0    0  501  0.00000000000E+00  0.00000000000E+00  0.97902886439E+03  0.97902886440E+03  0.25500000920E-02 0.  1.
        2   -1    0    0  501    0  0.00000000000E+00  0.00000000000E+00 -0.36682861836E+03  0.36682861837E+03  0.25500000920E-02 0. -1.
    10030    2    1    2    0    0  0.00000000000E+00  0.00000000000E+00  0.61220024604E+03  0.13458574828E+04  0.11985588107E+04 0.  0.
        2    1    3    3  502    0 -0.93411838930E+02  0.18695479055E+02  0.97047207158E+03  0.97513657214E+03  0.25500000920E-02 0.  1.
       -2    1    3    3    0  502  0.93411838930E+02 -0.18695479055E+02 -0.35827182555E+03  0.37072091063E+03  0.25500000920E-02 0. -1.
</event>
<event>
 5   0  0.5447074E-04  0.1204191E+04  0.7818609E-02  0.9109196E-01
        1   -1    0    0  501    0  0.00000000000E+00  0.00000000000E+00  0.18634152003E+04  0.18634152003E+04  0.50400001928E-02 0.  1.
       -1   -1    0    0    0  501  0.00000000000E+00  0.00000000000E+00 -0.19454552904E+03  0.19454552911E+03  0.50400001928E-02 0. -1.
    10030    2    1    2    0    0  0.00000000000E+00  0.00000000000E+00  0.16688696713E+04  0.20579607295E+04  0.12041911743E+04 0.  0.
        4    1    3    3  502    0 -0.22430542054E+03  0.49437464905E+03  0.12794255437E+04  0.13898383180E+04  0.12699999809E+01 0.  1.
       -4    1    3    3    0  502  0.22430542054E+03 -0.49437464905E+03  0.38944412756E+03  0.66812241146E+03  0.12699999809E+01 0. -1.
</event>
<event>
 5   0  0.9050363E-04  0.1222287E+04  0.7818609E-02  0.9093570E-01
        2   -1    0    0  501    0  0.00000000000E+00  0.00000000000E+00  0.99149342937E+03  0.99149342938E+03  0.25500000920E-02 0.  1.
       -2   -1    0    0    0  501  0.00000000000E+00  0.00000000000E+00 -0.37670057635E+03  0.37670057636E+03  0.25500000920E-02 0. -1.
    10030    2    1    2    0    0  0.00000000000E+00  0.00000000000E+00  0.61479285302E+03  0.13681940057E+04  0.12222866215E+04 0.  0.
        3    1    3    3  502    0 -0.58430423087E+03  0.25202970211E+02  0.50590605741E+03  0.77329656215E+03  0.10100000352E+00 0. -1.
       -3    1    3    3    0  502  0.58430423087E+03 -0.25202970211E+02  0.10888679562E+03  0.59489744358E+03  0.10100000352E+00 0.  1.
</event>
<event>
 5   0  0.3453625E-04  0.1202061E+04  0.7818609E-02  0.9111055E-01
        4   -1    0    0  501    0  0.00000000000E+00  0.00000000000E+00  0.65683910894E+03  0.65684033671E+03  0.12699999809E+01 0. -1.
       -4   -1    0    0    0  501  0.00000000000E+00  0.00000000000E+00 -0.54996107491E+03  0.54996254129E+03  0.12699999809E+01 0.  1.
    10030    2    1    2    0    0  0.00000000000E+00  0.00000000000E+00  0.10687803403E+03  0.12068028780E+04  0.12020608438E+04 0.  0.
        1    1    3    3  502    0 -0.56123822908E+03  0.16663509425E+03 -0.83045674361E+02  0.59131395085E+03  0.50400001928E-02 0.  1.
       -1    1    3    3    0  502  0.56123822908E+03 -0.16663509425E+03  0.18992370839E+03  0.61548892715E+03  0.50400001928E-02 0. -1.
</event>
<event>
 5   0  0.9410666E-04  0.1199965E+04  0.7818609E-02  0.9112887E-01
        2   -1    0    0  501    0  0.00000000000E+00  0.00000000000E+00  0.50685240079E+03  0.50685240080E+03  0.25500000920E-02 0.  1.
       -2   -1    0    0    0  501  0.00000000000E+00  0.00000000000E+00 -0.71022434837E+03  0.71022434837E+03  0.25500000920E-02 0. -1.
    10030    2    1    2    0    0  0.00000000000E+00  0.00000000000E+00 -0.20337194757E+03  0.12170767492E+04  0.11999648596E+04 0.  0.
        2    1    3    3  502    0  0.44059950538E+03 -0.26987043718E+03  0.20765667324E+03  0.55684761915E+03  0.25500000920E-02 0.  1.
       -2    1    3    3    0  502 -0.44059950538E+03  0.26987043718E+03 -0.41102862081E+03  0.66022913003E+03  0.25500000920E-02 0. -1.
</event>
<event>
 5   0  0.5003507E-04  0.1200633E+04  0.7818609E-02  0.9112303E-01
        1   -1    0    0  501    0  0.00000000000E+00  0.00000000000E+00  0.21852899727E+04  0.21852899727E+04  0.50400001928E-02 0.  1.
       -1   -1    0    0    0  501  0.00000000000E+00  0.00000000000E+00 -0.16491171392E+03  0.16491171399E+03  0.50400001928E-02 0. -1.
    10030    2    1    2    0    0  0.00000000000E+00  0.00000000000E+00  0.20203782588E+04  0.23502016867E+04  0.12006330245E+04 0.  0.
        3    1    3    3  502    0  0.57550360658E+03 -0.27093023282E+02  0.13403084028E+04  0.14588917225E+04  0.10100000352E+00 0.  1.
       -3    1    3    3    0  502 -0.57550360658E+03  0.27093023282E+02  0.68006985594E+03  0.89130996419E+03  0.10100000352E+00 0. -1.
</event>
<event>
 5   0  0.9410666E-04  0.1200409E+04  0.7818609E-02  0.9112498E-01
        2   -1    0    0  501    0  0.00000000000E+00  0.00000000000E+00  0.15225786536E+04  0.15225786536E+04  0.25500000920E-02 0. -1.
       -2   -1    0    0    0  501  0.00000000000E+00  0.00000000000E+00 -0.23660234266E+03  0.23660234267E+03  0.25500000920E-02 0.  1.
    10030    2    1    2    0    0  0.00000000000E+00  0.00000000000E+00  0.12859763109E+04  0.17591809963E+04  0.12004093907E+04 0.  0.
        2    1    3    3  502    0 -0.11765802638E+03  0.14643730127E+03 -0.19241288619E+03  0.26890521221E+03  0.25500000920E-02 0.  1.
       -2    1    3    3    0  502  0.11765802638E+03 -0.14643730127E+03  0.14783891971E+04  0.14902757841E+04  0.25500000920E-02 0. -1.
</event>
<event>
 5   0  0.5157631E-04  0.1201167E+04  0.7818609E-02  0.9111836E-01
       -1   -1    0    0    0  501  0.00000000000E+00  0.00000000000E+00  0.31895797293E+03  0.31895797297E+03  0.50400001928E-02 0.  1.
        1   -1    0    0  501    0  0.00000000000E+00  0.00000000000E+00 -0.11308718043E+04  0.11308718043E+04  0.50400001928E-02 0. -1.
    10030    2    1    2    0    0  0.00000000000E+00  0.00000000000E+00 -0.81191383134E+03  0.14498297773E+04  0.12011670631E+04 0.  0.
        5    1    3    3  502    0  0.10874546364E+03 -0.50711023526E+03 -0.77145037677E+03  0.92959353504E+03  0.46999998093E+01 0. -1.
       -5    1    3    3    0  502 -0.10874546364E+03  0.50711023526E+03 -0.40463454575E+02  0.52023624223E+03  0.46999998093E+01 0.  1.
</event>
<event>
 5   0  0.5447074E-04  0.1201919E+04  0.7818609E-02  0.9111179E-01
        1   -1    0    0  501    0  0.00000000000E+00  0.00000000000E+00  0.11085904884E+04  0.11085904884E+04  0.50400001928E-02 0. -1.
       -1   -1    0    0    0  501  0.00000000000E+00  0.00000000000E+00 -0.32577599242E+03  0.32577599246E+03  0.50400001928E-02 0.  1.
    10030    2    1    2    0    0  0.00000000000E+00  0.00000000000E+00  0.78281449597E+03  0.14343664809E+04  0.12019187436E+04 0.  0.
        4    1    3    3  502    0 -0.32855807714E+03  0.42414218386E+03  0.68299384167E+02  0.54084509886E+03  0.12699999809E+01 0.  1.
       -4    1    3    3    0  502  0.32855807714E+03 -0.42414218386E+03  0.71451511180E+03  0.89352138199E+03  0.12699999809E+01 0. -1.
</event>
<event>
 5   0  0.9050363E-04  0.1185651E+04  0.7818609E-02  0.9125509E-01
        2   -1    0    0  501    0  0.00000000000E+00  0.00000000000E+00  0.15347576202E+04  0.15347576202E+04  0.25500000920E-02 0.  1.
       -2   -1    0    0    0  501  0.00000000000E+00  0.00000000000E+00 -0.22898883239E+03  0.22898883240E+03  0.25500000920E-02 0. -1.
    10030    2    1    2    0    0  0.00000000000E+00  0.00000000000E+00  0.13057687878E+04  0.17637464526E+04  0.11856514757E+04 0.  0.
        3    1    3    3  502    0 -0.29876281233E+02  0.58892286696E+03  0.74360956635E+03  0.94904053274E+03  0.10100000352E+00 0.  1.
       -3    1    3    3    0  502  0.29876281233E+02 -0.58892286696E+03  0.56215922147E+03  0.81470591988E+03  0.10100000352E+00 0. -1.
</event>
<event>
 5   0  0.5003507E-04  0.1197116E+04  0.7818609E-02  0.9115384E-01
       -1   -1    0    0    0  501  0.00000000000E+00  0.00000000000E+00  0.45506738825E+03  0.45506738828E+03  0.50400001928E-02 0.  1.
        1   -1    0    0  501    0  0.00000000000E+00  0.00000000000E+00 -0.78729413249E+03  0.78729413250E+03  0.50400001928E-02 0. -1.
    10030    2    1    2    0    0  0.00000000000E+00  0.00000000000E+00 -0.33222674423E+03  0.12423615208E+04  0.11971163430E+04 0.  0.
        3    1    3    3  502    0 -0.25601412088E+03 -0.25479727263E+02  0.39475650590E+03  0.47119545387E+03  0.10100000352E+00 0.  1.
       -3    1    3    3    0  502  0.25601412088E+03  0.25479727263E+02 -0.72698325013E+03  0.77116606692E+03  0.10100000352E+00 0. -1.
</event>
<event>
 5   0  0.5052959E-04  0.1196923E+04  0.7818609E-02  0.9115554E-01
       -1   -1    0    0    0  501  0.00000000000E+00  0.00000000000E+00  0.10856327451E+04  0.10856327451E+04  0.50400001928E-02 0. -1.
        1   -1    0    0  501    0  0.00000000000E+00  0.00000000000E+00 -0.32990523506E+03  0.32990523510E+03  0.50400001928E-02 0.  1.
    10030    2    1    2    0    0  0.00000000000E+00  0.00000000000E+00  0.75572751005E+03  0.14155379802E+04  0.11969225973E+04 0.  0.
        2    1    3    3  502    0 -0.31444564478E+03 -0.54522197787E+02  0.97660042387E+03  0.10274225623E+04  0.25500000920E-02 0. -1.
       -2    1    3    3    0  502  0.31444564478E+03  0.54522197787E+02 -0.22087291382E+03  0.38811541794E+03  0.25500000920E-02 0.  1.
</event>
<event>
 5   0  0.5052959E-04  0.1199910E+04  0.7818609E-02  0.9112936E-01
        1   -1    0    0  501    0  0.00000000000E+00  0.00000000000E+00  0.15355126057E+04  0.15355126057E+04  0.50400001928E-02 0.  1.
       -1   -1    0    0    0  501  0.00000000000E+00  0.00000000000E+00 -0.23441406230E+03  0.23441406235E+03  0.50400001928E-02 0. -1.
    10030    2    1    2    0    0  0.00000000000E+00  0.00000000000E+00  0.13010985434E+04  0.17699266681E+04  0.11999095761E+04 0.  0.
        2    1    3    3  502    0 -0.13696885660E+03  0.38801789244E+03  0.65291889255E+01  0.41153491084E+03  0.25500000920E-02 0. -1.
       -2    1    3    3    0  502  0.13696885660E+03 -0.38801789244E+03  0.12945693545E+04  0.13583917572E+04  0.25500000920E-02 0.  1.
</event>
<event>
 5   0  0.9070772E-04  0.1200687E+04  0.7818609E-02  0.9112256E-01
        2   -1    0    0  501    0  0.00000000000E+00  0.00000000000E+00  0.85201044624E+03  0.85201044624E+03  0.25500000920E-02 0.  1.
       -2   -1    0    0    0  501  0.00000000000E+00  0.00000000000E+00 -0.42301375991E+03  0.42301375992E+03  0.25500000920E-02 0. -1.
    10030    2    1    2    0    0  0.00000000000E+00  0.00000000000E+00  0.42899668633E+03  0.12750242062E+04  0.12006867074E+04 0.  0.
        4    1    3    3  502    0 -0.30300871573E+02 -0.29509300127E+02  0.85042487054E+03  0.85147696090E+03  0.12699999809E+01 0.  1.
       -4    1    3    3    0  502  0.30300871573E+02  0.29509300127E+02 -0.42142818422E+03  0.42354724526E+03  0.12699999809E+01 0. -1.
</event>
<event>
 5   0  0.5001586E-04  0.1198253E+04  0.7818609E-02  0.9114387E-01
        1   -1    0    0  501    0  0.00000000000E+00  0.00000000000E+00  0.86975866493E+03  0.86975866495E+03  0.50400001928E-02 0. -1.
       -1   -1    0    0    0  501  0.00000000000E+00  0.00000000000E+00 -0.41270336917E+03  0.41270336920E+03  0.50400001928E-02 0.  1.
    10030    2    1    2    0    0  0.00000000000E+00  0.00000000000E+00  0.45705529577E+03  0.12824620341E+04  0.11982526134E+04 0.  0.
        1    1    3    3  502    0  0.55045473400E+03  0.17158727569E+03  0.40278805952E+03  0.70333550193E+03  0.50400001928E-02 0. -1.
       -1    1    3    3    0  502 -0.55045473400E+03 -0.17158727569E+03  0.54267236245E+02  0.57912653221E+03  0.50400001928E-02 0.  1.
</event>
<event>
 5   0  0.5001586E-04  0.1196597E+04  0.7818609E-02  0.9115840E-01
       -1   -1    0    0    0  501  0.00000000000E+00  0.00000000000E+00  0.19417270278E+03  0.19417270285E+03  0.50400001928E-02 0.  1.
        1   -1    0    0  501    0  0.00000000000E+00  0.00000000000E+00 -0.18435194392E+04  0.18435194392E+04  0.50400001928E-02 0. -1.
    10030    2    1    2    0    0  0.00000000000E+00  0.00000000000E+00 -0.16493467364E+04  0.20376921421E+04  0.11965970955E+04 0.  0.
        1    1    3    3  502    0  0.51590842562E+03  0.11597668018E+03 -0.34801467655E+03  0.63302946937E+03  0.50400001928E-02 0.  1.
       -1    1    3    3    0  502 -0.51590842562E+03 -0.11597668018E+03 -0.13013320599E+04  0.14046626727E+04  0.50400001928E-02 0. -1.
</event>
<event>
 5   0  0.9145224E-04  0.1199977E+04  0.7818609E-02  0.9112877E-01
        2   -1    0    0  501    0  0.00000000000E+00  0.00000000000E+00  0.11201270656E+04  0.11201270656E+04  0.25500000920E-02 0.  1.
       -2   -1    0    0    0  501  0.00000000000E+00  0.00000000000E+00 -0.32137979510E+03  0.32137979511E+03  0.25500000920E-02 0. -1.
    10030    2    1    2    0    0  0.00000000000E+00  0.00000000000E+00  0.79874727047E+03  0.14415068607E+04  0.11999770112E+04 0.  0.
        5    1    3    3  502    0 -0.37533658447E+03  0.30914098310E+03 -0.22818022440E+02  0.48681459635E+03  0.46999998093E+01 0. -1.
       -5    1    3    3    0  502  0.37533658447E+03 -0.30914098310E+03  0.82156529291E+03  0.95469226434E+03  0.46999998093E+01 0.  1.
</event>
<event>
 5   0  0.9298693E-04  0.1200948E+04  0.7818609E-02  0.9112027E-01
        2   -1    0    0  501    0  0.00000000000E+00  0.00000000000E+00  0.15819362243E+04  0.15819362243E+04  0.25500000920E-02 0. -1.
       -2   -1    0    0    0  501  0.00000000000E+00  0.00000000000E+00 -0.22792888139E+03  0.22792888140E+03  0.25500000920E-02 0.  1.
    10030    2    1    2    0    0  0.00000000000E+00  0.00000000000E+00  0.13540073429E+04  0.18098651057E+04  0.12009478824E+04 0.  0.
        1    1    3    3  502    0  0.40308097134E+03 -0.29315621168E+03  0.11816994387E+04  0.12825086344E+04  0.50400001928E-02 0. -1.
       -1    1    3    3    0  502 -0.40308097134E+03  0.29315621168E+03  0.17230790417E+03  0.52735647125E+03  0.50400001928E-02 0.  1.
</event>
<event>
 5   0  0.9298693E-04  0.1204414E+04  0.7818609E-02  0.9109002E-01
        2   -1    0    0  501    0  0.00000000000E+00  0.00000000000E+00  0.14691183828E+04  0.14691183828E+04  0.25500000920E-02 0.  1.
       -2   -1    0    0    0  501  0.00000000000E+00  0.00000000000E+00 -0.24685075610E+03  0.24685075611E+03  0.25500000920E-02 0. -1.
    10030    2    1    2    0    0  0.00000000000E+00  0.00000000000E+00  0.12222676267E+04  0.17159691389E+04  0.12044135230E+04 0.  0.
        1    1    3    3  502    0 -0.13587963532E+03  0.49279992134E+03  0.15758932021E+03  0.53492937070E+03  0.50400001928E-02 0. -1.
       -1    1    3    3    0  502  0.13587963532E+03 -0.49279992134E+03  0.10646783065E+04  0.11810397682E+04  0.50400001928E-02 0.  1.
</event>
<event>
 5   0  0.5003507E-04  0.1196083E+04  0.7818609E-02  0.9116292E-01
       -1   -1    0    0    0  501  0.00000000000E+00  0.00000000000E+00  0.85937594742E+03  0.85937594743E+03  0.50400001928E-02 0. -1.
        1   -1    0    0  501    0  0.00000000000E+00  0.00000000000E+00 -0.41617853768E+03  0.41617853771E+03  0.50400001928E-02 0.  1.
    10030    2    1    2    0    0  0.00000000000E+00  0.00000000000E+00  0.44319740974E+03  0.12755544851E+04  0.11960833167E+04 0.  0.
        3    1    3    3  502    0  0.47751637133E+03 -0.24151574685E+03  0.50636505107E+03  0.73672064992E+03  0.10100000352E+00 0. -1.
       -3    1    3    3    0  502 -0.47751637133E+03  0.24151574685E+03 -0.63167641328E+02  0.53883383522E+03  0.10100000352E+00 0.  1.
</event>
<event>
 5   0  0.9145224E-04  0.1205268E+04  0.7818609E-02  0.9108258E-01
       -2   -1    0    0    0  501  0.00000000000E+00  0.00000000000E+00  0.23857355637E+03  0.23857355638E+03  0.25500000920E-02 0.  1.
        2   -1    0    0  501    0  0.00000000000E+00  0.00000000000E+00 -0.15222473563E+04  0.15222473563E+04  0.25500000920E-02 0. -1.
    10030    2    1    2    0    0  0.00000000000E+00  0.00000000000E+00 -0.12836737999E+04  0.17608209127E+04  0.12052683775E+04 0.  0.
        5    1    3    3  502    0 -0.59383047442E+03  0.89608538953E+02 -0.71461373953E+03  0.93346623363E+03  0.46999998093E+01 0.  1.
       -5    1    3    3    0  502  0.59383047442E+03 -0.89608538953E+02 -0.56906006041E+03  0.82735467906E+03  0.46999998093E+01 0. -1.
</event>
<event>
 5   0  0.9410666E-04  0.1202626E+04  0.7818609E-02  0.9110561E-01
        2   -1    0    0  501    0  0.00000000000E+00  0.00000000000E+00  0.11605073918E+04  0.11605073918E+04  0.25500000920E-02 0.  1.
       -2   -1    0    0    0  501  0.00000000000E+00  0.00000000000E+00 -0.31156842808E+03  0.31156842809E+03  0.25500000920E-02 0. -1.
    10030    2    1    2    0    0  0.00000000000E+00  0.00000000000E+00  0.84893896373E+03  0.14720758199E+04  0.12026262326E+04 0.  0.
        2    1    3    3  502    0 -0.52369012301E+03 -0.17781080200E+03  0.13555860433E+03  0.56942441242E+03  0.25500000920E-02 0.  1.
       -2    1    3    3    0  502  0.52369012301E+03  0.17781080200E+03  0.71338035940E+03  0.90265140749E+03  0.25500000920E-02 0. -1.
</event>
<event>
 5   0  0.5157631E-04  0.1196927E+04  0.7818609E-02  0.9115551E-01
       -1   -1    0    0    0  501  0.00000000000E+00  0.00000000000E+00  0.59083351797E+03  0.59083351799E+03  0.50400001928E-02 0. -1.
        1   -1    0    0  501    0  0.00000000000E+00  0.00000000000E+00 -0.60619186736E+03  0.60619186738E+03  0.50400001928E-02 0.  1.
    10030    2    1    2    0    0  0.00000000000E+00  0.00000000000E+00 -0.15358349388E+02  0.11970253854E+04  0.11969268542E+04 0.  0.
        5    1    3    3  502    0 -0.46403987558E+03 -0.37548464506E+03 -0.50281493376E+02  0.59905929871E+03  0.46999998093E+01 0. -1.
       -5    1    3    3    0  502  0.46403987558E+03  0.37548464506E+03  0.34923143988E+02  0.59796608665E+03  0.46999998093E+01 0.  1.
</event>
<event>
 5   0  0.9298693E-04  0.1191454E+04  0.7818609E-02  0.9120370E-01
        2   -1    0    0  501    0  0.00000000000E+00  0.00000000000E+00  0.11034173950E+04  0.11034173950E+04  0.25500000920E-02 0. -1.
       -2   -1    0    0    0  501  0.00000000000E+00  0.00000000000E+00 -0.32162849887E+03  0.32162849888E+03  0.25500000920E-02 0.  1.
    10030    2    1    2    0    0  0.00000000000E+00  0.00000000000E+00  0.78178889615E+03  0.14250458939E+04  0.11914537010E+04 0.  0.
        1    1    3    3  502    0 -0.19419823781E+03 -0.23405147640E+03  0.10035712969E+04  0.10486412147E+04  0.50400001928E-02 0. -1.
       -1    1    3    3    0  502  0.19419823781E+03  0.23405147640E+03 -0.22178240079E+03  0.37640467917E+03  0.50400001928E-02 0.  1.
</event>
<event>
 5   0  0.9070772E-04  0.1198381E+04  0.7818609E-02  0.9114274E-01
       -2   -1    0    0    0  501  0.00000000000E+00  0.00000000000E+00  0.14799892319E+03  0.14799892321E+03  0.25500000920E-02 0. -1.
        2   -1    0    0  501    0  0.00000000000E+00  0.00000000000E+00 -0.24258924774E+04  0.24258924774E+04  0.25500000920E-02 0.  1.
    10030    2    1    2    0    0  0.00000000000E+00  0.00000000000E+00 -0.22778935542E+04  0.25738914006E+04  0.11983813658E+04 0.  0.
        4    1    3    3  502    0 -0.46035607539E+03  0.15506929726E+03 -0.18923759577E+04  0.19537304269E+04  0.12699999809E+01 0.  1.
       -4    1    3    3    0  502  0.46035607539E+03 -0.15506929726E+03 -0.38551759651E+03  0.62016097363E+03  0.12699999809E+01 0. -1.
</event>
<event>
 5   0  0.9298693E-04  0.1214568E+04  0.7818609E-02  0.9100200E-01
       -2   -1    0    0    0  501  0.00000000000E+00  0.00000000000E+00  0.20681578860E+03  0.20681578862E+03  0.25500000920E-02 0.  1.
        2   -1    0    0  501    0  0.00000000000E+00  0.00000000000E+00 -0.17831984602E+04  0.17831984602E+04  0.25500000920E-02 0. -1.
    10030    2    1    2    0    0  0.00000000000E+00  0.00000000000E+00 -0.15763826716E+04  0.19900142488E+04  0.12145675704E+04 0.  0.
        1    1    3    3  502    0  0.44392852621E+03 -0.23056715928E+02 -0.11027983815E+03  0.45800195552E+03  0.50400001928E-02 0.  1.
       -1    1    3    3    0  502 -0.44392852621E+03  0.23056715928E+02 -0.14661028334E+04  0.15320122933E+04  0.50400001928E-02 0. -1.
</event>
<event>
 5   0  0.9410666E-04  0.1202976E+04  0.7818609E-02  0.9110256E-01
        2   -1    0    0  501    0  0.00000000000E+00  0.00000000000E+00  0.90462909905E+03  0.90462909906E+03  0.25500000920E-02 0.  1.
       -2   -1    0    0    0  501  0.00000000000E+00  0.00000000000E+00 -0.39992929735E+03  0.39992929736E+03  0.25500000920E-02 0. -1.
    10030    2    1    2    0    0  0.00000000000E+00  0.00000000000E+00  0.50469980170E+03  0.13045583964E+04  0.12029757769E+04 0.  0.
        2    1    3    3  502    0 -0.37771993906E+03 -0.25765877850E+03  0.67615380439E+03  0.81623793449E+03  0.25500000920E-02 0.  1.
       -2    1    3    3    0  502  0.37771993906E+03  0.25765877850E+03 -0.17145400269E+03  0.48832046193E+03  0.25500000920E-02 0. -1.
</event>
<event>
 5   0  0.5052959E-04  0.1194922E+04  0.7818609E-02  0.9117313E-01
        1   -1    0    0  501    0  0.00000000000E+00  0.00000000000E+00  0.81203795776E+03  0.81203795778E+03  0.50400001928E-02 0.  1.
       -1   -1    0    0    0  501  0.00000000000E+00  0.00000000000E+00 -0.43958484002E+03  0.43958484005E+03  0.50400001928E-02 0. -1.
    10030    2    1    2    0    0  0.00000000000E+00  0.00000000000E+00  0.37245311774E+03  0.12516227978E+04  0.11949218816E+04 0.  0.
        2    1    3    3  502    0 -0.35308095679E+03  0.43680764098E+03  0.39958937974E+03  0.68930308985E+03  0.25500000920E-02 0. -1.
       -2    1    3    3    0  502  0.35308095679E+03 -0.43680764098E+03 -0.27136261995E+02  0.56231970798E+03  0.25500000920E-02 0.  1.
</event>
<event>
 5   0  0.5052959E-04  0.1199271E+04  0.7818609E-02  0.9113495E-01
        1   -1    0    0  501    0  0.00000000000E+00  0.00000000000E+00  0.59174950583E+03  0.59174950585E+03  0.50400001928E-02 0.  1.
       -1   -1    0    0    0  501  0.00000000000E+00  0.00000000000E+00 -0.60762662147E+03  0.60762662149E+03  0.50400001928E-02 0. -1.
    10030    2    1    2    0    0  0.00000000000E+00  0.00000000000E+00 -0.15877115639E+02  0.11993761273E+04  0.11992710336E+04 0.  0.
        2    1    3    3  502    0  0.27711178897E+03  0.52703261004E+03  0.62837958115E+02  0.59875113746E+03  0.25500000920E-02 0.  1.
       -2    1    3    3    0  502 -0.27711178897E+03 -0.52703261004E+03 -0.78715073754E+02  0.60062498988E+03  0.25500000920E-02 0. -1.
</event>
<event>
 5   0  0.9298693E-04  0.1186721E+04  0.7818609E-02  0.9124560E-01
       -2   -1    0    0    0  501  0.00000000000E+00  0.00000000000E+00  0.27838696903E+03  0.27838696904E+03  0.25500000920E-02 0.  1.
        2   -1    0    0  501    0  0.00000000000E+00  0.00000000000E+00 -0.12647018263E+04  0.12647018263E+04  0.25500000920E-02 0. -1.
    10030    2    1    2    0    0  0.00000000000E+00  0.00000000000E+00 -0.98631485726E+03  0.15430887953E+04  0.11867207054E+04 0.  0.
        1    1    3    3  502    0 -0.68882178021E+01 -0.27967278855E+02  0.27747741774E+03  0.27896833801E+03  0.50400001928E-02 0.  1.
       -1    1    3    3    0  502  0.68882178021E+01  0.27967278855E+02 -0.12637922750E+04  0.12641204573E+04  0.50400001928E-02 0. -1.
</event>
<event>
 5   0  0.5001586E-04  0.1199568E+04  0.7818609E-02  0.9113235E-01
        1   -1    0    0  501    0  0.00000000000E+00  0.00000000000E+00  0.61377951231E+03  0.61377951233E+03  0.50400001928E-02 0.  1.
       -1   -1    0    0    0  501  0.00000000000E+00  0.00000000000E+00 -0.58610782307E+03  0.58610782309E+03  0.50400001928E-02 0. -1.
    10030    2    1    2    0    0  0.00000000000E+00  0.00000000000E+00  0.27671689246E+02  0.11998873354E+04  0.11995682120E+04 0.  0.
        1    1    3    3  502    0 -0.24177497427E+03  0.24237785069E+03 -0.47877746863E+03  0.58858306566E+03  0.50400001928E-02 0. -1.
       -1    1    3    3    0  502  0.24177497427E+03 -0.24237785069E+03  0.50644915788E+03  0.61130426976E+03  0.50400001928E-02 0.  1.
</event>
<event>
 5   0  0.5157631E-04  0.1175396E+04  0.7818609E-02  0.9134669E-01
       -1   -1    0    0    0  501  0.00000000000E+00  0.00000000000E+00  0.50276693773E+03  0.50276693775E+03  0.50400001928E-02 0. -1.
        1   -1    0    0  501    0  0.00000000000E+00  0.00000000000E+00 -0.68697625742E+03  0.68697625744E+03  0.50400001928E-02 0.  1.
    10030    2    1    2    0    0  0.00000000000E+00  0.00000000000E+00 -0.18420931970E+03  0.11897431952E+04  0.11753960171E+04 0.  0.
        5    1    3    3  502    0 -0.46465977388E+03 -0.30212878352E+03  0.10566798788E+03  0.56425022902E+03  0.46999998093E+01 0. -1.
       -5    1    3    3    0  502  0.46465977388E+03  0.30212878352E+03 -0.28987730758E+03  0.62549296618E+03  0.46999998093E+01 0.  1.
</event>
<event>
 5   0  0.9050363E-04  0.1227575E+04  0.7818609E-02  0.9089057E-01
        2   -1    0    0  501    0  0.00000000000E+00  0.00000000000E+00  0.13527572648E+04  0.13527572648E+04  0.25500000920E-02 0.  1.
       -2   -1    0    0    0  501  0.00000000000E+00  0.00000000000E+00 -0.27849409844E+03  0.27849409845E+03  0.25500000920E-02 0. -1.
    10030    2    1    2    0    0  0.00000000000E+00  0.00000000000E+00  0.10742631664E+04  0.16312513633E+04  0.12275747063E+04 0.  0.
        3    1    3    3  502    0 -0.20298932738E+03  0.20587871870E+02 -0.23211274466E+03  0.30903861237E+03  0.10100000352E+00 0. -1.
       -3    1    3    3    0  502  0.20298932738E+03 -0.20587871870E+02  0.13063759110E+04  0.13222127509E+04  0.10100000352E+00 0.  1.
</event>
<event>
 5   0  0.5447074E-04  0.1203882E+04  0.7818609E-02  0.9109465E-01
       -1   -1    0    0    0  501  0.00000000000E+00  0.00000000000E+00  0.62918607746E+03  0.62918607748E+03  0.50400001928E-02 0.  1.
        1   -1    0    0  501    0  0.00000000000E+00  0.00000000000E+00 -0.57587610171E+03  0.57587610173E+03  0.50400001928E-02 0. -1.
    10030    2    1    2    0    0  0.00000000000E+00  0.00000000000E+00  0.53309975746E+02  0.12050621792E+04  0.12038824287E+04 0.  0.
        4    1    3    3  502    0 -0.27315490548E+03  0.32503822040E+03  0.45376759313E+03  0.62142585123E+03  0.12699999809E+01 0.  1.
       -4    1    3    3    0  502  0.27315490548E+03 -0.32503822040E+03 -0.40045761738E+03  0.58363632797E+03  0.12699999809E+01 0. -1.
</event>
<event>
 5   0  0.9410666E-04  0.1166385E+04  0.7818609E-02  0.9142799E-01
       -2   -1    0    0    0  501  0.00000000000E+00  0.00000000000E+00  0.30518669920E+03  0.30518669921E+03  0.25500000920E-02 0. -1.
        2   -1    0    0  501    0  0.00000000000E+00  0.00000000000E+00 -0.11144447587E+04  0.11144447587E+04  0.25500000920E-02 0.  1.
    10030    2    1    2    0    0  0.00000000000E+00  0.00000000000E+00 -0.80925805946E+03  0.14196314579E+04  0.11663853863E+04 0.  0.
        2    1    3    3  502    0  0.54686236108E+03  0.19769306343E+01 -0.65123146276E+03  0.85039095027E+03  0.25500000920E-02 0.  1.
       -2    1    3    3    0  502 -0.54686236108E+03 -0.19769306343E+01 -0.15802659671E+03  0.56924050760E+03  0.25500000920E-02 0. -1.
</event>
<event>
 5   0  0.5447074E-04  0.1198686E+04  0.7818609E-02  0.9114008E-01
        1   -1    0    0  501    0  0.00000000000E+00  0.00000000000E+00  0.77111167032E+03  0.77111167034E+03  0.50400001928E-02 0.  1.
       -1   -1    0    0    0  501  0.00000000000E+00  0.00000000000E+00 -0.46583642102E+03  0.46583642105E+03  0.50400001928E-02 0. -1.
    10030    2    1    2    0    0  0.00000000000E+00  0.00000000000E+00  0.30527524930E+03  0.12369480914E+04  0.11986857816E+04 0.  0.
        4    1    3    3  502    0  0.15365997165E+03  0.77108802171E+02 -0.43984378105E+03  0.47225133022E+03  0.12699999809E+01 0. -1.
       -4    1    3    3    0  502 -0.15365997165E+03 -0.77108802171E+02  0.74511903035E+03  0.76469676117E+03  0.12699999809E+01 0.  1.
</event>
<event>
 5   0  0.5001586E-04  0.1201003E+04  0.7818609E-02  0.9111979E-01
        1   -1    0    0  501    0  0.00000000000E+00  0.00000000000E+00  0.38364470188E+03  0.38364470192E+03  0.50400001928E-02 0.  1.
       -1   -1    0    0    0  501  0.00000000000E+00  0.00000000000E+00 -0.93993750194E+03  0.93993750195E+03  0.50400001928E-02 0. -1.
    10030    2    1    2    0    0  0.00000000000E+00  0.00000000000E+00 -0.55629280005E+03  0.13235822039E+04  0.12010029854E+04 0.  0.
        1    1    3    3  502    0 -0.42058237279E+03 -0.18310909314E+02 -0.75007850814E+03  0.86014102919E+03  0.50400001928E-02 0.  1.
       -1    1    3    3    0  502  0.42058237279E+03  0.18310909314E+02  0.19378570809E+03  0.46344117468E+03  0.50400001928E-02 0. -1.
</event>
<event>
 5   0  0.9145224E-04  0.1200672E+04  0.7818609E-02  0.9112268E-01
        2   -1    0    0  501    0  0.00000000000E+00  0.00000000000E+00  0.12853281823E+04  0.12853281823E+04  0.25500000920E-02 0.  1.
       -2   -1    0    0    0  501  0.00000000000E+00  0.00000000000E+00 -0.28039792715E+03  0.28039792716E+03  0.25500000920E-02 0. -1.
    10030    2    1    2    0    0  0.00000000000E+00  0.00000000000E+00  0.10049302552E+04  0.15657261095E+04  0.12006720752E+04 0.  0.
        5    1    3    3  502    0 -0.43596994420E+03 -0.15797083689E+03  0.99963968618E+03  0.11019646863E+04  0.46999998093E+01 0.  1.
       -5    1    3    3    0  502  0.43596994420E+03  0.15797083689E+03  0.52905689790E+01  0.46376142323E+03  0.46999998093E+01 0. -1.
</event>
<event>
 5   0  0.5003507E-04  0.1196212E+04  0.7818609E-02  0.9116178E-01
        1   -1    0    0  501    0  0.00000000000E+00  0.00000000000E+00  0.70149128418E+03  0.70149128420E+03  0.50400001928E-02 0.  1.
       -1   -1    0    0    0  501  0.00000000000E+00  0.00000000000E+00 -0.50995798802E+03  0.50995798804E+03  0.50400001928E-02 0. -1.
    10030    2    1    2    0    0  0.00000000000E+00  0.00000000000E+00  0.19153329617E+03  0.12114492722E+04  0.11962124960E+04 0.  0.
        3    1    3    3  502    0 -0.38985510057E+01  0.39888676332E+03  0.54709460227E+03  0.67708076526E+03  0.10100000352E+00 0.  1.
       -3    1    3    3    0  502  0.38985510057E+01 -0.39888676332E+03 -0.35556130610E+03  0.53436850698E+03  0.10100000352E+00 0. -1.
</event>
<event>
 5   0  0.5003507E-04  0.1191053E+04  0.7818609E-02  0.9120724E-01
       -1   -1    0    0    0  501  0.00000000000E+00  0.00000000000E+00  0.43057128532E+03  0.43057128535E+03  0.50400001928E-02 0.  1.
        1   -1    0    0  501    0  0.00000000000E+00  0.00000000000E+00 -0.82367743422E+03  0.82367743423E+03  0.50400001928E-02 0. -1.
    10030    2    1    2    0    0  0.00000000000E+00  0.00000000000E+00 -0.39310614890E+03  0.12542487196E+04  0.11910530661E+04 0.  0.
        3    1    3    3  502    0 -0.22931241065E+02  0.46380526255E+03  0.19607073784E+03  0.50406835630E+03  0.10100000352E+00 0.  1.
       -3    1    3    3    0  502  0.22931241065E+02 -0.46380526255E+03 -0.58917688674E+03  0.75018036328E+03  0.10100000352E+00 0. -1.
</event>
<event>
 5   0  0.9410666E-04  0.1201646E+04  0.7818609E-02  0.9111417E-01
       -2   -1    0    0    0  501  0.00000000000E+00  0.00000000000E+00  0.53300689391E+03  0.53300689391E+03  0.25500000920E-02 0.  1.
        2   -1    0    0  501    0  0.00000000000E+00  0.00000000000E+00 -0.67726807017E+03  0.67726807018E+03  0.25500000920E-02 0. -1.
    10030    2    1    2    0    0  0.00000000000E+00  0.00000000000E+00 -0.14426117627E+03  0.12102749641E+04  0.12016464545E+04 0.  0.
        2    1    3    3  502    0 -0.27519253580E+03 -0.45810600898E+03 -0.34868649716E+03  0.63810212390E+03  0.25500000920E-02 0. -1.
       -2    1    3    3    0  502  0.27519253580E+03  0.45810600898E+03  0.20442532089E+03  0.57217284019E+03  0.25500000920E-02 0.  1.
</event>
<event>
 5   0  0.9070772E-04  0.1185956E+04  0.7818609E-02  0.9125239E-01
       -2   -1    0    0    0  501  0.00000000000E+00  0.00000000000E+00  0.38182148967E+03  0.38182148967E+03  0.25500000920E-02 0.  1.
        2   -1    0    0  501    0  0.00000000000E+00  0.00000000000E+00 -0.92090924902E+03  0.92090924902E+03  0.25500000920E-02 0. -1.
    10030    2    1    2    0    0  0.00000000000E+00  0.00000000000E+00 -0.53908775936E+03  0.13027307387E+04  0.11859560554E+04 0.  0.
        4    1    3    3  502    0  0.14422815862E+03 -0.16146324420E+02  0.36201008632E+03  0.39001971877E+03  0.12699999809E+01 0.  1.
       -4    1    3    3    0  502 -0.14422815862E+03  0.16146324420E+02 -0.90109784567E+03  0.91271101993E+03  0.12699999809E+01 0. -1.
</event>
<event>
 5   0  0.5003507E-04  0.1208062E+04  0.7818609E-02  0.9105829E-01
        1   -1    0    0  501    0  0.00000000000E+00  0.00000000000E+00  0.11303694089E+04  0.11303694089E+04  0.50400001928E-02 0. -1.
       -1   -1    0    0    0  501  0.00000000000E+00  0.00000000000E+00 -0.32277345702E+03  0.32277345706E+03  0.50400001928E-02 0.  1.
    10030    2    1    2    0    0  0.00000000000E+00  0.00000000000E+00  0.80759595185E+03  0.14531428659E+04  0.12080616571E+04 0.  0.
        3    1    3    3  502    0  0.27649616288E+03 -0.98498747280E+02 -0.23122370817E+03  0.37365297366E+03  0.10100000352E+00 0.  1.
       -3    1    3    3    0  502 -0.27649616288E+03  0.98498747280E+02  0.10388196600E+04  0.10794898923E+04  0.10100000352E+00 0. -1.
</event>
<event>
 5   0  0.9410666E-04  0.1204350E+04  0.7818609E-02  0.9109057E-01
       -2   -1    0    0    0  501  0.00000000000E+00  0.00000000000E+00  0.36402729257E+03  0.36402729258E+03  0.25500000920E-02 0. -1.
        2   -1    0    0  501    0  0.00000000000E+00  0.00000000000E+00 -0.99611984128E+03  0.99611984128E+03  0.25500000920E-02 0.  1.
    10030    2    1    2    0    0  0.00000000000E+00  0.00000000000E+00 -0.63209254871E+03  0.13601471339E+04  0.12043501300E+04 0.  0.
        2    1    3    3  502    0 -0.16812474868E+03  0.10495344427E+02 -0.96896858693E+03  0.98350201110E+03  0.25500000920E-02 0.  1.
       -2    1    3    3    0  502  0.16812474868E+03 -0.10495344427E+02  0.33687603822E+03  0.37664512277E+03  0.25500000920E-02 0. -1.
</event>
<event>
 5   0  0.9070772E-04  0.1199031E+04  0.7818609E-02  0.9113705E-01
       -2   -1    0    0    0  501  0.00000000000E+00  0.00000000000E+00  0.42316041076E+03  0.42316041077E+03  0.25500000920E-02 0.  1.
        2   -1    0    0  501    0  0.00000000000E+00  0.00000000000E+00 -0.84936754068E+03  0.84936754069E+03  0.25500000920E-02 0. -1.
    10030    2    1    2    0    0  0.00000000000E+00  0.00000000000E+00 -0.42620712992E+03  0.12725279515E+04  0.11990308043E+04 0.  0.
        4    1    3    3  502    0  0.86866643377E+02 -0.32834796984E+03 -0.73740894711E+03  0.81186930673E+03  0.12699999809E+01 0. -1.
       -4    1    3    3    0  502 -0.86866643377E+02  0.32834796984E+03  0.31120181719E+03  0.46065864472E+03  0.12699999809E+01 0.  1.
</event>
<event>
 5   0  0.9050363E-04  0.1192472E+04  0.7818609E-02  0.9119471E-01
        2   -1    0    0  501    0  0.00000000000E+00  0.00000000000E+00  0.83246578783E+03  0.83246578784E+03  0.25500000920E-02 0. -1.
       -2   -1    0    0    0  501  0.00000000000E+00  0.00000000000E+00 -0.42704172444E+03  0.42704172444E+03  0.25500000920E-02 0.  1.
    10030    2    1    2    0    0  0.00000000000E+00  0.00000000000E+00  0.40542406340E+03  0.12595075123E+04  0.11924724325E+04 0.  0.
        3    1    3    3  502    0 -0.12361658051E+03  0.17352608659E+03  0.79088759393E+03  0.81908214371E+03  0.10100000352E+00 0. -1.
       -3    1    3    3    0  502  0.12361658051E+03 -0.17352608659E+03 -0.38546353054E+03  0.44042536857E+03  0.10100000352E+00 0.  1.
</event>
<event>
 5   0  0.5003507E-04  0.1199366E+04  0.7818609E-02  0.9113411E-01
        1   -1    0    0  501    0  0.00000000000E+00  0.00000000000E+00  0.38854439394E+03  0.38854439397E+03  0.50400001928E-02 0. -1.
       -1   -1    0    0    0  501  0.00000000000E+00  0.00000000000E+00 -0.92555677853E+03  0.92555677855E+03  0.50400001928E-02 0.  1.
    10030    2    1    2    0    0  0.00000000000E+00  0.00000000000E+00 -0.53701238460E+03  0.13141011725E+04  0.11993663287E+04 0.  0.
        3    1    3    3  502    0 -0.26469778767E+03  0.13193444659E+03  0.30307738201E+03  0.42347080971E+03  0.10100000352E+00 0. -1.
       -3    1    3    3    0  502  0.26469778767E+03 -0.13193444659E+03 -0.84008976660E+03  0.89063036280E+03  0.10100000352E+00 0.  1.
</event>
<event>
 5   0  0.9410666E-04  0.1200030E+04  0.7818609E-02  0.9112831E-01
       -2   -1    0    0    0  501  0.00000000000E+00  0.00000000000E+00  0.21365414589E+03  0.21365414590E+03  0.25500000920E-02 0. -1.
        2   -1    0    0  501    0  0.00000000000E+00  0.00000000000E+00 -0.16850490549E+04  0.16850490549E+04  0.25500000920E-02 0.  1.
    10030    2    1    2    0    0  0.00000000000E+00  0.00000000000E+00 -0.14713949091E+04  0.18987032008E+04  0.12000295273E+04 0.  0.
        2    1    3    3  502    0  0.27168948852E+02 -0.57144539798E+03 -0.10219413993E+04  0.11711755711E+04  0.25500000920E-02 0.  1.
       -2    1    3    3    0  502 -0.27168948852E+02  0.57144539798E+03 -0.44945350975E+03  0.72752762977E+03  0.25500000920E-02 0. -1.
</event>
<event>
 5   0  0.3453625E-04  0.1211438E+04  0.7818609E-02  0.9102904E-01
       -3   -1    0    0    0  501  0.00000000000E+00  0.00000000000E+00  0.92939623456E+03  0.92939624005E+03  0.10100000352E+00 0.  1.
        3   -1    0    0  501    0  0.00000000000E+00  0.00000000000E+00 -0.39476744116E+03  0.39476745408E+03  0.10100000352E+00 0. -1.
    10030    2    1    2    0    0  0.00000000000E+00  0.00000000000E+00  0.53462879340E+03  0.13241636941E+04  0.12114377995E+04 0.  0.
        2    1    3    3  502    0 -0.24918401238E+03  0.15371702500E+03  0.84691385777E+03  0.89609412357E+03  0.25500000920E-02 0.  1.
       -2    1    3    3    0  502  0.24918401238E+03 -0.15371702500E+03 -0.31228506437E+03  0.42806957055E+03  0.25500000920E-02 0. -1.
</event>
<event>
 5   0  0.5447074E-04  0.1224175E+04  0.7818609E-02  0.9091956E-01
       -1   -1    0    0    0  501  0.00000000000E+00  0.00000000000E+00  0.43390430715E+03  0.43390430718E+03  0.50400001928E-02 0. -1.
        1   -1    0    0  501    0  0.00000000000E+00  0.00000000000E+00 -0.86344146082E+03  0.86344146083E+03  0.50400001928E-02 0.  1.
    10030    2    1    2    0    0  0.00000000000E+00  0.00000000000E+00 -0.42953715367E+03  0.12973457680E+04  0.12241747732E+04 0.  0.
        4    1    3    3  502    0 -0.40998631773E+03 -0.42301124046E+03 -0.38635715448E+02  0.59035719839E+03  0.12699999809E+01 0. -1.
       -4    1    3    3    0  502  0.40998631773E+03  0.42301124046E+03 -0.39090143822E+03  0.70698856963E+03  0.12699999809E+01 0.  1.
</event>
<event>
 5   0  0.9410666E-04  0.1207000E+04  0.7818609E-02  0.9106752E-01
       -2   -1    0    0    0  501  0.00000000000E+00  0.00000000000E+00  0.25712847512E+03  0.25712847513E+03  0.25500000920E-02 0.  1.
        2   -1    0    0  501    0  0.00000000000E+00  0.00000000000E+00 -0.14164595392E+04  0.14164595393E+04  0.25500000920E-02 0. -1.
    10030    2    1    2    0    0  0.00000000000E+00  0.00000000000E+00 -0.11593310641E+04  0.16735880144E+04  0.12069997206E+04 0.  0.
        2    1    3    3  502    0  0.15804426305E+03  0.17985120629E+03  0.18845802285E+03  0.30469800109E+03  0.25500000920E-02 0.  1.
       -2    1    3    3    0  502 -0.15804426305E+03 -0.17985120629E+03 -0.13477890870E+04  0.13688900133E+04  0.25500000920E-02 0. -1.
</event>
<event>
 5   0  0.5157631E-04  0.1198059E+04  0.7818609E-02  0.9114557E-01
       -1   -1    0    0    0  501  0.00000000000E+00  0.00000000000E+00  0.18799767573E+03  0.18799767580E+03  0.50400001928E-02 0.  1.
        1   -1    0    0  501    0  0.00000000000E+00  0.00000000000E+00 -0.19087277173E+04  0.19087277173E+04  0.50400001928E-02 0. -1.
    10030    2    1    2    0    0  0.00000000000E+00  0.00000000000E+00 -0.17207300415E+04  0.20967253931E+04  0.11980590545E+04 0.  0.
        5    1    3    3  502    0 -0.46198011492E+03  0.19939811166E+03 -0.29157100555E+03  0.58156768720E+03  0.46999998093E+01 0.  1.
       -5    1    3    3    0  502  0.46198011492E+03 -0.19939811166E+03 -0.14291590360E+04  0.15151577059E+04  0.46999998093E+01 0. -1.
</event>
<event>
 5   0  0.5157631E-04  0.1195378E+04  0.7818609E-02  0.9116912E-01
       -1   -1    0    0    0  501  0.00000000000E+00  0.00000000000E+00  0.41517216932E+03  0.41517216935E+03  0.50400001928E-02 0.  1.
        1   -1    0    0  501    0  0.00000000000E+00  0.00000000000E+00 -0.86044284681E+03  0.86044284683E+03  0.50400001928E-02 0. -1.
    10030    2    1    2    0    0  0.00000000000E+00  0.00000000000E+00 -0.44527067750E+03  0.12756150162E+04  0.11953776363E+04 0.  0.
        5    1    3    3  502    0 -0.46760720221E+03  0.30897269395E+03 -0.11225660850E+01  0.56048547824E+03  0.46999998093E+01 0.  1.
       -5    1    3    3    0  502  0.46760720221E+03 -0.30897269395E+03 -0.44414811141E+03  0.71512953794E+03  0.46999998093E+01 0. -1.
</event>
<event>
 5   0  0.5003507E-04  0.1204096E+04  0.7818609E-02  0.9109279E-01
        1   -1    0    0  501    0  0.00000000000E+00  0.00000000000E+00  0.34265029499E+03  0.34265029503E+03  0.50400001928E-02 0. -1.
       -1   -1    0    0    0  501  0.00000000000E+00  0.00000000000E+00 -0.10578189205E+04  0.10578189205E+04  0.50400001928E-02 0.  1.
    10030    2    1    2    0    0  0.00000000000E+00  0.00000000000E+00 -0.71516862547E+03  0.14004692155E+04  0.12040962838E+04 0.  0.
        3    1    3    3  502    0 -0.41192647300E+03 -0.40132536060E+03 -0.15044863227E+03  0.59445795930E+03  0.10100000352E+00 0. -1.
       -3    1    3    3    0  502  0.41192647300E+03  0.40132536060E+03 -0.56471999320E+03  0.80601125621E+03  0.10100000352E+00 0.  1.
</event>
<event>
 5   0  0.5052959E-04  0.1202424E+04  0.7818609E-02  0.9110737E-01
        1   -1    0    0  501    0  0.00000000000E+00  0.00000000000E+00  0.28331555214E+03  0.28331555219E+03  0.50400001928E-02 0. -1.
       -1   -1    0    0    0  501  0.00000000000E+00  0.00000000000E+00 -0.12758068337E+04  0.12758068337E+04  0.50400001928E-02 0.  1.
    10030    2    1    2    0    0  0.00000000000E+00  0.00000000000E+00 -0.99249128155E+03  0.15591223859E+04  0.12024240809E+04 0.  0.
        2    1    3    3  502    0 -0.23578299802E+03 -0.32651529054E+03  0.82545363859E+02  0.41111992680E+03  0.25500000920E-02 0. -1.
       -2    1    3    3    0  502  0.23578299802E+03  0.32651529054E+03 -0.10750366454E+04  0.11480024591E+04  0.25500000920E-02 0.  1.
</event>
<event>
 5   0  0.9145224E-04  0.1191103E+04  0.7818609E-02  0.9120680E-01
       -2   -1    0    0    0  501  0.00000000000E+00  0.00000000000E+00  0.50858883810E+03  0.50858883811E+03  0.25500000920E-02 0.  1.
        2   -1    0    0  501    0  0.00000000000E+00  0.00000000000E+00 -0.69738326555E+03  0.69738326556E+03  0.25500000920E-02 0. -1.
    10030    2    1    2    0    0  0.00000000000E+00  0.00000000000E+00 -0.18879442745E+03  0.12059721037E+04  0.11911025896E+04 0.  0.
        5    1    3    3  502    0  0.55399659046E+02  0.63547748052E+02  0.50249769457E+03  0.50954240408E+03  0.46999998093E+01 0.  1.
       -5    1    3    3    0  502 -0.55399659046E+02 -0.63547748052E+02 -0.69129212202E+03  0.69642969959E+03  0.46999998093E+01 0. -1.
</event>
<event>
 5   0  0.5447074E-04  0.1199323E+04  0.7818609E-02  0.9113449E-01
       -1   -1    0    0    0  501  0.00000000000E+00  0.00000000000E+00  0.67277423274E+03  0.67277423276E+03  0.50400001928E-02 0. -1.
        1   -1    0    0  501    0  0.00000000000E+00  0.00000000000E+00 -0.53449459777E+03  0.53449459780E+03  0.50400001928E-02 0.  1.
    10030    2    1    2    0    0  0.00000000000E+00  0.00000000000E+00  0.13827963497E+03  0.12072688306E+04  0.11993234642E+04 0.  0.
        4    1    3    3  502    0  0.14564977853E+03 -0.58035743054E+03  0.29330700505E+02  0.59907470991E+03  0.12699999809E+01 0. -1.
       -4    1    3    3    0  502 -0.14564977853E+03  0.58035743054E+03  0.10894893446E+03  0.60819412064E+03  0.12699999809E+01 0.  1.
</event>
<event>
 5   0  0.5157631E-04  0.1200985E+04  0.7818609E-02  0.9111995E-01
       -1   -1    0    0    0  501  0.00000000000E+00  0.00000000000E+00  0.31186215981E+03  0.31186215985E+03  0.50400001928E-02 0. -1.
        1   -1    0    0  501    0  0.00000000000E+00  0.00000000000E+00 -0.11562519612E+04  0.11562519612E+04  0.50400001928E-02 0.  1.
    10030    2    1    2    0    0  0.00000000000E+00  0.00000000000E+00 -0.84438980142E+03  0.14681141211E+04  0.12009849857E+04 0.  0.
        5    1    3    3  502    0 -0.11403385759E+03  0.57241338957E+03 -0.24971451892E+03  0.63485450317E+03  0.46999998093E+01 0. -1.
       -5    1    3    3    0  502  0.11403385759E+03 -0.57241338957E+03 -0.59467528250E+03  0.83325961792E+03  0.46999998093E+01 0.  1.
</event>
<event>
 5   0  0.9410666E-04  0.1201872E+04  0.7818609E-02  0.9111219E-01
       -2   -1    0    0    0  501  0.00000000000E+00  0.00000000000E+00  0.43109557852E+03  0.43109557853E+03  0.25500000920E-02 0. -1.
        2   -1    0    0  501    0  0.00000000000E+00  0.00000000000E+00 -0.83768938486E+03  0.83768938486E+03  0.25500000920E-02 0.  1.
    10030    2    1    2    0    0  0.00000000000E+00  0.00000000000E+00 -0.40659380634E+03  0.12687849634E+04  0.12018721895E+04 0.  0.
        2    1    3    3  502    0 -0.34716079679E+03  0.34185067086E+03 -0.57465060592E+03  0.75339618985E+03  0.25500000920E-02 0.  1.
       -2    1    3    3    0  502  0.34716079679E+03 -0.34185067086E+03  0.16805679958E+03  0.51538877353E+03  0.25500000920E-02 0. -1.
</event>
<event>
 5   0  0.5052959E-04  0.1171429E+04  0.7818609E-02  0.9138239E-01
        1   -1    0    0  501    0  0.00000000000E+00  0.00000000000E+00  0.18491733723E+04  0.18491733723E+04  0.50400001928E-02 0. -1.
       -1   -1    0    0    0  501  0.00000000000E+00  0.00000000000E+00 -0.18552138417E+03  0.18552138423E+03  0.50400001928E-02 0.  1.
    10030    2    1    2    0    0  0.00000000000E+00  0.00000000000E+00  0.16636519881E+04  0.20346947565E+04  0.11714285359E+04 0.  0.
        2    1    3    3  502    0  0.17787590025E+03 -0.55201213085E+03  0.68960959923E+03  0.90106527391E+03  0.25500000920E-02 0.  1.
       -2    1    3    3    0  502 -0.17787590025E+03  0.55201213085E+03  0.97404238889E+03  0.11336294826E+04  0.25500000920E-02 0. -1.
</event>
<event>
 5   0  0.9145224E-04  0.1202459E+04  0.7818609E-02  0.9110707E-01
        2   -1    0    0  501    0  0.00000000000E+00  0.00000000000E+00  0.19824206885E+04  0.19824206885E+04  0.25500000920E-02 0.  1.
       -2   -1    0    0    0  501  0.00000000000E+00  0.00000000000E+00 -0.18234111541E+03  0.18234111543E+03  0.25500000920E-02 0. -1.
    10030    2    1    2    0    0  0.00000000000E+00  0.00000000000E+00  0.18000795731E+04  0.21647618040E+04  0.12024588136E+04 0.  0.
        5    1    3    3  502    0 -0.57708074993E+03  0.49403207293E+02  0.60979901144E+03  0.84103495360E+03  0.46999998093E+01 0.  1.
       -5    1    3    3    0  502  0.57708074993E+03 -0.49403207293E+02  0.11902805617E+04  0.13237268504E+04  0.46999998093E+01 0. -1.
</event>
<event>
 5   0  0.5001586E-04  0.1207483E+04  0.7818609E-02  0.9106332E-01
       -1   -1    0    0    0  501  0.00000000000E+00  0.00000000000E+00  0.27175000797E+03  0.27175000801E+03  0.50400001928E-02 0.  1.
        1   -1    0    0  501    0  0.00000000000E+00  0.00000000000E+00 -0.13413205164E+04  0.13413205164E+04  0.50400001928E-02 0. -1.
    10030    2    1    2    0    0  0.00000000000E+00  0.00000000000E+00 -0.10695705085E+04  0.16130705244E+04  0.12074831031E+04 0.  0.
        1    1    3    3  502    0 -0.26927335811E+03  0.46466530714E+03 -0.90326437827E+03  0.10508608500E+04  0.50400001928E-02 0. -1.
       -1    1    3    3    0  502  0.26927335811E+03 -0.46466530714E+03 -0.16630613019E+03  0.56220967442E+03  0.50400001928E-02 0.  1.
</event>
<event>
 5   0  0.9050363E-04  0.1202236E+04  0.7818609E-02  0.9110901E-01
       -2   -1    0    0    0  501  0.00000000000E+00  0.00000000000E+00  0.35601474743E+03  0.35601474744E+03  0.25500000920E-02 0.  1.
        2   -1    0    0  501    0  0.00000000000E+00  0.00000000000E+00 -0.10149667085E+04  0.10149667085E+04  0.25500000920E-02 0. -1.
    10030    2    1    2    0    0  0.00000000000E+00  0.00000000000E+00 -0.65895196105E+03  0.13709814559E+04  0.12022364433E+04 0.  0.
        3    1    3    3  502    0  0.51230334116E+03 -0.28089999945E+03 -0.49068093028E+03  0.76297267880E+03  0.10100000352E+00 0.  1.
       -3    1    3    3    0  502 -0.51230334116E+03  0.28089999945E+03 -0.16827103076E+03  0.60800877712E+03  0.10100000352E+00 0. -1.
</event>
<event>
 5   0  0.9145224E-04  0.1219171E+04  0.7818609E-02  0.9096240E-01
        2   -1    0    0  501    0  0.00000000000E+00  0.00000000000E+00  0.21764415683E+03  0.21764415684E+03  0.25500000920E-02 0.  1.
       -2   -1    0    0    0  501  0.00000000000E+00  0.00000000000E+00 -0.17073474047E+04  0.17073474047E+04  0.25500000920E-02 0. -1.
    10030    2    1    2    0    0  0.00000000000E+00  0.00000000000E+00 -0.14897032479E+04  0.19249915616E+04  0.12191705153E+04 0.  0.
        5    1    3    3  502    0 -0.43574417099E+03  0.40343062199E+03 -0.52753797457E+03  0.79432213485E+03  0.46999998093E+01 0.  1.
       -5    1    3    3    0  502  0.43574417099E+03 -0.40343062199E+03 -0.96216527332E+03  0.11306694267E+04  0.46999998093E+01 0. -1.
</event>
<event>
 5   0  0.5001586E-04  0.1201112E+04  0.7818609E-02  0.9111884E-01
       -1   -1    0    0    0  501  0.00000000000E+00  0.00000000000E+00  0.43365085319E+03  0.43365085322E+03  0.50400001928E-02 0.  1.
        1   -1    0    0  501    0  0.00000000000E+00  0.00000000000E+00 -0.83169977945E+03  0.83169977947E+03  0.50400001928E-02 0. -1.
    10030    2    1    2    0    0  0.00000000000E+00  0.00000000000E+00 -0.39804892626E+03  0.12653506327E+04  0.12011116834E+04 0.  0.
        1    1    3    3  502    0 -0.13587644958E+03  0.49347622319E+03 -0.52996925181E+03  0.73678260043E+03  0.50400001928E-02 0. -1.
       -1    1    3    3    0  502  0.13587644958E+03 -0.49347622319E+03  0.13192032555E+03  0.52856803226E+03  0.50400001928E-02 0.  1.
</event>
<event>
 5   0  0.9410666E-04  0.1213147E+04  0.7818609E-02  0.9101426E-01
       -2   -1    0    0    0  501  0.00000000000E+00  0.00000000000E+00  0.43295324539E+03  0.43295324540E+03  0.25500000920E-02 0. -1.
        2   -1    0    0  501    0  0.00000000000E+00  0.00000000000E+00 -0.84981752277E+03  0.84981752277E+03  0.25500000920E-02 0.  1.
    10030    2    1    2    0    0  0.00000000000E+00  0.00000000000E+00 -0.41686427738E+03  0.12827707682E+04  0.12131467421E+04 0.  0.
        2    1    3    3  502    0  0.50842375876E+02  0.57856222285E+03 -0.39343651744E+03  0.70150658311E+03  0.25500000920E-02 0.  1.
       -2    1    3    3    0  502 -0.50842375876E+02 -0.57856222285E+03 -0.23427759940E+02  0.58126418506E+03  0.25500000920E-02 0. -1.
</event>
<event>
 5   0  0.9145224E-04  0.1200524E+04  0.7818609E-02  0.9112398E-01
        2   -1    0    0  501    0  0.00000000000E+00  0.00000000000E+00  0.28814357933E+03  0.28814357934E+03  0.25500000920E-02 0.  1.
       -2   -1    0    0    0  501  0.00000000000E+00  0.00000000000E+00 -0.12504684349E+04  0.12504684349E+04  0.25500000920E-02 0. -1.
    10030    2    1    2    0    0  0.00000000000E+00  0.00000000000E+00 -0.96232485561E+03  0.15386120143E+04  0.12005239701E+04 0.  0.
        5    1    3    3  502    0 -0.45393250899E+02  0.34396012271E+03 -0.11089235979E+04  0.11619392193E+04  0.46999998093E+01 0. -1.
       -5    1    3    3    0  502  0.45393250899E+02 -0.34396012271E+03  0.14659874233E+03  0.37667279500E+03  0.46999998093E+01 0.  1.
</event>
<event>
 5   0  0.5052959E-04  0.1188178E+04  0.7818609E-02  0.9123268E-01
       -1   -1    0    0    0  501  0.00000000000E+00  0.00000000000E+00  0.15369665907E+03  0.15369665916E+03  0.50400001928E-02 0. -1.
        1   -1    0    0  501    0  0.00000000000E+00  0.00000000000E+00 -0.22963512308E+04  0.22963512308E+04  0.50400001928E-02 0.  1.
    10030    2    1    2    0    0  0.00000000000E+00  0.00000000000E+00 -0.21426545717E+04  0.24500478900E+04  0.11881776169E+04 0.  0.
        2    1    3    3  502    0 -0.40972079424E+03  0.31360495724E+03 -0.46408971384E+03  0.69397295404E+03  0.25500000920E-02 0. -1.
       -2    1    3    3    0  502  0.40972079424E+03 -0.31360495724E+03 -0.16785648579E+04  0.17560749359E+04  0.25500000920E-02 0.  1.
</event>
<event>
 5   0  0.9145224E-04  0.1200529E+04  0.7818609E-02  0.9112393E-01
       -2   -1    0    0    0  501  0.00000000000E+00  0.00000000000E+00  0.12645325056E+04  0.12645325056E+04  0.25500000920E-02 0. -1.
        2   -1    0    0  501    0  0.00000000000E+00  0.00000000000E+00 -0.28494146094E+03  0.28494146095E+03  0.25500000920E-02 0.  1.
    10030    2    1    2    0    0  0.00000000000E+00  0.00000000000E+00  0.97959104469E+03  0.15494739666E+04  0.12005294491E+04 0.  0.
        5    1    3    3  502    0 -0.10654954251E+03 -0.30919430433E+03  0.11394236626E+04  0.11854375967E+04  0.46999998093E+01 0. -1.
       -5    1    3    3    0  502  0.10654954251E+03  0.30919430433E+03 -0.15983261790E+03  0.36403636986E+03  0.46999998093E+01 0.  1.
</event>
<event>
 5   0  0.5447074E-04  0.1208142E+04  0.7818609E-02  0.9105759E-01
       -1   -1    0    0    0  501  0.00000000000E+00  0.00000000000E+00  0.12638702001E+04  0.12638702001E+04  0.50400001928E-02 0. -1.
        1   -1    0    0  501    0  0.00000000000E+00  0.00000000000E+00 -0.28871798613E+03  0.28871798617E+03  0.50400001928E-02 0.  1.
    10030    2    1    2    0    0  0.00000000000E+00  0.00000000000E+00  0.97515221393E+03  0.15525881862E+04  0.12081424733E+04 0.  0.
        4    1    3    3  502    0 -0.26354364331E+03  0.30575919998E+03 -0.89943919377E+02  0.41356433820E+03  0.12699999809E+01 0.  1.
       -4    1    3    3    0  502  0.26354364331E+03 -0.30575919998E+03  0.10650961333E+04  0.11390238480E+04  0.12699999809E+01 0. -1.
</event>
<event>
 5   0  0.5157631E-04  0.1175265E+04  0.7818609E-02  0.9134787E-01
       -1   -1    0    0    0  501  0.00000000000E+00  0.00000000000E+00  0.53760267834E+03  0.53760267836E+03  0.50400001928E-02 0. -1.
        1   -1    0    0  501    0  0.00000000000E+00  0.00000000000E+00 -0.64231807104E+03  0.64231807106E+03  0.50400001928E-02 0.  1.
    10030    2    1    2    0    0  0.00000000000E+00  0.00000000000E+00 -0.10471539271E+03  0.11799207494E+04  0.11752649325E+04 0.  0.
        5    1    3    3  502    0 -0.51954500576E+03  0.25515685323E+03  0.49324289069E+02  0.58093632031E+03  0.46999998093E+01 0.  1.
       -5    1    3    3    0  502  0.51954500576E+03 -0.25515685323E+03 -0.15403968177E+03  0.59898442912E+03  0.46999998093E+01 0. -1.
</event>
<event>
 5   0  0.5157631E-04  0.1195529E+04  0.7818609E-02  0.9116779E-01
        1   -1    0    0  501    0  0.00000000000E+00  0.00000000000E+00  0.13298871313E+04  0.13298871313E+04  0.50400001928E-02 0. -1.
       -1   -1    0    0    0  501  0.00000000000E+00  0.00000000000E+00 -0.26868644823E+03  0.26868644828E+03  0.50400001928E-02 0.  1.
    10030    2    1    2    0    0  0.00000000000E+00  0.00000000000E+00  0.10612006830E+04  0.15985735796E+04  0.11955294223E+04 0.  0.
        5    1    3    3  502    0 -0.52461298422E+02  0.22108130139E+03  0.12698647311E+04  0.12900417261E+04  0.46999998093E+01 0. -1.
       -5    1    3    3    0  502  0.52461298422E+02 -0.22108130139E+03 -0.20866404808E+03  0.30853185349E+03  0.46999998093E+01 0.  1.
</event>
<event>
 5   0  0.3453625E-04  0.1196021E+04  0.7818609E-02  0.9116347E-01
       -3   -1    0    0    0  501  0.00000000000E+00  0.00000000000E+00  0.17419787055E+04  0.17419787084E+04  0.10100000352E+00 0.  1.
        3   -1    0    0  501    0  0.00000000000E+00  0.00000000000E+00 -0.20529317117E+03  0.20529319602E+03  0.10100000352E+00 0. -1.
    10030    2    1    2    0    0  0.00000000000E+00  0.00000000000E+00  0.15366855343E+04  0.19472719045E+04  0.11960206681E+04 0.  0.
        4    1    3    3  502    0  0.35786051508E+03 -0.42551592062E+03  0.40983408842E+03  0.69071958123E+03  0.12699999809E+01 0. -1.
       -4    1    3    3    0  502 -0.35786051508E+03  0.42551592062E+03  0.11268514459E+04  0.12565523232E+04  0.12699999809E+01 0.  1.
</event>
<event>
 5   0  0.9050363E-04  0.1200977E+04  0.7818609E-02  0.9112001E-01
       -2   -1    0    0    0  501  0.00000000000E+00  0.00000000000E+00  0.39684290900E+03  0.39684290900E+03  0.25500000920E-02 0. -1.
        2   -1    0    0  501    0  0.00000000000E+00  0.00000000000E+00 -0.90863840843E+03  0.90863840843E+03  0.25500000920E-02 0.  1.
    10030    2    1    2    0    0  0.00000000000E+00  0.00000000000E+00 -0.51179549943E+03  0.13054813174E+04  0.12009774506E+04 0.  0.
        3    1    3    3  502    0  0.89376366563E+02  0.47151028396E+03  0.13644808178E+03  0.49892702072E+03  0.10100000352E+00 0. -1.
       -3    1    3    3    0  502 -0.89376366563E+02 -0.47151028396E+03 -0.64824358121E+03  0.80655429672E+03  0.10100000352E+00 0.  1.
</event>
<event>
 5   0  0.5157631E-04  0.1198548E+04  0.7818609E-02  0.9114129E-01
        1   -1    0    0  501    0  0.00000000000E+00  0.00000000000E+00  0.97076791259E+03  0.97076791260E+03  0.50400001928E-02 0.  1.
       -1   -1    0    0    0  501  0.00000000000E+00  0.00000000000E+00 -0.36994336286E+03  0.36994336289E+03  0.50400001928E-02 0. -1.
    10030    2    1    2    0    0  0.00000000000E+00  0.00000000000E+00  0.60082454973E+03  0.13407112755E+04  0.11985476981E+04 0.  0.
        5    1    3    3  502    0  0.60194853296E+02  0.36035710757E+03 -0.23093063263E+03  0.43224034105E+03  0.46999998093E+01 0. -1.
       -5    1    3    3    0  502 -0.60194853296E+02 -0.36035710757E+03  0.83175518236E+03  0.90847093444E+03  0.46999998093E+01 0.  1.
</event>
<event>
 5   0  0.5157631E-04  0.1200443E+04  0.7818609E-02  0.9112469E-01
        1   -1    0    0  501    0  0.00000000000E+00  0.00000000000E+00  0.77085519645E+03  0.77085519647E+03  0.50400001928E-02 0.  1.
       -1   -1    0    0    0  501  0.00000000000E+00  0.00000000000E+00 -0.46735862549E+03  0.46735862551E+03  0.50400001928E-02 0. -1.
    10030    2    1    2    0    0  0.00000000000E+00  0.00000000000E+00  0.30349657097E+03  0.12382138220E+04  0.12004429601E+04 0.  0.
        5    1    3    3  502    0 -0.41942311126E+03 -0.16181396369E+03 -0.25843767735E+03  0.51856689846E+03  0.46999998093E+01 0. -1.
       -5    1    3    3    0  502  0.41942311126E+03  0.16181396369E+03  0.56193424832E+03  0.71964692352E+03  0.46999998093E+01 0.  1.
</event>
<event>
 5   0  0.9050363E-04  0.1213117E+04  0.7818609E-02  0.9101452E-01
       -2   -1    0    0    0  501  0.00000000000E+00  0.00000000000E+00  0.28364953456E+03  0.28364953458E+03  0.25500000920E-02 0. -1.
        2   -1    0    0  501    0  0.00000000000E+00  0.00000000000E+00 -0.12970688973E+04  0.12970688973E+04  0.25500000920E-02 0.  1.
    10030    2    1    2    0    0  0.00000000000E+00  0.00000000000E+00 -0.10134193627E+04  0.15807184319E+04  0.12131166292E+04 0.  0.
        3    1    3    3  502    0 -0.18027333399E+03 -0.40616157707E+03  0.31246615498E+02  0.44546836343E+03  0.10100000352E+00 0. -1.
       -3    1    3    3    0  502  0.18027333399E+03  0.40616157707E+03 -0.10446659782E+04  0.11352500684E+04  0.10100000352E+00 0.  1.
</event>
<event>
 5   0  0.9298693E-04  0.1190082E+04  0.7818609E-02  0.9121583E-01
       -2   -1    0    0    0  501  0.00000000000E+00  0.00000000000E+00  0.45416214436E+03  0.45416214436E+03  0.25500000920E-02 0.  1.
        2   -1    0    0  501    0  0.00000000000E+00  0.00000000000E+00 -0.77961915911E+03  0.77961915911E+03  0.25500000920E-02 0. -1.
    10030    2    1    2    0    0  0.00000000000E+00  0.00000000000E+00 -0.32545701475E+03  0.12337813035E+04  0.11900815251E+04 0.  0.
        1    1    3    3  502    0  0.42337430199E+03 -0.34777722212E+03 -0.40336975973E+03  0.68036898732E+03  0.50400001928E-02 0. -1.
       -1    1    3    3    0  502 -0.42337430199E+03  0.34777722212E+03  0.77912744985E+02  0.55341231615E+03  0.50400001928E-02 0.  1.
</event>
<event>
 5   0  0.9070772E-04  0.1193470E+04  0.7818609E-02  0.9118592E-01
        2   -1    0    0  501    0  0.00000000000E+00  0.00000000000E+00  0.98759150696E+03  0.98759150696E+03  0.25500000920E-02 0.  1.
       -2   -1    0    0    0  501  0.00000000000E+00  0.00000000000E+00 -0.36056657171E+03  0.36056657172E+03  0.25500000920E-02 0. -1.
    10030    2    1    2    0    0  0.00000000000E+00  0.00000000000E+00  0.62702493525E+03  0.13481580787E+04  0.11934697046E+04 0.  0.
        4    1    3    3  502    0 -0.55306022775E+03  0.18626392564E+03  0.17278160626E+03  0.60862546929E+03  0.12699999809E+01 0. -1.
       -4    1    3    3    0  502  0.55306022775E+03 -0.18626392564E+03  0.45424332899E+03  0.73953260939E+03  0.12699999809E+01 0.  1.
</event>
<event>
 5   0  0.5052959E-04  0.1203986E+04  0.7818609E-02  0.9109375E-01
       -1   -1    0    0    0  501  0.00000000000E+00  0.00000000000E+00  0.44389508222E+03  0.44389508225E+03  0.50400001928E-02 0. -1.
        1   -1    0    0  501    0  0.00000000000E+00  0.00000000000E+00 -0.81639860244E+03  0.81639860246E+03  0.50400001928E-02 0.  1.
    10030    2    1    2    0    0  0.00000000000E+00  0.00000000000E+00 -0.37250352022E+03  0.12602936847E+04  0.12039855893E+04 0.  0.
        2    1    3    3  502    0  0.12707312605E+03 -0.13739445944E+03 -0.78517373415E+03  0.80716950491E+03  0.25500000920E-02 0.  1.
       -2    1    3    3    0  502 -0.12707312605E+03  0.13739445944E+03  0.41267021393E+03  0.45312417980E+03  0.25500000920E-02 0. -1.
</event>
<event>
 5   0  0.3453625E-04  0.1207262E+04  0.7818609E-02  0.9106524E-01
       -4   -1    0    0    0  501  0.00000000000E+00  0.00000000000E+00  0.55590134972E+03  0.55590280042E+03  0.12699999809E+01 0. -1.
        4   -1    0    0  501    0  0.00000000000E+00  0.00000000000E+00 -0.65545589526E+03  0.65545712562E+03  0.12699999809E+01 0.  1.
    10030    2    1    2    0    0  0.00000000000E+00  0.00000000000E+00 -0.99554545541E+02  0.12113599260E+04  0.12072620937E+04 0.  0.
        2    1    3    3  502    0  0.49602792956E+03 -0.68148801783E+02  0.28853550192E+03  0.57787602646E+03  0.25500000920E-02 0. -1.
       -2    1    3    3    0  502 -0.49602792956E+03  0.68148801783E+02 -0.38809004746E+03  0.63348389958E+03  0.25500000920E-02 0.  1.
</event>
<event>
 5   0  0.5447074E-04  0.1200672E+04  0.7818609E-02  0.9112268E-01
       -1   -1    0    0    0  501  0.00000000000E+00  0.00000000000E+00  0.65910604894E+03  0.65910604896E+03  0.50400001928E-02 0. -1.
        1   -1    0    0  501    0  0.00000000000E+00  0.00000000000E+00 -0.54680665044E+03  0.54680665047E+03  0.50400001928E-02 0.  1.
    10030    2    1    2    0    0  0.00000000000E+00  0.00000000000E+00  0.11229939850E+03  0.12059126994E+04  0.12006724298E+04 0.  0.
        4    1    3    3  502    0  0.29558834302E+03 -0.34428633236E+03 -0.33862610567E+03  0.56619325280E+03  0.12699999809E+01 0.  1.
       -4    1    3    3    0  502 -0.29558834302E+03  0.34428633236E+03  0.45092550416E+03  0.63971944662E+03  0.12699999809E+01 0. -1.
</event>
<event>
 5   0  0.9298693E-04  0.1196990E+04  0.7818609E-02  0.9115496E-01
       -2   -1    0    0    0  501  0.00000000000E+00  0.00000000000E+00  0.42929714827E+03  0.42929714828E+03  0.25500000920E-02 0. -1.
        2   -1    0    0  501    0  0.00000000000E+00  0.00000000000E+00 -0.83437783155E+03  0.83437783155E+03  0.25500000920E-02 0.  1.
    10030    2    1    2    0    0  0.00000000000E+00  0.00000000000E+00 -0.40508068328E+03  0.12636749798E+04  0.11969895967E+04 0.  0.
        1    1    3    3  502    0  0.12957423383E+03  0.26096130452E+03  0.34937108617E+03  0.45491805901E+03  0.50400001928E-02 0. -1.
       -1    1    3    3    0  502 -0.12957423383E+03 -0.26096130452E+03 -0.75445176945E+03  0.80875692082E+03  0.50400001928E-02 0.  1.
</event>
<event>
 5   0  0.3453625E-04  0.1199620E+04  0.7818609E-02  0.9113189E-01
        4   -1    0    0  501    0  0.00000000000E+00  0.00000000000E+00  0.65142732696E+03  0.65142856493E+03  0.12699999809E+01 0.  1.
       -4   -1    0    0    0  501  0.00000000000E+00  0.00000000000E+00 -0.55228024193E+03  0.55228170214E+03  0.12699999809E+01 0. -1.
    10030    2    1    2    0    0  0.00000000000E+00  0.00000000000E+00  0.99147085031E+02  0.12037102671E+04  0.11996200493E+04 0.  0.
        4    1    3    3  502    0 -0.26984211313E+03  0.50072702662E+03  0.24055940369E+03  0.61758623755E+03  0.12699999809E+01 0.  1.
       -4    1    3    3    0  502  0.26984211313E+03 -0.50072702662E+03 -0.14141231866E+03  0.58612402952E+03  0.12699999809E+01 0. -1.
</event>
<event>
 5   0  0.9410666E-04  0.1198573E+04  0.7818609E-02  0.9114107E-01
       -2   -1    0    0    0  501  0.00000000000E+00  0.00000000000E+00  0.36186517907E+03  0.36186517908E+03  0.25500000920E-02 0.  1.
        2   -1    0    0  501    0  0.00000000000E+00  0.00000000000E+00 -0.99248047884E+03  0.99248047884E+03  0.25500000920E-02 0. -1.
    10030    2    1    2    0    0  0.00000000000E+00  0.00000000000E+00 -0.63061529976E+03  0.13543456579E+04  0.11985726949E+04 0.  0.
        2    1    3    3  502    0  0.28547963579E+03  0.21656058294E+03 -0.85809933773E+03  0.92990944826E+03  0.25500000920E-02 0. -1.
       -2    1    3    3    0  502 -0.28547963579E+03 -0.21656058294E+03  0.22748403797E+03  0.42443620966E+03  0.25500000920E-02 0.  1.
</event>
<event>
 5   0  0.5001586E-04  0.1195643E+04  0.7818609E-02  0.9116679E-01
        1   -1    0    0  501    0  0.00000000000E+00  0.00000000000E+00  0.31332796799E+04  0.31332796799E+04  0.50400001928E-02 0. -1.
       -1   -1    0    0    0  501  0.00000000000E+00  0.00000000000E+00 -0.11406269330E+03  0.11406269341E+03  0.50400001928E-02 0.  1.
    10030    2    1    2    0    0  0.00000000000E+00  0.00000000000E+00  0.30192169866E+04  0.32473423733E+04  0.11956426211E+04 0.  0.
        1    1    3    3  502    0 -0.32411096697E+03  0.11328198321E+03  0.18041518051E+03  0.38785353423E+03  0.50400001928E-02 0.  1.
       -1    1    3    3    0  502  0.32411096697E+03 -0.11328198321E+03  0.28388018060E+04  0.28594888390E+04  0.50400001928E-02 0. -1.
</event>
<event>
 5   0  0.5447074E-04  0.1157416E+04  0.7818609E-02  0.9150969E-01
       -1   -1    0    0    0  501  0.00000000000E+00  0.00000000000E+00  0.89962430256E+03  0.89962430257E+03  0.50400001928E-02 0. -1.
        1   -1    0    0  501    0  0.00000000000E+00  0.00000000000E+00 -0.37226955843E+03  0.37226955847E+03  0.50400001928E-02 0.  1.
    10030    2    1    2    0    0  0.00000000000E+00  0.00000000000E+00  0.52735474413E+03  0.12718938610E+04  0.11574156417E+04 0.  0.
        4    1    3    3  502    0 -0.14577135309E+02 -0.25963676811E+03  0.83180071061E+03  0.87150317228E+03  0.12699999809E+01 0. -1.
       -4    1    3    3    0  502  0.14577135309E+02  0.25963676811E+03 -0.30444596649E+03  0.40039068875E+03  0.12699999809E+01 0.  1.
</event>
<event>
 5   0  0.9410666E-04  0.1182117E+04  0.7818609E-02  0.9128655E-01
        2   -1    0    0  501    0  0.00000000000E+00  0.00000000000E+00  0.15760719505E+04  0.15760719505E+04  0.25500000920E-02 0.  1.
       -2   -1    0    0    0  501  0.00000000000E+00  0.00000000000E+00 -0.22165867758E+03  0.22165867759E+03  0.25500000920E-02 0. -1.
    10030    2    1    2    0    0  0.00000000000E+00  0.00000000000E+00  0.13544132729E+04  0.17977306281E+04  0.11821167867E+04 0.  0.
        2    1    3    3  502    0  0.34367661612E+02  0.17015455883E+02 -0.21976470155E+03  0.22308560231E+03  0.25500000920E-02 0. -1.
       -2    1    3    3    0  502 -0.34367661612E+02 -0.17015455883E+02  0.15741779745E+04  0.15746450258E+04  0.25500000920E-02 0.  1.
</event>
<event>
 5   0  0.9145224E-04  0.1202159E+04  0.7818609E-02  0.9110969E-01
        2   -1    0    0  501    0  0.00000000000E+00  0.00000000000E+00  0.14559178244E+04  0.14559178244E+04  0.25500000920E-02 0.  1.
       -2   -1    0    0    0  501  0.00000000000E+00  0.00000000000E+00 -0.24815729411E+03  0.24815729412E+03  0.25500000920E-02 0. -1.
    10030    2    1    2    0    0  0.00000000000E+00  0.00000000000E+00  0.12077605303E+04  0.17040751185E+04  0.12021591039E+04 0.  0.
        5    1    3    3  502    0  0.15539129385E+02  0.51888074470E+03  0.10333556722E+04  0.11564275710E+04  0.46999998093E+01 0.  1.
       -5    1    3    3    0  502 -0.15539129385E+02 -0.51888074470E+03  0.17440485811E+03  0.54764754751E+03  0.46999998093E+01 0. -1.
</event>
<event>
 5   0  0.5447074E-04  0.1197360E+04  0.7818609E-02  0.9115170E-01
       -1   -1    0    0    0  501  0.00000000000E+00  0.00000000000E+00  0.32849713156E+03  0.32849713160E+03  0.50400001928E-02 0.  1.
        1   -1    0    0  501    0  0.00000000000E+00  0.00000000000E+00 -0.10910833532E+04  0.10910833532E+04  0.50400001928E-02 0. -1.
    10030    2    1    2    0    0  0.00000000000E+00  0.00000000000E+00 -0.76258622167E+03  0.14195804848E+04  0.11973600158E+04 0.  0.
        4    1    3    3  502    0 -0.41068009460E+03 -0.14106562998E+03  0.10733550202E+03  0.44730322484E+03  0.12699999809E+01 0.  1.
       -4    1    3    3    0  502  0.41068009460E+03  0.14106562998E+03 -0.86992172369E+03  0.97227726000E+03  0.12699999809E+01 0. -1.
</event>
<event>
 5   0  0.5052959E-04  0.1202020E+04  0.7818609E-02  0.9111091E-01
       -1   -1    0    0    0  501  0.00000000000E+00  0.00000000000E+00  0.32321228440E+03  0.32321228444E+03  0.50400001928E-02 0. -1.
        1   -1    0    0  501    0  0.00000000000E+00  0.00000000000E+00 -0.11175713644E+04  0.11175713644E+04  0.50400001928E-02 0.  1.
    10030    2    1    2    0    0  0.00000000000E+00  0.00000000000E+00 -0.79435908002E+03  0.14407836489E+04  0.12020196233E+04 0.  0.
        2    1    3    3  502    0  0.53825203828E+03 -0.20158866370E+03 -0.18661657309E+03  0.60430041486E+03  0.25500000920E-02 0. -1.
       -2    1    3    3    0  502 -0.53825203828E+03  0.20158866370E+03 -0.60774250693E+03  0.83648323401E+03  0.25500000920E-02 0.  1.
</event>
<event>
 5   0  0.9070772E-04  0.1199026E+04  0.7818609E-02  0.9113710E-01
        2   -1    0    0  501    0  0.00000000000E+00  0.00000000000E+00  0.13409535593E+04  0.13409535593E+04  0.25500000920E-02 0. -1.
       -2   -1    0    0    0  501  0.00000000000E+00  0.00000000000E+00 -0.26802984545E+03  0.26802984547E+03  0.25500000920E-02 0.  1.
    10030    2    1    2    0    0  0.00000000000E+00  0.00000000000E+00  0.10729237138E+04  0.16089834047E+04  0.11990255631E+04 0.  0.
        4    1    3    3  502    0  0.95690944632E+02  0.57293790619E+03  0.33742745099E+03  0.67176893261E+03  0.12699999809E+01 0. -1.
       -4    1    3    3    0  502 -0.95690944632E+02 -0.57293790619E+03  0.73549626283E+03  0.93721447213E+03  0.12699999809E+01 0.  1.
</event>
<event>
 5   0  0.5157631E-04  0.1201931E+04  0.7818609E-02  0.9111168E-01
        1   -1    0    0  501    0  0.00000000000E+00  0.00000000000E+00  0.58777658162E+03  0.58777658164E+03  0.50400001928E-02 0. -1.
       -1   -1    0    0    0  501  0.00000000000E+00  0.00000000000E+00 -0.61445031574E+03  0.61445031576E+03  0.50400001928E-02 0.  1.
    10030    2    1    2    0    0  0.00000000000E+00  0.00000000000E+00 -0.26673734121E+02  0.12022268974E+04  0.12019309567E+04 0.  0.
        5    1    3    3  502    0  0.14402483024E+03 -0.21845870902E+03 -0.55445995629E+03  0.61311931335E+03  0.46999998093E+01 0.  1.
       -5    1    3    3    0  502 -0.14402483024E+03  0.21845870902E+03  0.52778622217E+03  0.58910758405E+03  0.46999998093E+01 0. -1.
</event>
<event>
 5   0  0.9070772E-04  0.1197699E+04  0.7818609E-02  0.9114873E-01
        2   -1    0    0  501    0  0.00000000000E+00  0.00000000000E+00  0.47269716946E+03  0.47269716947E+03  0.25500000920E-02 0.  1.
       -2   -1    0    0    0  501  0.00000000000E+00  0.00000000000E+00 -0.75866860001E+03  0.75866860001E+03  0.25500000920E-02 0. -1.
    10030    2    1    2    0    0  0.00000000000E+00  0.00000000000E+00 -0.28597143055E+03  0.12313657695E+04  0.11976986262E+04 0.  0.
        4    1    3    3  502    0  0.21266693434E+03 -0.31876261949E+03  0.33014822527E+03  0.50580262562E+03  0.12699999809E+01 0.  1.
       -4    1    3    3    0  502 -0.21266693434E+03  0.31876261949E+03 -0.61611965581E+03  0.72556314385E+03  0.12699999809E+01 0. -1.
</event>
<event>
 5   0  0.9070772E-04  0.1200750E+04  0.7818609E-02  0.9112200E-01
       -2   -1    0    0    0  501  0.00000000000E+00  0.00000000000E+00  0.10434640379E+04  0.10434640379E+04  0.25500000920E-02 0.  1.
        2   -1    0    0  501    0  0.00000000000E+00  0.00000000000E+00 -0.34543602922E+03  0.34543602923E+03  0.25500000920E-02 0. -1.
    10030    2    1    2    0    0  0.00000000000E+00  0.00000000000E+00  0.69802800867E+03  0.13889000671E+04  0.12007498888E+04 0.  0.
        4    1    3    3  502    0 -0.41107928105E+03  0.46179835091E+02 -0.15428703464E+03  0.44150294952E+03  0.12699999809E+01 0. -1.
       -4    1    3    3    0  502  0.41107928105E+03 -0.46179835091E+02  0.85231504330E+03  0.94739711759E+03  0.12699999809E+01 0.  1.
</event>
<event>
 5   0  0.9145224E-04  0.1196833E+04  0.7818609E-02  0.9115633E-01
       -2   -1    0    0    0  501  0.00000000000E+00  0.00000000000E+00  0.49649208063E+03  0.49649208064E+03  0.25500000920E-02 0. -1.
        2   -1    0    0  501    0  0.00000000000E+00  0.00000000000E+00 -0.72126475785E+03  0.72126475785E+03  0.25500000920E-02 0.  1.
    10030    2    1    2    0    0  0.00000000000E+00  0.00000000000E+00 -0.22477267722E+03  0.12177568385E+04  0.11968328878E+04 0.  0.
        5    1    3    3  502    0 -0.54521013625E+03 -0.14891538645E+03  0.87647423166E+02  0.57195633205E+03  0.46999998093E+01 0. -1.
       -5    1    3    3    0  502  0.54521013625E+03  0.14891538645E+03 -0.31242010038E+03  0.64580050643E+03  0.46999998093E+01 0.  1.
</event>
<event>
 5   0  0.5052959E-04  0.1197110E+04  0.7818609E-02  0.9115390E-01
        1   -1    0    0  501    0  0.00000000000E+00  0.00000000000E+00  0.81754072759E+03  0.81754072761E+03  0.50400001928E-02 0.  1.
       -1   -1    0    0    0  501  0.00000000000E+00  0.00000000000E+00 -0.43822634440E+03  0.43822634443E+03  0.50400001928E-02 0. -1.
    10030    2    1    2    0    0  0.00000000000E+00  0.00000000000E+00  0.37931438319E+03  0.12557670720E+04  0.11971096599E+04 0.  0.
        2    1    3    3  502    0  0.31883057389E+03 -0.45212160355E+03  0.42932769546E+03  0.70027790864E+03  0.25500000920E-02 0.  1.
       -2    1    3    3    0  502 -0.31883057389E+03  0.45212160355E+03 -0.50013312269E+02  0.55548916340E+03  0.25500000920E-02 0. -1.
</event>
<event>
 5   0  0.5001586E-04  0.1177932E+04  0.7818609E-02  0.9132395E-01
        1   -1    0    0  501    0  0.00000000000E+00  0.00000000000E+00  0.13735942577E+04  0.13735942577E+04  0.50400001928E-02 0.  1.
       -1   -1    0    0    0  501  0.00000000000E+00  0.00000000000E+00 -0.25253542766E+03  0.25253542771E+03  0.50400001928E-02 0. -1.
    10030    2    1    2    0    0  0.00000000000E+00  0.00000000000E+00  0.11210588300E+04  0.16261296854E+04  0.11779324486E+04 0.  0.
        1    1    3    3  502    0  0.18273233611E+03 -0.53348508255E+02  0.13299544407E+04  0.13435088330E+04  0.50400001928E-02 0.  1.
       -1    1    3    3    0  502 -0.18273233611E+03  0.53348508255E+02 -0.20889561071E+03  0.28262085236E+03  0.50400001928E-02 0. -1.
</event>
<event>
 5   0  0.5157631E-04  0.1217689E+04  0.7818609E-02  0.9097513E-01
        1   -1    0    0  501    0  0.00000000000E+00  0.00000000000E+00  0.10844117483E+04  0.10844117483E+04  0.50400001928E-02 0.  1.
       -1   -1    0    0    0  501  0.00000000000E+00  0.00000000000E+00 -0.34183654629E+03  0.34183654632E+03  0.50400001928E-02 0. -1.
    10030    2    1    2    0    0  0.00000000000E+00  0.00000000000E+00  0.74257520198E+03  0.14262482946E+04  0.12176889041E+04 0.  0.
        5    1    3    3  502    0  0.77410564891E+02 -0.19769720325E+02  0.10782237222E+04  0.10811899567E+04  0.46999998093E+01 0.  1.
       -5    1    3    3    0  502 -0.77410564891E+02  0.19769720325E+02 -0.33564852024E+03  0.34505833787E+03  0.46999998093E+01 0. -1.
</event>
<event>
 5   0  0.9298693E-04  0.1202659E+04  0.7818609E-02  0.9110532E-01
        2   -1    0    0  501    0  0.00000000000E+00  0.00000000000E+00  0.72385321819E+03  0.72385321820E+03  0.25500000920E-02 0.  1.
       -2   -1    0    0    0  501  0.00000000000E+00  0.00000000000E+00 -0.49954483200E+03  0.49954483200E+03  0.25500000920E-02 0. -1.
    10030    2    1    2    0    0  0.00000000000E+00  0.00000000000E+00  0.22430838620E+03  0.12233980502E+04  0.12026589446E+04 0.  0.
        1    1    3    3  502    0 -0.18140258671E+03  0.28774514953E+03  0.61658122257E+03  0.70418504215E+03  0.50400001928E-02 0.  1.
       -1    1    3    3    0  502  0.18140258671E+03 -0.28774514953E+03 -0.39227283637E+03  0.51921300805E+03  0.50400001928E-02 0. -1.
</event>
<event>
 5   0  0.3453625E-04  0.1201021E+04  0.7818609E-02  0.9111963E-01
        4   -1    0    0  501    0  0.00000000000E+00  0.00000000000E+00  0.28883755072E+03  0.28884034276E+03  0.12699999809E+01 0. -1.
       -4   -1    0    0    0  501  0.00000000000E+00  0.00000000000E+00 -0.12484884209E+04  0.12484890668E+04  0.12699999809E+01 0.  1.
    10030    2    1    2    0    0  0.00000000000E+00  0.00000000000E+00 -0.95965087014E+03  0.15373294096E+04  0.12010211992E+04 0.  0.
        2    1    3    3  502    0  0.25717449324E+03 -0.51811812106E+03 -0.27331804365E+03  0.63975609441E+03  0.25500000920E-02 0. -1.
       -2    1    3    3    0  502 -0.25717449324E+03  0.51811812106E+03 -0.68633282649E+03  0.89757331515E+03  0.25500000920E-02 0.  1.
</event>
<event>
 5   0  0.9070772E-04  0.1198438E+04  0.7818609E-02  0.9114225E-01
        2   -1    0    0  501    0  0.00000000000E+00  0.00000000000E+00  0.99145987448E+03  0.99145987448E+03  0.25500000920E-02 0. -1.
       -2   -1    0    0    0  501  0.00000000000E+00  0.00000000000E+00 -0.36215624001E+03  0.36215624002E+03  0.25500000920E-02 0.  1.
    10030    2    1    2    0    0  0.00000000000E+00  0.00000000000E+00  0.62930363447E+03  0.13536161145E+04  0.11984379504E+04 0.  0.
        4    1    3    3  502    0 -0.16508042178E+03  0.14950449960E+03  0.94297236044E+03  0.96891776045E+03  0.12699999809E+01 0. -1.
       -4    1    3    3    0  502  0.16508042178E+03 -0.14950449960E+03 -0.31366872597E+03  0.38469835405E+03  0.12699999809E+01 0.  1.
</event>
<event>
 5   0  0.5157631E-04  0.1209036E+04  0.7818609E-02  0.9104984E-01
       -1   -1    0    0    0  501  0.00000000000E+00  0.00000000000E+00  0.33104094391E+03  0.33104094394E+03  0.50400001928E-02 0.  1.
        1   -1    0    0  501    0  0.00000000000E+00  0.00000000000E+00 -0.11039181187E+04  0.11039181187E+04  0.50400001928E-02 0. -1.
    10030    2    1    2    0    0  0.00000000000E+00  0.00000000000E+00 -0.77287717480E+03  0.14349590627E+04  0.12090361385E+04 0.  0.
        5    1    3    3  502    0 -0.26593872619E+03  0.10773287996E+03 -0.10179230467E+04  0.10576006801E+04  0.46999998093E+01 0. -1.
       -5    1    3    3    0  502  0.26593872619E+03 -0.10773287996E+03  0.24504587195E+03  0.37735838253E+03  0.46999998093E+01 0.  1.
</event>
<event>
 5   0  0.5001586E-04  0.1197403E+04  0.7818609E-02  0.9115133E-01
       -1   -1    0    0    0  501  0.00000000000E+00  0.00000000000E+00  0.33657826151E+03  0.33657826154E+03  0.50400001928E-02 0.  1.
        1   -1    0    0  501    0  0.00000000000E+00  0.00000000000E+00 -0.10649628291E+04  0.10649628291E+04  0.50400001928E-02 0. -1.
    10030    2    1    2    0    0  0.00000000000E+00  0.00000000000E+00 -0.72838456757E+03  0.14015410906E+04  0.11974027520E+04 0.  0.
        1    1    3    3  502    0  0.42365358083E+03 -0.41486623699E+03 -0.26733878427E+03  0.65043552851E+03  0.50400001928E-02 0.  1.
       -1    1    3    3    0  502 -0.42365358083E+03  0.41486623699E+03 -0.46104578329E+03  0.75110556213E+03  0.50400001928E-02 0. -1.
</event>
<event>
 5   0  0.5052959E-04  0.1212974E+04  0.7818609E-02  0.9101576E-01
       -1   -1    0    0    0  501  0.00000000000E+00  0.00000000000E+00  0.23980569556E+03  0.23980569562E+03  0.50400001928E-02 0. -1.
        1   -1    0    0  501    0  0.00000000000E+00  0.00000000000E+00 -0.15338521806E+04  0.15338521806E+04  0.50400001928E-02 0.  1.
    10030    2    1    2    0    0  0.00000000000E+00  0.00000000000E+00 -0.12940464850E+04  0.17736578762E+04  0.12129740131E+04 0.  0.
        2    1    3    3  502    0  0.34073328514E+03 -0.50132655960E+03 -0.67623137491E+03  0.90813895599E+03  0.25500000920E-02 0. -1.
       -2    1    3    3    0  502 -0.34073328514E+03  0.50132655960E+03 -0.61781511008E+03  0.86551892019E+03  0.25500000920E-02 0.  1.
</event>
<event>
 5   0  0.5052959E-04  0.1200787E+04  0.7818609E-02  0.9112168E-01
        1   -1    0    0  501    0  0.00000000000E+00  0.00000000000E+00  0.17851440828E+03  0.17851440835E+03  0.50400001928E-02 0. -1.
       -1   -1    0    0    0  501  0.00000000000E+00  0.00000000000E+00 -0.20192896928E+04  0.20192896928E+04  0.50400001928E-02 0.  1.
    10030    2    1    2    0    0  0.00000000000E+00  0.00000000000E+00 -0.18407752845E+04  0.21978041012E+04  0.12007869166E+04 0.  0.
        2    1    3    3  502    0 -0.49318888966E+03 -0.25148681753E+03 -0.49509747243E+03  0.74269940587E+03  0.25500000920E-02 0. -1.
       -2    1    3    3    0  502  0.49318888966E+03  0.25148681753E+03 -0.13456778121E+04  0.14551046953E+04  0.25500000920E-02 0.  1.
</event>
<event>
 5   0  0.5157631E-04  0.1216220E+04  0.7818609E-02  0.9098776E-01
        1   -1    0    0  501    0  0.00000000000E+00  0.00000000000E+00  0.80175537622E+03  0.80175537624E+03  0.50400001928E-02 0.  1.
       -1   -1    0    0    0  501  0.00000000000E+00  0.00000000000E+00 -0.46123521761E+03  0.46123521764E+03  0.50400001928E-02 0. -1.
    10030    2    1    2    0    0  0.00000000000E+00  0.00000000000E+00  0.34052015861E+03  0.12629905939E+04  0.12162200713E+04 0.  0.
        5    1    3    3  502    0 -0.48414349660E+03 -0.36157373954E+03  0.99483167542E+02  0.61241283874E+03  0.46999998093E+01 0. -1.
       -5    1    3    3    0  502  0.48414349660E+03  0.36157373954E+03  0.24103699107E+03  0.65057775514E+03  0.46999998093E+01 0.  1.
</event>
<event>
 5   0  0.9298693E-04  0.1199350E+04  0.7818609E-02  0.9113426E-01
       -2   -1    0    0    0  501  0.00000000000E+00  0.00000000000E+00  0.76167584412E+03  0.76167584412E+03  0.25500000920E-02 0. -1.
        2   -1    0    0  501    0  0.00000000000E+00  0.00000000000E+00 -0.47212981708E+03  0.47212981709E+03  0.25500000920E-02 0.  1.
    10030    2    1    2    0    0  0.00000000000E+00  0.00000000000E+00  0.28954602703E+03  0.12338056612E+04  0.11993496187E+04 0.  0.
        1    1    3    3  502    0  0.72930082426E+02 -0.14859102574E+03  0.73770991011E+03  0.75605158643E+03  0.50400001928E-02 0. -1.
       -1    1    3    3    0  502 -0.72930082426E+02  0.14859102574E+03 -0.44816388307E+03  0.47775407478E+03  0.50400001928E-02 0.  1.
</event>
<event>
 5   0  0.5052959E-04  0.1205962E+04  0.7818609E-02  0.9107654E-01
       -1   -1    0    0    0  501  0.00000000000E+00  0.00000000000E+00  0.46957244666E+03  0.46957244669E+03  0.50400001928E-02 0.  1.
        1   -1    0    0  501    0  0.00000000000E+00  0.00000000000E+00 -0.77429215944E+03  0.77429215946E+03  0.50400001928E-02 0. -1.
    10030    2    1    2    0    0  0.00000000000E+00  0.00000000000E+00 -0.30471971278E+03  0.12438646061E+04  0.12059622942E+04 0.  0.
        2    1    3    3  502    0  0.19698515281E+03  0.52795685461E+03  0.68964432496E+02  0.56771267707E+03  0.25500000920E-02 0.  1.
       -2    1    3    3    0  502 -0.19698515281E+03 -0.52795685461E+03 -0.37368414528E+03  0.67615192907E+03  0.25500000920E-02 0. -1.
</event>
<event>
 5   0  0.5001586E-04  0.1208768E+04  0.7818609E-02  0.9105216E-01
        1   -1    0    0  501    0  0.00000000000E+00  0.00000000000E+00  0.18841040038E+04  0.18841040039E+04  0.50400001928E-02 0. -1.
       -1   -1    0    0    0  501  0.00000000000E+00  0.00000000000E+00 -0.19387472463E+03  0.19387472469E+03  0.50400001928E-02 0.  1.
    10030    2    1    2    0    0  0.00000000000E+00  0.00000000000E+00  0.16902292792E+04  0.20779787285E+04  0.12087682077E+04 0.  0.
        1    1    3    3  502    0 -0.36404433053E+03 -0.32579071937E+03  0.23341816271E+03  0.54143504331E+03  0.50400001928E-02 0.  1.
       -1    1    3    3    0  502  0.36404433053E+03  0.32579071937E+03  0.14568111165E+04  0.15365436852E+04  0.50400001928E-02 0. -1.
</event>
<event>
 5   0  0.9070772E-04  0.1207987E+04  0.7818609E-02  0.9105894E-01
        2   -1    0    0  501    0  0.00000000000E+00  0.00000000000E+00  0.10838835388E+04  0.10838835388E+04  0.25500000920E-02 0.  1.
       -2   -1    0    0    0  501  0.00000000000E+00  0.00000000000E+00 -0.33657497750E+03  0.33657497751E+03  0.25500000920E-02 0. -1.
    10030    2    1    2    0    0  0.00000000000E+00  0.00000000000E+00  0.74730856128E+03  0.14204585163E+04  0.12079868835E+04 0.  0.
        4    1    3    3  502    0  0.39220119892E+03  0.19701310151E+03 -0.11426247726E+03  0.45353441899E+03  0.12699999809E+01 0. -1.
       -4    1    3    3    0  502 -0.39220119892E+03 -0.19701310151E+03  0.86157103855E+03  0.96692409731E+03  0.12699999809E+01 0.  1.
</event>
<event>
 5   0  0.5157631E-04  0.1199275E+04  0.7818609E-02  0.9113491E-01
       -1   -1    0    0    0  501  0.00000000000E+00  0.00000000000E+00  0.31711289432E+03  0.31711289436E+03  0.50400001928E-02 0.  1.
        1   -1    0    0  501    0  0.00000000000E+00  0.00000000000E+00 -0.11338715981E+04  0.11338715981E+04  0.50400001928E-02 0. -1.
    10030    2    1    2    0    0  0.00000000000E+00  0.00000000000E+00 -0.81675870380E+03  0.14509844925E+04  0.11992752883E+04 0.  0.
        5    1    3    3  502    0 -0.54776307336E+03  0.15916389068E+03 -0.18474477275E+03  0.59960841362E+03  0.46999998093E+01 0.  1.
       -5    1    3    3    0  502  0.54776307336E+03 -0.15916389068E+03 -0.63201393104E+03  0.85137607886E+03  0.46999998093E+01 0. -1.
</event>
<event>
 5   0  0.5157631E-04  0.1201279E+04  0.7818609E-02  0.9111738E-01
       -1   -1    0    0    0  501  0.00000000000E+00  0.00000000000E+00  0.50418078276E+03  0.50418078278E+03  0.50400001928E-02 0. -1.
        1   -1    0    0  501    0  0.00000000000E+00  0.00000000000E+00 -0.71555265350E+03  0.71555265352E+03  0.50400001928E-02 0.  1.
    10030    2    1    2    0    0  0.00000000000E+00  0.00000000000E+00 -0.21137187074E+03  0.12197334363E+04  0.12012791465E+04 0.  0.
        5    1    3    3  502    0  0.54282905812E+03  0.24657926506E+03 -0.17947340861E+03  0.62265360731E+03  0.46999998093E+01 0.  1.
       -5    1    3    3    0  502 -0.54282905812E+03 -0.24657926506E+03 -0.31898462132E+02  0.59707982899E+03  0.46999998093E+01 0. -1.
</event>
<event>
 5   0  0.5052959E-04  0.1197153E+04  0.7818609E-02  0.9115352E-01
        1   -1    0    0  501    0  0.00000000000E+00  0.00000000000E+00  0.11787433057E+04  0.11787433057E+04  0.50400001928E-02 0. -1.
       -1   -1    0    0    0  501  0.00000000000E+00  0.00000000000E+00 -0.30396277568E+03  0.30396277572E+03  0.50400001928E-02 0.  1.
    10030    2    1    2    0    0  0.00000000000E+00  0.00000000000E+00  0.87478052999E+03  0.14827060814E+04  0.11971534355E+04 0.  0.
        2    1    3    3  502    0 -0.72930568962E+02  0.39257647970E+03 -0.11491323861E+03  0.41549995514E+03  0.25500000920E-02 0.  1.
       -2    1    3    3    0  502  0.72930568962E+02 -0.39257647970E+03  0.98969376860E+03  0.10672061263E+04  0.25500000920E-02 0. -1.
</event>
<event>
 5   0  0.9298693E-04  0.1200840E+04  0.7818609E-02  0.9112122E-01
       -2   -1    0    0    0  501  0.00000000000E+00  0.00000000000E+00  0.16001427036E+03  0.16001427038E+03  0.25500000920E-02 0.  1.
        2   -1    0    0  501    0  0.00000000000E+00  0.00000000000E+00 -0.22529490855E+04  0.22529490855E+04  0.25500000920E-02 0. -1.
    10030    2    1    2    0    0  0.00000000000E+00  0.00000000000E+00 -0.20929348152E+04  0.24129633559E+04  0.12008397130E+04 0.  0.
        1    1    3    3  502    0 -0.34496132032E+02 -0.47374303835E+03 -0.17844429449E+04  0.18465803728E+04  0.50400001928E-02 0. -1.
       -1    1    3    3    0  502  0.34496132032E+02  0.47374303835E+03 -0.30849187024E+03  0.56638298310E+03  0.50400001928E-02 0.  1.
</event>
<event>
 5   0  0.5447074E-04  0.1200054E+04  0.7818609E-02  0.9112810E-01
        1   -1    0    0  501    0  0.00000000000E+00  0.00000000000E+00  0.55129073643E+03  0.55129073645E+03  0.50400001928E-02 0.  1.
       -1   -1    0    0    0  501  0.00000000000E+00  0.00000000000E+00 -0.65307138295E+03  0.65307138297E+03  0.50400001928E-02 0. -1.
    10030    2    1    2    0    0  0.00000000000E+00  0.00000000000E+00 -0.10178064653E+03  0.12043621194E+04  0.12000536716E+04 0.  0.
        4    1    3    3  502    0 -0.12575119174E+03 -0.58601851720E+03 -0.22512915184E+02  0.59978288486E+03  0.12699999809E+01 0.  1.
       -4    1    3    3    0  502  0.12575119174E+03  0.58601851720E+03 -0.79267731344E+02  0.60457923456E+03  0.12699999809E+01 0. -1.
</event>
<event>
 5   0  0.9298693E-04  0.1195613E+04  0.7818609E-02  0.9116705E-01
        2   -1    0    0  501    0  0.00000000000E+00  0.00000000000E+00  0.17524565117E+04  0.17524565117E+04  0.25500000920E-02 0. -1.
       -2   -1    0    0    0  501  0.00000000000E+00  0.00000000000E+00 -0.20392663464E+03  0.20392663465E+03  0.25500000920E-02 0.  1.
    10030    2    1    2    0    0  0.00000000000E+00  0.00000000000E+00  0.15485298771E+04  0.19563831464E+04  0.11956129120E+04 0.  0.
        1    1    3    3  502    0  0.40773887735E+03  0.41438011024E+03  0.54629172902E+03  0.79774464654E+03  0.50400001928E-02 0. -1.
       -1    1    3    3    0  502 -0.40773887735E+03 -0.41438011024E+03  0.10022381481E+04  0.11586384999E+04  0.50400001928E-02 0.  1.
</event>
<event>
 5   0  0.9050363E-04  0.1197201E+04  0.7818609E-02  0.9115310E-01
        2   -1    0    0  501    0  0.00000000000E+00  0.00000000000E+00  0.42275361534E+03  0.42275361535E+03  0.25500000920E-02 0.  1.
       -2   -1    0    0    0  501  0.00000000000E+00  0.00000000000E+00 -0.84759205285E+03  0.84759205286E+03  0.25500000920E-02 0. -1.
    10030    2    1    2    0    0  0.00000000000E+00  0.00000000000E+00 -0.42483843751E+03  0.12703456682E+04  0.11972010770E+04 0.  0.
        3    1    3    3  502    0 -0.15411323584E+03  0.50448058604E+03  0.87837376667E+02  0.53475879244E+03  0.10100000352E+00 0.  1.
       -3    1    3    3    0  502  0.15411323584E+03 -0.50448058604E+03 -0.51267581418E+03  0.73558687577E+03  0.10100000352E+00 0. -1.
</event>
<event>
 5   0  0.9050363E-04  0.1201119E+04  0.7818609E-02  0.9111878E-01
        2   -1    0    0  501    0  0.00000000000E+00  0.00000000000E+00  0.14658109730E+04  0.14658109730E+04  0.25500000920E-02 0. -1.
       -2   -1    0    0    0  501  0.00000000000E+00  0.00000000000E+00 -0.24605588827E+03  0.24605588828E+03  0.25500000920E-02 0.  1.
    10030    2    1    2    0    0  0.00000000000E+00  0.00000000000E+00  0.12197550847E+04  0.17118668613E+04  0.12011185137E+04 0.  0.
        3    1    3    3  502    0  0.25297904201E+03  0.54449222851E+03  0.63009509358E+03  0.87033902576E+03  0.10100000352E+00 0.  1.
       -3    1    3    3    0  502 -0.25297904201E+03 -0.54449222851E+03  0.58965999116E+03  0.84152783553E+03  0.10100000352E+00 0. -1.
</event>
<event>
 5   0  0.5001586E-04  0.1189781E+04  0.7818609E-02  0.9121848E-01
       -1   -1    0    0    0  501  0.00000000000E+00  0.00000000000E+00  0.58099342474E+03  0.58099342477E+03  0.50400001928E-02 0. -1.
        1   -1    0    0  501    0  0.00000000000E+00  0.00000000000E+00 -0.60912023435E+03  0.60912023438E+03  0.50400001928E-02 0.  1.
    10030    2    1    2    0    0  0.00000000000E+00  0.00000000000E+00 -0.28126809611E+02  0.11901136591E+04  0.11897812422E+04 0.  0.
        1    1    3    3  502    0 -0.80614385910E+01 -0.59478989577E+03 -0.21471156655E+02  0.59523190228E+03  0.50400001928E-02 0.  1.
       -1    1    3    3    0  502  0.80614385910E+01  0.59478989577E+03 -0.66556529557E+01  0.59488175686E+03  0.50400001928E-02 0. -1.
</event>
<event>
 5   0  0.5157631E-04  0.1204606E+04  0.7818609E-02  0.9108834E-01
        1   -1    0    0  501    0  0.00000000000E+00  0.00000000000E+00  0.15926912922E+04  0.15926912922E+04  0.50400001928E-02 0.  1.
       -1   -1    0    0    0  501  0.00000000000E+00  0.00000000000E+00 -0.22777111080E+03  0.22777111085E+03  0.50400001928E-02 0. -1.
    10030    2    1    2    0    0  0.00000000000E+00  0.00000000000E+00  0.13649201814E+04  0.18204624031E+04  0.12046062674E+04 0.  0.
        5    1    3    3  502    0 -0.29395917058E+03  0.16534926290E+02  0.14764949666E+04  0.15055712783E+04  0.46999998093E+01 0.  1.
       -5    1    3    3    0  502  0.29395917058E+03 -0.16534926290E+02 -0.11157478518E+03  0.31489112475E+03  0.46999998093E+01 0. -1.
</event>
<event>
 5   0  0.9050363E-04  0.1216435E+04  0.7818609E-02  0.9098591E-01
        2   -1    0    0  501    0  0.00000000000E+00  0.00000000000E+00  0.10736246009E+04  0.10736246009E+04  0.25500000920E-02 0. -1.
       -2   -1    0    0    0  501  0.00000000000E+00  0.00000000000E+00 -0.34456049811E+03  0.34456049812E+03  0.25500000920E-02 0.  1.
    10030    2    1    2    0    0  0.00000000000E+00  0.00000000000E+00  0.72906410282E+03  0.14181850991E+04  0.12164351644E+04 0.  0.
        3    1    3    3  502    0  0.44835892873E+03 -0.11130354771E+03  0.82576583881E+03  0.94620475556E+03  0.10100000352E+00 0. -1.
       -3    1    3    3    0  502 -0.44835892873E+03  0.11130354771E+03 -0.96701735992E+02  0.47198034350E+03  0.10100000352E+00 0.  1.
</event>
<event>
 5   0  0.5157631E-04  0.1197752E+04  0.7818609E-02  0.9114826E-01
       -1   -1    0    0    0  501  0.00000000000E+00  0.00000000000E+00  0.66794751724E+03  0.66794751726E+03  0.50400001928E-02 0.  1.
        1   -1    0    0  501    0  0.00000000000E+00  0.00000000000E+00 -0.53694716921E+03  0.53694716923E+03  0.50400001928E-02 0. -1.
    10030    2    1    2    0    0  0.00000000000E+00  0.00000000000E+00  0.13100034804E+03  0.12048946865E+04  0.11977521089E+04 0.  0.
        5    1    3    3  502    0  0.69267182604E+02  0.52140601802E+03  0.35350847423E+03  0.63376060903E+03  0.46999998093E+01 0.  1.
       -5    1    3    3    0  502 -0.69267182604E+02 -0.52140601802E+03 -0.22250812620E+03  0.57113407746E+03  0.46999998093E+01 0. -1.
</event>
<event>
 5   0  0.9410666E-04  0.1194161E+04  0.7818609E-02  0.9117983E-01
        2   -1    0    0  501    0  0.00000000000E+00  0.00000000000E+00  0.15974000658E+04  0.15974000658E+04  0.25500000920E-02 0.  1.
       -2   -1    0    0    0  501  0.00000000000E+00  0.00000000000E+00 -0.22317838304E+03  0.22317838305E+03  0.25500000920E-02 0. -1.
    10030    2    1    2    0    0  0.00000000000E+00  0.00000000000E+00  0.13742216828E+04  0.18205784489E+04  0.11941610675E+04 0.  0.
        2    1    3    3  502    0 -0.15566946087E+03 -0.38922396342E+03  0.38897532445E+02  0.42100034772E+03  0.25500000920E-02 0. -1.
       -2    1    3    3    0  502  0.15566946087E+03  0.38922396342E+03  0.13353241503E+04  0.13995781012E+04  0.25500000920E-02 0.  1.
</event>
<event>
 5   0  0.5003507E-04  0.1195373E+04  0.7818609E-02  0.9116916E-01
        1   -1    0    0  501    0  0.00000000000E+00  0.00000000000E+00  0.73401045480E+03  0.73401045482E+03  0.50400001928E-02 0.  1.
       -1   -1    0    0    0  501  0.00000000000E+00  0.00000000000E+00 -0.48668139379E+03  0.48668139381E+03  0.50400001928E-02 0. -1.
    10030    2    1    2    0    0  0.00000000000E+00  0.00000000000E+00  0.24732906101E+03  0.12206918486E+04  0.11953731321E+04 0.  0.
        3    1    3    3  502    0 -0.33829924477E+03  0.36713823557E+03  0.45924684604E+03  0.67833954538E+03  0.10100000352E+00 0.  1.
       -3    1    3    3    0  502  0.33829924477E+03 -0.36713823557E+03 -0.21191778502E+03  0.54235230325E+03  0.10100000352E+00 0. -1.
</event>
<event>
 5   0  0.5001586E-04  0.1200371E+04  0.7818609E-02  0.9112532E-01
        1   -1    0    0  501    0  0.00000000000E+00  0.00000000000E+00  0.84284484596E+03  0.84284484598E+03  0.50400001928E-02 0. -1.
       -1   -1    0    0    0  501  0.00000000000E+00  0.00000000000E+00 -0.42738897859E+03  0.42738897862E+03  0.50400001928E-02 0.  1.
    10030    2    1    2    0    0  0.00000000000E+00  0.00000000000E+00  0.41545586737E+03  0.12702338246E+04  0.12003709391E+04 0.  0.
        1    1    3    3  502    0  0.56978222308E+03  0.10562816948E+03  0.42385899638E+02  0.58103842940E+03  0.50400001928E-02 0.  1.
       -1    1    3    3    0  502 -0.56978222308E+03 -0.10562816948E+03  0.37306996773E+03  0.68919539520E+03  0.50400001928E-02 0. -1.
</event>
<event>
 5   0  0.5447074E-04  0.1200949E+04  0.7818609E-02  0.9112027E-01
       -1   -1    0    0    0  501  0.00000000000E+00  0.00000000000E+00  0.52916440085E+03  0.52916440087E+03  0.50400001928E-02 0. -1.
        1   -1    0    0  501    0  0.00000000000E+00  0.00000000000E+00 -0.68139404063E+03  0.68139404065E+03  0.50400001928E-02 0.  1.
    10030    2    1    2    0    0  0.00000000000E+00  0.00000000000E+00 -0.15222963978E+03  0.12105584415E+04  0.12009487404E+04 0.  0.
        4    1    3    3  502    0 -0.12189558761E+03  0.31775464354E+03  0.42255711670E+03  0.54257043557E+03  0.12699999809E+01 0. -1.
       -4    1    3    3    0  502  0.12189558761E+03 -0.31775464354E+03 -0.57478675648E+03  0.66798800595E+03  0.12699999809E+01 0.  1.
</event>
<event>
 5   0  0.9070772E-04  0.1200060E+04  0.7818609E-02  0.9112804E-01
       -2   -1    0    0    0  501  0.00000000000E+00  0.00000000000E+00  0.21337439667E+03  0.21337439668E+03  0.25500000920E-02 0.  1.
        2   -1    0    0  501    0  0.00000000000E+00  0.00000000000E+00 -0.16873434289E+04  0.16873434290E+04  0.25500000920E-02 0. -1.
    10030    2    1    2    0    0  0.00000000000E+00  0.00000000000E+00 -0.14739690323E+04  0.19007178256E+04  0.12000598087E+04 0.  0.
        4    1    3    3  502    0  0.87349237185E+00  0.70840977639E+02  0.20672459653E+03  0.21853118499E+03  0.12699999809E+01 0.  1.
       -4    1    3    3    0  502 -0.87349237185E+00 -0.70840977639E+02 -0.16806936288E+04  0.16821866406E+04  0.12699999809E+01 0. -1.
</event>
<event>
 5   0  0.5003507E-04  0.1202541E+04  0.7818609E-02  0.9110635E-01
        1   -1    0    0  501    0  0.00000000000E+00  0.00000000000E+00  0.27928864702E+03  0.27928864706E+03  0.50400001928E-02 0. -1.
       -1   -1    0    0    0  501  0.00000000000E+00  0.00000000000E+00 -0.12944537627E+04  0.12944537627E+04  0.50400001928E-02 0.  1.
    10030    2    1    2    0    0  0.00000000000E+00  0.00000000000E+00 -0.10151651157E+04  0.15737424098E+04  0.12025410431E+04 0.  0.
        3    1    3    3  502    0  0.21308380378E+03  0.19466876363E+03 -0.11978736681E+04  0.12321533873E+04  0.10100000352E+00 0.  1.
       -3    1    3    3    0  502 -0.21308380378E+03 -0.19466876363E+03  0.18270855238E+03  0.34158902248E+03  0.10100000352E+00 0. -1.
</event>
<event>
 5   0  0.5157631E-04  0.1199174E+04  0.7818609E-02  0.9113579E-01
        1   -1    0    0  501    0  0.00000000000E+00  0.00000000000E+00  0.49923241054E+03  0.49923241057E+03  0.50400001928E-02 0.  1.
       -1   -1    0    0    0  501  0.00000000000E+00  0.00000000000E+00 -0.72011519597E+03  0.72011519599E+03  0.50400001928E-02 0. -1.
    10030    2    1    2    0    0  0.00000000000E+00  0.00000000000E+00 -0.22088278543E+03  0.12193476066E+04  0.11991744580E+04 0.  0.
        5    1    3    3  502    0 -0.11442376873E+03  0.34422919030E+03 -0.59585698483E+03  0.69760602827E+03  0.46999998093E+01 0. -1.
       -5    1    3    3    0  502  0.11442376873E+03 -0.34422919030E+03  0.37497419940E+03  0.52174157829E+03  0.46999998093E+01 0.  1.
</event>
<event>
 5   0  0.5447074E-04  0.1201056E+04  0.7818609E-02  0.9111932E-01
       -1   -1    0    0    0  501  0.00000000000E+00  0.00000000000E+00  0.92836078483E+03  0.92836078484E+03  0.50400001928E-02 0. -1.
        1   -1    0    0  501    0  0.00000000000E+00  0.00000000000E+00 -0.38846328404E+03  0.38846328407E+03  0.50400001928E-02 0.  1.
    10030    2    1    2    0    0  0.00000000000E+00  0.00000000000E+00  0.53989750079E+03  0.13168240689E+04  0.12010563339E+04 0.  0.
        4    1    3    3  502    0  0.58570602690E+02 -0.59709873380E+03  0.24146262994E+03  0.64673273302E+03  0.12699999809E+01 0.  1.
       -4    1    3    3    0  502 -0.58570602690E+02  0.59709873380E+03  0.29843487085E+03  0.67009133589E+03  0.12699999809E+01 0. -1.
</event>
<event>
 5   0  0.9410666E-04  0.1203616E+04  0.7818609E-02  0.9109698E-01
       -2   -1    0    0    0  501  0.00000000000E+00  0.00000000000E+00  0.15377332529E+03  0.15377332531E+03  0.25500000920E-02 0.  1.
        2   -1    0    0  501    0  0.00000000000E+00  0.00000000000E+00 -0.23552375589E+04  0.23552375589E+04  0.25500000920E-02 0. -1.
    10030    2    1    2    0    0  0.00000000000E+00  0.00000000000E+00 -0.22014642337E+04  0.25090108843E+04  0.12036157382E+04 0.  0.
        2    1    3    3  502    0  0.12835333406E+03 -0.13902532724E+03 -0.22916172235E+04  0.22994156038E+04  0.25500000920E-02 0. -1.
       -2    1    3    3    0  502 -0.12835333406E+03  0.13902532724E+03  0.90152989884E+02  0.20959528041E+03  0.25500000920E-02 0.  1.
</event>
<event>
 5   0  0.9070772E-04  0.1199770E+04  0.7818609E-02  0.9113058E-01
        2   -1    0    0  501    0  0.00000000000E+00  0.00000000000E+00  0.92204684596E+03  0.92204684596E+03  0.25500000920E-02 0. -1.
       -2   -1    0    0    0  501  0.00000000000E+00  0.00000000000E+00 -0.39028575545E+03  0.39028575546E+03  0.25500000920E-02 0.  1.
    10030    2    1    2    0    0  0.00000000000E+00  0.00000000000E+00  0.53176109051E+03  0.13123326014E+04  0.11997695609E+04 0.  0.
        4    1    3    3  502    0 -0.93182966873E+02  0.59253023725E+03  0.25579663680E+03  0.65208027088E+03  0.12699999809E+01 0. -1.
       -4    1    3    3    0  502  0.93182966873E+02 -0.59253023725E+03  0.27596445371E+03  0.66025233054E+03  0.12699999809E+01 0.  1.
</event>
<event>
 5   0  0.9070772E-04  0.1208482E+04  0.7818609E-02  0.9105464E-01
        2   -1    0    0  501    0  0.00000000000E+00  0.00000000000E+00  0.13582816133E+04  0.13582816133E+04  0.25500000920E-02 0. -1.
       -2   -1    0    0    0  501  0.00000000000E+00  0.00000000000E+00 -0.26880089546E+03  0.26880089547E+03  0.25500000920E-02 0.  1.
    10030    2    1    2    0    0  0.00000000000E+00  0.00000000000E+00  0.10894807178E+04  0.16270825088E+04  0.12084822116E+04 0.  0.
        4    1    3    3  502    0 -0.15858620363E+03  0.19169952395E+03 -0.19663683002E+03  0.31712134473E+03  0.12699999809E+01 0.  1.
       -4    1    3    3    0  502  0.15858620363E+03 -0.19169952395E+03  0.12861175479E+04  0.13099611640E+04  0.12699999809E+01 0. -1.
</event>
<event>
 5   0  0.5447074E-04  0.1204330E+04  0.7818609E-02  0.9109075E-01
        1   -1    0    0  501    0  0.00000000000E+00  0.00000000000E+00  0.33116860786E+03  0.33116860789E+03  0.50400001928E-02 0. -1.
       -1   -1    0    0    0  501  0.00000000000E+00  0.00000000000E+00 -0.10949186623E+04  0.10949186623E+04  0.50400001928E-02 0.  1.
    10030    2    1    2    0    0  0.00000000000E+00  0.00000000000E+00 -0.76375005441E+03  0.14260872702E+04  0.12043300032E+04 0.  0.
        4    1    3    3  502    0  0.34901555555E+02 -0.59777891064E+03 -0.45717074532E+03  0.75336873300E+03  0.12699999809E+01 0.  1.
       -4    1    3    3    0  502 -0.34901555555E+02  0.59777891064E+03 -0.30657930909E+03  0.67271853717E+03  0.12699999809E+01 0. -1.
</event>
<event>
 5   0  0.9410666E-04  0.1200344E+04  0.7818609E-02  0.9112556E-01
       -2   -1    0    0    0  501  0.00000000000E+00  0.00000000000E+00  0.25871485958E+03  0.25871485959E+03  0.25500000920E-02 0.  1.
        2   -1    0    0  501    0  0.00000000000E+00  0.00000000000E+00 -0.13922907041E+04  0.13922907041E+04  0.25500000920E-02 0. -1.
    10030    2    1    2    0    0  0.00000000000E+00  0.00000000000E+00 -0.11335758446E+04  0.16510055637E+04  0.12003437741E+04 0.  0.
        2    1    3    3  502    0 -0.36497994951E+03 -0.10296594365E+03 -0.12066191680E+04  0.12648091420E+04  0.25500000920E-02 0. -1.
       -2    1    3    3    0  502  0.36497994951E+03  0.10296594365E+03  0.73043323389E+02  0.38619642178E+03  0.25500000920E-02 0.  1.
</event>
<event>
 5   0  0.9070772E-04  0.1201042E+04  0.7818609E-02  0.9111945E-01
        2   -1    0    0  501    0  0.00000000000E+00  0.00000000000E+00  0.12324959019E+04  0.12324959019E+04  0.25500000920E-02 0.  1.
       -2   -1    0    0    0  501  0.00000000000E+00  0.00000000000E+00 -0.29259770007E+03  0.29259770008E+03  0.25500000920E-02 0. -1.
    10030    2    1    2    0    0  0.00000000000E+00  0.00000000000E+00  0.93989820178E+03  0.15250936019E+04  0.12010419913E+04 0.  0.
        4    1    3    3  502    0  0.30422623416E+03 -0.43699478524E+03  0.11734946631E+03  0.54524357311E+03  0.12699999809E+01 0. -1.
       -4    1    3    3    0  502 -0.30422623416E+03  0.43699478524E+03  0.82254873547E+03  0.97985002883E+03  0.12699999809E+01 0.  1.
</event>
<event>
 5   0  0.9145224E-04  0.1196960E+04  0.7818609E-02  0.9115521E-01
        2   -1    0    0  501    0  0.00000000000E+00  0.00000000000E+00  0.18504373098E+03  0.18504373100E+03  0.25500000920E-02 0. -1.
       -2   -1    0    0    0  501  0.00000000000E+00  0.00000000000E+00 -0.19356425513E+04  0.19356425513E+04  0.25500000920E-02 0.  1.
    10030    2    1    2    0    0  0.00000000000E+00  0.00000000000E+00 -0.17505988204E+04  0.21206862823E+04  0.11969603495E+04 0.  0.
        5    1    3    3  502    0 -0.35146481711E+03 -0.14562046528E+03 -0.16937978868E+04  0.17360029403E+04  0.46999998093E+01 0.  1.
       -5    1    3    3    0  502  0.35146481711E+03  0.14562046528E+03 -0.56800933604E+02  0.38468334203E+03  0.46999998093E+01 0. -1.
</event>
<event>
 5   0  0.3453625E-04  0.1205220E+04  0.7818609E-02  0.9108299E-01
        4   -1    0    0  501    0  0.00000000000E+00  0.00000000000E+00  0.41523646411E+03  0.41523840625E+03  0.12699999809E+01 0. -1.
       -4   -1    0    0    0  501  0.00000000000E+00  0.00000000000E+00 -0.87453104383E+03  0.87453196598E+03  0.12699999809E+01 0.  1.
    10030    2    1    2    0    0  0.00000000000E+00  0.00000000000E+00 -0.45929457972E+03  0.12897703722E+04  0.12052203542E+04 0.  0.
        5    1    3    3  502    0  0.14588415599E+03 -0.56720210071E+03 -0.38143004262E+03  0.69893588935E+03  0.46999998093E+01 0.  1.
       -5    1    3    3    0  502 -0.14588415599E+03  0.56720210071E+03 -0.77864537095E+02  0.59083448287E+03  0.46999998093E+01 0. -1.
</event>
<event>
 5   0  0.9145224E-04  0.1195316E+04  0.7818609E-02  0.9116967E-01
        2   -1    0    0  501    0  0.00000000000E+00  0.00000000000E+00  0.78798486369E+03  0.78798486369E+03  0.25500000920E-02 0.  1.
       -2   -1    0    0    0  501  0.00000000000E+00  0.00000000000E+00 -0.45330161248E+03  0.45330161249E+03  0.25500000920E-02 0. -1.
    10030    2    1    2    0    0  0.00000000000E+00  0.00000000000E+00  0.33468325121E+03  0.12412864762E+04  0.11953155388E+04 0.  0.
        5    1    3    3  502    0 -0.15774029217E+03 -0.46606658006E+03 -0.18492827706E+03  0.52566207251E+03  0.46999998093E+01 0. -1.
       -5    1    3    3    0  502  0.15774029217E+03  0.46606658006E+03  0.51961152827E+03  0.71562440367E+03  0.46999998093E+01 0.  1.
</event>
<event>
 5   0  0.5157631E-04  0.1233172E+04  0.7818609E-02  0.9084307E-01
       -1   -1    0    0    0  501  0.00000000000E+00  0.00000000000E+00  0.27281426547E+03  0.27281426552E+03  0.50400001928E-02 0.  1.
        1   -1    0    0  501    0  0.00000000000E+00  0.00000000000E+00 -0.13935420680E+04  0.13935420680E+04  0.50400001928E-02 0. -1.
    10030    2    1    2    0    0  0.00000000000E+00  0.00000000000E+00 -0.11207278025E+04  0.16663563335E+04  0.12331717735E+04 0.  0.
        5    1    3    3  502    0  0.13096099429E+03 -0.32490412443E+03  0.12525771589E+03  0.37205518070E+03  0.46999998093E+01 0.  1.
       -5    1    3    3    0  502 -0.13096099429E+03  0.32490412443E+03 -0.12459855184E+04  0.12943011528E+04  0.46999998093E+01 0. -1.
</event>
<event>
 5   0  0.5052959E-04  0.1209661E+04  0.7818609E-02  0.9104442E-01
        1   -1    0    0  501    0  0.00000000000E+00  0.00000000000E+00  0.43797522561E+03  0.43797522564E+03  0.50400001928E-02 0. -1.
       -1   -1    0    0    0  501  0.00000000000E+00  0.00000000000E+00 -0.83525302135E+03  0.83525302137E+03  0.50400001928E-02 0.  1.
    10030    2    1    2    0    0  0.00000000000E+00  0.00000000000E+00 -0.39727779575E+03  0.12732282470E+04  0.12096613253E+04 0.  0.
        2    1    3    3  502    0 -0.46478035144E+03 -0.15187459602E+03 -0.57334271682E+03  0.75353071532E+03  0.25500000920E-02 0.  1.
       -2    1    3    3    0  502  0.46478035144E+03  0.15187459602E+03  0.17606492107E+03  0.51969753168E+03  0.25500000920E-02 0. -1.
</event>
<event>
 5   0  0.9298693E-04  0.1131001E+04  0.7818609E-02  0.9175492E-01
       -2   -1    0    0    0  501  0.00000000000E+00  0.00000000000E+00  0.37633464544E+03  0.37633464545E+03  0.25500000920E-02 0. -1.
        2   -1    0    0  501    0  0.00000000000E+00  0.00000000000E+00 -0.84975150888E+03  0.84975150889E+03  0.25500000920E-02 0.  1.
    10030    2    1    2    0    0  0.00000000000E+00  0.00000000000E+00 -0.47341686344E+03  0.12260861543E+04  0.11310012075E+04 0.  0.
        1    1    3    3  502    0 -0.23397426769E+02 -0.56312957640E+03 -0.28672365759E+03  0.63235497566E+03  0.50400001928E-02 0.  1.
       -1    1    3    3    0  502  0.23397426769E+02  0.56312957640E+03 -0.18669320585E+03  0.59373117868E+03  0.50400001928E-02 0. -1.
</event>
<event>
 5   0  0.5447074E-04  0.1194077E+04  0.7818609E-02  0.9118057E-01
       -1   -1    0    0    0  501  0.00000000000E+00  0.00000000000E+00  0.44810624480E+03  0.44810624483E+03  0.50400001928E-02 0. -1.
        1   -1    0    0  501    0  0.00000000000E+00  0.00000000000E+00 -0.79546979833E+03  0.79546979835E+03  0.50400001928E-02 0.  1.
    10030    2    1    2    0    0  0.00000000000E+00  0.00000000000E+00 -0.34736355353E+03  0.12435760432E+04  0.11940770230E+04 0.  0.
        4    1    3    3  502    0  0.40736472693E+03  0.40765633731E+03 -0.11256177279E+02  0.57641827220E+03  0.12699999809E+01 0. -1.
       -4    1    3    3    0  502 -0.40736472693E+03 -0.40765633731E+03 -0.33610737625E+03  0.66715777097E+03  0.12699999809E+01 0.  1.
</event>
<event>
 5   0  0.9050363E-04  0.1200899E+04  0.7818609E-02  0.9112070E-01
        2   -1    0    0  501    0  0.00000000000E+00  0.00000000000E+00  0.39484712559E+03  0.39484712560E+03  0.25500000920E-02 0. -1.
       -2   -1    0    0    0  501  0.00000000000E+00  0.00000000000E+00 -0.91311168209E+03  0.91311168210E+03  0.25500000920E-02 0.  1.
    10030    2    1    2    0    0  0.00000000000E+00  0.00000000000E+00 -0.51826455650E+03  0.13079588077E+04  0.12008988684E+04 0.  0.
        3    1    3    3  502    0 -0.49623465983E+02  0.22328849609E+03  0.34553647444E+03  0.41438593875E+03  0.10100000352E+00 0. -1.
       -3    1    3    3    0  502  0.49623465983E+02 -0.22328849609E+03 -0.86380103094E+03  0.89357286895E+03  0.10100000352E+00 0.  1.
</event>
<event>
 5   0  0.5157631E-04  0.1196657E+04  0.7818609E-02  0.9115787E-01
        1   -1    0    0  501    0  0.00000000000E+00  0.00000000000E+00  0.13921576053E+04  0.13921576053E+04  0.50400001928E-02 0. -1.
       -1   -1    0    0    0  501  0.00000000000E+00  0.00000000000E+00 -0.25715278028E+03  0.25715278033E+03  0.50400001928E-02 0.  1.
    10030    2    1    2    0    0  0.00000000000E+00  0.00000000000E+00  0.11350048250E+04  0.16493103856E+04  0.11966573425E+04 0.  0.
        5    1    3    3  502    0 -0.35431687145E+03  0.18185574975E+03 -0.47894094729E+02  0.40115819002E+03  0.46999998093E+01 0.  1.
       -5    1    3    3    0  502  0.35431687145E+03 -0.18185574975E+03  0.11828989197E+04  0.12481521956E+04  0.46999998093E+01 0. -1.
</event>
<event>
 5   0  0.5003507E-04  0.1206281E+04  0.7818609E-02  0.9107376E-01
       -1   -1    0    0    0  501  0.00000000000E+00  0.00000000000E+00  0.37200737938E+03  0.37200737942E+03  0.50400001928E-02 0.  1.
        1   -1    0    0  501    0  0.00000000000E+00  0.00000000000E+00 -0.97787977151E+03  0.97787977153E+03  0.50400001928E-02 0. -1.
    10030    2    1    2    0    0  0.00000000000E+00  0.00000000000E+00 -0.60587239213E+03  0.13498871509E+04  0.12062810472E+04 0.  0.
        3    1    3    3  502    0 -0.45157129214E+03 -0.31609724118E+02  0.14308951468E+03  0.47475301574E+03  0.10100000352E+00 0.  1.
       -3    1    3    3    0  502  0.45157129214E+03  0.31609724118E+02 -0.74896190681E+03  0.87513413520E+03  0.10100000352E+00 0. -1.
</event>
<event>
 5   0  0.3453625E-04  0.1213845E+04  0.7818609E-02  0.9100823E-01
        3   -1    0    0  501    0  0.00000000000E+00  0.00000000000E+00  0.99687939708E+03  0.99687940220E+03  0.10100000352E+00 0. -1.
       -3   -1    0    0    0  501  0.00000000000E+00  0.00000000000E+00 -0.36950828936E+03  0.36950830316E+03  0.10100000352E+00 0.  1.
    10030    2    1    2    0    0  0.00000000000E+00  0.00000000000E+00  0.62737110772E+03  0.13663877054E+04  0.12138454822E+04 0.  0.
        4    1    3    3  502    0 -0.50285571813E+03 -0.57557806445E+02 -0.63332471073E+02  0.51008762887E+03  0.12699999809E+01 0.  1.
       -4    1    3    3    0  502  0.50285571813E+03  0.57557806445E+02  0.69070357880E+03  0.85630007649E+03  0.12699999809E+01 0. -1.
</event>
<event>
 5   0  0.9410666E-04  0.1210404E+04  0.7818609E-02  0.9103798E-01
       -2   -1    0    0    0  501  0.00000000000E+00  0.00000000000E+00  0.26172342898E+03  0.26172342899E+03  0.25500000920E-02 0. -1.
        2   -1    0    0  501    0  0.00000000000E+00  0.00000000000E+00 -0.13994521274E+04  0.13994521274E+04  0.25500000920E-02 0.  1.
    10030    2    1    2    0    0  0.00000000000E+00  0.00000000000E+00 -0.11377286984E+04  0.16611755564E+04  0.12104039152E+04 0.  0.
        2    1    3    3  502    0  0.58210808829E+03 -0.11956022496E+03 -0.41163493253E+03  0.72290233887E+03  0.25500000920E-02 0. -1.
       -2    1    3    3    0  502 -0.58210808829E+03  0.11956022496E+03 -0.72609376585E+03  0.93827321749E+03  0.25500000920E-02 0.  1.
</event>
<event>
 5   0  0.9145224E-04  0.1202335E+04  0.7818609E-02  0.9110815E-01
       -2   -1    0    0    0  501  0.00000000000E+00  0.00000000000E+00  0.45922469699E+03  0.45922469700E+03  0.25500000920E-02 0.  1.
        2   -1    0    0  501    0  0.00000000000E+00  0.00000000000E+00 -0.78698436236E+03  0.78698436236E+03  0.25500000920E-02 0. -1.
    10030    2    1    2    0    0  0.00000000000E+00  0.00000000000E+00 -0.32775966537E+03  0.12462090594E+04  0.12023354862E+04 0.  0.
        5    1    3    3  502    0 -0.51049603126E+03 -0.24914094460E+03  0.40030125436E+02  0.56947511723E+03  0.46999998093E+01 0.  1.
       -5    1    3    3    0  502  0.51049603126E+03  0.24914094460E+03 -0.36778979081E+03  0.67673394213E+03  0.46999998093E+01 0. -1.
</event>
<event>
 5   0  0.5447074E-04  0.1207238E+04  0.7818609E-02  0.9106545E-01
        1   -1    0    0  501    0  0.00000000000E+00  0.00000000000E+00  0.80408088608E+03  0.80408088609E+03  0.50400001928E-02 0. -1.
       -1   -1    0    0    0  501  0.00000000000E+00  0.00000000000E+00 -0.45313348136E+03  0.45313348139E+03  0.50400001928E-02 0.  1.
    10030    2    1    2    0    0  0.00000000000E+00  0.00000000000E+00  0.35094740472E+03  0.12572143675E+04  0.12072381227E+04 0.  0.
        4    1    3    3  502    0 -0.27324887186E+03  0.15881769377E+03  0.71102565479E+03  0.77810481331E+03  0.12699999809E+01 0. -1.
       -4    1    3    3    0  502  0.27324887186E+03 -0.15881769377E+03 -0.36007825006E+03  0.47910955417E+03  0.12699999809E+01 0.  1.
</event>
<event>
 5   0  0.9070772E-04  0.1205529E+04  0.7818609E-02  0.9108031E-01
       -2   -1    0    0    0  501  0.00000000000E+00  0.00000000000E+00  0.62691460312E+03  0.62691460313E+03  0.25500000920E-02 0. -1.
        2   -1    0    0  501    0  0.00000000000E+00  0.00000000000E+00 -0.57954475191E+03  0.57954475192E+03  0.25500000920E-02 0.  1.
    10030    2    1    2    0    0  0.00000000000E+00  0.00000000000E+00  0.47369851211E+02  0.12064593550E+04  0.12055290426E+04 0.  0.
        4    1    3    3  502    0 -0.26653610707E+03 -0.68094452276E+01  0.56469028928E+03  0.62447145701E+03  0.12699999809E+01 0.  1.
       -4    1    3    3    0  502  0.26653610707E+03  0.68094452276E+01 -0.51732043807E+03  0.58198789804E+03  0.12699999809E+01 0. -1.
</event>
<event>
 5   0  0.5157631E-04  0.1200133E+04  0.7818609E-02  0.9112740E-01
        1   -1    0    0  501    0  0.00000000000E+00  0.00000000000E+00  0.15333954695E+04  0.15333954695E+04  0.50400001928E-02 0.  1.
       -1   -1    0    0    0  501  0.00000000000E+00  0.00000000000E+00 -0.23482532505E+03  0.23482532511E+03  0.50400001928E-02 0. -1.
    10030    2    1    2    0    0  0.00000000000E+00  0.00000000000E+00  0.12985701445E+04  0.17682207946E+04  0.12001334753E+04 0.  0.
        5    1    3    3  502    0 -0.67984266066E+01  0.36731017717E+03  0.13483055239E+04  0.13974665866E+04  0.46999998093E+01 0.  1.
       -5    1    3    3    0  502  0.67984266066E+01 -0.36731017717E+03 -0.49735379387E+02  0.37075420809E+03  0.46999998093E+01 0. -1.
</event>
<event>
 5   0  0.9410666E-04  0.1193030E+04  0.7818609E-02  0.9118979E-01
       -2   -1    0    0    0  501  0.00000000000E+00  0.00000000000E+00  0.74311928385E+03  0.74311928385E+03  0.25500000920E-02 0. -1.
        2   -1    0    0  501    0  0.00000000000E+00  0.00000000000E+00 -0.47883334959E+03  0.47883334959E+03  0.25500000920E-02 0.  1.
    10030    2    1    2    0    0  0.00000000000E+00  0.00000000000E+00  0.26428593426E+03  0.12219526334E+04  0.11930302525E+04 0.  0.
        2    1    3    3  502    0 -0.14375126707E+02 -0.35067959496E+03  0.62617155988E+03  0.71782563691E+03  0.25500000920E-02 0.  1.
       -2    1    3    3    0  502  0.14375126707E+02  0.35067959496E+03 -0.36188562562E+03  0.50412699653E+03  0.25500000920E-02 0. -1.
</event>
<event>
 5   0  0.9050363E-04  0.1208452E+04  0.7818609E-02  0.9105491E-01
        2   -1    0    0  501    0  0.00000000000E+00  0.00000000000E+00  0.86062002339E+03  0.86062002340E+03  0.25500000920E-02 0.  1.
       -2   -1    0    0    0  501  0.00000000000E+00  0.00000000000E+00 -0.42421618398E+03  0.42421618399E+03  0.25500000920E-02 0. -1.
    10030    2    1    2    0    0  0.00000000000E+00  0.00000000000E+00  0.43640383941E+03  0.12848362074E+04  0.12084518065E+04 0.  0.
        3    1    3    3  502    0 -0.54589578795E+03  0.24013180793E+03  0.32141222505E+03  0.67747422467E+03  0.10100000352E+00 0.  1.
       -3    1    3    3    0  502  0.54589578795E+03 -0.24013180793E+03  0.11499161436E+03  0.60736198272E+03  0.10100000352E+00 0. -1.
</event>
<event>
 5   0  0.5052959E-04  0.1200064E+04  0.7818609E-02  0.9112800E-01
        1   -1    0    0  501    0  0.00000000000E+00  0.00000000000E+00  0.61446384693E+03  0.61446384695E+03  0.50400001928E-02 0. -1.
       -1   -1    0    0    0  501  0.00000000000E+00  0.00000000000E+00 -0.58593942653E+03  0.58593942655E+03  0.50400001928E-02 0.  1.
    10030    2    1    2    0    0  0.00000000000E+00  0.00000000000E+00  0.28524420402E+02  0.12004032735E+04  0.12000643218E+04 0.  0.
        2    1    3    3  502    0  0.47051297556E+02 -0.57195824371E+03 -0.16096870897E+03  0.59603773574E+03  0.25500000920E-02 0.  1.
       -2    1    3    3    0  502 -0.47051297556E+02  0.57195824371E+03  0.18949312938E+03  0.60436553777E+03  0.25500000920E-02 0. -1.
</event>
<event>
 5   0  0.5157631E-04  0.1198567E+04  0.7818609E-02  0.9114111E-01
       -1   -1    0    0    0  501  0.00000000000E+00  0.00000000000E+00  0.56672690738E+03  0.56672690740E+03  0.50400001928E-02 0.  1.
        1   -1    0    0  501    0  0.00000000000E+00  0.00000000000E+00 -0.63371084140E+03  0.63371084142E+03  0.50400001928E-02 0. -1.
    10030    2    1    2    0    0  0.00000000000E+00  0.00000000000E+00 -0.66983934022E+02  0.12004377488E+04  0.11985674538E+04 0.  0.
        5    1    3    3  502    0 -0.92248056526E+02 -0.53762822549E+03 -0.28200226853E+03  0.61408564731E+03  0.46999998093E+01 0. -1.
       -5    1    3    3    0  502  0.92248056526E+02  0.53762822549E+03  0.21501833451E+03  0.58635210152E+03  0.46999998093E+01 0.  1.
</event>
<event>
 5   0  0.9050363E-04  0.1200808E+04  0.7818609E-02  0.9112150E-01
       -2   -1    0    0    0  501  0.00000000000E+00  0.00000000000E+00  0.30069055845E+03  0.30069055847E+03  0.25500000920E-02 0.  1.
        2   -1    0    0  501    0  0.00000000000E+00  0.00000000000E+00 -0.11988562306E+04  0.11988562306E+04  0.25500000920E-02 0. -1.
    10030    2    1    2    0    0  0.00000000000E+00  0.00000000000E+00 -0.89816567217E+03  0.14995467891E+04  0.12008076441E+04 0.  0.
        3    1    3    3  502    0 -0.35231050171E+03 -0.13848348242E+03  0.13288752317E+03  0.40119754303E+03  0.10100000352E+00 0.  1.
       -3    1    3    3    0  502  0.35231050171E+03  0.13848348242E+03 -0.10310531953E+04  0.10983492461E+04  0.10100000352E+00 0. -1.
</event>
<event>
 5   0  0.9050363E-04  0.1199340E+04  0.7818609E-02  0.9113434E-01
        2   -1    0    0  501    0  0.00000000000E+00  0.00000000000E+00  0.57794599931E+03  0.57794599932E+03  0.25500000920E-02 0.  1.
       -2   -1    0    0    0  501  0.00000000000E+00  0.00000000000E+00 -0.62221097624E+03  0.62221097624E+03  0.25500000920E-02 0. -1.
    10030    2    1    2    0    0  0.00000000000E+00  0.00000000000E+00 -0.44264976923E+02  0.12001569756E+04  0.11993403928E+04 0.  0.
        3    1    3    3  502    0  0.37983490224E+03  0.39291077478E+03  0.22491797329E+03  0.59096661057E+03  0.10100000352E+00 0.  1.
       -3    1    3    3    0  502 -0.37983490224E+03 -0.39291077478E+03 -0.26918295022E+03  0.60919036498E+03  0.10100000352E+00 0. -1.
</event>
<event>
 5   0  0.9410666E-04  0.1202621E+04  0.7818609E-02  0.9110566E-01
        2   -1    0    0  501    0  0.00000000000E+00  0.00000000000E+00  0.69690592660E+03  0.69690592660E+03  0.25500000920E-02 0.  1.
       -2   -1    0    0    0  501  0.00000000000E+00  0.00000000000E+00 -0.51882780578E+03  0.51882780579E+03  0.25500000920E-02 0. -1.
    10030    2    1    2    0    0  0.00000000000E+00  0.00000000000E+00  0.17807812081E+03  0.12157337324E+04  0.12026207594E+04 0.  0.
        2    1    3    3  502    0  0.25733781306E+03  0.38732696513E+03 -0.29633837218E+03  0.55141759020E+03  0.25500000920E-02 0. -1.
       -2    1    3    3    0  502 -0.25733781306E+03 -0.38732696513E+03  0.47441649299E+03  0.66431614219E+03  0.25500000920E-02 0.  1.
</event>
<event>
 5   0  0.5001586E-04  0.1195092E+04  0.7818609E-02  0.9117164E-01
       -1   -1    0    0    0  501  0.00000000000E+00  0.00000000000E+00  0.35012405137E+03  0.35012405141E+03  0.50400001928E-02 0.  1.
        1   -1    0    0  501    0  0.00000000000E+00  0.00000000000E+00 -0.10198126607E+04  0.10198126607E+04  0.50400001928E-02 0. -1.
    10030    2    1    2    0    0  0.00000000000E+00  0.00000000000E+00 -0.66968860930E+03  0.13699367121E+04  0.11950915286E+04 0.  0.
        1    1    3    3  502    0 -0.80028367434E+02 -0.90661082918E+02 -0.10056390600E+04  0.10128839472E+04  0.50400001928E-02 0. -1.
       -1    1    3    3    0  502  0.80028367434E+02  0.90661082918E+02  0.33595045069E+03  0.35705276486E+03  0.50400001928E-02 0.  1.
</event>
<event>
 5   0  0.9070772E-04  0.1197977E+04  0.7818609E-02  0.9114629E-01
        2   -1    0    0  501    0  0.00000000000E+00  0.00000000000E+00  0.98923633427E+03  0.98923633427E+03  0.25500000920E-02 0. -1.
       -2   -1    0    0    0  501  0.00000000000E+00  0.00000000000E+00 -0.36269128474E+03  0.36269128474E+03  0.25500000920E-02 0.  1.
    10030    2    1    2    0    0  0.00000000000E+00  0.00000000000E+00  0.62654504953E+03  0.13519276190E+04  0.11979772903E+04 0.  0.
        4    1    3    3  502    0 -0.56966643723E+03  0.55169877737E+02  0.11386720612E+03  0.58355027088E+03  0.12699999809E+01 0.  1.
       -4    1    3    3    0  502  0.56966643723E+03 -0.55169877737E+02  0.51267784341E+03  0.76837734814E+03  0.12699999809E+01 0. -1.
</event>
<event>
 5   0  0.9050363E-04  0.1196279E+04  0.7818609E-02  0.9116120E-01
       -2   -1    0    0    0  501  0.00000000000E+00  0.00000000000E+00  0.32652913764E+03  0.32652913765E+03  0.25500000920E-02 0.  1.
        2   -1    0    0  501    0  0.00000000000E+00  0.00000000000E+00 -0.10956780645E+04  0.10956780645E+04  0.25500000920E-02 0. -1.
    10030    2    1    2    0    0  0.00000000000E+00  0.00000000000E+00 -0.76914892683E+03  0.14222072021E+04  0.11962789199E+04 0.  0.
        3    1    3    3  502    0  0.27685530025E+03 -0.47359990653E+03 -0.66797484513E+03  0.86437036776E+03  0.10100000352E+00 0. -1.
       -3    1    3    3    0  502 -0.27685530025E+03  0.47359990653E+03 -0.10117408170E+03  0.55783683435E+03  0.10100000352E+00 0.  1.
</event>
<event>
 5   0  0.5052959E-04  0.1201449E+04  0.7818609E-02  0.9111589E-01
        1   -1    0    0  501    0  0.00000000000E+00  0.00000000000E+00  0.53960499987E+03  0.53960499989E+03  0.50400001928E-02 0. -1.
       -1   -1    0    0    0  501  0.00000000000E+00  0.00000000000E+00 -0.66876654316E+03  0.66876654318E+03  0.50400001928E-02 0.  1.
    10030    2    1    2    0    0  0.00000000000E+00  0.00000000000E+00 -0.12916154329E+03  0.12083715431E+04  0.12014487429E+04 0.  0.
        2    1    3    3  502    0  0.24318114275E+03  0.42409075450E+03  0.28654361296E+03  0.56665446118E+03  0.25500000920E-02 0. -1.
       -2    1    3    3    0  502 -0.24318114275E+03 -0.42409075450E+03 -0.41570515625E+03  0.64171708189E+03  0.25500000920E-02 0.  1.
</event>
<event>
 5   0  0.5001586E-04  0.1187580E+04  0.7818609E-02  0.9123798E-01
        1   -1    0    0  501    0  0.00000000000E+00  0.00000000000E+00  0.51753068874E+03  0.51753068877E+03  0.50400001928E-02 0.  1.
       -1   -1    0    0    0  501  0.00000000000E+00  0.00000000000E+00 -0.68128652257E+03  0.68128652259E+03  0.50400001928E-02 0. -1.
    10030    2    1    2    0    0  0.00000000000E+00  0.00000000000E+00 -0.16375583383E+03  0.11988172114E+04  0.11875802007E+04 0.  0.
        1    1    3    3  502    0 -0.48650490688E+03 -0.29117019234E+03  0.96198689214E+02  0.57508372708E+03  0.50400001928E-02 0.  1.
       -1    1    3    3    0  502  0.48650490688E+03  0.29117019234E+03 -0.25995452305E+03  0.62373348427E+03  0.50400001928E-02 0. -1.
</event>
<event>
 5   0  0.9298693E-04  0.1200320E+04  0.7818609E-02  0.9112577E-01
       -2   -1    0    0    0  501  0.00000000000E+00  0.00000000000E+00  0.31130705704E+03  0.31130705705E+03  0.25500000920E-02 0.  1.
        2   -1    0    0  501    0  0.00000000000E+00  0.00000000000E+00 -0.11570308708E+04  0.11570308708E+04  0.25500000920E-02 0. -1.
    10030    2    1    2    0    0  0.00000000000E+00  0.00000000000E+00 -0.84572381378E+03  0.14683379279E+04  0.12003197496E+04 0.  0.
        1    1    3    3  502    0 -0.34378973433E+03  0.29347031402E+03  0.60105952040E+02  0.45599225009E+03  0.50400001928E-02 0.  1.
       -1    1    3    3    0  502  0.34378973433E+03 -0.29347031402E+03 -0.90582976582E+03  0.10123456778E+04  0.50400001928E-02 0. -1.
</event>
<event>
 5   0  0.5157631E-04  0.1197230E+04  0.7818609E-02  0.9115285E-01
        1   -1    0    0  501    0  0.00000000000E+00  0.00000000000E+00  0.84047423424E+03  0.84047423426E+03  0.50400001928E-02 0.  1.
       -1   -1    0    0    0  501  0.00000000000E+00  0.00000000000E+00 -0.42635412581E+03  0.42635412584E+03  0.50400001928E-02 0. -1.
    10030    2    1    2    0    0  0.00000000000E+00  0.00000000000E+00  0.41412010844E+03  0.12668283601E+04  0.11972295643E+04 0.  0.
        5    1    3    3  502    0  0.52129515434E+02 -0.43315416471E+03  0.64073663146E+03  0.77518097092E+03  0.46999998093E+01 0.  1.
       -5    1    3    3    0  502 -0.52129515434E+02  0.43315416471E+03 -0.22661652302E+03  0.49164738918E+03  0.46999998093E+01 0. -1.
</event>
<event>
 5   0  0.5001586E-04  0.1232608E+04  0.7818609E-02  0.9084784E-01
        1   -1    0    0  501    0  0.00000000000E+00  0.00000000000E+00  0.44333810064E+03  0.44333810067E+03  0.50400001928E-02 0.  1.
       -1   -1    0    0    0  501  0.00000000000E+00  0.00000000000E+00 -0.85675191592E+03  0.85675191593E+03  0.50400001928E-02 0. -1.
    10030    2    1    2    0    0  0.00000000000E+00  0.00000000000E+00 -0.41341381528E+03  0.13000900166E+04  0.12326082381E+04 0.  0.
        1    1    3    3  502    0 -0.47662719332E+02  0.17884834772E+03  0.41333039694E+03  0.45288020862E+03  0.50400001928E-02 0.  1.
       -1    1    3    3    0  502  0.47662719332E+02 -0.17884834772E+03 -0.82674421222E+03  0.84720980799E+03  0.50400001928E-02 0. -1.
</event>
<event>
 5   0  0.9050363E-04  0.1199957E+04  0.7818609E-02  0.9112894E-01
       -2   -1    0    0    0  501  0.00000000000E+00  0.00000000000E+00  0.29521988138E+03  0.29521988139E+03  0.25500000920E-02 0.  1.
        2   -1    0    0  501    0  0.00000000000E+00  0.00000000000E+00 -0.12193434032E+04  0.12193434033E+04  0.25500000920E-02 0. -1.
    10030    2    1    2    0    0  0.00000000000E+00  0.00000000000E+00 -0.92412352187E+03  0.15145632846E+04  0.11999573574E+04 0.  0.
        3    1    3    3  502    0 -0.57454667642E+03  0.14107819113E+03 -0.58807436244E+03  0.83416929058E+03  0.10100000352E+00 0. -1.
       -3    1    3    3    0  502  0.57454667642E+03 -0.14107819113E+03 -0.33604915943E+03  0.68039399406E+03  0.10100000352E+00 0.  1.
</event>
<event>
 5   0  0.5001586E-04  0.1217049E+04  0.7818609E-02  0.9098063E-01
       -1   -1    0    0    0  501  0.00000000000E+00  0.00000000000E+00  0.91614041709E+03  0.91614041711E+03  0.50400001928E-02 0.  1.
        1   -1    0    0  501    0  0.00000000000E+00  0.00000000000E+00 -0.40419795142E+03  0.40419795145E+03  0.50400001928E-02 0. -1.
    10030    2    1    2    0    0  0.00000000000E+00  0.00000000000E+00  0.51194246567E+03  0.13203383686E+04  0.12170490209E+04 0.  0.
        1    1    3    3  502    0  0.52584450796E+03 -0.19554141891E+03  0.27068353473E+00  0.56102492490E+03  0.50400001928E-02 0. -1.
       -1    1    3    3    0  502 -0.52584450796E+03  0.19554141891E+03  0.51167178214E+03  0.75931344366E+03  0.50400001928E-02 0.  1.
</event>
<event>
 5   0  0.5001586E-04  0.1202183E+04  0.7818609E-02  0.9110948E-01
       -1   -1    0    0    0  501  0.00000000000E+00  0.00000000000E+00  0.28340848742E+03  0.28340848747E+03  0.50400001928E-02 0. -1.
        1   -1    0    0  501    0  0.00000000000E+00  0.00000000000E+00 -0.12748771436E+04  0.12748771436E+04  0.50400001928E-02 0.  1.
    10030    2    1    2    0    0  0.00000000000E+00  0.00000000000E+00 -0.99146865621E+03  0.15582856311E+04  0.12021830193E+04 0.  0.
        1    1    3    3  502    0  0.59600159093E+03  0.77063262858E+02 -0.47962995028E+03  0.76889630777E+03  0.50400001928E-02 0. -1.
       -1    1    3    3    0  502 -0.59600159093E+03 -0.77063262858E+02 -0.51183870593E+03  0.78938932333E+03  0.50400001928E-02 0.  1.
</event>
<event>
 5   0  0.5052959E-04  0.1197114E+04  0.7818609E-02  0.9115387E-01
        1   -1    0    0  501    0  0.00000000000E+00  0.00000000000E+00  0.14897223192E+04  0.14897223192E+04  0.50400001928E-02 0.  1.
       -1   -1    0    0    0  501  0.00000000000E+00  0.00000000000E+00 -0.24049475245E+03  0.24049475250E+03  0.50400001928E-02 0. -1.
    10030    2    1    2    0    0  0.00000000000E+00  0.00000000000E+00  0.12492275668E+04  0.17302170717E+04  0.11971138633E+04 0.  0.
        2    1    3    3  502    0 -0.17472687508E+03  0.31668971364E+02  0.14507752842E+04  0.14616023159E+04  0.25500000920E-02 0.  1.
       -2    1    3    3    0  502  0.17472687508E+03 -0.31668971364E+02 -0.20154771745E+03  0.26861475580E+03  0.25500000920E-02 0. -1.
</event>
<event>
 5   0  0.9298693E-04  0.1198974E+04  0.7818609E-02  0.9113755E-01
       -2   -1    0    0    0  501  0.00000000000E+00  0.00000000000E+00  0.78123207218E+03  0.78123207218E+03  0.25500000920E-02 0. -1.
        2   -1    0    0  501    0  0.00000000000E+00  0.00000000000E+00 -0.46002288166E+03  0.46002288167E+03  0.25500000920E-02 0.  1.
    10030    2    1    2    0    0  0.00000000000E+00  0.00000000000E+00  0.32120919052E+03  0.12412549539E+04  0.11989739432E+04 0.  0.
        1    1    3    3  502    0  0.14841767744E+03  0.21012098784E+03  0.72118468794E+03  0.76569314392E+03  0.50400001928E-02 0. -1.
       -1    1    3    3    0  502 -0.14841767744E+03 -0.21012098784E+03 -0.39997549742E+03  0.47556180993E+03  0.50400001928E-02 0.  1.
</event>
<event>
 5   0  0.3453625E-04  0.1196044E+04  0.7818609E-02  0.9116327E-01
       -3   -1    0    0    0  501  0.00000000000E+00  0.00000000000E+00  0.36020864046E+03  0.36020865462E+03  0.10100000352E+00 0. -1.
        3   -1    0    0  501    0  0.00000000000E+00  0.00000000000E+00 -0.99284154744E+03  0.99284155258E+03  0.10100000352E+00 0.  1.
    10030    2    1    2    0    0  0.00000000000E+00  0.00000000000E+00 -0.63263290698E+03  0.13530502072E+04  0.11960436732E+04 0.  0.
        4    1    3    3  502    0  0.41681203450E+03  0.38665493787E+02  0.16683215546E+03  0.45062387144E+03  0.12699999809E+01 0. -1.
       -4    1    3    3    0  502 -0.41681203450E+03 -0.38665493787E+02 -0.79946506245E+03  0.90242633577E+03  0.12699999809E+01 0.  1.
</event>
<event>
 5   0  0.9050363E-04  0.1183483E+04  0.7818609E-02  0.9127438E-01
       -2   -1    0    0    0  501  0.00000000000E+00  0.00000000000E+00  0.43578684591E+03  0.43578684592E+03  0.25500000920E-02 0. -1.
        2   -1    0    0  501    0  0.00000000000E+00  0.00000000000E+00 -0.80350733313E+03  0.80350733313E+03  0.25500000920E-02 0.  1.
    10030    2    1    2    0    0  0.00000000000E+00  0.00000000000E+00 -0.36772048722E+03  0.12392941790E+04  0.11834828708E+04 0.  0.
        3    1    3    3  502    0  0.10132786733E+03  0.54676983214E+03  0.28000734216E+02  0.55678419280E+03  0.10100000352E+00 0. -1.
       -3    1    3    3    0  502 -0.10132786733E+03 -0.54676983214E+03 -0.39572122144E+03  0.68250998625E+03  0.10100000352E+00 0.  1.
</event>
<event>
 5   0  0.9410666E-04  0.1198901E+04  0.7818609E-02  0.9113819E-01
       -2   -1    0    0    0  501  0.00000000000E+00  0.00000000000E+00  0.37428363214E+03  0.37428363215E+03  0.25500000920E-02 0. -1.
        2   -1    0    0  501    0  0.00000000000E+00  0.00000000000E+00 -0.96007629016E+03  0.96007629016E+03  0.25500000920E-02 0.  1.
    10030    2    1    2    0    0  0.00000000000E+00  0.00000000000E+00 -0.58579265802E+03  0.13343599223E+04  0.11989008984E+04 0.  0.
        2    1    3    3  502    0  0.55141827757E+02  0.16924877185E+03 -0.92998246174E+03  0.94686490436E+03  0.25500000920E-02 0.  1.
       -2    1    3    3    0  502 -0.55141827757E+02 -0.16924877185E+03  0.34418980373E+03  0.38749501795E+03  0.25500000920E-02 0. -1.
</event>
<event>
 5   0  0.9298693E-04  0.1195683E+04  0.7818609E-02  0.9116643E-01
        2   -1    0    0  501    0  0.00000000000E+00  0.00000000000E+00  0.68739423040E+03  0.68739423040E+03  0.25500000920E-02 0.  1.
       -2   -1    0    0    0  501  0.00000000000E+00  0.00000000000E+00 -0.51995598403E+03  0.51995598404E+03  0.25500000920E-02 0. -1.
    10030    2    1    2    0    0  0.00000000000E+00  0.00000000000E+00  0.16743824636E+03  0.12073502144E+04  0.11956834757E+04 0.  0.
        1    1    3    3  502    0  0.42370939492E+03  0.41302658702E+03 -0.25198946680E+01  0.59171527175E+03  0.50400001928E-02 0. -1.
       -1    1    3    3    0  502 -0.42370939492E+03 -0.41302658702E+03  0.16995814103E+03  0.61563494269E+03  0.50400001928E-02 0.  1.
</event>
<event>
 5   0  0.9050363E-04  0.1203258E+04  0.7818609E-02  0.9110010E-01
       -2   -1    0    0    0  501  0.00000000000E+00  0.00000000000E+00  0.35349571109E+03  0.35349571110E+03  0.25500000920E-02 0.  1.
        2   -1    0    0  501    0  0.00000000000E+00  0.00000000000E+00 -0.10239374322E+04  0.10239374322E+04  0.25500000920E-02 0. -1.
    10030    2    1    2    0    0  0.00000000000E+00  0.00000000000E+00 -0.67044172110E+03  0.13774331433E+04  0.12032580616E+04 0.  0.
        3    1    3    3  502    0  0.47863795926E+03 -0.14779817719E+03 -0.71664675718E+03  0.87436901935E+03  0.10100000352E+00 0. -1.
       -3    1    3    3    0  502 -0.47863795926E+03  0.14779817719E+03  0.46205036079E+02  0.50306412393E+03  0.10100000352E+00 0.  1.
</event>
<event>
 5   0  0.5001586E-04  0.1207380E+04  0.7818609E-02  0.9106421E-01
        1   -1    0    0  501    0  0.00000000000E+00  0.00000000000E+00  0.36113873427E+03  0.36113873431E+03  0.50400001928E-02 0.  1.
       -1   -1    0    0    0  501  0.00000000000E+00  0.00000000000E+00 -0.10091455434E+04  0.10091455435E+04  0.50400001928E-02 0. -1.
    10030    2    1    2    0    0  0.00000000000E+00  0.00000000000E+00 -0.64800680917E+03  0.13702842778E+04  0.12073798810E+04 0.  0.
        1    1    3    3  502    0 -0.29373706205E+03  0.16194153710E+03 -0.89365722092E+03  0.95453116848E+03  0.50400001928E-02 0. -1.
       -1    1    3    3    0  502  0.29373706205E+03 -0.16194153710E+03  0.24565041175E+03  0.41575310928E+03  0.50400001928E-02 0.  1.
</event>
<event>
 5   0  0.3453625E-04  0.1199772E+04  0.7818609E-02  0.9113056E-01
        3   -1    0    0  501    0  0.00000000000E+00  0.00000000000E+00  0.70446045647E+03  0.70446046371E+03  0.10100000352E+00 0. -1.
       -3   -1    0    0    0  501  0.00000000000E+00  0.00000000000E+00 -0.51083540331E+03  0.51083541330E+03  0.10100000352E+00 0.  1.
    10030    2    1    2    0    0  0.00000000000E+00  0.00000000000E+00  0.19362505316E+03  0.12152958770E+04  0.11997722315E+04 0.  0.
        2    1    3    3  502    0 -0.35468754249E+02 -0.51426700065E+03 -0.21397118897E+03  0.55813282487E+03  0.25500000920E-02 0.  1.
       -2    1    3    3    0  502  0.35468754249E+02  0.51426700065E+03  0.40759624212E+03  0.65716305213E+03  0.25500000920E-02 0. -1.
</event>
<event>
 5   0  0.3453625E-04  0.1200478E+04  0.7818609E-02  0.9112438E-01
       -3   -1    0    0    0  501  0.00000000000E+00  0.00000000000E+00  0.65626373643E+03  0.65626374420E+03  0.10100000352E+00 0.  1.
        3   -1    0    0  501    0  0.00000000000E+00  0.00000000000E+00 -0.54899683185E+03  0.54899684114E+03  0.10100000352E+00 0. -1.
    10030    2    1    2    0    0  0.00000000000E+00  0.00000000000E+00  0.10726690458E+03  0.12052605853E+04  0.12004777756E+04 0.  0.
        1    1    3    3  502    0 -0.20588035628E+03  0.33356098841E+03 -0.40275111034E+03  0.56201255413E+03  0.50400001928E-02 0. -1.
       -1    1    3    3    0  502  0.20588035628E+03 -0.33356098841E+03  0.51001801492E+03  0.64324803122E+03  0.50400001928E-02 0.  1.
</event>
<event>
 5   0  0.9070772E-04  0.1199151E+04  0.7818609E-02  0.9113600E-01
        2   -1    0    0  501    0  0.00000000000E+00  0.00000000000E+00  0.21847878544E+04  0.21847878544E+04  0.25500000920E-02 0. -1.
       -2   -1    0    0    0  501  0.00000000000E+00  0.00000000000E+00 -0.16454264331E+03  0.16454264332E+03  0.25500000920E-02 0.  1.
    10030    2    1    2    0    0  0.00000000000E+00  0.00000000000E+00  0.20202452111E+04  0.23493304977E+04  0.11991509807E+04 0.  0.
        4    1    3    3  502    0 -0.77870573604E+02 -0.11967573973E+02 -0.15435481064E+03  0.17330340311E+03  0.12699999809E+01 0.  1.
       -4    1    3    3    0  502  0.77870573604E+02  0.11967573973E+02  0.21746000218E+04  0.21760270946E+04  0.12699999809E+01 0. -1.
</event>
<event>
 5   0  0.9410666E-04  0.1196773E+04  0.7818609E-02  0.9115686E-01
       -2   -1    0    0    0  501  0.00000000000E+00  0.00000000000E+00  0.61355708153E+03  0.61355708153E+03  0.25500000920E-02 0.  1.
        2   -1    0    0  501    0  0.00000000000E+00  0.00000000000E+00 -0.58359067005E+03  0.58359067005E+03  0.25500000920E-02 0. -1.
    10030    2    1    2    0    0  0.00000000000E+00  0.00000000000E+00  0.29966411482E+02  0.11971477516E+04  0.11967726406E+04 0.  0.
        2    1    3    3  502    0 -0.47790377244E+02 -0.56925028671E+03 -0.16321970381E+03  0.59411318854E+03  0.25500000920E-02 0.  1.
       -2    1    3    3    0  502  0.47790377244E+02  0.56925028671E+03  0.19318611530E+03  0.60303456305E+03  0.25500000920E-02 0. -1.
</event>
<event>
 5   0  0.5052959E-04  0.1200466E+04  0.7818609E-02  0.9112449E-01
       -1   -1    0    0    0  501  0.00000000000E+00  0.00000000000E+00  0.30556392950E+03  0.30556392955E+03  0.50400001928E-02 0.  1.
        1   -1    0    0  501    0  0.00000000000E+00  0.00000000000E+00 -0.11790639537E+04  0.11790639537E+04  0.50400001928E-02 0. -1.
    10030    2    1    2    0    0  0.00000000000E+00  0.00000000000E+00 -0.87350002423E+03  0.14846278833E+04  0.12004656011E+04 0.  0.
        2    1    3    3  502    0  0.56422727354E+03 -0.26122663204E+02 -0.18558943751E+03  0.59454036790E+03  0.25500000920E-02 0.  1.
       -2    1    3    3    0  502 -0.56422727354E+03  0.26122663204E+02 -0.68791058672E+03  0.89008751540E+03  0.25500000920E-02 0. -1.
</event>
<event>
 5   0  0.3453625E-04  0.1186618E+04  0.7818609E-02  0.9124651E-01
        4   -1    0    0  501    0  0.00000000000E+00  0.00000000000E+00  0.38675533682E+03  0.38675742199E+03  0.12699999809E+01 0.  1.
       -4   -1    0    0    0  501  0.00000000000E+00  0.00000000000E+00 -0.91017198416E+03  0.91017287020E+03  0.12699999809E+01 0. -1.
    10030    2    1    2    0    0  0.00000000000E+00  0.00000000000E+00 -0.52341664734E+03  0.12969302922E+04  0.11866183869E+04 0.  0.
        5    1    3    3  502    0 -0.47566171005E+03 -0.20239350865E+03  0.56523302831E+02  0.52003285330E+03  0.46999998093E+01 0.  1.
       -5    1    3    3    0  502  0.47566171005E+03  0.20239350865E+03 -0.57993995017E+03  0.77689743889E+03  0.46999998093E+01 0. -1.
</event>
<event>
 5   0  0.9298693E-04  0.1201295E+04  0.7818609E-02  0.9111724E-01
        2   -1    0    0  501    0  0.00000000000E+00  0.00000000000E+00  0.25077605473E+03  0.25077605475E+03  0.25500000920E-02 0. -1.
       -2   -1    0    0    0  501  0.00000000000E+00  0.00000000000E+00 -0.14386438739E+04  0.14386438739E+04  0.25500000920E-02 0.  1.
    10030    2    1    2    0    0  0.00000000000E+00  0.00000000000E+00 -0.11878678191E+04  0.16894199286E+04  0.12012950260E+04 0.  0.
        1    1    3    3  502    0  0.38114077929E+03 -0.46403849114E+03 -0.61266612543E+03  0.85788099185E+03  0.50400001928E-02 0. -1.
       -1    1    3    3    0  502 -0.38114077929E+03  0.46403849114E+03 -0.57520169372E+03  0.83153893678E+03  0.50400001928E-02 0.  1.
</event>
<event>
 5   0  0.5001586E-04  0.1179182E+04  0.7818609E-02  0.9131277E-01
       -1   -1    0    0    0  501  0.00000000000E+00  0.00000000000E+00  0.31546981329E+03  0.31546981333E+03  0.50400001928E-02 0. -1.
        1   -1    0    0  501    0  0.00000000000E+00  0.00000000000E+00 -0.11019035911E+04  0.11019035912E+04  0.50400001928E-02 0.  1.
    10030    2    1    2    0    0  0.00000000000E+00  0.00000000000E+00 -0.78643377785E+03  0.14173734045E+04  0.11791816149E+04 0.  0.
        1    1    3    3  502    0  0.53821771878E+03  0.48892507282E+02 -0.10992126515E+03  0.55149929704E+03  0.50400001928E-02 0. -1.
       -1    1    3    3    0  502 -0.53821771878E+03 -0.48892507282E+02 -0.67651251270E+03  0.86587410745E+03  0.50400001928E-02 0.  1.
</event>
<event>
 5   0  0.5157631E-04  0.1198038E+04  0.7818609E-02  0.9114576E-01
       -1   -1    0    0    0  501  0.00000000000E+00  0.00000000000E+00  0.64665628694E+03  0.64665628696E+03  0.50400001928E-02 0. -1.
        1   -1    0    0  501    0  0.00000000000E+00  0.00000000000E+00 -0.55489091146E+03  0.55489091148E+03  0.50400001928E-02 0.  1.
    10030    2    1    2    0    0  0.00000000000E+00  0.00000000000E+00  0.91765375479E+02  0.12015471984E+04  0.11980378900E+04 0.  0.
        5    1    3    3  502    0  0.16604834181E+03  0.29546769570E+03  0.54122047652E+03  0.63860387192E+03  0.46999998093E+01 0. -1.
       -5    1    3    3    0  502 -0.16604834181E+03 -0.29546769570E+03 -0.44945510105E+03  0.56294332652E+03  0.46999998093E+01 0.  1.
</event>
<event>
 5   0  0.5001586E-04  0.1199559E+04  0.7818609E-02  0.9113242E-01
        1   -1    0    0  501    0  0.00000000000E+00  0.00000000000E+00  0.70005460541E+03  0.70005460542E+03  0.50400001928E-02 0.  1.
       -1   -1    0    0    0  501  0.00000000000E+00  0.00000000000E+00 -0.51386811221E+03  0.51386811223E+03  0.50400001928E-02 0. -1.
    10030    2    1    2    0    0  0.00000000000E+00  0.00000000000E+00  0.18618649320E+03  0.12139227177E+04  0.11995594834E+04 0.  0.
        1    1    3    3  502    0 -0.19306271593E+03  0.19632530883E+03  0.63231375540E+03  0.68966479137E+03  0.50400001928E-02 0.  1.
       -1    1    3    3    0  502  0.19306271593E+03 -0.19632530883E+03 -0.44612726220E+03  0.52425792628E+03  0.50400001928E-02 0. -1.
</event>
<event>
 5   0  0.5003507E-04  0.1199616E+04  0.7818609E-02  0.9113193E-01
        1   -1    0    0  501    0  0.00000000000E+00  0.00000000000E+00  0.81177017025E+03  0.81177017027E+03  0.50400001928E-02 0.  1.
       -1   -1    0    0    0  501  0.00000000000E+00  0.00000000000E+00 -0.44319147747E+03  0.44319147750E+03  0.50400001928E-02 0. -1.
    10030    2    1    2    0    0  0.00000000000E+00  0.00000000000E+00  0.36857869278E+03  0.12549616478E+04  0.11996159738E+04 0.  0.
        3    1    3    3  502    0  0.45831502919E+03 -0.34922661050E+03  0.99962823114E+01  0.57629144305E+03  0.10100000352E+00 0. -1.
       -3    1    3    3    0  502 -0.45831502919E+03  0.34922661050E+03  0.35858241047E+03  0.67867020472E+03  0.10100000352E+00 0.  1.
</event>
<event>
 5   0  0.9050363E-04  0.1206757E+04  0.7818609E-02  0.9106962E-01
        2   -1    0    0  501    0  0.00000000000E+00  0.00000000000E+00  0.80239686358E+03  0.80239686358E+03  0.25500000920E-02 0. -1.
       -2   -1    0    0    0  501  0.00000000000E+00  0.00000000000E+00 -0.45372298809E+03  0.45372298809E+03  0.25500000920E-02 0.  1.
    10030    2    1    2    0    0  0.00000000000E+00  0.00000000000E+00  0.34867387549E+03  0.12561198517E+04  0.12067574778E+04 0.  0.
        3    1    3    3  502    0  0.67290476056E+02  0.45329960402E+03 -0.23421972433E+03  0.51465272625E+03  0.10100000352E+00 0.  1.
       -3    1    3    3    0  502 -0.67290476056E+02 -0.45329960402E+03  0.58289359982E+03  0.74146712542E+03  0.10100000352E+00 0. -1.
</event>
<event>
 5   0  0.9298693E-04  0.1191862E+04  0.7818609E-02  0.9120010E-01
        2   -1    0    0  501    0  0.00000000000E+00  0.00000000000E+00  0.13540902551E+04  0.13540902551E+04  0.25500000920E-02 0. -1.
       -2   -1    0    0    0  501  0.00000000000E+00  0.00000000000E+00 -0.26226723753E+03  0.26226723754E+03  0.25500000920E-02 0.  1.
    10030    2    1    2    0    0  0.00000000000E+00  0.00000000000E+00  0.10918230175E+04  0.16163574926E+04  0.11918615869E+04 0.  0.
        1    1    3    3  502    0  0.38983265671E+03  0.53623891744E+02 -0.61019871449E+02  0.39820653780E+03  0.50400001928E-02 0.  1.
       -1    1    3    3    0  502 -0.38983265671E+03 -0.53623891744E+02  0.11528428890E+04  0.12181509548E+04  0.50400001928E-02 0. -1.
</event>
<event>
 5   0  0.3453625E-04  0.1199081E+04  0.7818609E-02  0.9113661E-01
       -3   -1    0    0    0  501  0.00000000000E+00  0.00000000000E+00  0.85101817049E+03  0.85101817648E+03  0.10100000352E+00 0. -1.
        3   -1    0    0  501    0  0.00000000000E+00  0.00000000000E+00 -0.42237517412E+03  0.42237518620E+03  0.10100000352E+00 0.  1.
    10030    2    1    2    0    0  0.00000000000E+00  0.00000000000E+00  0.42864299637E+03  0.12733933627E+04  0.11990812474E+04 0.  0.
        4    1    3    3  502    0  0.36058088340E+01  0.27494509358E+03 -0.35146218448E+03  0.44624554492E+03  0.12699999809E+01 0.  1.
       -4    1    3    3    0  502 -0.36058088340E+01 -0.27494509358E+03  0.78010518085E+03  0.82714781776E+03  0.12699999809E+01 0. -1.
</event>
<event>
 5   0  0.9070772E-04  0.1201239E+04  0.7818609E-02  0.9111773E-01
       -2   -1    0    0    0  501  0.00000000000E+00  0.00000000000E+00  0.36313864893E+03  0.36313864894E+03  0.25500000920E-02 0.  1.
        2   -1    0    0  501    0  0.00000000000E+00  0.00000000000E+00 -0.99340484594E+03  0.99340484595E+03  0.25500000920E-02 0. -1.
    10030    2    1    2    0    0  0.00000000000E+00  0.00000000000E+00 -0.63026619702E+03  0.13565434949E+04  0.12012388499E+04 0.  0.
        4    1    3    3  502    0  0.22865361171E+03  0.44917103729E+03 -0.68402295195E+03  0.84966234857E+03  0.12699999809E+01 0. -1.
       -4    1    3    3    0  502 -0.22865361171E+03 -0.44917103729E+03  0.53756754935E+02  0.50688114631E+03  0.12699999809E+01 0.  1.
</event>
<event>
 5   0  0.5052959E-04  0.1202317E+04  0.7818609E-02  0.9110831E-01
       -1   -1    0    0    0  501  0.00000000000E+00  0.00000000000E+00  0.37079320969E+03  0.37079320972E+03  0.50400001928E-02 0. -1.
        1   -1    0    0  501    0  0.00000000000E+00  0.00000000000E+00 -0.97464374355E+03  0.97464374357E+03  0.50400001928E-02 0.  1.
    10030    2    1    2    0    0  0.00000000000E+00  0.00000000000E+00 -0.60385053386E+03  0.13454369533E+04  0.12023165673E+04 0.  0.
        2    1    3    3  502    0 -0.14003626174E+03  0.17445972456E+03  0.32247836495E+03  0.39247757384E+03  0.25500000920E-02 0. -1.
       -2    1    3    3    0  502  0.14003626174E+03 -0.17445972456E+03 -0.92632889882E+03  0.95295937945E+03  0.25500000920E-02 0.  1.
</event>
<event>
 5   0  0.9145224E-04  0.1198071E+04  0.7818609E-02  0.9114547E-01
        2   -1    0    0  501    0  0.00000000000E+00  0.00000000000E+00  0.75205386628E+03  0.75205386628E+03  0.25500000920E-02 0. -1.
       -2   -1    0    0    0  501  0.00000000000E+00  0.00000000000E+00 -0.47715129710E+03  0.47715129710E+03  0.25500000920E-02 0.  1.
    10030    2    1    2    0    0  0.00000000000E+00  0.00000000000E+00  0.27490256918E+03  0.12292051634E+04  0.11980709124E+04 0.  0.
        5    1    3    3  502    0 -0.15944478302E+02  0.46080971687E+03  0.52977771553E+03  0.70234346258E+03  0.46999998093E+01 0. -1.
       -5    1    3    3    0  502  0.15944478302E+02 -0.46080971687E+03 -0.25487514635E+03  0.52686170081E+03  0.46999998093E+01 0.  1.
</event>
<event>
 5   0  0.9145224E-04  0.1204772E+04  0.7818609E-02  0.9108690E-01
        2   -1    0    0  501    0  0.00000000000E+00  0.00000000000E+00  0.14356341857E+04  0.14356341857E+04  0.25500000920E-02 0.  1.
       -2   -1    0    0    0  501  0.00000000000E+00  0.00000000000E+00 -0.25275871552E+03  0.25275871553E+03  0.25500000920E-02 0. -1.
    10030    2    1    2    0    0  0.00000000000E+00  0.00000000000E+00  0.11828754702E+04  0.16883929013E+04  0.12047722652E+04 0.  0.
        5    1    3    3  502    0 -0.37899209770E+03  0.16437736710E+03  0.12058165723E+04  0.12746256804E+04  0.46999998093E+01 0.  1.
       -5    1    3    3    0  502  0.37899209770E+03 -0.16437736710E+03 -0.22941102109E+02  0.41376722091E+03  0.46999998093E+01 0. -1.
</event>
<event>
 5   0  0.9050363E-04  0.1186781E+04  0.7818609E-02  0.9124506E-01
       -2   -1    0    0    0  501  0.00000000000E+00  0.00000000000E+00  0.24784670149E+03  0.24784670150E+03  0.25500000920E-02 0. -1.
        2   -1    0    0  501    0  0.00000000000E+00  0.00000000000E+00 -0.14206867085E+04  0.14206867086E+04  0.25500000920E-02 0.  1.
    10030    2    1    2    0    0  0.00000000000E+00  0.00000000000E+00 -0.11728400071E+04  0.16685334101E+04  0.11867813861E+04 0.  0.
        3    1    3    3  502    0  0.91883465401E+02  0.15714338419E+03  0.20762133004E+03  0.27612178707E+03  0.10100000352E+00 0. -1.
       -3    1    3    3    0  502 -0.91883465401E+02 -0.15714338419E+03 -0.13804613371E+04  0.13924116230E+04  0.10100000352E+00 0.  1.
</event>
<event>
 5   0  0.9145224E-04  0.1199462E+04  0.7818609E-02  0.9113328E-01
       -2   -1    0    0    0  501  0.00000000000E+00  0.00000000000E+00  0.38023825519E+03  0.38023825520E+03  0.25500000920E-02 0.  1.
        2   -1    0    0  501    0  0.00000000000E+00  0.00000000000E+00 -0.94592587616E+03  0.94592587616E+03  0.25500000920E-02 0. -1.
    10030    2    1    2    0    0  0.00000000000E+00  0.00000000000E+00 -0.56568762096E+03  0.13261641314E+04  0.11994618872E+04 0.  0.
        5    1    3    3  502    0  0.14648565792E+03 -0.12563060408E+03 -0.91063870938E+03  0.93087380760E+03  0.46999998093E+01 0. -1.
       -5    1    3    3    0  502 -0.14648565792E+03  0.12563060408E+03  0.34495108842E+03  0.39529032376E+03  0.46999998093E+01 0.  1.
</event>
<event>
 5   0  0.9410666E-04  0.1198343E+04  0.7818609E-02  0.9114308E-01
        2   -1    0    0  501    0  0.00000000000E+00  0.00000000000E+00  0.23922990979E+04  0.23922990979E+04  0.25500000920E-02 0. -1.
       -2   -1    0    0    0  501  0.00000000000E+00  0.00000000000E+00 -0.15006758233E+03  0.15006758235E+03  0.25500000920E-02 0.  1.
    10030    2    1    2    0    0  0.00000000000E+00  0.00000000000E+00  0.22422315155E+04  0.25423666802E+04  0.11983430925E+04 0.  0.
        2    1    3    3  502    0  0.52948649117E+03 -0.21987120871E+03  0.14904590963E+04  0.15969244223E+04  0.25500000920E-02 0. -1.
       -2    1    3    3    0  502 -0.52948649117E+03  0.21987120871E+03  0.75177241925E+03  0.94544225794E+03  0.25500000920E-02 0.  1.
</event>
<event>
 5   0  0.9145224E-04  0.1198508E+04  0.7818609E-02  0.9114164E-01
        2   -1    0    0  501    0  0.00000000000E+00  0.00000000000E+00  0.25192526290E+04  0.25192526290E+04  0.25500000920E-02 0. -1.
       -2   -1    0    0    0  501  0.00000000000E+00  0.00000000000E+00 -0.14254438989E+03  0.14254438991E+03  0.25500000920E-02 0.  1.
    10030    2    1    2    0    0  0.00000000000E+00  0.00000000000E+00  0.23767082392E+04  0.26617970189E+04  0.11985079541E+04 0.  0.
        5    1    3    3  502    0  0.82341159591E+02 -0.99174465113E+02 -0.11134779145E+03  0.17039971171E+03  0.46999998093E+01 0.  1.
       -5    1    3    3    0  502 -0.82341159591E+02  0.99174465113E+02  0.24880560306E+04  0.24913973072E+04  0.46999998093E+01 0. -1.
</event>
<event>
 5   0  0.9410666E-04  0.1198993E+04  0.7818609E-02  0.9113739E-01
        2   -1    0    0  501    0  0.00000000000E+00  0.00000000000E+00  0.23545740836E+04  0.23545740836E+04  0.25500000920E-02 0. -1.
       -2   -1    0    0    0  501  0.00000000000E+00  0.00000000000E+00 -0.15263727572E+03  0.15263727574E+03  0.25500000920E-02 0.  1.
    10030    2    1    2    0    0  0.00000000000E+00  0.00000000000E+00  0.22019368079E+04  0.25072113594E+04  0.11989925331E+04 0.  0.
        2    1    3    3  502    0  0.52390549580E+03  0.16621825468E+03  0.16014809922E+04  0.16931765546E+04  0.25500000920E-02 0. -1.
       -2    1    3    3    0  502 -0.52390549580E+03 -0.16621825468E+03  0.60045581569E+03  0.81403480473E+03  0.25500000920E-02 0.  1.
</event>
<event>
 5   0  0.9070772E-04  0.1198898E+04  0.7818609E-02  0.9113822E-01
       -2   -1    0    0    0  501  0.00000000000E+00  0.00000000000E+00  0.36133776599E+03  0.36133776600E+03  0.25500000920E-02 0. -1.
        2   -1    0    0  501    0  0.00000000000E+00  0.00000000000E+00 -0.99446861889E+03  0.99446861889E+03  0.25500000920E-02 0.  1.
    10030    2    1    2    0    0  0.00000000000E+00  0.00000000000E+00 -0.63313085289E+03  0.13558063849E+04  0.11988979425E+04 0.  0.
        4    1    3    3  502    0 -0.57302922095E+02  0.37917540824E+03  0.20447309994E+03  0.43459000977E+03  0.12699999809E+01 0. -1.
       -4    1    3    3    0  502  0.57302922095E+02 -0.37917540824E+03 -0.83760395283E+03  0.92121637512E+03  0.12699999809E+01 0.  1.
</event>
<event>
 5   0  0.9298693E-04  0.1199059E+04  0.7818609E-02  0.9113680E-01
       -2   -1    0    0    0  501  0.00000000000E+00  0.00000000000E+00  0.46796832387E+03  0.46796832387E+03  0.25500000920E-02 0. -1.
        2   -1    0    0  501    0  0.00000000000E+00  0.00000000000E+00 -0.76807704298E+03  0.76807704298E+03  0.25500000920E-02 0.  1.
    10030    2    1    2    0    0  0.00000000000E+00  0.00000000000E+00 -0.30010871911E+03  0.12360453669E+04  0.11990591752E+04 0.  0.
        1    1    3    3  502    0 -0.51563699722E+03 -0.30016283065E+03 -0.89448954585E+02  0.60330784290E+03  0.50400001928E-02 0. -1.
       -1    1    3    3    0  502  0.51563699722E+03  0.30016283065E+03 -0.21065976453E+03  0.63273752396E+03  0.50400001928E-02 0.  1.
</event>
<event>
 5   0  0.5001586E-04  0.1205293E+04  0.7818609E-02  0.9108236E-01
       -1   -1    0    0    0  501  0.00000000000E+00  0.00000000000E+00  0.73048163165E+03  0.73048163167E+03  0.50400001928E-02 0. -1.
        1   -1    0    0  501    0  0.00000000000E+00  0.00000000000E+00 -0.49718282854E+03  0.49718282857E+03  0.50400001928E-02 0.  1.
    10030    2    1    2    0    0  0.00000000000E+00  0.00000000000E+00  0.23329880311E+03  0.12276644602E+04  0.12052931989E+04 0.  0.
        1    1    3    3  502    0 -0.90051214131E+02  0.47527719220E+03 -0.24944536056E+03  0.54426153504E+03  0.50400001928E-02 0.  1.
       -1    1    3    3    0  502  0.90051214131E+02 -0.47527719220E+03  0.48274416367E+03  0.68340292520E+03  0.50400001928E-02 0. -1.
</event>
<event>
 5   0  0.5157631E-04  0.1204548E+04  0.7818609E-02  0.9108885E-01
        1   -1    0    0  501    0  0.00000000000E+00  0.00000000000E+00  0.10913321577E+04  0.10913321577E+04  0.50400001928E-02 0. -1.
       -1   -1    0    0    0  501  0.00000000000E+00  0.00000000000E+00 -0.33237734647E+03  0.33237734650E+03  0.50400001928E-02 0.  1.
    10030    2    1    2    0    0  0.00000000000E+00  0.00000000000E+00  0.75895481120E+03  0.14237095042E+04  0.12045481920E+04 0.  0.
        5    1    3    3  502    0  0.47541374817E+03 -0.26070879333E+03  0.68932890240E+03  0.87703120386E+03  0.46999998093E+01 0. -1.
       -5    1    3    3    0  502 -0.47541374817E+03  0.26070879333E+03  0.69625908803E+02  0.54667830032E+03  0.46999998093E+01 0.  1.
</event>
<event>
 5   0  0.5052959E-04  0.1202694E+04  0.7818609E-02  0.9110502E-01
        1   -1    0    0  501    0  0.00000000000E+00  0.00000000000E+00  0.56957769137E+03  0.56957769139E+03  0.50400001928E-02 0. -1.
       -1   -1    0    0    0  501  0.00000000000E+00  0.00000000000E+00 -0.63488844456E+03  0.63488844458E+03  0.50400001928E-02 0.  1.
    10030    2    1    2    0    0  0.00000000000E+00  0.00000000000E+00 -0.65310753199E+02  0.12044661360E+04  0.12026941333E+04 0.  0.
        2    1    3    3  502    0  0.40519235858E+03  0.40730623880E+03 -0.21050947491E+03  0.61187699634E+03  0.25500000920E-02 0.  1.
       -2    1    3    3    0  502 -0.40519235858E+03 -0.40730623880E+03  0.14519872171E+03  0.59258913963E+03  0.25500000920E-02 0. -1.
</event>
<event>
 5   0  0.5157631E-04  0.1199734E+04  0.7818609E-02  0.9113089E-01
        1   -1    0    0  501    0  0.00000000000E+00  0.00000000000E+00  0.62395137826E+03  0.62395137828E+03  0.50400001928E-02 0. -1.
       -1   -1    0    0    0  501  0.00000000000E+00  0.00000000000E+00 -0.57671273207E+03  0.57671273209E+03  0.50400001928E-02 0.  1.
    10030    2    1    2    0    0  0.00000000000E+00  0.00000000000E+00  0.47238646187E+02  0.12006641104E+04  0.11997344774E+04 0.  0.
        5    1    3    3  502    0 -0.30201875111E+03  0.46666810861E+03  0.24923616369E+03  0.60920867107E+03  0.46999998093E+01 0. -1.
       -5    1    3    3    0  502  0.30201875111E+03 -0.46666810861E+03 -0.20199751750E+03  0.59145543931E+03  0.46999998093E+01 0.  1.
</event>
<event>
 5   0  0.9050363E-04  0.1188336E+04  0.7818609E-02  0.9123128E-01
        2   -1    0    0  501    0  0.00000000000E+00  0.00000000000E+00  0.12123335668E+04  0.12123335668E+04  0.25500000920E-02 0. -1.
       -2   -1    0    0    0  501  0.00000000000E+00  0.00000000000E+00 -0.29120315286E+03  0.29120315287E+03  0.25500000920E-02 0.  1.
    10030    2    1    2    0    0  0.00000000000E+00  0.00000000000E+00  0.92113041399E+03  0.15035367197E+04  0.11883355704E+04 0.  0.
        3    1    3    3  502    0  0.43111166487E+03 -0.32437577099E+03  0.14562712840E+03  0.55882392497E+03  0.10100000352E+00 0.  1.
       -3    1    3    3    0  502 -0.43111166487E+03  0.32437577099E+03  0.77550328558E+03  0.94471279474E+03  0.10100000352E+00 0. -1.
</event>
<event>
 5   0  0.9070772E-04  0.1198365E+04  0.7818609E-02  0.9114289E-01
        2   -1    0    0  501    0  0.00000000000E+00  0.00000000000E+00  0.65803317648E+03  0.65803317648E+03  0.25500000920E-02 0. -1.
       -2   -1    0    0    0  501  0.00000000000E+00  0.00000000000E+00 -0.54559509215E+03  0.54559509215E+03  0.25500000920E-02 0.  1.
    10030    2    1    2    0    0  0.00000000000E+00  0.00000000000E+00  0.11243808433E+03  0.12036282686E+04  0.11983650054E+04 0.  0.
        4    1    3    3  502    0 -0.49533176746E+03 -0.30657318622E+03 -0.84673141536E+02  0.58865255641E+03  0.12699999809E+01 0.  1.
       -4    1    3    3    0  502  0.49533176746E+03  0.30657318622E+03  0.19711122587E+03  0.61497571223E+03  0.12699999809E+01 0. -1.
</event>
<event>
 5   0  0.5447074E-04  0.1197993E+04  0.7818609E-02  0.9114615E-01
        1   -1    0    0  501    0  0.00000000000E+00  0.00000000000E+00  0.23598935022E+03  0.23598935027E+03  0.50400001928E-02 0.  1.
       -1   -1    0    0    0  501  0.00000000000E+00  0.00000000000E+00 -0.15203952468E+04  0.15203952468E+04  0.50400001928E-02 0. -1.
    10030    2    1    2    0    0  0.00000000000E+00  0.00000000000E+00 -0.12844058966E+04  0.17563845971E+04  0.11979934665E+04 0.  0.
        4    1    3    3  502    0 -0.41007043964E+03 -0.42373841852E+03 -0.79655160835E+03  0.99106412026E+03  0.12699999809E+01 0. -1.
       -4    1    3    3    0  502  0.41007043964E+03  0.42373841852E+03 -0.48785428821E+03  0.76532047681E+03  0.12699999809E+01 0.  1.
</event>
<event>
 5   0  0.5052959E-04  0.1231219E+04  0.7818609E-02  0.9085961E-01
       -1   -1    0    0    0  501  0.00000000000E+00  0.00000000000E+00  0.10867692064E+04  0.10867692064E+04  0.50400001928E-02 0. -1.
        1   -1    0    0  501    0  0.00000000000E+00  0.00000000000E+00 -0.34871733396E+03  0.34871733400E+03  0.50400001928E-02 0.  1.
    10030    2    1    2    0    0  0.00000000000E+00  0.00000000000E+00  0.73805187246E+03  0.14354865404E+04  0.12312193311E+04 0.  0.
        2    1    3    3  502    0 -0.10302948465E+03 -0.54143110950E+03  0.68877466374E+03  0.88214129166E+03  0.25500000920E-02 0. -1.
       -2    1    3    3    0  502  0.10302948465E+03  0.54143110950E+03  0.49277208726E+02  0.55334524878E+03  0.25500000920E-02 0.  1.
</event>
<event>
 5   0  0.5052959E-04  0.1198431E+04  0.7818609E-02  0.9114231E-01
       -1   -1    0    0    0  501  0.00000000000E+00  0.00000000000E+00  0.76777660782E+03  0.76777660784E+03  0.50400001928E-02 0.  1.
        1   -1    0    0  501    0  0.00000000000E+00  0.00000000000E+00 -0.46766073634E+03  0.46766073637E+03  0.50400001928E-02 0. -1.
    10030    2    1    2    0    0  0.00000000000E+00  0.00000000000E+00  0.30011587148E+03  0.12354373442E+04  0.11984305967E+04 0.  0.
        2    1    3    3  502    0 -0.11027336041E+03  0.38489715580E+03  0.60964163493E+03  0.72936202095E+03  0.25500000920E-02 0.  1.
       -2    1    3    3    0  502  0.11027336041E+03 -0.38489715580E+03 -0.30952576346E+03  0.50607532326E+03  0.25500000920E-02 0. -1.
</event>
<event>
 5   0  0.9410666E-04  0.1204869E+04  0.7818609E-02  0.9108605E-01
        2   -1    0    0  501    0  0.00000000000E+00  0.00000000000E+00  0.13820382182E+04  0.13820382182E+04  0.25500000920E-02 0. -1.
       -2   -1    0    0    0  501  0.00000000000E+00  0.00000000000E+00 -0.26260309404E+03  0.26260309406E+03  0.25500000920E-02 0.  1.
    10030    2    1    2    0    0  0.00000000000E+00  0.00000000000E+00  0.11194351241E+04  0.16446413122E+04  0.12048693078E+04 0.  0.
        2    1    3    3  502    0  0.42097945438E+03  0.13212658660E+03  0.11196093702E+04  0.12034144247E+04  0.25500000920E-02 0. -1.
       -2    1    3    3    0  502 -0.42097945438E+03 -0.13212658660E+03 -0.17424601680E+00  0.44122688751E+03  0.25500000920E-02 0.  1.
</event>
<event>
 5   0  0.5001586E-04  0.1200891E+04  0.7818609E-02  0.9112077E-01
        1   -1    0    0  501    0  0.00000000000E+00  0.00000000000E+00  0.91789338924E+03  0.91789338926E+03  0.50400001928E-02 0. -1.
       -1   -1    0    0    0  501  0.00000000000E+00  0.00000000000E+00 -0.39278483144E+03  0.39278483148E+03  0.50400001928E-02 0.  1.
    10030    2    1    2    0    0  0.00000000000E+00  0.00000000000E+00  0.52510855780E+03  0.13106782207E+04  0.12008906698E+04 0.  0.
        1    1    3    3  502    0 -0.53511104799E+03 -0.23147523885E+03  0.10586784347E+03  0.59256444391E+03  0.50400001928E-02 0.  1.
       -1    1    3    3    0  502  0.53511104799E+03  0.23147523885E+03  0.41924071433E+03  0.71811377682E+03  0.50400001928E-02 0. -1.
</event>
<event>
 5   0  0.5052959E-04  0.1200759E+04  0.7818609E-02  0.9112193E-01
       -1   -1    0    0    0  501  0.00000000000E+00  0.00000000000E+00  0.21805615457E+03  0.21805615463E+03  0.50400001928E-02 0.  1.
        1   -1    0    0  501    0  0.00000000000E+00  0.00000000000E+00 -0.16530396703E+04  0.16530396703E+04  0.50400001928E-02 0. -1.
    10030    2    1    2    0    0  0.00000000000E+00  0.00000000000E+00 -0.14349835157E+04  0.18710958249E+04  0.12007588832E+04 0.  0.
        2    1    3    3  502    0  0.41298290224E+02  0.33228461281E+03 -0.14940263650E+04  0.15310889562E+04  0.25500000920E-02 0. -1.
       -2    1    3    3    0  502 -0.41298290224E+02 -0.33228461281E+03  0.59042849268E+02  0.34000686867E+03  0.25500000920E-02 0.  1.
</event>
<event>
 5   0  0.5003507E-04  0.1195327E+04  0.7818609E-02  0.9116957E-01
        1   -1    0    0  501    0  0.00000000000E+00  0.00000000000E+00  0.92116455352E+03  0.92116455354E+03  0.50400001928E-02 0. -1.
       -1   -1    0    0    0  501  0.00000000000E+00  0.00000000000E+00 -0.38777184259E+03  0.38777184262E+03  0.50400001928E-02 0.  1.
    10030    2    1    2    0    0  0.00000000000E+00  0.00000000000E+00  0.53339271094E+03  0.13089363962E+04  0.11953270285E+04 0.  0.
        3    1    3    3  502    0 -0.39460510709E+02  0.33997118187E+03  0.80322812195E+03  0.87310535590E+03  0.10100000352E+00 0. -1.
       -3    1    3    3    0  502  0.39460510709E+02 -0.33997118187E+03 -0.26983541102E+03  0.43583104025E+03  0.10100000352E+00 0.  1.
</event>
<event>
 5   0  0.5447074E-04  0.1206796E+04  0.7818609E-02  0.9106929E-01
       -1   -1    0    0    0  501  0.00000000000E+00  0.00000000000E+00  0.40148369084E+03  0.40148369087E+03  0.50400001928E-02 0.  1.
        1   -1    0    0  501    0  0.00000000000E+00  0.00000000000E+00 -0.90685876365E+03  0.90685876367E+03  0.50400001928E-02 0. -1.
    10030    2    1    2    0    0  0.00000000000E+00  0.00000000000E+00 -0.50537507281E+03  0.13083424545E+04  0.12067957632E+04 0.  0.
        4    1    3    3  502    0 -0.57583523074E+03 -0.14307783858E+03 -0.37159766325E+03  0.70010279037E+03  0.12699999809E+01 0. -1.
       -4    1    3    3    0  502  0.57583523074E+03  0.14307783858E+03 -0.13377740957E+03  0.60823966416E+03  0.12699999809E+01 0.  1.
</event>
<event>
 5   0  0.9070772E-04  0.1174211E+04  0.7818609E-02  0.9135734E-01
        2   -1    0    0  501    0  0.00000000000E+00  0.00000000000E+00  0.17807289076E+04  0.17807289076E+04  0.25500000920E-02 0. -1.
       -2   -1    0    0    0  501  0.00000000000E+00  0.00000000000E+00 -0.19356836165E+03  0.19356836167E+03  0.25500000920E-02 0.  1.
    10030    2    1    2    0    0  0.00000000000E+00  0.00000000000E+00  0.15871605460E+04  0.19742972693E+04  0.11742108451E+04 0.  0.
        4    1    3    3  502    0 -0.33711781383E+03  0.26966006765E+03  0.14626060337E+04  0.15249862279E+04  0.12699999809E+01 0. -1.
       -4    1    3    3    0  502  0.33711781383E+03 -0.26966006765E+03  0.12455451221E+03  0.44931104137E+03  0.12699999809E+01 0.  1.
</event>
<event>
 5   0  0.9410666E-04  0.1200246E+04  0.7818609E-02  0.9112642E-01
        2   -1    0    0  501    0  0.00000000000E+00  0.00000000000E+00  0.12699843198E+04  0.12699843198E+04  0.25500000920E-02 0.  1.
       -2   -1    0    0    0  501  0.00000000000E+00  0.00000000000E+00 -0.28358407272E+03  0.28358407273E+03  0.25500000920E-02 0. -1.
    10030    2    1    2    0    0  0.00000000000E+00  0.00000000000E+00  0.98640024705E+03  0.15535683925E+04  0.12002455177E+04 0.  0.
        2    1    3    3  502    0  0.36777032560E+03 -0.31745780969E+03  0.37196112799E+02  0.48725560452E+03  0.25500000920E-02 0. -1.
       -2    1    3    3    0  502 -0.36777032560E+03  0.31745780969E+03  0.94920413425E+03  0.10663127880E+04  0.25500000920E-02 0.  1.
</event>
<event>
 5   0  0.9145224E-04  0.1199446E+04  0.7818609E-02  0.9113342E-01
       -2   -1    0    0    0  501  0.00000000000E+00  0.00000000000E+00  0.30093898543E+03  0.30093898545E+03  0.25500000920E-02 0.  1.
        2   -1    0    0  501    0  0.00000000000E+00  0.00000000000E+00 -0.11951509360E+04  0.11951509360E+04  0.25500000920E-02 0. -1.
    10030    2    1    2    0    0  0.00000000000E+00  0.00000000000E+00 -0.89421195053E+03  0.14960899214E+04  0.11994457222E+04 0.  0.
        5    1    3    3  502    0 -0.12168610477E+03  0.15221590475E+03  0.26032029339E+03  0.32521675065E+03  0.46999998093E+01 0.  1.
       -5    1    3    3    0  502  0.12168610477E+03 -0.15221590475E+03 -0.11545322439E+04  0.11708731708E+04  0.46999998093E+01 0. -1.
</event>
<event>
 5   0  0.9050363E-04  0.1198142E+04  0.7818609E-02  0.9114484E-01
        2   -1    0    0  501    0  0.00000000000E+00  0.00000000000E+00  0.56104650796E+03  0.56104650797E+03  0.25500000920E-02 0. -1.
       -2   -1    0    0    0  501  0.00000000000E+00  0.00000000000E+00 -0.63967275966E+03  0.63967275966E+03  0.25500000920E-02 0.  1.
    10030    2    1    2    0    0  0.00000000000E+00  0.00000000000E+00 -0.78626251693E+02  0.12007192676E+04  0.11981421753E+04 0.  0.
        3    1    3    3  502    0  0.28379478357E+03 -0.45682742783E+03  0.22517760479E+03  0.58304008601E+03  0.10100000352E+00 0. -1.
       -3    1    3    3    0  502 -0.28379478357E+03  0.45682742783E+03 -0.30380385649E+03  0.61767918162E+03  0.10100000352E+00 0.  1.
</event>
<event>
 5   0  0.9298693E-04  0.1200928E+04  0.7818609E-02  0.9112045E-01
       -2   -1    0    0    0  501  0.00000000000E+00  0.00000000000E+00  0.24425129165E+03  0.24425129166E+03  0.25500000920E-02 0.  1.
        2   -1    0    0  501    0  0.00000000000E+00  0.00000000000E+00 -0.14761716409E+04  0.14761716409E+04  0.25500000920E-02 0. -1.
    10030    2    1    2    0    0  0.00000000000E+00  0.00000000000E+00 -0.12319203492E+04  0.17204229325E+04  0.12009276914E+04 0.  0.
        1    1    3    3  502    0 -0.41618719600E+03  0.30256645196E+03 -0.17255789420E+03  0.54271029734E+03  0.50400001928E-02 0.  1.
       -1    1    3    3    0  502  0.41618719600E+03 -0.30256645196E+03 -0.10593624550E+04  0.11777126352E+04  0.50400001928E-02 0. -1.
</event>
<event>
 5   0  0.5003507E-04  0.1201107E+04  0.7818609E-02  0.9111888E-01
       -1   -1    0    0    0  501  0.00000000000E+00  0.00000000000E+00  0.95569976584E+03  0.95569976586E+03  0.50400001928E-02 0.  1.
        1   -1    0    0  501    0  0.00000000000E+00  0.00000000000E+00 -0.37738287403E+03  0.37738287407E+03  0.50400001928E-02 0. -1.
    10030    2    1    2    0    0  0.00000000000E+00  0.00000000000E+00  0.57831689181E+03  0.13330826399E+04  0.12011073630E+04 0.  0.
        3    1    3    3  502    0 -0.55250825816E+03  0.64375552828E+02  0.54043033260E+03  0.77554789777E+03  0.10100000352E+00 0.  1.
       -3    1    3    3    0  502  0.55250825816E+03 -0.64375552828E+02  0.37886559214E+02  0.55753474216E+03  0.10100000352E+00 0. -1.
</event>
<event>
 5   0  0.5003507E-04  0.1173376E+04  0.7818609E-02  0.9136485E-01
        1   -1    0    0  501    0  0.00000000000E+00  0.00000000000E+00  0.11630930375E+04  0.11630930375E+04  0.50400001928E-02 0.  1.
       -1   -1    0    0    0  501  0.00000000000E+00  0.00000000000E+00 -0.29593764820E+03  0.29593764824E+03  0.50400001928E-02 0. -1.
    10030    2    1    2    0    0  0.00000000000E+00  0.00000000000E+00  0.86715538927E+03  0.14590306857E+04  0.11733763560E+04 0.  0.
        3    1    3    3  502    0 -0.27822432857E+03 -0.23183926573E+03 -0.14035709125E+03  0.38840487305E+03  0.10100000352E+00 0. -1.
       -3    1    3    3    0  502  0.27822432857E+03  0.23183926573E+03  0.10075124805E+04  0.10706258127E+04  0.10100000352E+00 0.  1.
</event>
<event>
 5   0  0.9145224E-04  0.1201647E+04  0.7818609E-02  0.9111416E-01
        2   -1    0    0  501    0  0.00000000000E+00  0.00000000000E+00  0.67599320719E+03  0.67599320720E+03  0.25500000920E-02 0. -1.
       -2   -1    0    0    0  501  0.00000000000E+00  0.00000000000E+00 -0.53401254252E+03  0.53401254253E+03  0.25500000920E-02 0.  1.
    10030    2    1    2    0    0  0.00000000000E+00  0.00000000000E+00  0.14198066467E+03  0.12100057497E+04  0.12016469553E+04 0.  0.
        5    1    3    3  502    0  0.27284469583E+02 -0.60018223049E+03  0.69077318334E+02  0.60477840403E+03  0.46999998093E+01 0. -1.
       -5    1    3    3    0  502 -0.27284469583E+02  0.60018223049E+03  0.72903346336E+02  0.60522734570E+03  0.46999998093E+01 0.  1.
</event>
<event>
 5   0  0.5447074E-04  0.1196946E+04  0.7818609E-02  0.9115534E-01
       -1   -1    0    0    0  501  0.00000000000E+00  0.00000000000E+00  0.19459982738E+03  0.19459982745E+03  0.50400001928E-02 0. -1.
        1   -1    0    0  501    0  0.00000000000E+00  0.00000000000E+00 -0.18405450194E+04  0.18405450194E+04  0.50400001928E-02 0.  1.
    10030    2    1    2    0    0  0.00000000000E+00  0.00000000000E+00 -0.16459451920E+04  0.20351448469E+04  0.11969456849E+04 0.  0.
        4    1    3    3  502    0 -0.49086574844E+03 -0.68231631285E+02 -0.13934250682E+04  0.14789319701E+04  0.12699999809E+01 0.  1.
       -4    1    3    3    0  502  0.49086574844E+03  0.68231631285E+02 -0.25252012386E+03  0.55621287683E+03  0.12699999809E+01 0. -1.
</event>
<event>
 5   0  0.9298693E-04  0.1194090E+04  0.7818609E-02  0.9118045E-01
        2   -1    0    0  501    0  0.00000000000E+00  0.00000000000E+00  0.71977028265E+03  0.71977028266E+03  0.25500000920E-02 0. -1.
       -2   -1    0    0    0  501  0.00000000000E+00  0.00000000000E+00 -0.49524537286E+03  0.49524537287E+03  0.25500000920E-02 0.  1.
    10030    2    1    2    0    0  0.00000000000E+00  0.00000000000E+00  0.22452490979E+03  0.12150156555E+04  0.11940902847E+04 0.  0.
        1    1    3    3  502    0  0.38208021974E+03  0.43838124898E+03 -0.25383730726E+02  0.58207194365E+03  0.50400001928E-02 0.  1.
       -1    1    3    3    0  502 -0.38208021974E+03 -0.43838124898E+03  0.24990864051E+03  0.63294371188E+03  0.50400001928E-02 0. -1.
</event>
<event>
 5   0  0.9050363E-04  0.1198632E+04  0.7818609E-02  0.9114055E-01
        2   -1    0    0  501    0  0.00000000000E+00  0.00000000000E+00  0.11640338510E+04  0.11640338510E+04  0.25500000920E-02 0. -1.
       -2   -1    0    0    0  501  0.00000000000E+00  0.00000000000E+00 -0.30856471644E+03  0.30856471645E+03  0.25500000920E-02 0.  1.
    10030    2    1    2    0    0  0.00000000000E+00  0.00000000000E+00  0.85546913454E+03  0.14725985674E+04  0.11986321790E+04 0.  0.
        3    1    3    3  502    0  0.84505216914E+02  0.57325567878E+03  0.23973364109E+03  0.62708486971E+03  0.10100000352E+00 0.  1.
       -3    1    3    3    0  502 -0.84505216914E+02 -0.57325567878E+03  0.61573549345E+03  0.84551369772E+03  0.10100000352E+00 0. -1.
</event>
<event>
 5   0  0.5003507E-04  0.1199846E+04  0.7818609E-02  0.9112991E-01
       -1   -1    0    0    0  501  0.00000000000E+00  0.00000000000E+00  0.27102175689E+03  0.27102175693E+03  0.50400001928E-02 0.  1.
        1   -1    0    0  501    0  0.00000000000E+00  0.00000000000E+00 -0.13279668248E+04  0.13279668248E+04  0.50400001928E-02 0. -1.
    10030    2    1    2    0    0  0.00000000000E+00  0.00000000000E+00 -0.10569450679E+04  0.15989885817E+04  0.11998464935E+04 0.  0.
        3    1    3    3  502    0 -0.38996295088E+03 -0.19264467000E+02  0.78533203828E+02  0.39825832954E+03  0.10100000352E+00 0.  1.
       -3    1    3    3    0  502  0.38996295088E+03  0.19264467000E+02 -0.11354782717E+04  0.12007302522E+04  0.10100000352E+00 0. -1.
</event>
<event>
 5   0  0.9050363E-04  0.1198636E+04  0.7818609E-02  0.9114051E-01
        2   -1    0    0  501    0  0.00000000000E+00  0.00000000000E+00  0.89749078370E+03  0.89749078370E+03  0.25500000920E-02 0. -1.
       -2   -1    0    0    0  501  0.00000000000E+00  0.00000000000E+00 -0.40020700418E+03  0.40020700419E+03  0.25500000920E-02 0.  1.
    10030    2    1    2    0    0  0.00000000000E+00  0.00000000000E+00  0.49728377952E+03  0.12976977879E+04  0.11986360546E+04 0.  0.
        3    1    3    3  502    0  0.25775096568E+02 -0.48604642690E+03  0.62722210140E+03  0.79392257770E+03  0.10100000352E+00 0. -1.
       -3    1    3    3    0  502 -0.25775096568E+02  0.48604642690E+03 -0.12993832188E+03  0.50377521019E+03  0.10100000352E+00 0.  1.
</event>
<event>
 5   0  0.9298693E-04  0.1157277E+04  0.7818609E-02  0.9151097E-01
       -2   -1    0    0    0  501  0.00000000000E+00  0.00000000000E+00  0.40775348305E+03  0.40775348306E+03  0.25500000920E-02 0.  1.
        2   -1    0    0  501    0  0.00000000000E+00  0.00000000000E+00 -0.82113923161E+03  0.82113923161E+03  0.25500000920E-02 0. -1.
    10030    2    1    2    0    0  0.00000000000E+00  0.00000000000E+00 -0.41338574856E+03  0.12288927147E+04  0.11572767720E+04 0.  0.
        1    1    3    3  502    0  0.27358933842E+03 -0.50946379008E+03 -0.18498516062E+03  0.60714412554E+03  0.50400001928E-02 0. -1.
       -1    1    3    3    0  502 -0.27358933842E+03  0.50946379008E+03 -0.22840058794E+03  0.62174858913E+03  0.50400001928E-02 0.  1.
</event>
<event>
 5   0  0.5052959E-04  0.1200349E+04  0.7818609E-02  0.9112551E-01
       -1   -1    0    0    0  501  0.00000000000E+00  0.00000000000E+00  0.45580749866E+03  0.45580749869E+03  0.50400001928E-02 0. -1.
        1   -1    0    0  501    0  0.00000000000E+00  0.00000000000E+00 -0.79026600619E+03  0.79026600620E+03  0.50400001928E-02 0.  1.
    10030    2    1    2    0    0  0.00000000000E+00  0.00000000000E+00 -0.33445850752E+03  0.12460735049E+04  0.12003485687E+04 0.  0.
        2    1    3    3  502    0 -0.54764677988E+03  0.22392848729E+03 -0.62653506477E+02  0.59496758299E+03  0.25500000920E-02 0.  1.
       -2    1    3    3    0  502  0.54764677988E+03 -0.22392848729E+03 -0.27180500105E+03  0.65110592190E+03  0.25500000920E-02 0. -1.
</event>
<event>
 5   0  0.9070772E-04  0.1200279E+04  0.7818609E-02  0.9112613E-01
        2   -1    0    0  501    0  0.00000000000E+00  0.00000000000E+00  0.18496106161E+04  0.18496106161E+04  0.25500000920E-02 0.  1.
       -2   -1    0    0    0  501  0.00000000000E+00  0.00000000000E+00 -0.19472592968E+03  0.19472592969E+03  0.25500000920E-02 0. -1.
    10030    2    1    2    0    0  0.00000000000E+00  0.00000000000E+00  0.16548846864E+04  0.20443365458E+04  0.12002785456E+04 0.  0.
        4    1    3    3  502    0 -0.26177995631E+03 -0.30681982074E+02  0.17457525936E+04  0.17655378389E+04  0.12699999809E+01 0.  1.
       -4    1    3    3    0  502  0.26177995631E+03  0.30681982074E+02 -0.90867907145E+02  0.27879870695E+03  0.12699999809E+01 0. -1.
</event>
<event>
 5   0  0.9410666E-04  0.1203479E+04  0.7818609E-02  0.9109817E-01
       -2   -1    0    0    0  501  0.00000000000E+00  0.00000000000E+00  0.17179805197E+03  0.17179805199E+03  0.25500000920E-02 0.  1.
        2   -1    0    0  501    0  0.00000000000E+00  0.00000000000E+00 -0.21076511870E+04  0.21076511870E+04  0.25500000920E-02 0. -1.
    10030    2    1    2    0    0  0.00000000000E+00  0.00000000000E+00 -0.19358531350E+04  0.22794492390E+04  0.12034789041E+04 0.  0.
        2    1    3    3  502    0 -0.41342214991E+03 -0.27886048166E+03 -0.33008057985E+03  0.59802527662E+03  0.25500000920E-02 0.  1.
       -2    1    3    3    0  502  0.41342214991E+03  0.27886048166E+03 -0.16057725551E+04  0.16814239623E+04  0.25500000920E-02 0. -1.
</event>
<event>
 5   0  0.5003507E-04  0.1201818E+04  0.7818609E-02  0.9111267E-01
        1   -1    0    0  501    0  0.00000000000E+00  0.00000000000E+00  0.13337227575E+04  0.13337227575E+04  0.50400001928E-02 0. -1.
       -1   -1    0    0    0  501  0.00000000000E+00  0.00000000000E+00 -0.27073943939E+03  0.27073943943E+03  0.50400001928E-02 0.  1.
    10030    2    1    2    0    0  0.00000000000E+00  0.00000000000E+00  0.10629833181E+04  0.16044621969E+04  0.12018175431E+04 0.  0.
        3    1    3    3  502    0 -0.22218749076E+03  0.55300463257E+03  0.63412355882E+03  0.87022646636E+03  0.10100000352E+00 0. -1.
       -3    1    3    3    0  502  0.22218749076E+03 -0.55300463257E+03  0.42885975925E+03  0.73423573054E+03  0.10100000352E+00 0.  1.
</event>
<event>
 5   0  0.5447074E-04  0.1202456E+04  0.7818609E-02  0.9110710E-01
       -1   -1    0    0    0  501  0.00000000000E+00  0.00000000000E+00  0.19820038309E+03  0.19820038315E+03  0.50400001928E-02 0.  1.
        1   -1    0    0  501    0  0.00000000000E+00  0.00000000000E+00 -0.18237851308E+04  0.18237851308E+04  0.50400001928E-02 0. -1.
    10030    2    1    2    0    0  0.00000000000E+00  0.00000000000E+00 -0.16255847477E+04  0.20219855139E+04  0.12024556735E+04 0.  0.
        4    1    3    3  502    0  0.41638833965E+03 -0.16008882110E+03 -0.13501089278E+03  0.46608715290E+03  0.12699999809E+01 0.  1.
       -4    1    3    3    0  502 -0.41638833965E+03  0.16008882110E+03 -0.14905738549E+04  0.15558983610E+04  0.12699999809E+01 0. -1.
</event>
<event>
 5   0  0.5157631E-04  0.1196813E+04  0.7818609E-02  0.9115651E-01
        1   -1    0    0  501    0  0.00000000000E+00  0.00000000000E+00  0.16872352238E+04  0.16872352238E+04  0.50400001928E-02 0.  1.
       -1   -1    0    0    0  501  0.00000000000E+00  0.00000000000E+00 -0.21223496637E+03  0.21223496643E+03  0.50400001928E-02 0. -1.
    10030    2    1    2    0    0  0.00000000000E+00  0.00000000000E+00  0.14750002574E+04  0.18994701902E+04  0.11968129529E+04 0.  0.
        5    1    3    3  502    0 -0.37824436293E+03 -0.30723503245E+02  0.14717931254E+04  0.15199374414E+04  0.46999998093E+01 0.  1.
       -5    1    3    3    0  502  0.37824436293E+03  0.30723503245E+02  0.32071320125E+01  0.37953274883E+03  0.46999998093E+01 0. -1.
</event>
<event>
 5   0  0.5447074E-04  0.1202584E+04  0.7818609E-02  0.9110598E-01
       -1   -1    0    0    0  501  0.00000000000E+00  0.00000000000E+00  0.61124141257E+03  0.61124141259E+03  0.50400001928E-02 0.  1.
        1   -1    0    0  501    0  0.00000000000E+00  0.00000000000E+00 -0.59150446783E+03  0.59150446785E+03  0.50400001928E-02 0. -1.
    10030    2    1    2    0    0  0.00000000000E+00  0.00000000000E+00  0.19736944739E+02  0.12027458804E+04  0.12025839289E+04 0.  0.
        4    1    3    3  502    0  0.38438473320E+03 -0.39194412897E+03  0.25521475782E+03  0.60539904927E+03  0.12699999809E+01 0.  1.
       -4    1    3    3    0  502 -0.38438473320E+03  0.39194412897E+03 -0.23547781308E+03  0.59734683117E+03  0.12699999809E+01 0. -1.
</event>
<event>
 5   0  0.5001586E-04  0.1194186E+04  0.7818609E-02  0.9117961E-01
        1   -1    0    0  501    0  0.00000000000E+00  0.00000000000E+00  0.99478171744E+03  0.99478171745E+03  0.50400001928E-02 0.  1.
       -1   -1    0    0    0  501  0.00000000000E+00  0.00000000000E+00 -0.35839015114E+03  0.35839015118E+03  0.50400001928E-02 0. -1.
    10030    2    1    2    0    0  0.00000000000E+00  0.00000000000E+00  0.63639156630E+03  0.13531718686E+04  0.11941858651E+04 0.  0.
        1    1    3    3  502    0  0.10122185553E+03  0.38656690001E+03 -0.18453776170E+03  0.44015226654E+03  0.50400001928E-02 0. -1.
       -1    1    3    3    0  502 -0.10122185553E+03 -0.38656690001E+03  0.82092932800E+03  0.91301960209E+03  0.50400001928E-02 0.  1.
</event>
<event>
 5   0  0.9145224E-04  0.1210443E+04  0.7818609E-02  0.9103765E-01
        2   -1    0    0  501    0  0.00000000000E+00  0.00000000000E+00  0.15226325419E+04  0.15226325419E+04  0.25500000920E-02 0. -1.
       -2   -1    0    0    0  501  0.00000000000E+00  0.00000000000E+00 -0.24056557214E+03  0.24056557216E+03  0.25500000920E-02 0.  1.
    10030    2    1    2    0    0  0.00000000000E+00  0.00000000000E+00  0.12820669698E+04  0.17631981141E+04  0.12104428423E+04 0.  0.
        5    1    3    3  502    0  0.31626988309E+02  0.45939186693E+03  0.68974425272E+02  0.46564011332E+03  0.46999998093E+01 0.  1.
       -5    1    3    3    0  502 -0.31626988309E+02 -0.45939186693E+03  0.12130925445E+04  0.12975580008E+04  0.46999998093E+01 0. -1.
</event>
<event>
 5   0  0.5447074E-04  0.1199755E+04  0.7818609E-02  0.9113071E-01
        1   -1    0    0  501    0  0.00000000000E+00  0.00000000000E+00  0.58706895128E+03  0.58706895131E+03  0.50400001928E-02 0. -1.
       -1   -1    0    0    0  501  0.00000000000E+00  0.00000000000E+00 -0.61296538502E+03  0.61296538504E+03  0.50400001928E-02 0.  1.
    10030    2    1    2    0    0  0.00000000000E+00  0.00000000000E+00 -0.25896433739E+02  0.12000343363E+04  0.11997548846E+04 0.  0.
        4    1    3    3  502    0  0.10290078297E+03 -0.55552174351E+02 -0.60145310402E+03  0.61271695297E+03  0.12699999809E+01 0.  1.
       -4    1    3    3    0  502 -0.10290078297E+03  0.55552174351E+02  0.57555667029E+03  0.58731738338E+03  0.12699999809E+01 0. -1.
</event>
<event>
 5   0  0.3453625E-04  0.1203473E+04  0.7818609E-02  0.9109822E-01
       -4   -1    0    0    0  501  0.00000000000E+00  0.00000000000E+00  0.65798076487E+03  0.65798199052E+03  0.12699999809E+01 0.  1.
        4   -1    0    0  501    0  0.00000000000E+00  0.00000000000E+00 -0.55029751613E+03  0.55029898161E+03  0.12699999809E+01 0. -1.
    10030    2    1    2    0    0  0.00000000000E+00  0.00000000000E+00  0.10768324874E+03  0.12082809721E+04  0.12034729850E+04 0.  0.
        3    1    3    3  502    0  0.33479144624E+03 -0.68918723454E+01  0.55579297099E+03  0.64887490874E+03  0.10100000352E+00 0.  1.
       -3    1    3    3    0  502 -0.33479144624E+03  0.68918723454E+01 -0.44810972225E+03  0.55940606339E+03  0.10100000352E+00 0. -1.
</event>
<event>
 5   0  0.9050363E-04  0.1210544E+04  0.7818609E-02  0.9103677E-01
       -2   -1    0    0    0  501  0.00000000000E+00  0.00000000000E+00  0.49055595785E+03  0.49055595786E+03  0.25500000920E-02 0. -1.
        2   -1    0    0  501    0  0.00000000000E+00  0.00000000000E+00 -0.74681425482E+03  0.74681425483E+03  0.25500000920E-02 0.  1.
    10030    2    1    2    0    0  0.00000000000E+00  0.00000000000E+00 -0.25625829697E+03  0.12373702127E+04  0.12105439804E+04 0.  0.
        3    1    3    3  502    0  0.13758762393E+03 -0.24857248081E+03  0.41816331073E+03  0.50554841224E+03  0.10100000352E+00 0. -1.
       -3    1    3    3    0  502 -0.13758762393E+03  0.24857248081E+03 -0.67442160770E+03  0.73182180045E+03  0.10100000352E+00 0.  1.
</event>
<event>
 5   0  0.9050363E-04  0.1202678E+04  0.7818609E-02  0.9110516E-01
       -2   -1    0    0    0  501  0.00000000000E+00  0.00000000000E+00  0.35348587119E+03  0.35348587120E+03  0.25500000920E-02 0. -1.
        2   -1    0    0  501    0  0.00000000000E+00  0.00000000000E+00 -0.10229792328E+04  0.10229792328E+04  0.25500000920E-02 0.  1.
    10030    2    1    2    0    0  0.00000000000E+00  0.00000000000E+00 -0.66949336158E+03  0.13764651040E+04  0.12026781869E+04 0.  0.
        3    1    3    3  502    0  0.45706765889E+03  0.14696692906E+03 -0.74914191503E+03  0.88978859405E+03  0.10100000352E+00 0.  1.
       -3    1    3    3    0  502 -0.45706765889E+03 -0.14696692906E+03  0.79648553447E+02  0.48667650992E+03  0.10100000352E+00 0. -1.
</event>
<event>
 5   0  0.5157631E-04  0.1202730E+04  0.7818609E-02  0.9110470E-01
       -1   -1    0    0    0  501  0.00000000000E+00  0.00000000000E+00  0.53211080339E+03  0.53211080342E+03  0.50400001928E-02 0.  1.
        1   -1    0    0  501    0  0.00000000000E+00  0.00000000000E+00 -0.67963319207E+03  0.67963319209E+03  0.50400001928E-02 0. -1.
    10030    2    1    2    0    0  0.00000000000E+00  0.00000000000E+00 -0.14752238868E+03  0.12117439955E+04  0.12027304999E+04 0.  0.
        5    1    3    3  502    0  0.51531157542E+03  0.97831029799E+02 -0.37007608522E+03  0.64194651569E+03  0.46999998093E+01 0. -1.
       -5    1    3    3    0  502 -0.51531157542E+03 -0.97831029799E+02  0.22255369655E+03  0.56979747982E+03  0.46999998093E+01 0.  1.
</event>
<event>
 5   0  0.9145224E-04  0.1217364E+04  0.7818609E-02  0.9097792E-01
        2   -1    0    0  501    0  0.00000000000E+00  0.00000000000E+00  0.42455109523E+03  0.42455109524E+03  0.25500000920E-02 0.  1.
       -2   -1    0    0    0  501  0.00000000000E+00  0.00000000000E+00 -0.87267230507E+03  0.87267230507E+03  0.25500000920E-02 0. -1.
    10030    2    1    2    0    0  0.00000000000E+00  0.00000000000E+00 -0.44812120984E+03  0.12972234003E+04  0.12173643381E+04 0.  0.
        5    1    3    3  502    0 -0.12212672163E+03  0.40100707638E+03 -0.69431541445E+03  0.81105955157E+03  0.46999998093E+01 0. -1.
       -5    1    3    3    0  502  0.12212672163E+03 -0.40100707638E+03  0.24619420461E+03  0.48616384874E+03  0.46999998093E+01 0.  1.
</event>
<event>
 5   0  0.9050363E-04  0.1205906E+04  0.7818609E-02  0.9107703E-01
       -2   -1    0    0    0  501  0.00000000000E+00  0.00000000000E+00  0.42962743650E+03  0.42962743651E+03  0.25500000920E-02 0.  1.
        2   -1    0    0  501    0  0.00000000000E+00  0.00000000000E+00 -0.84620299658E+03  0.84620299658E+03  0.25500000920E-02 0. -1.
    10030    2    1    2    0    0  0.00000000000E+00  0.00000000000E+00 -0.41657556008E+03  0.12758304331E+04  0.12059055090E+04 0.  0.
        3    1    3    3  502    0  0.42701139866E+03  0.40460761200E+03 -0.34826992390E+03  0.68362124336E+03  0.10100000352E+00 0. -1.
       -3    1    3    3    0  502 -0.42701139866E+03 -0.40460761200E+03 -0.68305636180E+02  0.59220918974E+03  0.10100000352E+00 0.  1.
</event>
<event>
 5   0  0.5003507E-04  0.1198280E+04  0.7818609E-02  0.9114364E-01
        1   -1    0    0  501    0  0.00000000000E+00  0.00000000000E+00  0.29172489885E+04  0.29172489885E+04  0.50400001928E-02 0. -1.
       -1   -1    0    0    0  501  0.00000000000E+00  0.00000000000E+00 -0.12305035070E+03  0.12305035080E+03  0.50400001928E-02 0.  1.
    10030    2    1    2    0    0  0.00000000000E+00  0.00000000000E+00  0.27941986378E+04  0.30402993393E+04  0.11982796189E+04 0.  0.
        3    1    3    3  502    0  0.25735601570E+03  0.36944785226E+03  0.24000065751E+04  0.24418753868E+04  0.10100000352E+00 0. -1.
       -3    1    3    3    0  502 -0.25735601570E+03 -0.36944785226E+03  0.39419206277E+03  0.59842395248E+03  0.10100000352E+00 0.  1.
</event>
<event>
 5   0  0.5003507E-04  0.1200220E+04  0.7818609E-02  0.9112664E-01
        1   -1    0    0  501    0  0.00000000000E+00  0.00000000000E+00  0.11904647699E+04  0.11904647699E+04  0.50400001928E-02 0.  1.
       -1   -1    0    0    0  501  0.00000000000E+00  0.00000000000E+00 -0.30251371354E+03  0.30251371358E+03  0.50400001928E-02 0. -1.
    10030    2    1    2    0    0  0.00000000000E+00  0.00000000000E+00  0.88795105634E+03  0.14929784835E+04  0.12002198439E+04 0.  0.
        3    1    3    3  502    0  0.22959006160E+03  0.35755608526E+03 -0.83150453826E+02  0.43298032133E+03  0.10100000352E+00 0. -1.
       -3    1    3    3    0  502 -0.22959006160E+03 -0.35755608526E+03  0.97110151017E+03  0.10599981621E+04  0.10100000352E+00 0.  1.
</event>
<event>
 5   0  0.5447074E-04  0.1200788E+04  0.7818609E-02  0.9112167E-01
       -1   -1    0    0    0  501  0.00000000000E+00  0.00000000000E+00  0.29905372391E+03  0.29905372395E+03  0.50400001928E-02 0.  1.
        1   -1    0    0  501    0  0.00000000000E+00  0.00000000000E+00 -0.12053788241E+04  0.12053788241E+04  0.50400001928E-02 0. -1.
    10030    2    1    2    0    0  0.00000000000E+00  0.00000000000E+00 -0.90632510018E+03  0.15044325481E+04  0.12007881180E+04 0.  0.
        4    1    3    3  502    0 -0.10709012185E+03 -0.58832260626E+03 -0.38593075891E+03  0.71171338810E+03  0.12699999809E+01 0.  1.
       -4    1    3    3    0  502  0.10709012185E+03  0.58832260626E+03 -0.52039434127E+03  0.79271915995E+03  0.12699999809E+01 0. -1.
</event>
<event>
 5   0  0.9050363E-04  0.1200096E+04  0.7818609E-02  0.9112773E-01
       -2   -1    0    0    0  501  0.00000000000E+00  0.00000000000E+00  0.25818077756E+03  0.25818077757E+03  0.25500000920E-02 0. -1.
        2   -1    0    0  501    0  0.00000000000E+00  0.00000000000E+00 -0.13945945881E+04  0.13945945881E+04  0.25500000920E-02 0.  1.
    10030    2    1    2    0    0  0.00000000000E+00  0.00000000000E+00 -0.11364138106E+04  0.16527753657E+04  0.12000958548E+04 0.  0.
        3    1    3    3  502    0  0.56466371113E+03 -0.15883945672E+03 -0.39409870075E+03  0.70667451901E+03  0.10100000352E+00 0.  1.
       -3    1    3    3    0  502 -0.56466371113E+03  0.15883945672E+03 -0.74231510982E+03  0.94610084671E+03  0.10100000352E+00 0. -1.
</event>
<event>
 5   0  0.3453625E-04  0.1203614E+04  0.7818609E-02  0.9109699E-01
        4   -1    0    0  501    0  0.00000000000E+00  0.00000000000E+00  0.46564786489E+03  0.46564959677E+03  0.12699999809E+01 0.  1.
       -4   -1    0    0    0  501  0.00000000000E+00  0.00000000000E+00 -0.77777633025E+03  0.77777736712E+03  0.12699999809E+01 0. -1.
    10030    2    1    2    0    0  0.00000000000E+00  0.00000000000E+00 -0.31212846536E+03  0.12434269639E+04  0.12036139064E+04 0.  0.
        1    1    3    3  502    0  0.34560846711E+03 -0.75927179999E+02 -0.65895300814E+03  0.74795000913E+03  0.50400001928E-02 0. -1.
       -1    1    3    3    0  502 -0.34560846711E+03  0.75927179999E+02  0.34682454278E+03  0.49547695476E+03  0.50400001928E-02 0.  1.
</event>
<event>
 5   0  0.9410666E-04  0.1197642E+04  0.7818609E-02  0.9114923E-01
       -2   -1    0    0    0  501  0.00000000000E+00  0.00000000000E+00  0.61607396105E+03  0.61607396105E+03  0.25500000920E-02 0.  1.
        2   -1    0    0  501    0  0.00000000000E+00  0.00000000000E+00 -0.58205099659E+03  0.58205099660E+03  0.25500000920E-02 0. -1.
    10030    2    1    2    0    0  0.00000000000E+00  0.00000000000E+00  0.34022964455E+02  0.11981249577E+04  0.11976417879E+04 0.  0.
        2    1    3    3  502    0 -0.29431984239E+03  0.42621138797E+03  0.31764252859E+03  0.60759945098E+03  0.25500000920E-02 0.  1.
       -2    1    3    3    0  502  0.29431984239E+03 -0.42621138797E+03 -0.28361956414E+03  0.59052550667E+03  0.25500000920E-02 0. -1.
</event>
<event>
 5   0  0.9050363E-04  0.1192399E+04  0.7818609E-02  0.9119536E-01
        2   -1    0    0  501    0  0.00000000000E+00  0.00000000000E+00  0.81797504491E+03  0.81797504492E+03  0.25500000920E-02 0.  1.
       -2   -1    0    0    0  501  0.00000000000E+00  0.00000000000E+00 -0.43455316112E+03  0.43455316113E+03  0.25500000920E-02 0. -1.
    10030    2    1    2    0    0  0.00000000000E+00  0.00000000000E+00  0.38342188379E+03  0.12525282060E+04  0.11923986607E+04 0.  0.
        3    1    3    3  502    0  0.17939346237E+03 -0.55304022872E+03  0.33034396820E+03  0.66870221807E+03  0.10100000352E+00 0. -1.
       -3    1    3    3    0  502 -0.17939346237E+03  0.55304022872E+03  0.53077915592E+02  0.58382598798E+03  0.10100000352E+00 0.  1.
</event>
<event>
 5   0  0.5052959E-04  0.1229970E+04  0.7818609E-02  0.9087021E-01
       -1   -1    0    0    0  501  0.00000000000E+00  0.00000000000E+00  0.50493871847E+03  0.50493871849E+03  0.50400001928E-02 0. -1.
        1   -1    0    0  501    0  0.00000000000E+00  0.00000000000E+00 -0.74901424765E+03  0.74901424767E+03  0.50400001928E-02 0.  1.
    10030    2    1    2    0    0  0.00000000000E+00  0.00000000000E+00 -0.24407552918E+03  0.12539529662E+04  0.12299695839E+04 0.  0.
        2    1    3    3  502    0 -0.16495992217E+03 -0.29635422752E+03  0.40096500026E+03  0.52517667078E+03  0.25500000920E-02 0. -1.
       -2    1    3    3    0  502  0.16495992217E+03  0.29635422752E+03 -0.64504052944E+03  0.72877629539E+03  0.25500000920E-02 0.  1.
</event>
<event>
 5   0  0.5001586E-04  0.1196042E+04  0.7818609E-02  0.9116328E-01
       -1   -1    0    0    0  501  0.00000000000E+00  0.00000000000E+00  0.30265721798E+03  0.30265721803E+03  0.50400001928E-02 0.  1.
        1   -1    0    0  501    0  0.00000000000E+00  0.00000000000E+00 -0.11816299043E+04  0.11816299043E+04  0.50400001928E-02 0. -1.
    10030    2    1    2    0    0  0.00000000000E+00  0.00000000000E+00 -0.87897268632E+03  0.14842871223E+04  0.11960415036E+04 0.  0.
        1    1    3    3  502    0  0.26914686645E+03 -0.48860582704E+03 -0.17201382998E+03  0.58375032991E+03  0.50400001928E-02 0.  1.
       -1    1    3    3    0  502 -0.26914686645E+03  0.48860582704E+03 -0.70695885634E+03  0.90053679243E+03  0.50400001928E-02 0. -1.
</event>
<event>
 5   0  0.9050363E-04  0.1199606E+04  0.7818609E-02  0.9113201E-01
       -2   -1    0    0    0  501  0.00000000000E+00  0.00000000000E+00  0.76208000906E+03  0.76208000907E+03  0.25500000920E-02 0.  1.
        2   -1    0    0  501    0  0.00000000000E+00  0.00000000000E+00 -0.47208123400E+03  0.47208123401E+03  0.25500000920E-02 0. -1.
    10030    2    1    2    0    0  0.00000000000E+00  0.00000000000E+00  0.28999877507E+03  0.12341612431E+04  0.11996060538E+04 0.  0.
        3    1    3    3  502    0 -0.27185829921E+03  0.29867155369E+02  0.69419716596E+03  0.74612914247E+03  0.10100000352E+00 0.  1.
       -3    1    3    3    0  502  0.27185829921E+03 -0.29867155369E+02 -0.40419839089E+03  0.48803210060E+03  0.10100000352E+00 0. -1.
</event>
<event>
 5   0  0.9145224E-04  0.1169207E+04  0.7818609E-02  0.9140245E-01
        2   -1    0    0  501    0  0.00000000000E+00  0.00000000000E+00  0.68728239542E+03  0.68728239542E+03  0.25500000920E-02 0. -1.
       -2   -1    0    0    0  501  0.00000000000E+00  0.00000000000E+00 -0.49726443876E+03  0.49726443877E+03  0.25500000920E-02 0.  1.
    10030    2    1    2    0    0  0.00000000000E+00  0.00000000000E+00  0.19001795665E+03  0.11845468342E+04  0.11692067305E+04 0.  0.
        5    1    3    3  502    0  0.44907036618E+03 -0.14710522105E+03 -0.25364988824E+03  0.53634363578E+03  0.46999998093E+01 0. -1.
       -5    1    3    3    0  502 -0.44907036618E+03  0.14710522105E+03  0.44366784489E+03  0.64820319841E+03  0.46999998093E+01 0.  1.
</event>
<event>
 5   0  0.5003507E-04  0.1176261E+04  0.7818609E-02  0.9133892E-01
       -1   -1    0    0    0  501  0.00000000000E+00  0.00000000000E+00  0.29951723669E+03  0.29951723673E+03  0.50400001928E-02 0. -1.
        1   -1    0    0  501    0  0.00000000000E+00  0.00000000000E+00 -0.11548506273E+04  0.11548506273E+04  0.50400001928E-02 0.  1.
    10030    2    1    2    0    0  0.00000000000E+00  0.00000000000E+00 -0.85533339059E+03  0.14543678640E+04  0.11762613123E+04 0.  0.
        3    1    3    3  502    0 -0.31122593882E+03  0.38249034187E+03 -0.31357321804E+02  0.49410903498E+03  0.10100000352E+00 0.  1.
       -3    1    3    3    0  502  0.31122593882E+03 -0.38249034187E+03 -0.82397606878E+03  0.96025882904E+03  0.10100000352E+00 0. -1.
</event>
<event>
 5   0  0.5052959E-04  0.1202909E+04  0.7818609E-02  0.9110314E-01
        1   -1    0    0  501    0  0.00000000000E+00  0.00000000000E+00  0.91172166366E+03  0.91172166367E+03  0.50400001928E-02 0. -1.
       -1   -1    0    0    0  501  0.00000000000E+00  0.00000000000E+00 -0.39677406398E+03  0.39677406401E+03  0.50400001928E-02 0.  1.
    10030    2    1    2    0    0  0.00000000000E+00  0.00000000000E+00  0.51494759968E+03  0.13084957277E+04  0.12029089903E+04 0.  0.
        2    1    3    3  502    0  0.17051325435E+03  0.42931786306E+02 -0.36819099583E+03  0.40802269251E+03  0.25500000920E-02 0.  1.
       -2    1    3    3    0  502 -0.17051325435E+03 -0.42931786306E+02  0.88313859552E+03  0.90047303518E+03  0.25500000920E-02 0. -1.
</event>
<event>
 5   0  0.5052959E-04  0.1198047E+04  0.7818609E-02  0.9114568E-01
        1   -1    0    0  501    0  0.00000000000E+00  0.00000000000E+00  0.83142354693E+03  0.83142354695E+03  0.50400001928E-02 0. -1.
       -1   -1    0    0    0  501  0.00000000000E+00  0.00000000000E+00 -0.43158401638E+03  0.43158401641E+03  0.50400001928E-02 0.  1.
    10030    2    1    2    0    0  0.00000000000E+00  0.00000000000E+00  0.39983953056E+03  0.12630075634E+04  0.11980469335E+04 0.  0.
        2    1    3    3  502    0 -0.57690517070E+03  0.65644639412E+01  0.30041283185E+02  0.57772410964E+03  0.25500000920E-02 0.  1.
       -2    1    3    3    0  502  0.57690517070E+03 -0.65644639412E+01  0.36979824737E+03  0.68528345371E+03  0.25500000920E-02 0. -1.
</event>
<event>
 5   0  0.9070772E-04  0.1206013E+04  0.7818609E-02  0.9107610E-01
       -2   -1    0    0    0  501  0.00000000000E+00  0.00000000000E+00  0.36753625272E+03  0.36753625273E+03  0.25500000920E-02 0. -1.
        2   -1    0    0  501    0  0.00000000000E+00  0.00000000000E+00 -0.98933521603E+03  0.98933521604E+03  0.25500000920E-02 0.  1.
    10030    2    1    2    0    0  0.00000000000E+00  0.00000000000E+00 -0.62179896331E+03  0.13568714688E+04  0.12060125339E+04 0.  0.
        4    1    3    3  502    0 -0.58689839037E+01  0.38116784435E+03 -0.83656002050E+03  0.91932456257E+03  0.12699999809E+01 0.  1.
       -4    1    3    3    0  502  0.58689839037E+01 -0.38116784435E+03  0.21476105719E+03  0.43754690620E+03  0.12699999809E+01 0. -1.
</event>
<event>
 5   0  0.5157631E-04  0.1198431E+04  0.7818609E-02  0.9114231E-01
       -1   -1    0    0    0  501  0.00000000000E+00  0.00000000000E+00  0.44131126335E+03  0.44131126338E+03  0.50400001928E-02 0. -1.
        1   -1    0    0  501    0  0.00000000000E+00  0.00000000000E+00 -0.81361964518E+03  0.81361964519E+03  0.50400001928E-02 0.  1.
    10030    2    1    2    0    0  0.00000000000E+00  0.00000000000E+00 -0.37230838182E+03  0.12549309086E+04  0.11984314975E+04 0.  0.
        5    1    3    3  502    0  0.21488175730E+03  0.16314106032E+03  0.37409084886E+03  0.46125397384E+03  0.46999998093E+01 0. -1.
       -5    1    3    3    0  502 -0.21488175730E+03 -0.16314106032E+03 -0.74639923068E+03  0.79367693474E+03  0.46999998093E+01 0.  1.
</event>
<event>
 5   0  0.9145224E-04  0.1200909E+04  0.7818609E-02  0.9112061E-01
        2   -1    0    0  501    0  0.00000000000E+00  0.00000000000E+00  0.29194506367E+03  0.29194506368E+03  0.25500000920E-02 0.  1.
       -2   -1    0    0    0  501  0.00000000000E+00  0.00000000000E+00 -0.12349776539E+04  0.12349776539E+04  0.25500000920E-02 0. -1.
    10030    2    1    2    0    0  0.00000000000E+00  0.00000000000E+00 -0.94303259025E+03  0.15269227176E+04  0.12009090387E+04 0.  0.
        5    1    3    3  502    0 -0.58585037320E+03  0.12879786205E+03 -0.43754178200E+03  0.74247858558E+03  0.46999998093E+01 0.  1.
       -5    1    3    3    0  502  0.58585037320E+03 -0.12879786205E+03 -0.50549080825E+03  0.78444413203E+03  0.46999998093E+01 0. -1.
</event>
<event>
 5   0  0.5052959E-04  0.1211717E+04  0.7818609E-02  0.9102662E-01
       -1   -1    0    0    0  501  0.00000000000E+00  0.00000000000E+00  0.36323050798E+03  0.36323050802E+03  0.50400001928E-02 0.  1.
        1   -1    0    0  501    0  0.00000000000E+00  0.00000000000E+00 -0.10105558705E+04  0.10105558705E+04  0.50400001928E-02 0. -1.
    10030    2    1    2    0    0  0.00000000000E+00  0.00000000000E+00 -0.64732536252E+03  0.13737863785E+04  0.12117173304E+04 0.  0.
        2    1    3    3  502    0 -0.54011831710E+03 -0.26286284124E+03 -0.23410310989E+03  0.64469290041E+03  0.25500000920E-02 0.  1.
       -2    1    3    3    0  502  0.54011831710E+03  0.26286284124E+03 -0.41322225262E+03  0.72909347812E+03  0.25500000920E-02 0. -1.
</event>
<event>
 5   0  0.9298693E-04  0.1204328E+04  0.7818609E-02  0.9109077E-01
        2   -1    0    0  501    0  0.00000000000E+00  0.00000000000E+00  0.25228344776E+03  0.25228344777E+03  0.25500000920E-02 0.  1.
       -2   -1    0    0    0  501  0.00000000000E+00  0.00000000000E+00 -0.14372777887E+04  0.14372777887E+04  0.25500000920E-02 0. -1.
    10030    2    1    2    0    0  0.00000000000E+00  0.00000000000E+00 -0.11849943409E+04  0.16895612364E+04  0.12043278556E+04 0.  0.
        1    1    3    3  502    0 -0.39489552345E+03  0.39271291907E+03 -0.91374621798E+03  0.10700925484E+04  0.50400001928E-02 0. -1.
       -1    1    3    3    0  502  0.39489552345E+03 -0.39271291907E+03 -0.27124812293E+03  0.61946868804E+03  0.50400001928E-02 0.  1.
</event>
<event>
 5   0  0.5157631E-04  0.1201319E+04  0.7818609E-02  0.9111703E-01
        1   -1    0    0  501    0  0.00000000000E+00  0.00000000000E+00  0.89243770466E+03  0.89243770468E+03  0.50400001928E-02 0. -1.
       -1   -1    0    0    0  501  0.00000000000E+00  0.00000000000E+00 -0.40427654501E+03  0.40427654505E+03  0.50400001928E-02 0.  1.
    10030    2    1    2    0    0  0.00000000000E+00  0.00000000000E+00  0.48816115965E+03  0.12967142497E+04  0.12013186620E+04 0.  0.
        5    1    3    3  502    0  0.39914626042E+03 -0.27212979435E+03  0.62935126616E+03  0.79339616107E+03  0.46999998093E+01 0. -1.
       -5    1    3    3    0  502 -0.39914626042E+03  0.27212979435E+03 -0.14119010652E+03  0.50331808865E+03  0.46999998093E+01 0.  1.
</event>
<event>
 5   0  0.5052959E-04  0.1201174E+04  0.7818609E-02  0.9111830E-01
       -1   -1    0    0    0  501  0.00000000000E+00  0.00000000000E+00  0.11086676531E+04  0.11086676531E+04  0.50400001928E-02 0. -1.
        1   -1    0    0  501    0  0.00000000000E+00  0.00000000000E+00 -0.32534963174E+03  0.32534963178E+03  0.50400001928E-02 0.  1.
    10030    2    1    2    0    0  0.00000000000E+00  0.00000000000E+00  0.78331802137E+03  0.14340172849E+04  0.12011737804E+04 0.  0.
        2    1    3    3  502    0 -0.68157717512E+02 -0.27382812752E+03 -0.24127936028E+03  0.37127220146E+03  0.25500000920E-02 0.  1.
       -2    1    3    3    0  502  0.68157717512E+02  0.27382812752E+03  0.10245973817E+04  0.10627450834E+04  0.25500000920E-02 0. -1.
</event>
<event>
 5   0  0.9410666E-04  0.1202415E+04  0.7818609E-02  0.9110745E-01
        2   -1    0    0  501    0  0.00000000000E+00  0.00000000000E+00  0.71900221226E+03  0.71900221227E+03  0.25500000920E-02 0. -1.
       -2   -1    0    0    0  501  0.00000000000E+00  0.00000000000E+00 -0.50271143978E+03  0.50271143978E+03  0.25500000920E-02 0.  1.
    10030    2    1    2    0    0  0.00000000000E+00  0.00000000000E+00  0.21629077249E+03  0.12217136520E+04  0.12024152982E+04 0.  0.
        2    1    3    3  502    0  0.27512498702E+03  0.39899815683E+03  0.46960403402E+03  0.67484904713E+03  0.25500000920E-02 0. -1.
       -2    1    3    3    0  502 -0.27512498702E+03 -0.39899815683E+03 -0.25331326153E+03  0.54686460492E+03  0.25500000920E-02 0.  1.
</event>
<event>
 5   0  0.9410666E-04  0.1200551E+04  0.7818609E-02  0.9112375E-01
        2   -1    0    0  501    0  0.00000000000E+00  0.00000000000E+00  0.66740454103E+03  0.66740454103E+03  0.25500000920E-02 0.  1.
       -2   -1    0    0    0  501  0.00000000000E+00  0.00000000000E+00 -0.53989809594E+03  0.53989809594E+03  0.25500000920E-02 0. -1.
    10030    2    1    2    0    0  0.00000000000E+00  0.00000000000E+00  0.12750644509E+03  0.12073026370E+04  0.12005506086E+04 0.  0.
        2    1    3    3  502    0  0.13313957690E+03  0.25307527822E+03  0.59450672559E+03  0.65970560871E+03  0.25500000920E-02 0.  1.
       -2    1    3    3    0  502 -0.13313957690E+03 -0.25307527822E+03 -0.46700028049E+03  0.54759702827E+03  0.25500000920E-02 0. -1.
</event>
<event>
 5   0  0.9070772E-04  0.1211295E+04  0.7818609E-02  0.9103027E-01
       -2   -1    0    0    0  501  0.00000000000E+00  0.00000000000E+00  0.62405206728E+03  0.62405206729E+03  0.25500000920E-02 0. -1.
        2   -1    0    0  501    0  0.00000000000E+00  0.00000000000E+00 -0.58778570521E+03  0.58778570522E+03  0.25500000920E-02 0.  1.
    10030    2    1    2    0    0  0.00000000000E+00  0.00000000000E+00  0.36266362069E+02  0.12118377725E+04  0.12112949838E+04 0.  0.
        4    1    3    3  502    0  0.30226572650E+03 -0.43752821621E+03 -0.27184452743E+03  0.59724079682E+03  0.12699999809E+01 0.  1.
       -4    1    3    3    0  502 -0.30226572650E+03  0.43752821621E+03  0.30811088949E+03  0.61459697569E+03  0.12699999809E+01 0. -1.
</event>
<event>
 5   0  0.9410666E-04  0.1182037E+04  0.7818609E-02  0.9128726E-01
       -2   -1    0    0    0  501  0.00000000000E+00  0.00000000000E+00  0.43048264244E+03  0.43048264245E+03  0.25500000920E-02 0. -1.
        2   -1    0    0  501    0  0.00000000000E+00  0.00000000000E+00 -0.81142144486E+03  0.81142144486E+03  0.25500000920E-02 0.  1.
    10030    2    1    2    0    0  0.00000000000E+00  0.00000000000E+00 -0.38093880242E+03  0.12419040873E+04  0.11820369668E+04 0.  0.
        2    1    3    3  502    0  0.98503123580E+02  0.52630414671E+03 -0.45334954739E+03  0.70158729487E+03  0.25500000920E-02 0.  1.
       -2    1    3    3    0  502 -0.98503123580E+02 -0.52630414671E+03  0.72410744969E+02  0.54031679244E+03  0.25500000920E-02 0. -1.
</event>
<event>
 5   0  0.9410666E-04  0.1198155E+04  0.7818609E-02  0.9114473E-01
       -2   -1    0    0    0  501  0.00000000000E+00  0.00000000000E+00  0.70892828453E+03  0.70892828453E+03  0.25500000920E-02 0. -1.
        2   -1    0    0  501    0  0.00000000000E+00  0.00000000000E+00 -0.50624817167E+03  0.50624817168E+03  0.25500000920E-02 0.  1.
    10030    2    1    2    0    0  0.00000000000E+00  0.00000000000E+00  0.20268011285E+03  0.12151764562E+04  0.11981546610E+04 0.  0.
        2    1    3    3  502    0  0.39605404612E+02 -0.25568540874E+02 -0.50436409904E+03  0.50656241744E+03  0.25500000920E-02 0.  1.
       -2    1    3    3    0  502 -0.39605404612E+02  0.25568540874E+02  0.70704421189E+03  0.70861403877E+03  0.25500000920E-02 0. -1.
</event>
<event>
 5   0  0.9050363E-04  0.1207994E+04  0.7818609E-02  0.9105888E-01
        2   -1    0    0  501    0  0.00000000000E+00  0.00000000000E+00  0.49700469538E+03  0.49700469539E+03  0.25500000920E-02 0. -1.
       -2   -1    0    0    0  501  0.00000000000E+00  0.00000000000E+00 -0.73402248171E+03  0.73402248171E+03  0.25500000920E-02 0.  1.
    10030    2    1    2    0    0  0.00000000000E+00  0.00000000000E+00 -0.23701778633E+03  0.12310271771E+04  0.12079944038E+04 0.  0.
        3    1    3    3  502    0 -0.45505268010E+03 -0.29775751676E+03 -0.38635126940E+03  0.66708304882E+03  0.10100000352E+00 0.  1.
       -3    1    3    3    0  502  0.45505268010E+03  0.29775751676E+03  0.14933348307E+03  0.56394412828E+03  0.10100000352E+00 0. -1.
</event>
<event>
 5   0  0.5447074E-04  0.1196105E+04  0.7818609E-02  0.9116273E-01
        1   -1    0    0  501    0  0.00000000000E+00  0.00000000000E+00  0.67765340257E+03  0.67765340259E+03  0.50400001928E-02 0. -1.
       -1   -1    0    0    0  501  0.00000000000E+00  0.00000000000E+00 -0.52780192298E+03  0.52780192301E+03  0.50400001928E-02 0.  1.
    10030    2    1    2    0    0  0.00000000000E+00  0.00000000000E+00  0.14985147959E+03  0.12054553256E+04  0.11961049603E+04 0.  0.
        4    1    3    3  502    0  0.59230184091E+03  0.78020989795E+02  0.47207821449E+02  0.59928201783E+03  0.12699999809E+01 0.  1.
       -4    1    3    3    0  502 -0.59230184091E+03 -0.78020989795E+02  0.10264365814E+03  0.60617330777E+03  0.12699999809E+01 0. -1.
</event>
<event>
 5   0  0.5001586E-04  0.1203745E+04  0.7818609E-02  0.9109585E-01
       -1   -1    0    0    0  501  0.00000000000E+00  0.00000000000E+00  0.37724591527E+03  0.37724591530E+03  0.50400001928E-02 0.  1.
        1   -1    0    0  501    0  0.00000000000E+00  0.00000000000E+00 -0.96025043783E+03  0.96025043784E+03  0.50400001928E-02 0. -1.
    10030    2    1    2    0    0  0.00000000000E+00  0.00000000000E+00 -0.58300452256E+03  0.13374963531E+04  0.12037450815E+04 0.  0.
        1    1    3    3  502    0 -0.44040745623E+03 -0.40443659628E+03 -0.36786138869E+03  0.70203254143E+03  0.50400001928E-02 0.  1.
       -1    1    3    3    0  502  0.44040745623E+03  0.40443659628E+03 -0.21514313387E+03  0.63546381171E+03  0.50400001928E-02 0. -1.
</event>
<event>
 5   0  0.5003507E-04  0.1199601E+04  0.7818609E-02  0.9113205E-01
        1   -1    0    0  501    0  0.00000000000E+00  0.00000000000E+00  0.15056068288E+04  0.15056068288E+04  0.50400001928E-02 0.  1.
       -1   -1    0    0    0  501  0.00000000000E+00  0.00000000000E+00 -0.23894745479E+03  0.23894745484E+03  0.50400001928E-02 0. -1.
    10030    2    1    2    0    0  0.00000000000E+00  0.00000000000E+00  0.12666593740E+04  0.17445542837E+04  0.11996014667E+04 0.  0.
        3    1    3    3  502    0  0.19967975281E+03 -0.56491822302E+03  0.67332384854E+03  0.90131549282E+03  0.10100000352E+00 0. -1.
       -3    1    3    3    0  502 -0.19967975281E+03  0.56491822302E+03  0.59333552548E+03  0.84323879084E+03  0.10100000352E+00 0.  1.
</event>
<event>
 5   0  0.5052959E-04  0.1197844E+04  0.7818609E-02  0.9114746E-01
        1   -1    0    0  501    0  0.00000000000E+00  0.00000000000E+00  0.11973301231E+04  0.11973301231E+04  0.50400001928E-02 0.  1.
       -1   -1    0    0    0  501  0.00000000000E+00  0.00000000000E+00 -0.29958946732E+03  0.29958946736E+03  0.50400001928E-02 0. -1.
    10030    2    1    2    0    0  0.00000000000E+00  0.00000000000E+00  0.89774065581E+03  0.14969195905E+04  0.11978438860E+04 0.  0.
        2    1    3    3  502    0 -0.37373737402E+03 -0.91025814875E+02 -0.12481530736E+03  0.40440596517E+03  0.25500000920E-02 0. -1.
       -2    1    3    3    0  502  0.37373737402E+03  0.91025814875E+02  0.10225559632E+04  0.10925136253E+04  0.25500000920E-02 0.  1.
</event>
<event>
 5   0  0.5003507E-04  0.1195695E+04  0.7818609E-02  0.9116633E-01
       -1   -1    0    0    0  501  0.00000000000E+00  0.00000000000E+00  0.76940021392E+03  0.76940021393E+03  0.50400001928E-02 0.  1.
        1   -1    0    0  501    0  0.00000000000E+00  0.00000000000E+00 -0.46454551412E+03  0.46454551415E+03  0.50400001928E-02 0. -1.
    10030    2    1    2    0    0  0.00000000000E+00  0.00000000000E+00  0.30485469980E+03  0.12339457281E+04  0.11956946399E+04 0.  0.
        3    1    3    3  502    0  0.58208473343E+01  0.18872709860E+03 -0.43296667727E+03  0.47234728096E+03  0.10100000352E+00 0. -1.
       -3    1    3    3    0  502 -0.58208473343E+01 -0.18872709860E+03  0.73782137706E+03  0.76159844712E+03  0.10100000352E+00 0.  1.
</event>
<event>
 5   0  0.9070772E-04  0.1202258E+04  0.7818609E-02  0.9110883E-01
       -2   -1    0    0    0  501  0.00000000000E+00  0.00000000000E+00  0.18320619179E+03  0.18320619181E+03  0.25500000920E-02 0.  1.
        2   -1    0    0  501    0  0.00000000000E+00  0.00000000000E+00 -0.19723993535E+04  0.19723993535E+04  0.25500000920E-02 0. -1.
    10030    2    1    2    0    0  0.00000000000E+00  0.00000000000E+00 -0.17891931617E+04  0.21556055453E+04  0.12022575003E+04 0.  0.
        4    1    3    3  502    0  0.16947548693E+03 -0.43596852951E+03 -0.21761598897E+03  0.51589614357E+03  0.12699999809E+01 0.  1.
       -4    1    3    3    0  502 -0.16947548693E+03  0.43596852951E+03 -0.15715771728E+04  0.16397094018E+04  0.12699999809E+01 0. -1.
</event>
<event>
 5   0  0.9070772E-04  0.1239550E+04  0.7818609E-02  0.9078926E-01
        2   -1    0    0  501    0  0.00000000000E+00  0.00000000000E+00  0.52199563867E+03  0.52199563867E+03  0.25500000920E-02 0. -1.
       -2   -1    0    0    0  501  0.00000000000E+00  0.00000000000E+00 -0.73587017486E+03  0.73587017487E+03  0.25500000920E-02 0.  1.
    10030    2    1    2    0    0  0.00000000000E+00  0.00000000000E+00 -0.21387453620E+03  0.12578658135E+04  0.12395499537E+04 0.  0.
        4    1    3    3  502    0  0.60380802070E+03  0.10754044926E+03 -0.19753317276E+03  0.64433690049E+03  0.12699999809E+01 0.  1.
       -4    1    3    3    0  502 -0.60380802070E+03 -0.10754044926E+03 -0.16341363433E+02  0.61352891305E+03  0.12699999809E+01 0. -1.
</event>
<event>
 5   0  0.9410666E-04  0.1199211E+04  0.7818609E-02  0.9113548E-01
       -2   -1    0    0    0  501  0.00000000000E+00  0.00000000000E+00  0.88071874764E+03  0.88071874764E+03  0.25500000920E-02 0.  1.
        2   -1    0    0  501    0  0.00000000000E+00  0.00000000000E+00 -0.40821941520E+03  0.40821941521E+03  0.25500000920E-02 0. -1.
    10030    2    1    2    0    0  0.00000000000E+00  0.00000000000E+00  0.47249933243E+03  0.12889381628E+04  0.11992105605E+04 0.  0.
        2    1    3    3  502    0 -0.33662915290E+03 -0.45809248049E+03  0.44119598584E+03  0.71959836380E+03  0.25500000920E-02 0. -1.
       -2    1    3    3    0  502  0.33662915290E+03  0.45809248049E+03  0.31303346593E+02  0.56933979904E+03  0.25500000920E-02 0.  1.
</event>
<event>
 5   0  0.3453625E-04  0.1198339E+04  0.7818609E-02  0.9114312E-01
        3   -1    0    0  501    0  0.00000000000E+00  0.00000000000E+00  0.58018398444E+03  0.58018399323E+03  0.10100000352E+00 0. -1.
       -3   -1    0    0    0  501  0.00000000000E+00  0.00000000000E+00 -0.61877621318E+03  0.61877622142E+03  0.10100000352E+00 0.  1.
    10030    2    1    2    0    0  0.00000000000E+00  0.00000000000E+00 -0.38592228744E+02  0.11989602147E+04  0.11983389488E+04 0.  0.
        2    1    3    3  502    0  0.47160057040E+03  0.18310045430E+03  0.30191734216E+03  0.58914086250E+03  0.25500000920E-02 0. -1.
       -2    1    3    3    0  502 -0.47160057040E+03 -0.18310045430E+03 -0.34050957090E+03  0.60981935215E+03  0.25500000920E-02 0.  1.
</event>
<event>
 5   0  0.5447074E-04  0.1201382E+04  0.7818609E-02  0.9111647E-01
        1   -1    0    0  501    0  0.00000000000E+00  0.00000000000E+00  0.20594547490E+04  0.20594547490E+04  0.50400001928E-02 0.  1.
       -1   -1    0    0    0  501  0.00000000000E+00  0.00000000000E+00 -0.17520654331E+03  0.17520654338E+03  0.50400001928E-02 0. -1.
    10030    2    1    2    0    0  0.00000000000E+00  0.00000000000E+00  0.18842482057E+04  0.22346612924E+04  0.12013824499E+04 0.  0.
        4    1    3    3  502    0 -0.12802969396E+03 -0.54186425240E+03  0.52280256145E+03  0.76376213687E+03  0.12699999809E+01 0. -1.
       -4    1    3    3    0  502  0.12802969396E+03  0.54186425240E+03  0.13614456442E+04  0.14708991555E+04  0.12699999809E+01 0.  1.
</event>
<event>
 5   0  0.5003507E-04  0.1199182E+04  0.7818609E-02  0.9113573E-01
        1   -1    0    0  501    0  0.00000000000E+00  0.00000000000E+00  0.65096493509E+03  0.65096493511E+03  0.50400001928E-02 0. -1.
       -1   -1    0    0    0  501  0.00000000000E+00  0.00000000000E+00 -0.55227129793E+03  0.55227129796E+03  0.50400001928E-02 0.  1.
    10030    2    1    2    0    0  0.00000000000E+00  0.00000000000E+00  0.98693637156E+02  0.12032362331E+04  0.11991818038E+04 0.  0.
        3    1    3    3  502    0  0.28054885231E+03  0.90594244901E+02 -0.47452402444E+03  0.55864840080E+03  0.10100000352E+00 0.  1.
       -3    1    3    3    0  502 -0.28054885231E+03 -0.90594244901E+02  0.57321766160E+03  0.64458783227E+03  0.10100000352E+00 0. -1.
</event>
<event>
 5   0  0.5447074E-04  0.1196222E+04  0.7818609E-02  0.9116170E-01
        1   -1    0    0  501    0  0.00000000000E+00  0.00000000000E+00  0.38858930144E+03  0.38858930147E+03  0.50400001928E-02 0.  1.
       -1   -1    0    0    0  501  0.00000000000E+00  0.00000000000E+00 -0.92060360208E+03  0.92060360210E+03  0.50400001928E-02 0. -1.
    10030    2    1    2    0    0  0.00000000000E+00  0.00000000000E+00 -0.53201430064E+03  0.13091929036E+04  0.11962219036E+04 0.  0.
        4    1    3    3  502    0 -0.50265492562E+03  0.31771868209E+03 -0.33632405868E+03  0.68317100388E+03  0.12699999809E+01 0.  1.
       -4    1    3    3    0  502  0.50265492562E+03 -0.31771868209E+03 -0.19569024196E+03  0.62602189969E+03  0.12699999809E+01 0. -1.
</event>
<event>
 5   0  0.5447074E-04  0.1198320E+04  0.7818609E-02  0.9114328E-01
       -1   -1    0    0    0  501  0.00000000000E+00  0.00000000000E+00  0.11337484057E+04  0.11337484057E+04  0.50400001928E-02 0.  1.
        1   -1    0    0  501    0  0.00000000000E+00  0.00000000000E+00 -0.31664236051E+03  0.31664236055E+03  0.50400001928E-02 0. -1.
    10030    2    1    2    0    0  0.00000000000E+00  0.00000000000E+00  0.81710604514E+03  0.14503907662E+04  0.11983201099E+04 0.  0.
        4    1    3    3  502    0 -0.55045452603E+03  0.12155988739E+03  0.65427015723E+03  0.86362494347E+03  0.12699999809E+01 0.  1.
       -4    1    3    3    0  502  0.55045452603E+03 -0.12155988739E+03  0.16283588791E+03  0.58676582274E+03  0.12699999809E+01 0. -1.
</event>
<event>
 5   0  0.9050363E-04  0.1198335E+04  0.7818609E-02  0.9114315E-01
       -2   -1    0    0    0  501  0.00000000000E+00  0.00000000000E+00  0.31699048040E+03  0.31699048041E+03  0.25500000920E-02 0. -1.
        2   -1    0    0  501    0  0.00000000000E+00  0.00000000000E+00 -0.11325309137E+04  0.11325309137E+04  0.25500000920E-02 0.  1.
    10030    2    1    2    0    0  0.00000000000E+00  0.00000000000E+00 -0.81554043325E+03  0.14495213941E+04  0.11983347085E+04 0.  0.
        3    1    3    3  502    0 -0.18970814490E+03  0.20434103759E+03 -0.10492725111E+04  0.10856874563E+04  0.10100000352E+00 0.  1.
       -3    1    3    3    0  502  0.18970814490E+03 -0.20434103759E+03  0.23373207786E+03  0.36383393782E+03  0.10100000352E+00 0. -1.
</event>
<event>
 5   0  0.9410666E-04  0.1202105E+04  0.7818609E-02  0.9111016E-01
        2   -1    0    0  501    0  0.00000000000E+00  0.00000000000E+00  0.16849391676E+04  0.16849391676E+04  0.25500000920E-02 0. -1.
       -2   -1    0    0    0  501  0.00000000000E+00  0.00000000000E+00 -0.21440779923E+03  0.21440779925E+03  0.25500000920E-02 0.  1.
    10030    2    1    2    0    0  0.00000000000E+00  0.00000000000E+00  0.14705313684E+04  0.18993469669E+04  0.12021049851E+04 0.  0.
        2    1    3    3  502    0 -0.27845926345E+02  0.14522718160E+01  0.16839166839E+04  0.16841475301E+04  0.25500000920E-02 0. -1.
       -2    1    3    3    0  502  0.27845926345E+02 -0.14522718160E+01 -0.21338531552E+03  0.21519943679E+03  0.25500000920E-02 0.  1.
</event>
<event>
 5   0  0.9050363E-04  0.1191650E+04  0.7818609E-02  0.9120197E-01
        2   -1    0    0  501    0  0.00000000000E+00  0.00000000000E+00  0.77122085660E+03  0.77122085661E+03  0.25500000920E-02 0.  1.
       -2   -1    0    0    0  501  0.00000000000E+00  0.00000000000E+00 -0.46031885163E+03  0.46031885163E+03  0.25500000920E-02 0. -1.
    10030    2    1    2    0    0  0.00000000000E+00  0.00000000000E+00  0.31090200498E+03  0.12315397082E+04  0.11916501149E+04 0.  0.
        3    1    3    3  502    0 -0.42012769039E+03  0.26449625884E+03 -0.18503436546E+03  0.52981437672E+03  0.10100000352E+00 0. -1.
       -3    1    3    3    0  502  0.42012769039E+03 -0.26449625884E+03  0.49593637044E+03  0.70172533152E+03  0.10100000352E+00 0.  1.
</event>
<event>
 5   0  0.9145224E-04  0.1193409E+04  0.7818609E-02  0.9118646E-01
       -2   -1    0    0    0  501  0.00000000000E+00  0.00000000000E+00  0.78271563350E+03  0.78271563350E+03  0.25500000920E-02 0.  1.
        2   -1    0    0  501    0  0.00000000000E+00  0.00000000000E+00 -0.45489823736E+03  0.45489823737E+03  0.25500000920E-02 0. -1.
    10030    2    1    2    0    0  0.00000000000E+00  0.00000000000E+00  0.32781739614E+03  0.12376138709E+04  0.11934085001E+04 0.  0.
        5    1    3    3  502    0  0.58333706317E+03 -0.10226275511E+03  0.88453189506E+02  0.59882038800E+03  0.46999998093E+01 0.  1.
       -5    1    3    3    0  502 -0.58333706317E+03  0.10226275511E+03  0.23936420664E+03  0.63879348287E+03  0.46999998093E+01 0. -1.
</event>
<event>
 5   0  0.5157631E-04  0.1200302E+04  0.7818609E-02  0.9112593E-01
       -1   -1    0    0    0  501  0.00000000000E+00  0.00000000000E+00  0.86481544138E+03  0.86481544140E+03  0.50400001928E-02 0.  1.
        1   -1    0    0  501    0  0.00000000000E+00  0.00000000000E+00 -0.41648301718E+03  0.41648301721E+03  0.50400001928E-02 0. -1.
    10030    2    1    2    0    0  0.00000000000E+00  0.00000000000E+00  0.44833242421E+03  0.12812984586E+04  0.12003015360E+04 0.  0.
        5    1    3    3  502    0  0.52648148802E+03 -0.75846450885E+02  0.52080943976E+03  0.74444610542E+03  0.46999998093E+01 0.  1.
       -5    1    3    3    0  502 -0.52648148802E+03  0.75846450885E+02 -0.72477015551E+02  0.53685235318E+03  0.46999998093E+01 0. -1.
</event>
<event>
 5   0  0.5052959E-04  0.1201056E+04  0.7818609E-02  0.9111933E-01
       -1   -1    0    0    0  501  0.00000000000E+00  0.00000000000E+00  0.11575753309E+03  0.11575753320E+03  0.50400001928E-02 0.  1.
        1   -1    0    0  501    0  0.00000000000E+00  0.00000000000E+00 -0.31154230446E+04  0.31154230446E+04  0.50400001928E-02 0. -1.
    10030    2    1    2    0    0  0.00000000000E+00  0.00000000000E+00 -0.29996655115E+04  0.32311805778E+04  0.12010556796E+04 0.  0.
        2    1    3    3  502    0 -0.51071406168E+02 -0.48696866789E+03 -0.24352120122E+04  0.24839493386E+04  0.25500000920E-02 0. -1.
       -2    1    3    3    0  502  0.51071406168E+02  0.48696866789E+03 -0.56445349922E+03  0.74723123919E+03  0.25500000920E-02 0.  1.
</event>
<event>
 5   0  0.5157631E-04  0.1201353E+04  0.7818609E-02  0.9111673E-01
        1   -1    0    0  501    0  0.00000000000E+00  0.00000000000E+00  0.84485233856E+03  0.84485233857E+03  0.50400001928E-02 0. -1.
       -1   -1    0    0    0  501  0.00000000000E+00  0.00000000000E+00 -0.42707126316E+03  0.42707126319E+03  0.50400001928E-02 0.  1.
    10030    2    1    2    0    0  0.00000000000E+00  0.00000000000E+00  0.41778107540E+03  0.12719236018E+04  0.12013528298E+04 0.  0.
        5    1    3    3  502    0 -0.23711086475E+03 -0.53298636790E+03  0.36045737420E+03  0.68574604567E+03  0.46999998093E+01 0. -1.
       -5    1    3    3    0  502  0.23711086475E+03  0.53298636790E+03  0.57323701200E+02  0.58617755609E+03  0.46999998093E+01 0.  1.
</event>
<event>
 5   0  0.9410666E-04  0.1195260E+04  0.7818609E-02  0.9117016E-01
        2   -1    0    0  501    0  0.00000000000E+00  0.00000000000E+00  0.11608041866E+04  0.11608041866E+04  0.25500000920E-02 0. -1.
       -2   -1    0    0    0  501  0.00000000000E+00  0.00000000000E+00 -0.30768461901E+03  0.30768461902E+03  0.25500000920E-02 0.  1.
    10030    2    1    2    0    0  0.00000000000E+00  0.00000000000E+00  0.85311956759E+03  0.14684888056E+04  0.11952599615E+04 0.  0.
        2    1    3    3  502    0 -0.18347383299E+03  0.52354508762E+03  0.69962695481E+03  0.89288296102E+03  0.25500000920E-02 0.  1.
       -2    1    3    3    0  502  0.18347383299E+03 -0.52354508762E+03  0.15349261278E+03  0.57560584461E+03  0.25500000920E-02 0. -1.
</event>
<event>
 5   0  0.9298693E-04  0.1199190E+04  0.7818609E-02  0.9113565E-01
       -2   -1    0    0    0  501  0.00000000000E+00  0.00000000000E+00  0.32941674689E+03  0.32941674690E+03  0.25500000920E-02 0.  1.
        2   -1    0    0  501    0  0.00000000000E+00  0.00000000000E+00 -0.10913665458E+04  0.10913665458E+04  0.25500000920E-02 0. -1.
    10030    2    1    2    0    0  0.00000000000E+00  0.00000000000E+00 -0.76194979892E+03  0.14207832927E+04  0.11991904222E+04 0.  0.
        1    1    3    3  502    0 -0.45240766810E+03  0.29959173872E+03 -0.78711766326E+02  0.54829139173E+03  0.50400001928E-02 0. -1.
       -1    1    3    3    0  502  0.45240766810E+03 -0.29959173872E+03 -0.68323803260E+03  0.87249190098E+03  0.50400001928E-02 0.  1.
</event>
<event>
 5   0  0.9298693E-04  0.1195212E+04  0.7818609E-02  0.9117058E-01
       -2   -1    0    0    0  501  0.00000000000E+00  0.00000000000E+00  0.45836002960E+03  0.45836002961E+03  0.25500000920E-02 0. -1.
        2   -1    0    0  501    0  0.00000000000E+00  0.00000000000E+00 -0.77915378306E+03  0.77915378306E+03  0.25500000920E-02 0.  1.
    10030    2    1    2    0    0  0.00000000000E+00  0.00000000000E+00 -0.32079375345E+03  0.12375138127E+04  0.11952120332E+04 0.  0.
        1    1    3    3  502    0 -0.75205705179E+02  0.93081261403E+01  0.45336520138E+03  0.45965481087E+03  0.50400001928E-02 0. -1.
       -1    1    3    3    0  502  0.75205705179E+02 -0.93081261403E+01 -0.77415895484E+03  0.77785900180E+03  0.50400001928E-02 0.  1.
</event>
<event>
 5   0  0.9050363E-04  0.1191603E+04  0.7818609E-02  0.9120238E-01
        2   -1    0    0  501    0  0.00000000000E+00  0.00000000000E+00  0.75388594264E+03  0.75388594265E+03  0.25500000920E-02 0. -1.
       -2   -1    0    0    0  501  0.00000000000E+00  0.00000000000E+00 -0.47086625963E+03  0.47086625964E+03  0.25500000920E-02 0.  1.
    10030    2    1    2    0    0  0.00000000000E+00  0.00000000000E+00  0.28301968301E+03  0.12247522023E+04  0.11916030447E+04 0.  0.
        3    1    3    3  502    0 -0.42395929478E+03  0.35719077496E+03 -0.82857906489E+02  0.56052847940E+03  0.10100000352E+00 0.  1.
       -3    1    3    3    0  502  0.42395929478E+03 -0.35719077496E+03  0.36587758950E+03  0.66422372289E+03  0.10100000352E+00 0. -1.
</event>
<event>
 5   0  0.5447074E-04  0.1197907E+04  0.7818609E-02  0.9114691E-01
       -1   -1    0    0    0  501  0.00000000000E+00  0.00000000000E+00  0.19542625878E+03  0.19542625885E+03  0.50400001928E-02 0.  1.
        1   -1    0    0  501    0  0.00000000000E+00  0.00000000000E+00 -0.18357061793E+04  0.18357061793E+04  0.50400001928E-02 0. -1.
    10030    2    1    2    0    0  0.00000000000E+00  0.00000000000E+00 -0.16402799205E+04  0.20311324382E+04  0.11979068260E+04 0.  0.
        4    1    3    3  502    0 -0.40207787690E+03 -0.22367328751E+03 -0.14703349383E+04  0.15406436324E+04  0.12699999809E+01 0. -1.
       -4    1    3    3    0  502  0.40207787690E+03  0.22367328751E+03 -0.16994498226E+03  0.49048880571E+03  0.12699999809E+01 0.  1.
</event>
<event>
 5   0  0.9050363E-04  0.1197168E+04  0.7818609E-02  0.9115339E-01
        2   -1    0    0  501    0  0.00000000000E+00  0.00000000000E+00  0.46056999199E+03  0.46056999199E+03  0.25500000920E-02 0.  1.
       -2   -1    0    0    0  501  0.00000000000E+00  0.00000000000E+00 -0.77795521909E+03  0.77795521909E+03  0.25500000920E-02 0. -1.
    10030    2    1    2    0    0  0.00000000000E+00  0.00000000000E+00 -0.31738522710E+03  0.12385252111E+04  0.11971680400E+04 0.  0.
        3    1    3    3  502    0 -0.43404854587E+03 -0.79600419142E+01  0.26766243582E+03  0.51000460017E+03  0.10100000352E+00 0.  1.
       -3    1    3    3    0  502  0.43404854587E+03  0.79600419142E+01 -0.58504766292E+03  0.72852061092E+03  0.10100000352E+00 0. -1.
</event>
<event>
 5   0  0.5052959E-04  0.1199381E+04  0.7818609E-02  0.9113398E-01
        1   -1    0    0  501    0  0.00000000000E+00  0.00000000000E+00  0.48715231419E+03  0.48715231422E+03  0.50400001928E-02 0. -1.
       -1   -1    0    0    0  501  0.00000000000E+00  0.00000000000E+00 -0.73822671576E+03  0.73822671578E+03  0.50400001928E-02 0.  1.
    10030    2    1    2    0    0  0.00000000000E+00  0.00000000000E+00 -0.25107440157E+03  0.12253790300E+04  0.11993812622E+04 0.  0.
        2    1    3    3  502    0  0.19349495783E+03  0.18519525730E+03 -0.67372256064E+03  0.72501011769E+03  0.25500000920E-02 0.  1.
       -2    1    3    3    0  502 -0.19349495783E+03 -0.18519525730E+03  0.42264815907E+03  0.50036891231E+03  0.25500000920E-02 0. -1.
</event>
<event>
 5   0  0.3453625E-04  0.1199146E+04  0.7818609E-02  0.9113604E-01
       -4   -1    0    0    0  501  0.00000000000E+00  0.00000000000E+00  0.40093147058E+03  0.40093348202E+03  0.12699999809E+01 0. -1.
        4   -1    0    0  501    0  0.00000000000E+00  0.00000000000E+00 -0.89662695601E+03  0.89662785544E+03  0.12699999809E+01 0.  1.
    10030    2    1    2    0    0  0.00000000000E+00  0.00000000000E+00 -0.49569548543E+03  0.12975613375E+04  0.11991461171E+04 0.  0.
        4    1    3    3  502    0  0.25170502796E+03 -0.10234828749E+03 -0.82617970893E+03  0.86971553821E+03  0.12699999809E+01 0.  1.
       -4    1    3    3    0  502 -0.25170502796E+03  0.10234828749E+03  0.33048422350E+03  0.42784579925E+03  0.12699999809E+01 0. -1.
</event>
<event>
 5   0  0.9050363E-04  0.1199692E+04  0.7818609E-02  0.9113126E-01
       -2   -1    0    0    0  501  0.00000000000E+00  0.00000000000E+00  0.22774068034E+03  0.22774068035E+03  0.25500000920E-02 0. -1.
        2   -1    0    0  501    0  0.00000000000E+00  0.00000000000E+00 -0.15799344826E+04  0.15799344826E+04  0.25500000920E-02 0.  1.
    10030    2    1    2    0    0  0.00000000000E+00  0.00000000000E+00 -0.13521938023E+04  0.18076751630E+04  0.11996922172E+04 0.  0.
        3    1    3    3  502    0  0.26648388552E+03  0.48378568784E+03 -0.10286746248E+04  0.11675760133E+04  0.10100000352E+00 0.  1.
       -3    1    3    3    0  502 -0.26648388552E+03 -0.48378568784E+03 -0.32351917755E+03  0.64009914970E+03  0.10100000352E+00 0. -1.
</event>
<event>
 5   0  0.5052959E-04  0.1195738E+04  0.7818609E-02  0.9116595E-01
        1   -1    0    0  501    0  0.00000000000E+00  0.00000000000E+00  0.44786455850E+03  0.44786455853E+03  0.50400001928E-02 0. -1.
       -1   -1    0    0    0  501  0.00000000000E+00  0.00000000000E+00 -0.79811457514E+03  0.79811457516E+03  0.50400001928E-02 0.  1.
    10030    2    1    2    0    0  0.00000000000E+00  0.00000000000E+00 -0.35025001664E+03  0.12459791337E+04  0.11957378172E+04 0.  0.
        2    1    3    3  502    0 -0.29270238369E+03 -0.32370518338E+03 -0.60093592053E+03  0.74268681943E+03  0.25500000920E-02 0.  1.
       -2    1    3    3    0  502  0.29270238369E+03  0.32370518338E+03  0.25068590389E+03  0.50329231425E+03  0.25500000920E-02 0. -1.
</event>
<event>
 5   0  0.5052959E-04  0.1205805E+04  0.7818609E-02  0.9107790E-01
       -1   -1    0    0    0  501  0.00000000000E+00  0.00000000000E+00  0.37402359477E+03  0.37402359480E+03  0.50400001928E-02 0. -1.
        1   -1    0    0  501    0  0.00000000000E+00  0.00000000000E+00 -0.97184166949E+03  0.97184166950E+03  0.50400001928E-02 0.  1.
    10030    2    1    2    0    0  0.00000000000E+00  0.00000000000E+00 -0.59781807472E+03  0.13458652643E+04  0.12058054815E+04 0.  0.
        2    1    3    3  502    0  0.47255396206E+03 -0.62624610361E+02 -0.71092373398E+03  0.85594488399E+03  0.25500000920E-02 0.  1.
       -2    1    3    3    0  502 -0.47255396206E+03  0.62624610361E+02  0.11310565926E+03  0.48992038031E+03  0.25500000920E-02 0. -1.
</event>
<event>
 5   0  0.5157631E-04  0.1177053E+04  0.7818609E-02  0.9133183E-01
       -1   -1    0    0    0  501  0.00000000000E+00  0.00000000000E+00  0.44353381335E+03  0.44353381338E+03  0.50400001928E-02 0. -1.
        1   -1    0    0  501    0  0.00000000000E+00  0.00000000000E+00 -0.78091744222E+03  0.78091744224E+03  0.50400001928E-02 0.  1.
    10030    2    1    2    0    0  0.00000000000E+00  0.00000000000E+00 -0.33738362887E+03  0.12244512556E+04  0.11770527449E+04 0.  0.
        5    1    3    3  502    0  0.32846951804E+03 -0.30232291902E+03 -0.56760449244E+03  0.72214148300E+03  0.46999998093E+01 0.  1.
       -5    1    3    3    0  502 -0.32846951804E+03  0.30232291902E+03  0.23022086357E+03  0.50230977261E+03  0.46999998093E+01 0. -1.
</event>
<event>
 5   0  0.9410666E-04  0.1198272E+04  0.7818609E-02  0.9114370E-01
        2   -1    0    0  501    0  0.00000000000E+00  0.00000000000E+00  0.84051486182E+03  0.84051486182E+03  0.25500000920E-02 0. -1.
       -2   -1    0    0    0  501  0.00000000000E+00  0.00000000000E+00 -0.42707659537E+03  0.42707659538E+03  0.25500000920E-02 0.  1.
    10030    2    1    2    0    0  0.00000000000E+00  0.00000000000E+00  0.41343826644E+03  0.12675914572E+04  0.11982724658E+04 0.  0.
        2    1    3    3  502    0  0.15914627172E+02 -0.13360391787E+03  0.82432632471E+03  0.83523480042E+03  0.25500000920E-02 0. -1.
       -2    1    3    3    0  502 -0.15914627172E+02  0.13360391787E+03 -0.41088805826E+03  0.43235665677E+03  0.25500000920E-02 0.  1.
</event>
<event>
 5   0  0.9410666E-04  0.1215754E+04  0.7818609E-02  0.9099178E-01
       -2   -1    0    0    0  501  0.00000000000E+00  0.00000000000E+00  0.26159396444E+03  0.26159396445E+03  0.25500000920E-02 0.  1.
        2   -1    0    0  501    0  0.00000000000E+00  0.00000000000E+00 -0.14125485715E+04  0.14125485715E+04  0.25500000920E-02 0. -1.
    10030    2    1    2    0    0  0.00000000000E+00  0.00000000000E+00 -0.11509546070E+04  0.16741425359E+04  0.12157535618E+04 0.  0.
        2    1    3    3  502    0 -0.28045289616E+03  0.34854081322E+03 -0.87456071487E+01  0.44744945089E+03  0.25500000920E-02 0.  1.
       -2    1    3    3    0  502  0.28045289616E+03 -0.34854081322E+03 -0.11422089999E+04  0.12266930850E+04  0.25500000920E-02 0. -1.
</event>
<event>
 5   0  0.5003507E-04  0.1199735E+04  0.7818609E-02  0.9113088E-01
       -1   -1    0    0    0  501  0.00000000000E+00  0.00000000000E+00  0.12347048627E+04  0.12347048627E+04  0.50400001928E-02 0.  1.
        1   -1    0    0  501    0  0.00000000000E+00  0.00000000000E+00 -0.29143902471E+03  0.29143902476E+03  0.50400001928E-02 0. -1.
    10030    2    1    2    0    0  0.00000000000E+00  0.00000000000E+00  0.94326583796E+03  0.15261438874E+04  0.11997352725E+04 0.  0.
        3    1    3    3  502    0  0.80540239057E+02 -0.17535980581E+03  0.11941439969E+04  0.12096353529E+04  0.10100000352E+00 0.  1.
       -3    1    3    3    0  502 -0.80540239057E+02  0.17535980581E+03 -0.25087815891E+03  0.31650853451E+03  0.10100000352E+00 0. -1.
</event>
<event>
 5   0  0.9070772E-04  0.1202846E+04  0.7818609E-02  0.9110369E-01
        2   -1    0    0  501    0  0.00000000000E+00  0.00000000000E+00  0.11849420194E+04  0.11849420194E+04  0.25500000920E-02 0. -1.
       -2   -1    0    0    0  501  0.00000000000E+00  0.00000000000E+00 -0.30525497767E+03  0.30525497768E+03  0.25500000920E-02 0.  1.
    10030    2    1    2    0    0  0.00000000000E+00  0.00000000000E+00  0.87968704175E+03  0.14901969971E+04  0.12028457086E+04 0.  0.
        4    1    3    3  502    0 -0.41675887755E+03 -0.42861629506E+03  0.35852885056E+03  0.69709715248E+03  0.12699999809E+01 0. -1.
       -4    1    3    3    0  502  0.41675887755E+03  0.42861629506E+03  0.52115819119E+03  0.79309984463E+03  0.12699999809E+01 0.  1.
</event>
<event>
 5   0  0.5001586E-04  0.1180291E+04  0.7818609E-02  0.9130285E-01
       -1   -1    0    0    0  501  0.00000000000E+00  0.00000000000E+00  0.20429867629E+03  0.20429867635E+03  0.50400001928E-02 0.  1.
        1   -1    0    0  501    0  0.00000000000E+00  0.00000000000E+00 -0.17047173079E+04  0.17047173079E+04  0.50400001928E-02 0. -1.
    10030    2    1    2    0    0  0.00000000000E+00  0.00000000000E+00 -0.15004186316E+04  0.19090159843E+04  0.11802906244E+04 0.  0.
        1    1    3    3  502    0 -0.11193585990E+03 -0.44818090760E+03 -0.13442107676E+04  0.14213719958E+04  0.50400001928E-02 0. -1.
       -1    1    3    3    0  502  0.11193585990E+03  0.44818090760E+03 -0.15620786400E+03  0.48764398845E+03  0.50400001928E-02 0.  1.
</event>
<event>
 5   0  0.9410666E-04  0.1193944E+04  0.7818609E-02  0.9118174E-01
        2   -1    0    0  501    0  0.00000000000E+00  0.00000000000E+00  0.18697735200E+04  0.18697735200E+04  0.25500000920E-02 0. -1.
       -2   -1    0    0    0  501  0.00000000000E+00  0.00000000000E+00 -0.19059831780E+03  0.19059831782E+03  0.25500000920E-02 0.  1.
    10030    2    1    2    0    0  0.00000000000E+00  0.00000000000E+00  0.16791752022E+04  0.20603718378E+04  0.11939441990E+04 0.  0.
        2    1    3    3  502    0  0.22302245486E+02  0.19818374555E+03  0.18105849847E+04  0.18215356636E+04  0.25500000920E-02 0. -1.
       -2    1    3    3    0  502 -0.22302245486E+02 -0.19818374555E+03 -0.13140978249E+03  0.23883617417E+03  0.25500000920E-02 0.  1.
</event>
<event>
 5   0  0.5003507E-04  0.1202351E+04  0.7818609E-02  0.9110801E-01
       -1   -1    0    0    0  501  0.00000000000E+00  0.00000000000E+00  0.75792325811E+03  0.75792325812E+03  0.50400001928E-02 0.  1.
        1   -1    0    0  501    0  0.00000000000E+00  0.00000000000E+00 -0.47684539056E+03  0.47684539059E+03  0.50400001928E-02 0. -1.
    10030    2    1    2    0    0  0.00000000000E+00  0.00000000000E+00  0.28107786754E+03  0.12347686487E+04  0.12023513830E+04 0.  0.
        3    1    3    3  502    0  0.79113593915E+02 -0.41823317578E+03 -0.29544737438E+03  0.51813811989E+03  0.10100000352E+00 0. -1.
       -3    1    3    3    0  502 -0.79113593915E+02  0.41823317578E+03  0.57652524192E+03  0.71663052882E+03  0.10100000352E+00 0.  1.
</event>
<event>
 5   0  0.9298693E-04  0.1193527E+04  0.7818609E-02  0.9118542E-01
       -2   -1    0    0    0  501  0.00000000000E+00  0.00000000000E+00  0.16562591300E+03  0.16562591302E+03  0.25500000920E-02 0. -1.
        2   -1    0    0  501    0  0.00000000000E+00  0.00000000000E+00 -0.21501855206E+04  0.21501855206E+04  0.25500000920E-02 0.  1.
    10030    2    1    2    0    0  0.00000000000E+00  0.00000000000E+00 -0.19845596076E+04  0.23158114337E+04  0.11935266063E+04 0.  0.
        1    1    3    3  502    0 -0.35427545842E+03  0.31799349483E+03 -0.16905096170E+04  0.17562612927E+04  0.50400001928E-02 0.  1.
       -1    1    3    3    0  502  0.35427545842E+03 -0.31799349483E+03 -0.29404999064E+03  0.55955014093E+03  0.50400001928E-02 0. -1.
</event>
<event>
 5   0  0.3453625E-04  0.1185501E+04  0.7818609E-02  0.9125643E-01
       -4   -1    0    0    0  501  0.00000000000E+00  0.00000000000E+00  0.81879334436E+03  0.81879432928E+03  0.12699999809E+01 0.  1.
        4   -1    0    0  501    0  0.00000000000E+00  0.00000000000E+00 -0.42910858083E+03  0.42911046019E+03  0.12699999809E+01 0. -1.
    10030    2    1    2    0    0  0.00000000000E+00  0.00000000000E+00  0.38968476352E+03  0.12479047895E+04  0.11855008008E+04 0.  0.
        4    1    3    3  502    0  0.69374761437E+02  0.18149718425E+03 -0.39463315177E+03  0.43987614483E+03  0.12699999809E+01 0. -1.
       -4    1    3    3    0  502 -0.69374761437E+02 -0.18149718425E+03  0.78431791529E+03  0.80802864464E+03  0.12699999809E+01 0.  1.
</event>
<event>
 5   0  0.5001586E-04  0.1194824E+04  0.7818609E-02  0.9117399E-01
       -1   -1    0    0    0  501  0.00000000000E+00  0.00000000000E+00  0.22685816434E+03  0.22685816440E+03  0.50400001928E-02 0. -1.
        1   -1    0    0  501    0  0.00000000000E+00  0.00000000000E+00 -0.15732356877E+04  0.15732356878E+04  0.50400001928E-02 0.  1.
    10030    2    1    2    0    0  0.00000000000E+00  0.00000000000E+00 -0.13463775234E+04  0.18000938522E+04  0.11948244394E+04 0.  0.
        1    1    3    3  502    0 -0.30229295729E+02  0.40596936533E+03 -0.13319199388E+04  0.13927439317E+04  0.50400001928E-02 0.  1.
       -1    1    3    3    0  502  0.30229295729E+02 -0.40596936533E+03 -0.14457584603E+02  0.40734992045E+03  0.50400001928E-02 0. -1.
</event>
<event>
 5   0  0.5447074E-04  0.1201257E+04  0.7818609E-02  0.9111757E-01
        1   -1    0    0  501    0  0.00000000000E+00  0.00000000000E+00  0.99554954222E+03  0.99554954223E+03  0.50400001928E-02 0.  1.
       -1   -1    0    0    0  501  0.00000000000E+00  0.00000000000E+00 -0.36236719626E+03  0.36236719629E+03  0.50400001928E-02 0. -1.
    10030    2    1    2    0    0  0.00000000000E+00  0.00000000000E+00  0.63318234596E+03  0.13579167385E+04  0.12012568358E+04 0.  0.
        4    1    3    3  502    0  0.10508576469E+03 -0.26623459933E+02  0.98439767129E+03  0.99034954167E+03  0.12699999809E+01 0.  1.
       -4    1    3    3    0  502 -0.10508576469E+03  0.26623459933E+02 -0.35121532532E+03  0.36756719685E+03  0.12699999809E+01 0. -1.
</event>
<event>
 5   0  0.5447074E-04  0.1202942E+04  0.7818609E-02  0.9110285E-01
       -1   -1    0    0    0  501  0.00000000000E+00  0.00000000000E+00  0.41989639859E+03  0.41989639862E+03  0.50400001928E-02 0. -1.
        1   -1    0    0  501    0  0.00000000000E+00  0.00000000000E+00 -0.86156366409E+03  0.86156366410E+03  0.50400001928E-02 0.  1.
    10030    2    1    2    0    0  0.00000000000E+00  0.00000000000E+00 -0.44166726550E+03  0.12814600627E+04  0.12029421927E+04 0.  0.
        4    1    3    3  502    0 -0.19258773313E+03  0.10468740728E+03  0.37582910218E+03  0.43508460688E+03  0.12699999809E+01 0. -1.
       -4    1    3    3    0  502  0.19258773313E+03 -0.10468740728E+03 -0.81749636768E+03  0.84637545585E+03  0.12699999809E+01 0.  1.
</event>
<event>
 5   0  0.9410666E-04  0.1203405E+04  0.7818609E-02  0.9109881E-01
        2   -1    0    0  501    0  0.00000000000E+00  0.00000000000E+00  0.43123421831E+03  0.43123421832E+03  0.25500000920E-02 0. -1.
       -2   -1    0    0    0  501  0.00000000000E+00  0.00000000000E+00 -0.83955742719E+03  0.83955742720E+03  0.25500000920E-02 0.  1.
    10030    2    1    2    0    0  0.00000000000E+00  0.00000000000E+00 -0.40832320888E+03  0.12707916455E+04  0.12034049873E+04 0.  0.
        2    1    3    3  502    0 -0.10470261794E+03 -0.10089623618E+03 -0.82072549204E+03  0.83350646187E+03  0.25500000920E-02 0.  1.
       -2    1    3    3    0  502  0.10470261794E+03  0.10089623618E+03  0.41240228316E+03  0.43728518365E+03  0.25500000920E-02 0. -1.
</event>
<event>
 5   0  0.9410666E-04  0.1221919E+04  0.7818609E-02  0.9093885E-01
       -2   -1    0    0    0  501  0.00000000000E+00  0.00000000000E+00  0.58727742206E+03  0.58727742206E+03  0.25500000920E-02 0. -1.
        2   -1    0    0  501    0  0.00000000000E+00  0.00000000000E+00 -0.63559620632E+03  0.63559620633E+03  0.25500000920E-02 0.  1.
    10030    2    1    2    0    0  0.00000000000E+00  0.00000000000E+00 -0.48318784267E+02  0.12228736284E+04  0.12219186577E+04 0.  0.
        2    1    3    3  502    0  0.39934119513E+03 -0.44027433572E+03 -0.16553699334E+03  0.61702299551E+03  0.25500000920E-02 0.  1.
       -2    1    3    3    0  502 -0.39934119513E+03  0.44027433572E+03  0.11721820908E+03  0.60585063288E+03  0.25500000920E-02 0. -1.
</event>
<event>
 5   0  0.9070772E-04  0.1197949E+04  0.7818609E-02  0.9114654E-01
       -2   -1    0    0    0  501  0.00000000000E+00  0.00000000000E+00  0.14455218766E+04  0.14455218766E+04  0.25500000920E-02 0. -1.
        2   -1    0    0  501    0  0.00000000000E+00  0.00000000000E+00 -0.24819427402E+03  0.24819427404E+03  0.25500000920E-02 0.  1.
    10030    2    1    2    0    0  0.00000000000E+00  0.00000000000E+00  0.11973276026E+04  0.16937161507E+04  0.11979486680E+04 0.  0.
        4    1    3    3  502    0  0.74661368498E+02 -0.44983043383E+01 -0.24156358794E+03  0.25288166127E+03  0.12699999809E+01 0.  1.
       -4    1    3    3    0  502 -0.74661368498E+02  0.44983043383E+01  0.14388911906E+04  0.14408344894E+04  0.12699999809E+01 0. -1.
</event>
<event>
 5   0  0.9145224E-04  0.1201011E+04  0.7818609E-02  0.9111972E-01
        2   -1    0    0  501    0  0.00000000000E+00  0.00000000000E+00  0.12150103769E+04  0.12150103769E+04  0.25500000920E-02 0.  1.
       -2   -1    0    0    0  501  0.00000000000E+00  0.00000000000E+00 -0.29679304977E+03  0.29679304978E+03  0.25500000920E-02 0. -1.
    10030    2    1    2    0    0  0.00000000000E+00  0.00000000000E+00  0.91821732708E+03  0.15118034266E+04  0.12010106332E+04 0.  0.
        5    1    3    3  502    0  0.57844239881E+03  0.16019658716E+03  0.43638121945E+03  0.74209784663E+03  0.46999998093E+01 0.  1.
       -5    1    3    3    0  502 -0.57844239881E+03 -0.16019658716E+03  0.48183610762E+03  0.76970558001E+03  0.46999998093E+01 0. -1.
</event>
<event>
 5   0  0.9410666E-04  0.1202875E+04  0.7818609E-02  0.9110344E-01
       -2   -1    0    0    0  501  0.00000000000E+00  0.00000000000E+00  0.16428703003E+03  0.16428703005E+03  0.25500000920E-02 0. -1.
        2   -1    0    0  501    0  0.00000000000E+00  0.00000000000E+00 -0.22017983549E+04  0.22017983549E+04  0.25500000920E-02 0.  1.
    10030    2    1    2    0    0  0.00000000000E+00  0.00000000000E+00 -0.20375113249E+04  0.23660853850E+04  0.12028747441E+04 0.  0.
        2    1    3    3  502    0 -0.51991195669E+03  0.79922893017E+02 -0.15923411327E+04  0.16769753709E+04  0.25500000920E-02 0.  1.
       -2    1    3    3    0  502  0.51991195669E+03 -0.79922893017E+02 -0.44517019215E+03  0.68911001409E+03  0.25500000920E-02 0. -1.
</event>
<event>
 5   0  0.9298693E-04  0.1201844E+04  0.7818609E-02  0.9111244E-01
       -2   -1    0    0    0  501  0.00000000000E+00  0.00000000000E+00  0.24012649962E+03  0.24012649963E+03  0.25500000920E-02 0. -1.
        2   -1    0    0  501    0  0.00000000000E+00  0.00000000000E+00 -0.15038220999E+04  0.15038220999E+04  0.25500000920E-02 0.  1.
    10030    2    1    2    0    0  0.00000000000E+00  0.00000000000E+00 -0.12636956003E+04  0.17439485996E+04  0.12018444773E+04 0.  0.
        1    1    3    3  502    0 -0.52663231155E+03 -0.28925225177E+03 -0.64629151041E+03  0.88244046438E+03  0.50400001928E-02 0.  1.
       -1    1    3    3    0  502  0.52663231155E+03  0.28925225177E+03 -0.61740408991E+03  0.86150813519E+03  0.50400001928E-02 0. -1.
</event>
<event>
 5   0  0.9070772E-04  0.1206639E+04  0.7818609E-02  0.9107065E-01
        2   -1    0    0  501    0  0.00000000000E+00  0.00000000000E+00  0.22355958413E+04  0.22355958413E+04  0.25500000920E-02 0. -1.
       -2   -1    0    0    0  501  0.00000000000E+00  0.00000000000E+00 -0.16281766733E+03  0.16281766735E+03  0.25500000920E-02 0.  1.
    10030    2    1    2    0    0  0.00000000000E+00  0.00000000000E+00  0.20727781739E+04  0.23984135086E+04  0.12066391341E+04 0.  0.
        4    1    3    3  502    0  0.22389058613E+03  0.49159010023E+03  0.15704988168E+04  0.16607997976E+04  0.12699999809E+01 0. -1.
       -4    1    3    3    0  502 -0.22389058613E+03 -0.49159010023E+03  0.50227935711E+03  0.73761371101E+03  0.12699999809E+01 0.  1.
</event>
<event>
 5   0  0.9070772E-04  0.1202187E+04  0.7818609E-02  0.9110944E-01
        2   -1    0    0  501    0  0.00000000000E+00  0.00000000000E+00  0.16934985199E+04  0.16934985199E+04  0.25500000920E-02 0.  1.
       -2   -1    0    0    0  501  0.00000000000E+00  0.00000000000E+00 -0.21335329802E+03  0.21335329803E+03  0.25500000920E-02 0. -1.
    10030    2    1    2    0    0  0.00000000000E+00  0.00000000000E+00  0.14801452219E+04  0.19068518179E+04  0.12021871642E+04 0.  0.
        4    1    3    3  502    0 -0.50729178800E+03 -0.32242583613E+03  0.73544725858E+03  0.94983559684E+03  0.12699999809E+01 0. -1.
       -4    1    3    3    0  502  0.50729178800E+03  0.32242583613E+03  0.74469796331E+03  0.95701622110E+03  0.12699999809E+01 0.  1.
</event>
<event>
 5   0  0.9145224E-04  0.1193178E+04  0.7818609E-02  0.9118849E-01
       -2   -1    0    0    0  501  0.00000000000E+00  0.00000000000E+00  0.44641606828E+03  0.44641606829E+03  0.25500000920E-02 0. -1.
        2   -1    0    0  501    0  0.00000000000E+00  0.00000000000E+00 -0.79727927138E+03  0.79727927138E+03  0.25500000920E-02 0.  1.
    10030    2    1    2    0    0  0.00000000000E+00  0.00000000000E+00 -0.35086320309E+03  0.12436953397E+04  0.11931777364E+04 0.  0.
        5    1    3    3  502    0 -0.47284534156E+03  0.34265205089E+03 -0.48184957352E+02  0.58594967799E+03  0.46999998093E+01 0.  1.
       -5    1    3    3    0  502  0.47284534156E+03 -0.34265205089E+03 -0.30267824574E+03  0.65774566168E+03  0.46999998093E+01 0. -1.
</event>
<event>
 5   0  0.5447074E-04  0.1195720E+04  0.7818609E-02  0.9116611E-01
       -1   -1    0    0    0  501  0.00000000000E+00  0.00000000000E+00  0.24766592697E+03  0.24766592702E+03  0.50400001928E-02 0. -1.
        1   -1    0    0  501    0  0.00000000000E+00  0.00000000000E+00 -0.14432202861E+04  0.14432202861E+04  0.50400001928E-02 0.  1.
    10030    2    1    2    0    0  0.00000000000E+00  0.00000000000E+00 -0.11955543591E+04  0.16908862131E+04  0.11957198502E+04 0.  0.
        4    1    3    3  502    0 -0.32944992204E+02 -0.59415172940E+03 -0.51613447288E+03  0.78771699046E+03  0.12699999809E+01 0. -1.
       -4    1    3    3    0  502  0.32944992204E+02  0.59415172940E+03 -0.67941988625E+03  0.90316922268E+03  0.12699999809E+01 0.  1.
</event>
<event>
 5   0  0.9145224E-04  0.1193068E+04  0.7818609E-02  0.9118946E-01
        2   -1    0    0  501    0  0.00000000000E+00  0.00000000000E+00  0.44371961291E+03  0.44371961292E+03  0.25500000920E-02 0. -1.
       -2   -1    0    0    0  501  0.00000000000E+00  0.00000000000E+00 -0.80197610093E+03  0.80197610093E+03  0.25500000920E-02 0.  1.
    10030    2    1    2    0    0  0.00000000000E+00  0.00000000000E+00 -0.35825648801E+03  0.12456957139E+04  0.11930675171E+04 0.  0.
        5    1    3    3  502    0 -0.43409272365E+03 -0.39405098851E+03 -0.29406478854E+03  0.65590309050E+03  0.46999998093E+01 0.  1.
       -5    1    3    3    0  502  0.43409272365E+03  0.39405098851E+03 -0.64191699476E+02  0.58979262335E+03  0.46999998093E+01 0. -1.
</event>
<event>
 5   0  0.9050363E-04  0.1203547E+04  0.7818609E-02  0.9109758E-01
        2   -1    0    0  501    0  0.00000000000E+00  0.00000000000E+00  0.18719054458E+04  0.18719054458E+04  0.25500000920E-02 0.  1.
       -2   -1    0    0    0  501  0.00000000000E+00  0.00000000000E+00 -0.19345600180E+03  0.19345600182E+03  0.25500000920E-02 0. -1.
    10030    2    1    2    0    0  0.00000000000E+00  0.00000000000E+00  0.16784494440E+04  0.20653614477E+04  0.12035469967E+04 0.  0.
        3    1    3    3  502    0  0.18578349269E+02  0.36136657026E+03  0.16643640450E+04  0.17032435638E+04  0.10100000352E+00 0.  1.
       -3    1    3    3    0  502 -0.18578349269E+02 -0.36136657026E+03  0.14085399076E+02  0.36211788388E+03  0.10100000352E+00 0. -1.
</event>
<event>
 5   0  0.3453625E-04  0.1254470E+04  0.7818609E-02  0.9066471E-01
       -4   -1    0    0    0  501  0.00000000000E+00  0.00000000000E+00  0.13517832165E+04  0.13517838131E+04  0.12699999809E+01 0. -1.
        4   -1    0    0  501    0  0.00000000000E+00  0.00000000000E+00 -0.29103853666E+03  0.29104130758E+03  0.12699999809E+01 0.  1.
    10030    2    1    2    0    0  0.00000000000E+00  0.00000000000E+00  0.10607446799E+04  0.16428251207E+04  0.12544700480E+04 0.  0.
        3    1    3    3  502    0  0.21616289672E+03 -0.49879447458E+03  0.94012858095E+03  0.10859853059E+04  0.10100000352E+00 0. -1.
       -3    1    3    3    0  502 -0.21616289672E+03  0.49879447458E+03  0.12061609893E+03  0.55683981477E+03  0.10100000352E+00 0.  1.
</event>
<event>
 5   0  0.5001586E-04  0.1150792E+04  0.7818609E-02  0.9157053E-01
        1   -1    0    0  501    0  0.00000000000E+00  0.00000000000E+00  0.41821935303E+03  0.41821935306E+03  0.50400001928E-02 0. -1.
       -1   -1    0    0    0  501  0.00000000000E+00  0.00000000000E+00 -0.79164302991E+03  0.79164302993E+03  0.50400001928E-02 0.  1.
    10030    2    1    2    0    0  0.00000000000E+00  0.00000000000E+00 -0.37342367689E+03  0.12098623830E+04  0.11507917897E+04 0.  0.
        1    1    3    3  502    0  0.50661932872E+03  0.74843301543E+02 -0.46250482102E+03  0.69005461633E+03  0.50400001928E-02 0.  1.
       -1    1    3    3    0  502 -0.50661932872E+03 -0.74843301543E+02  0.89081144139E+02  0.51980776666E+03  0.50400001928E-02 0. -1.
</event>
<event>
 5   0  0.5157631E-04  0.1211318E+04  0.7818609E-02  0.9103007E-01
        1   -1    0    0  501    0  0.00000000000E+00  0.00000000000E+00  0.84776511347E+03  0.84776511348E+03  0.50400001928E-02 0. -1.
       -1   -1    0    0    0  501  0.00000000000E+00  0.00000000000E+00 -0.43269423563E+03  0.43269423566E+03  0.50400001928E-02 0.  1.
    10030    2    1    2    0    0  0.00000000000E+00  0.00000000000E+00  0.41507087784E+03  0.12804593491E+04  0.12113184186E+04 0.  0.
        5    1    3    3  502    0 -0.16716986553E+03 -0.15933077292E+03  0.79937599817E+03  0.83207940462E+03  0.46999998093E+01 0. -1.
       -5    1    3    3    0  502  0.16716986553E+03  0.15933077292E+03 -0.38430512033E+03  0.44837994452E+03  0.46999998093E+01 0.  1.
</event>
<event>
 5   0  0.5157631E-04  0.1198634E+04  0.7818609E-02  0.9114053E-01
       -1   -1    0    0    0  501  0.00000000000E+00  0.00000000000E+00  0.61923291601E+03  0.61923291603E+03  0.50400001928E-02 0.  1.
        1   -1    0    0  501    0  0.00000000000E+00  0.00000000000E+00 -0.58004149596E+03  0.58004149598E+03  0.50400001928E-02 0. -1.
    10030    2    1    2    0    0  0.00000000000E+00  0.00000000000E+00  0.39191420045E+02  0.11992744120E+04  0.11986338673E+04 0.  0.
        5    1    3    3  502    0 -0.16362732115E+03  0.56799723620E+03  0.11846114795E+03  0.60286805698E+03  0.46999998093E+01 0.  1.
       -5    1    3    3    0  502  0.16362732115E+03 -0.56799723620E+03 -0.79269727905E+02  0.59640635503E+03  0.46999998093E+01 0. -1.
</event>
<event>
 5   0  0.9298693E-04  0.1197184E+04  0.7818609E-02  0.9115325E-01
        2   -1    0    0  501    0  0.00000000000E+00  0.00000000000E+00  0.10268760217E+04  0.10268760217E+04  0.25500000920E-02 0.  1.
       -2   -1    0    0    0  501  0.00000000000E+00  0.00000000000E+00 -0.34893412943E+03  0.34893412944E+03  0.25500000920E-02 0. -1.
    10030    2    1    2    0    0  0.00000000000E+00  0.00000000000E+00  0.67794189230E+03  0.13758101512E+04  0.11971835125E+04 0.  0.
        1    1    3    3  502    0 -0.34263507701E+03 -0.24693684731E+03  0.82645026483E+03  0.92811456341E+03  0.50400001928E-02 0.  1.
       -1    1    3    3    0  502  0.34263507701E+03  0.24693684731E+03 -0.14850837253E+03  0.44769558775E+03  0.50400001928E-02 0. -1.
</event>
<event>
 5   0  0.9298693E-04  0.1195282E+04  0.7818609E-02  0.9116996E-01
       -2   -1    0    0    0  501  0.00000000000E+00  0.00000000000E+00  0.12728741072E+03  0.12728741074E+03  0.25500000920E-02 0. -1.
        2   -1    0    0  501    0  0.00000000000E+00  0.00000000000E+00 -0.28060515574E+04  0.28060515574E+04  0.25500000920E-02 0.  1.
    10030    2    1    2    0    0  0.00000000000E+00  0.00000000000E+00 -0.26787641467E+04  0.29333389681E+04  0.11952824555E+04 0.  0.
        1    1    3    3  502    0 -0.80405961160E+02  0.44275189623E+03 -0.23045652394E+04  0.23480875842E+04  0.50400001928E-02 0.  1.
       -1    1    3    3    0  502  0.80405961160E+02 -0.44275189623E+03 -0.37419890725E+03  0.58525138396E+03  0.50400001928E-02 0. -1.
</event>
<event>
 5   0  0.5447074E-04  0.1201429E+04  0.7818609E-02  0.9111607E-01
        1   -1    0    0  501    0  0.00000000000E+00  0.00000000000E+00  0.43079129272E+03  0.43079129275E+03  0.50400001928E-02 0.  1.
       -1   -1    0    0    0  501  0.00000000000E+00  0.00000000000E+00 -0.83766242063E+03  0.83766242064E+03  0.50400001928E-02 0. -1.
    10030    2    1    2    0    0  0.00000000000E+00  0.00000000000E+00 -0.40687112791E+03  0.12684537134E+04  0.12014286114E+04 0.  0.
        4    1    3    3  502    0  0.50038677060E+03 -0.16687407940E+03 -0.50691201285E+03  0.73157042056E+03  0.12699999809E+01 0. -1.
       -4    1    3    3    0  502 -0.50038677060E+03  0.16687407940E+03  0.10004088494E+03  0.53688329284E+03  0.12699999809E+01 0.  1.
</event>
<event>
 5   0  0.9410666E-04  0.1197342E+04  0.7818609E-02  0.9115186E-01
       -2   -1    0    0    0  501  0.00000000000E+00  0.00000000000E+00  0.37856647055E+03  0.37856647056E+03  0.25500000920E-02 0. -1.
        2   -1    0    0  501    0  0.00000000000E+00  0.00000000000E+00 -0.94674794588E+03  0.94674794588E+03  0.25500000920E-02 0.  1.
    10030    2    1    2    0    0  0.00000000000E+00  0.00000000000E+00 -0.56818147532E+03  0.13253144164E+04  0.11973421038E+04 0.  0.
        2    1    3    3  502    0 -0.30071248984E+03 -0.41536294940E+03 -0.62606597217E+03  0.80926694162E+03  0.25500000920E-02 0.  1.
       -2    1    3    3    0  502  0.30071248984E+03  0.41536294940E+03  0.57884496850E+02  0.51604747482E+03  0.25500000920E-02 0. -1.
</event>
<event>
 5   0  0.3453625E-04  0.1196888E+04  0.7818609E-02  0.9115585E-01
       -3   -1    0    0    0  501  0.00000000000E+00  0.00000000000E+00  0.89059627748E+03  0.89059628320E+03  0.10100000352E+00 0.  1.
        3   -1    0    0  501    0  0.00000000000E+00  0.00000000000E+00 -0.40212992226E+03  0.40212993494E+03  0.10100000352E+00 0. -1.
    10030    2    1    2    0    0  0.00000000000E+00  0.00000000000E+00  0.48846635522E+03  0.12927262181E+04  0.11968883385E+04 0.  0.
        1    1    3    3  502    0  0.55101861752E+03  0.21313354218E+03  0.34719757486E+03  0.68526898344E+03  0.50400001928E-02 0. -1.
       -1    1    3    3    0  502 -0.55101861752E+03 -0.21313354218E+03  0.14126878037E+03  0.60745723470E+03  0.50400001928E-02 0.  1.
</event>
<event>
 5   0  0.9145224E-04  0.1198495E+04  0.7818609E-02  0.9114175E-01
        2   -1    0    0  501    0  0.00000000000E+00  0.00000000000E+00  0.66442458353E+03  0.66442458354E+03  0.25500000920E-02 0.  1.
       -2   -1    0    0    0  501  0.00000000000E+00  0.00000000000E+00 -0.54046356141E+03  0.54046356142E+03  0.25500000920E-02 0. -1.
    10030    2    1    2    0    0  0.00000000000E+00  0.00000000000E+00  0.12396102212E+03  0.12048881450E+04  0.11984945168E+04 0.  0.
        5    1    3    3  502    0 -0.44727859412E+03 -0.18340930229E+03  0.41795713226E+03  0.63906757649E+03  0.46999998093E+01 0.  1.
       -5    1    3    3    0  502  0.44727859412E+03  0.18340930229E+03 -0.29399611014E+03  0.56582056846E+03  0.46999998093E+01 0. -1.
</event>
<event>
 5   0  0.9145224E-04  0.1200495E+04  0.7818609E-02  0.9112423E-01
       -2   -1    0    0    0  501  0.00000000000E+00  0.00000000000E+00  0.30967626637E+03  0.30967626638E+03  0.25500000920E-02 0. -1.
        2   -1    0    0  501    0  0.00000000000E+00  0.00000000000E+00 -0.11634643822E+04  0.11634643822E+04  0.25500000920E-02 0.  1.
    10030    2    1    2    0    0  0.00000000000E+00  0.00000000000E+00 -0.85378811588E+03  0.14731406486E+04  0.12004954077E+04 0.  0.
        5    1    3    3  502    0  0.43140765403E+03 -0.21821483968E+03 -0.86341601641E+03  0.98956535287E+03  0.46999998093E+01 0.  1.
       -5    1    3    3    0  502 -0.43140765403E+03  0.21821483968E+03  0.96279005306E+01  0.48357529577E+03  0.46999998093E+01 0. -1.
</event>
<event>
 5   0  0.5001586E-04  0.1198811E+04  0.7818609E-02  0.9113898E-01
        1   -1    0    0  501    0  0.00000000000E+00  0.00000000000E+00  0.90143252011E+03  0.90143252013E+03  0.50400001928E-02 0.  1.
       -1   -1    0    0    0  501  0.00000000000E+00  0.00000000000E+00 -0.39857336501E+03  0.39857336504E+03  0.50400001928E-02 0. -1.
    10030    2    1    2    0    0  0.00000000000E+00  0.00000000000E+00  0.50285915510E+03  0.13000058852E+04  0.11988110659E+04 0.  0.
        1    1    3    3  502    0  0.23018295106E+03  0.33603257306E+03 -0.22544686448E+03  0.46554094325E+03  0.50400001928E-02 0. -1.
       -1    1    3    3    0  502 -0.23018295106E+03 -0.33603257306E+03  0.72830601958E+03  0.83446494192E+03  0.50400001928E-02 0.  1.
</event>
<event>
 5   0  0.5447074E-04  0.1197912E+04  0.7818609E-02  0.9114686E-01
       -1   -1    0    0    0  501  0.00000000000E+00  0.00000000000E+00  0.39329214521E+03  0.39329214524E+03  0.50400001928E-02 0. -1.
        1   -1    0    0  501    0  0.00000000000E+00  0.00000000000E+00 -0.91216815705E+03  0.91216815706E+03  0.50400001928E-02 0.  1.
    10030    2    1    2    0    0  0.00000000000E+00  0.00000000000E+00 -0.51887601183E+03  0.13054603023E+04  0.11979124698E+04 0.  0.
        4    1    3    3  502    0  0.20322106275E+03  0.15408524948E+03 -0.85004000830E+03  0.88747433375E+03  0.12699999809E+01 0.  1.
       -4    1    3    3    0  502 -0.20322106275E+03 -0.15408524948E+03  0.33116399647E+03  0.41798596856E+03  0.12699999809E+01 0. -1.
</event>
<event>
 5   0  0.9050363E-04  0.1196846E+04  0.7818609E-02  0.9115622E-01
       -2   -1    0    0    0  501  0.00000000000E+00  0.00000000000E+00  0.24640411143E+03  0.24640411144E+03  0.25500000920E-02 0. -1.
        2   -1    0    0  501    0  0.00000000000E+00  0.00000000000E+00 -0.14533441290E+04  0.14533441290E+04  0.25500000920E-02 0.  1.
    10030    2    1    2    0    0  0.00000000000E+00  0.00000000000E+00 -0.12069400176E+04  0.16997482405E+04  0.11968458025E+04 0.  0.
        3    1    3    3  502    0 -0.22836386775E+03  0.18663481157E+03  0.13602128202E+03  0.32478363313E+03  0.10100000352E+00 0. -1.
       -3    1    3    3    0  502  0.22836386775E+03 -0.18663481157E+03 -0.13429612996E+04  0.13749646073E+04  0.10100000352E+00 0.  1.
</event>
<event>
 5   0  0.9298693E-04  0.1196679E+04  0.7818609E-02  0.9115769E-01
       -2   -1    0    0    0  501  0.00000000000E+00  0.00000000000E+00  0.15581599170E+03  0.15581599172E+03  0.25500000920E-02 0.  1.
        2   -1    0    0  501    0  0.00000000000E+00  0.00000000000E+00 -0.22976462217E+04  0.22976462217E+04  0.25500000920E-02 0. -1.
    10030    2    1    2    0    0  0.00000000000E+00  0.00000000000E+00 -0.21418302300E+04  0.24534622134E+04  0.11966787783E+04 0.  0.
        1    1    3    3  502    0  0.26606476721E+03  0.56628439119E+02  0.21708867588E+02  0.27288919990E+03  0.50400001928E-02 0.  1.
       -1    1    3    3    0  502 -0.26606476721E+03 -0.56628439119E+02 -0.21635390975E+04  0.21805730135E+04  0.50400001928E-02 0. -1.
</event>
<event>
 5   0  0.9145224E-04  0.1200591E+04  0.7818609E-02  0.9112339E-01
       -2   -1    0    0    0  501  0.00000000000E+00  0.00000000000E+00  0.27239167309E+03  0.27239167311E+03  0.25500000920E-02 0.  1.
        2   -1    0    0  501    0  0.00000000000E+00  0.00000000000E+00 -0.13229285637E+04  0.13229285637E+04  0.25500000920E-02 0. -1.
    10030    2    1    2    0    0  0.00000000000E+00  0.00000000000E+00 -0.10505368906E+04  0.15953202368E+04  0.12005910625E+04 0.  0.
        5    1    3    3  502    0 -0.41233617881E+02  0.27231507859E+03  0.18345416478E+03  0.33095805450E+03  0.46999998093E+01 0.  1.
       -5    1    3    3    0  502  0.41233617881E+02 -0.27231507859E+03 -0.12339910554E+04  0.12643621823E+04  0.46999998093E+01 0. -1.
</event>
<event>
 5   0  0.3453625E-04  0.1223531E+04  0.7818609E-02  0.9092506E-01
        4   -1    0    0  501    0  0.00000000000E+00  0.00000000000E+00  0.73007621742E+03  0.73007732203E+03  0.12699999809E+01 0. -1.
       -4   -1    0    0    0  501  0.00000000000E+00  0.00000000000E+00 -0.51262514552E+03  0.51262671870E+03  0.12699999809E+01 0.  1.
    10030    2    1    2    0    0  0.00000000000E+00  0.00000000000E+00  0.21745107190E+03  0.12427040407E+04  0.12235311047E+04 0.  0.
        5    1    3    3  502    0 -0.44886158456E+03 -0.22857167847E+03 -0.24386457335E+03  0.55965503162E+03  0.46999998093E+01 0.  1.
       -5    1    3    3    0  502  0.44886158456E+03  0.22857167847E+03  0.46131564525E+03  0.68304900910E+03  0.46999998093E+01 0. -1.
</event>
<event>
 5   0  0.9050363E-04  0.1171264E+04  0.7818609E-02  0.9138388E-01
       -2   -1    0    0    0  501  0.00000000000E+00  0.00000000000E+00  0.16449161334E+03  0.16449161336E+03  0.25500000920E-02 0.  1.
        2   -1    0    0  501    0  0.00000000000E+00  0.00000000000E+00 -0.20849981229E+04  0.20849981229E+04  0.25500000920E-02 0. -1.
    10030    2    1    2    0    0  0.00000000000E+00  0.00000000000E+00 -0.19205065096E+04  0.22494897362E+04  0.11712637706E+04 0.  0.
        3    1    3    3  502    0 -0.41607301739E+03 -0.37850120875E+03 -0.12733984790E+04  0.13920932502E+04  0.10100000352E+00 0. -1.
       -3    1    3    3    0  502  0.41607301739E+03  0.37850120875E+03 -0.64710803055E+03  0.85739648601E+03  0.10100000352E+00 0.  1.
</event>
<event>
 5   0  0.9070772E-04  0.1196023E+04  0.7818609E-02  0.9116345E-01
        2   -1    0    0  501    0  0.00000000000E+00  0.00000000000E+00  0.14576702602E+04  0.14576702602E+04  0.25500000920E-02 0. -1.
       -2   -1    0    0    0  501  0.00000000000E+00  0.00000000000E+00 -0.24533505699E+03  0.24533505700E+03  0.25500000920E-02 0.  1.
    10030    2    1    2    0    0  0.00000000000E+00  0.00000000000E+00  0.12123352033E+04  0.17030053173E+04  0.11960227697E+04 0.  0.
        4    1    3    3  502    0 -0.11940199078E+03 -0.56600283139E+02  0.14366211660E+04  0.14426858338E+04  0.12699999809E+01 0. -1.
       -4    1    3    3    0  502  0.11940199078E+03  0.56600283139E+02 -0.22428596279E+03  0.26031948344E+03  0.12699999809E+01 0.  1.
</event>
<event>
 5   0  0.3453625E-04  0.1209223E+04  0.7818609E-02  0.9104822E-01
        3   -1    0    0  501    0  0.00000000000E+00  0.00000000000E+00  0.43081617205E+03  0.43081618389E+03  0.10100000352E+00 0. -1.
       -3   -1    0    0    0  501  0.00000000000E+00  0.00000000000E+00 -0.84851706112E+03  0.84851706713E+03  0.10100000352E+00 0.  1.
    10030    2    1    2    0    0  0.00000000000E+00  0.00000000000E+00 -0.41770088907E+03  0.12793332510E+04  0.12092226984E+04 0.  0.
        2    1    3    3  502    0  0.48027691457E+03  0.18426775837E+03 -0.54497242858E+03  0.74941008091E+03  0.25500000920E-02 0.  1.
       -2    1    3    3    0  502 -0.48027691457E+03 -0.18426775837E+03  0.12727153951E+03  0.52992317011E+03  0.25500000920E-02 0. -1.
</event>
<event>
 5   0  0.9050363E-04  0.1198656E+04  0.7818609E-02  0.9114034E-01
        2   -1    0    0  501    0  0.00000000000E+00  0.00000000000E+00  0.92261373362E+03  0.92261373363E+03  0.25500000920E-02 0. -1.
       -2   -1    0    0    0  501  0.00000000000E+00  0.00000000000E+00 -0.38932235741E+03  0.38932235742E+03  0.25500000920E-02 0.  1.
    10030    2    1    2    0    0  0.00000000000E+00  0.00000000000E+00  0.53329137621E+03  0.13119360910E+04  0.11986561705E+04 0.  0.
        3    1    3    3  502    0 -0.19223630302E+03  0.86732175914E+02 -0.34736802513E+03  0.40637645308E+03  0.10100000352E+00 0.  1.
       -3    1    3    3    0  502  0.19223630302E+03 -0.86732175914E+02  0.88065940134E+03  0.90555963796E+03  0.10100000352E+00 0. -1.
</event>
<event>
 5   0  0.9070772E-04  0.1201608E+04  0.7818609E-02  0.9111450E-01
       -2   -1    0    0    0  501  0.00000000000E+00  0.00000000000E+00  0.22441233034E+03  0.22441233035E+03  0.25500000920E-02 0. -1.
        2   -1    0    0  501    0  0.00000000000E+00  0.00000000000E+00 -0.16084922129E+04  0.16084922129E+04  0.25500000920E-02 0.  1.
    10030    2    1    2    0    0  0.00000000000E+00  0.00000000000E+00 -0.13840798826E+04  0.18329045433E+04  0.12016080656E+04 0.  0.
        4    1    3    3  502    0  0.14829252693E+03 -0.37204435772E+03 -0.13751568795E+04  0.14322938713E+04  0.12699999809E+01 0.  1.
       -4    1    3    3    0  502 -0.14829252693E+03  0.37204435772E+03 -0.89230031415E+01  0.40061067202E+03  0.12699999809E+01 0. -1.
</event>
<event>
 5   0  0.9298693E-04  0.1202385E+04  0.7818609E-02  0.9110771E-01
        2   -1    0    0  501    0  0.00000000000E+00  0.00000000000E+00  0.18821072592E+04  0.18821072592E+04  0.25500000920E-02 0.  1.
       -2   -1    0    0    0  501  0.00000000000E+00  0.00000000000E+00 -0.19203614294E+03  0.19203614295E+03  0.25500000920E-02 0. -1.
    10030    2    1    2    0    0  0.00000000000E+00  0.00000000000E+00  0.16900711162E+04  0.20741434021E+04  0.12023853270E+04 0.  0.
        1    1    3    3  502    0  0.16918964460E+03 -0.32671595739E+03  0.16652189575E+04  0.17053804939E+04  0.50400001928E-02 0.  1.
       -1    1    3    3    0  502 -0.16918964460E+03  0.32671595739E+03  0.24852158761E+02  0.36876290822E+03  0.50400001928E-02 0. -1.
</event>
<event>
 5   0  0.5447074E-04  0.1201227E+04  0.7818609E-02  0.9111783E-01
        1   -1    0    0  501    0  0.00000000000E+00  0.00000000000E+00  0.86280198468E+03  0.86280198469E+03  0.50400001928E-02 0. -1.
       -1   -1    0    0    0  501  0.00000000000E+00  0.00000000000E+00 -0.41809887478E+03  0.41809887481E+03  0.50400001928E-02 0.  1.
    10030    2    1    2    0    0  0.00000000000E+00  0.00000000000E+00  0.44470310990E+03  0.12809008595E+04  0.12012269377E+04 0.  0.
        4    1    3    3  502    0 -0.13797035163E+03  0.25295118065E+03 -0.33958847884E+03  0.44535611098E+03  0.12699999809E+01 0.  1.
       -4    1    3    3    0  502  0.13797035163E+03 -0.25295118065E+03  0.78429158874E+03  0.83554474853E+03  0.12699999809E+01 0. -1.
</event>
<event>
 5   0  0.9050363E-04  0.1198063E+04  0.7818609E-02  0.9114554E-01
       -2   -1    0    0    0  501  0.00000000000E+00  0.00000000000E+00  0.27366792688E+03  0.27366792689E+03  0.25500000920E-02 0. -1.
        2   -1    0    0  501    0  0.00000000000E+00  0.00000000000E+00 -0.13112196956E+04  0.13112196956E+04  0.25500000920E-02 0.  1.
    10030    2    1    2    0    0  0.00000000000E+00  0.00000000000E+00 -0.10375517687E+04  0.15848876225E+04  0.11980630631E+04 0.  0.
        3    1    3    3  502    0  0.22474178582E+03  0.38644379951E+02  0.21400192651E+03  0.31272846552E+03  0.10100000352E+00 0. -1.
       -3    1    3    3    0  502 -0.22474178582E+03 -0.38644379951E+02 -0.12515536952E+04  0.12721591570E+04  0.10100000352E+00 0.  1.
</event>
<event>
 5   0  0.9145224E-04  0.1201402E+04  0.7818609E-02  0.9111630E-01
        2   -1    0    0  501    0  0.00000000000E+00  0.00000000000E+00  0.79669832152E+03  0.79669832153E+03  0.25500000920E-02 0. -1.
       -2   -1    0    0    0  501  0.00000000000E+00  0.00000000000E+00 -0.45292123862E+03  0.45292123862E+03  0.25500000920E-02 0.  1.
    10030    2    1    2    0    0  0.00000000000E+00  0.00000000000E+00  0.34377708291E+03  0.12496195602E+04  0.12014018322E+04 0.  0.
        5    1    3    3  502    0  0.73042818170E+02 -0.59513395186E+03  0.20938862572E+03  0.63512625558E+03  0.46999998093E+01 0. -1.
       -5    1    3    3    0  502 -0.73042818170E+02  0.59513395186E+03  0.13438845718E+03  0.61449330457E+03  0.46999998093E+01 0.  1.
</event>
<event>
 5   0  0.5003507E-04  0.1193517E+04  0.7818609E-02  0.9118550E-01
        1   -1    0    0  501    0  0.00000000000E+00  0.00000000000E+00  0.63957463333E+03  0.63957463335E+03  0.50400001928E-02 0. -1.
       -1   -1    0    0    0  501  0.00000000000E+00  0.00000000000E+00 -0.55680876770E+03  0.55680876772E+03  0.50400001928E-02 0.  1.
    10030    2    1    2    0    0  0.00000000000E+00  0.00000000000E+00  0.82765865628E+02  0.11963834011E+04  0.11935170941E+04 0.  0.
        3    1    3    3  502    0 -0.28789740609E+03 -0.31637298021E+02  0.56439733717E+03  0.63437386411E+03  0.10100000352E+00 0. -1.
       -3    1    3    3    0  502  0.28789740609E+03  0.31637298021E+02 -0.48163147154E+03  0.56200953696E+03  0.10100000352E+00 0.  1.
</event>
<event>
 5   0  0.3453625E-04  0.1195291E+04  0.7818609E-02  0.9116988E-01
        3   -1    0    0  501    0  0.00000000000E+00  0.00000000000E+00  0.53307260648E+03  0.53307261605E+03  0.10100000352E+00 0. -1.
       -3   -1    0    0    0  501  0.00000000000E+00  0.00000000000E+00 -0.67004023271E+03  0.67004024033E+03  0.10100000352E+00 0.  1.
    10030    2    1    2    0    0  0.00000000000E+00  0.00000000000E+00 -0.13696762623E+03  0.12031128564E+04  0.11952909330E+04 0.  0.
        5    1    3    3  502    0 -0.57278881251E+03  0.77978015600E+02  0.84134337132E+02  0.58418171089E+03  0.46999998093E+01 0.  1.
       -5    1    3    3    0  502  0.57278881251E+03 -0.77978015600E+02 -0.22110196336E+03  0.61893114549E+03  0.46999998093E+01 0. -1.
</event>
<event>
 5   0  0.5447074E-04  0.1197546E+04  0.7818609E-02  0.9115007E-01
        1   -1    0    0  501    0  0.00000000000E+00  0.00000000000E+00  0.38032539181E+03  0.38032539184E+03  0.50400001928E-02 0.  1.
       -1   -1    0    0    0  501  0.00000000000E+00  0.00000000000E+00 -0.94269036035E+03  0.94269036036E+03  0.50400001928E-02 0. -1.
    10030    2    1    2    0    0  0.00000000000E+00  0.00000000000E+00 -0.56236496854E+03  0.13230157522E+04  0.11975459585E+04 0.  0.
        4    1    3    3  502    0  0.33638508050E+03  0.30588448189E+03 -0.71162885684E+03  0.84447467779E+03  0.12699999809E+01 0. -1.
       -4    1    3    3    0  502 -0.33638508050E+03 -0.30588448189E+03  0.14926388830E+03  0.47854107441E+03  0.12699999809E+01 0.  1.
</event>
<event>
 5   0  0.9070772E-04  0.1199058E+04  0.7818609E-02  0.9113682E-01
        2   -1    0    0  501    0  0.00000000000E+00  0.00000000000E+00  0.52132159230E+03  0.52132159231E+03  0.25500000920E-02 0.  1.
       -2   -1    0    0    0  501  0.00000000000E+00  0.00000000000E+00 -0.68946868830E+03  0.68946868831E+03  0.25500000920E-02 0. -1.
    10030    2    1    2    0    0  0.00000000000E+00  0.00000000000E+00 -0.16814709600E+03  0.12107902806E+04  0.11990578208E+04 0.  0.
        4    1    3    3  502    0  0.19859154819E+03  0.16530283225E+03 -0.63035651628E+03  0.68125955397E+03  0.12699999809E+01 0. -1.
       -4    1    3    3    0  502 -0.19859154819E+03 -0.16530283225E+03  0.46220942028E+03  0.52953072664E+03  0.12699999809E+01 0.  1.
</event>
<event>
 5   0  0.5003507E-04  0.1197599E+04  0.7818609E-02  0.9114961E-01
        1   -1    0    0  501    0  0.00000000000E+00  0.00000000000E+00  0.12620279361E+04  0.12620279361E+04  0.50400001928E-02 0. -1.
       -1   -1    0    0    0  501  0.00000000000E+00  0.00000000000E+00 -0.28411478663E+03  0.28411478668E+03  0.50400001928E-02 0.  1.
    10030    2    1    2    0    0  0.00000000000E+00  0.00000000000E+00  0.97791314949E+03  0.15461427228E+04  0.11975989276E+04 0.  0.
        3    1    3    3  502    0 -0.16378253046E+03 -0.47891053234E+03  0.75864005371E+02  0.51179622193E+03  0.10100000352E+00 0.  1.
       -3    1    3    3    0  502  0.16378253046E+03  0.47891053234E+03  0.90204914412E+03  0.10343465009E+04  0.10100000352E+00 0. -1.
</event>
<event>
 5   0  0.9145224E-04  0.1195457E+04  0.7818609E-02  0.9116842E-01
       -2   -1    0    0    0  501  0.00000000000E+00  0.00000000000E+00  0.46889990139E+03  0.46889990139E+03  0.25500000920E-02 0. -1.
        2   -1    0    0  501    0  0.00000000000E+00  0.00000000000E+00 -0.76195251336E+03  0.76195251336E+03  0.25500000920E-02 0.  1.
    10030    2    1    2    0    0  0.00000000000E+00  0.00000000000E+00 -0.29305261197E+03  0.12308524148E+04  0.11954571651E+04 0.  0.
        5    1    3    3  502    0  0.19505257599E+03 -0.14067555347E+03  0.41687000266E+03  0.48128765604E+03  0.46999998093E+01 0. -1.
       -5    1    3    3    0  502 -0.19505257599E+03  0.14067555347E+03 -0.70992261463E+03  0.74956475871E+03  0.46999998093E+01 0.  1.
</event>
<event>
 5   0  0.9410666E-04  0.1202264E+04  0.7818609E-02  0.9110877E-01
       -2   -1    0    0    0  501  0.00000000000E+00  0.00000000000E+00  0.50439091220E+03  0.50439091220E+03  0.25500000920E-02 0.  1.
        2   -1    0    0  501    0  0.00000000000E+00  0.00000000000E+00 -0.71642830502E+03  0.71642830503E+03  0.25500000920E-02 0. -1.
    10030    2    1    2    0    0  0.00000000000E+00  0.00000000000E+00 -0.21203739283E+03  0.12208192172E+04  0.12022644074E+04 0.  0.
        2    1    3    3  502    0  0.24516541845E+03 -0.19394359790E+03 -0.62740160633E+03  0.70096574610E+03  0.25500000920E-02 0. -1.
       -2    1    3    3    0  502 -0.24516541845E+03  0.19394359790E+03  0.41536421351E+03  0.51985347113E+03  0.25500000920E-02 0.  1.
</event>
<event>
 5   0  0.9145224E-04  0.1195922E+04  0.7818609E-02  0.9116433E-01
        2   -1    0    0  501    0  0.00000000000E+00  0.00000000000E+00  0.35767474515E+03  0.35767474516E+03  0.25500000920E-02 0.  1.
       -2   -1    0    0    0  501  0.00000000000E+00  0.00000000000E+00 -0.99967216688E+03  0.99967216689E+03  0.25500000920E-02 0. -1.
    10030    2    1    2    0    0  0.00000000000E+00  0.00000000000E+00 -0.64199742173E+03  0.13573469120E+04  0.11959222174E+04 0.  0.
        5    1    3    3  502    0  0.51015020552E+03 -0.23329139300E+03 -0.86035274810E+02  0.56754054018E+03  0.46999998093E+01 0.  1.
       -5    1    3    3    0  502 -0.51015020552E+03  0.23329139300E+03 -0.55596214692E+03  0.78980637187E+03  0.46999998093E+01 0. -1.
</event>
<event>
 5   0  0.5157631E-04  0.1205241E+04  0.7818609E-02  0.9108282E-01
       -1   -1    0    0    0  501  0.00000000000E+00  0.00000000000E+00  0.54448288599E+03  0.54448288601E+03  0.50400001928E-02 0.  1.
        1   -1    0    0  501    0  0.00000000000E+00  0.00000000000E+00 -0.66696537299E+03  0.66696537301E+03  0.50400001928E-02 0. -1.
    10030    2    1    2    0    0  0.00000000000E+00  0.00000000000E+00 -0.12248248701E+03  0.12114482590E+04  0.12052406086E+04 0.  0.
        5    1    3    3  502    0 -0.27140188350E+03  0.39368437429E+02  0.47810448773E+03  0.55119401976E+03  0.46999998093E+01 0.  1.
       -5    1    3    3    0  502  0.27140188350E+03 -0.39368437429E+02 -0.60058697474E+03  0.66025423926E+03  0.46999998093E+01 0. -1.
</event>
<event>
 5   0  0.5447074E-04  0.1197916E+04  0.7818609E-02  0.9114683E-01
       -1   -1    0    0    0  501  0.00000000000E+00  0.00000000000E+00  0.14016757826E+04  0.14016757827E+04  0.50400001928E-02 0. -1.
        1   -1    0    0  501    0  0.00000000000E+00  0.00000000000E+00 -0.25594410047E+03  0.25594410052E+03  0.50400001928E-02 0.  1.
    10030    2    1    2    0    0  0.00000000000E+00  0.00000000000E+00  0.11457316822E+04  0.16576198832E+04  0.11979159359E+04 0.  0.
        4    1    3    3  502    0 -0.12405275637E+03  0.42299505963E+03  0.11745638969E+02  0.44096879682E+03  0.12699999809E+01 0. -1.
       -4    1    3    3    0  502  0.12405275637E+03 -0.42299505963E+03  0.11339860432E+04  0.12166510864E+04  0.12699999809E+01 0.  1.
</event>
<event>
 5   0  0.9050363E-04  0.1200424E+04  0.7818609E-02  0.9112486E-01
       -2   -1    0    0    0  501  0.00000000000E+00  0.00000000000E+00  0.36709456847E+03  0.36709456848E+03  0.25500000920E-02 0.  1.
        2   -1    0    0  501    0  0.00000000000E+00  0.00000000000E+00 -0.98136618761E+03  0.98136618761E+03  0.25500000920E-02 0. -1.
    10030    2    1    2    0    0  0.00000000000E+00  0.00000000000E+00 -0.61427161914E+03  0.13484607561E+04  0.12004235872E+04 0.  0.
        3    1    3    3  502    0  0.67047316482E+02  0.58553833614E+03 -0.17953279318E+03  0.61610268606E+03  0.10100000352E+00 0.  1.
       -3    1    3    3    0  502 -0.67047316482E+02 -0.58553833614E+03 -0.43473882596E+03  0.73235807003E+03  0.10100000352E+00 0. -1.
</event>
<event>
 5   0  0.5052959E-04  0.1209674E+04  0.7818609E-02  0.9104431E-01
        1   -1    0    0  501    0  0.00000000000E+00  0.00000000000E+00  0.57188751462E+03  0.57188751464E+03  0.50400001928E-02 0. -1.
       -1   -1    0    0    0  501  0.00000000000E+00  0.00000000000E+00 -0.63968488377E+03  0.63968488379E+03  0.50400001928E-02 0.  1.
    10030    2    1    2    0    0  0.00000000000E+00  0.00000000000E+00 -0.67797369154E+02  0.12115723984E+04  0.12096740029E+04 0.  0.
        2    1    3    3  502    0  0.19001508624E+03  0.56659258170E+03 -0.12729153090E+03  0.61101229160E+03  0.25500000920E-02 0. -1.
       -2    1    3    3    0  502 -0.19001508624E+03 -0.56659258170E+03  0.59494161746E+02  0.60056010684E+03  0.25500000920E-02 0.  1.
</event>
<event>
 5   0  0.9070772E-04  0.1198131E+04  0.7818609E-02  0.9114494E-01
       -2   -1    0    0    0  501  0.00000000000E+00  0.00000000000E+00  0.37011641708E+03  0.37011641709E+03  0.25500000920E-02 0.  1.
        2   -1    0    0  501    0  0.00000000000E+00  0.00000000000E+00 -0.96963898643E+03  0.96963898644E+03  0.25500000920E-02 0. -1.
    10030    2    1    2    0    0  0.00000000000E+00  0.00000000000E+00 -0.59952256935E+03  0.13397554035E+04  0.11981307233E+04 0.  0.
        4    1    3    3  502    0 -0.59192686098E+03  0.70608618826E+01 -0.40255361685E+03  0.71587589138E+03  0.12699999809E+01 0. -1.
       -4    1    3    3    0  502  0.59192686098E+03 -0.70608618826E+01 -0.19696895250E+03  0.62387951214E+03  0.12699999809E+01 0.  1.
</event>
<event>
 5   0  0.5447074E-04  0.1202245E+04  0.7818609E-02  0.9110894E-01
        1   -1    0    0  501    0  0.00000000000E+00  0.00000000000E+00  0.53014322869E+03  0.53014322872E+03  0.50400001928E-02 0. -1.
       -1   -1    0    0    0  501  0.00000000000E+00  0.00000000000E+00 -0.68160491785E+03  0.68160491787E+03  0.50400001928E-02 0.  1.
    10030    2    1    2    0    0  0.00000000000E+00  0.00000000000E+00 -0.15146168915E+03  0.12117481466E+04  0.12022449532E+04 0.  0.
        4    1    3    3  502    0  0.35558141424E+03  0.11272800577E+03  0.39937708889E+03  0.54648825922E+03  0.12699999809E+01 0. -1.
       -4    1    3    3    0  502 -0.35558141424E+03 -0.11272800577E+03 -0.55083877804E+03  0.66525988736E+03  0.12699999809E+01 0.  1.
</event>
<event>
 5   0  0.5001586E-04  0.1199314E+04  0.7818609E-02  0.9113457E-01
       -1   -1    0    0    0  501  0.00000000000E+00  0.00000000000E+00  0.47306132502E+03  0.47306132505E+03  0.50400001928E-02 0.  1.
        1   -1    0    0  501    0  0.00000000000E+00  0.00000000000E+00 -0.76013115290E+03  0.76013115291E+03  0.50400001928E-02 0. -1.
    10030    2    1    2    0    0  0.00000000000E+00  0.00000000000E+00 -0.28706982787E+03  0.12331924780E+04  0.11993142214E+04 0.  0.
        1    1    3    3  502    0  0.55942938386E+03  0.82858627934E+01 -0.36540491374E+03  0.66824444783E+03  0.50400001928E-02 0. -1.
       -1    1    3    3    0  502 -0.55942938386E+03 -0.82858627934E+01  0.78335085866E+02  0.56494803013E+03  0.50400001928E-02 0.  1.
</event>
<event>
 5   0  0.5157631E-04  0.1198623E+04  0.7818609E-02  0.9114062E-01
        1   -1    0    0  501    0  0.00000000000E+00  0.00000000000E+00  0.10843800107E+04  0.10843800107E+04  0.50400001928E-02 0.  1.
       -1   -1    0    0    0  501  0.00000000000E+00  0.00000000000E+00 -0.33122568123E+03  0.33122568127E+03  0.50400001928E-02 0. -1.
    10030    2    1    2    0    0  0.00000000000E+00  0.00000000000E+00  0.75315432950E+03  0.14156056920E+04  0.11986233901E+04 0.  0.
        5    1    3    3  502    0 -0.26625836092E+03  0.37737623081E+03  0.82760873064E+03  0.94776823927E+03  0.46999998093E+01 0.  1.
       -5    1    3    3    0  502  0.26625836092E+03 -0.37737623081E+03 -0.74454401141E+02  0.46783745274E+03  0.46999998093E+01 0. -1.
</event>
<event>
 5   0  0.5003507E-04  0.1202357E+04  0.7818609E-02  0.9110796E-01
       -1   -1    0    0    0  501  0.00000000000E+00  0.00000000000E+00  0.99587582065E+03  0.99587582067E+03  0.50400001928E-02 0.  1.
        1   -1    0    0  501    0  0.00000000000E+00  0.00000000000E+00 -0.36291216658E+03  0.36291216661E+03  0.50400001928E-02 0. -1.
    10030    2    1    2    0    0  0.00000000000E+00  0.00000000000E+00  0.63296365407E+03  0.13587879873E+04  0.12023567719E+04 0.  0.
        3    1    3    3  502    0 -0.26521576532E+03  0.28957404685E+03  0.83092478872E+03  0.91903674872E+03  0.10100000352E+00 0.  1.
       -3    1    3    3    0  502  0.26521576532E+03 -0.28957404685E+03 -0.19796113465E+03  0.43975123856E+03  0.10100000352E+00 0. -1.
</event>
<event>
 5   0  0.9410666E-04  0.1194568E+04  0.7818609E-02  0.9117624E-01
        2   -1    0    0  501    0  0.00000000000E+00  0.00000000000E+00  0.59135717058E+03  0.59135717059E+03  0.25500000920E-02 0. -1.
       -2   -1    0    0    0  501  0.00000000000E+00  0.00000000000E+00 -0.60327066143E+03  0.60327066144E+03  0.25500000920E-02 0.  1.
    10030    2    1    2    0    0  0.00000000000E+00  0.00000000000E+00 -0.11913490848E+02  0.11946278320E+04  0.11945684266E+04 0.  0.
        2    1    3    3  502    0  0.92478636096E+02  0.32340389627E+02  0.58326711752E+03  0.59143784908E+03  0.25500000920E-02 0. -1.
       -2    1    3    3    0  502 -0.92478636096E+02 -0.32340389627E+02 -0.59518060837E+03  0.60318998294E+03  0.25500000920E-02 0.  1.
</event>
<event>
 5   0  0.5447074E-04  0.1197313E+04  0.7818609E-02  0.9115212E-01
       -1   -1    0    0    0  501  0.00000000000E+00  0.00000000000E+00  0.31366557112E+03  0.31366557116E+03  0.50400001928E-02 0. -1.
        1   -1    0    0  501    0  0.00000000000E+00  0.00000000000E+00 -0.11425847185E+04  0.11425847185E+04  0.50400001928E-02 0.  1.
    10030    2    1    2    0    0  0.00000000000E+00  0.00000000000E+00 -0.82891914738E+03  0.14562502897E+04  0.11973128051E+04 0.  0.
        4    1    3    3  502    0  0.51187634552E+03  0.46580301738E+02 -0.78775751577E+03  0.94061184033E+03  0.12699999809E+01 0.  1.
       -4    1    3    3    0  502 -0.51187634552E+03 -0.46580301738E+02 -0.41161631601E+02  0.51563844934E+03  0.12699999809E+01 0. -1.
</event>
<event>
 5   0  0.9145224E-04  0.1199703E+04  0.7818609E-02  0.9113117E-01
        2   -1    0    0  501    0  0.00000000000E+00  0.00000000000E+00  0.11751235716E+04  0.11751235716E+04  0.25500000920E-02 0.  1.
       -2   -1    0    0    0  501  0.00000000000E+00  0.00000000000E+00 -0.30619889884E+03  0.30619889885E+03  0.25500000920E-02 0. -1.
    10030    2    1    2    0    0  0.00000000000E+00  0.00000000000E+00  0.86892467281E+03  0.14813224705E+04  0.11997025359E+04 0.  0.
        5    1    3    3  502    0 -0.44393318454E+03  0.40115831931E+03  0.38215264629E+03  0.70997704509E+03  0.46999998093E+01 0.  1.
       -5    1    3    3    0  502  0.44393318454E+03 -0.40115831931E+03  0.48677202652E+03  0.77134542540E+03  0.46999998093E+01 0. -1.
</event>
<event>
 5   0  0.3453625E-04  0.1279206E+04  0.7818609E-02  0.9046220E-01
        3   -1    0    0  501    0  0.00000000000E+00  0.00000000000E+00  0.60975911316E+03  0.60975912153E+03  0.10100000352E+00 0.  1.
       -3   -1    0    0    0  501  0.00000000000E+00  0.00000000000E+00 -0.67090729016E+03  0.67090729776E+03  0.10100000352E+00 0. -1.
    10030    2    1    2    0    0  0.00000000000E+00  0.00000000000E+00 -0.61148177001E+02  0.12806664193E+04  0.12792057606E+04 0.  0.
        5    1    3    3  502    0  0.68663552240E+02 -0.25777723047E+03  0.55138646488E+03  0.61254624936E+03  0.46999998093E+01 0.  1.
       -5    1    3    3    0  502 -0.68663552240E+02  0.25777723047E+03 -0.61253464188E+03  0.66812016993E+03  0.46999998093E+01 0. -1.
</event>
<event>
 5   0  0.9070772E-04  0.1190686E+04  0.7818609E-02  0.9121049E-01
        2   -1    0    0  501    0  0.00000000000E+00  0.00000000000E+00  0.83155132195E+03  0.83155132196E+03  0.25500000920E-02 0. -1.
       -2   -1    0    0    0  501  0.00000000000E+00  0.00000000000E+00 -0.42623124669E+03  0.42623124670E+03  0.25500000920E-02 0.  1.
    10030    2    1    2    0    0  0.00000000000E+00  0.00000000000E+00  0.40532007526E+03  0.12577825687E+04  0.11906857800E+04 0.  0.
        4    1    3    3  502    0  0.16765556402E+03  0.15891628129E+03  0.78227723101E+03  0.81567276015E+03  0.12699999809E+01 0. -1.
       -4    1    3    3    0  502 -0.16765556402E+03 -0.15891628129E+03 -0.37695715574E+03  0.44210980850E+03  0.12699999809E+01 0.  1.
</event>
<event>
 5   0  0.5001586E-04  0.1200588E+04  0.7818609E-02  0.9112342E-01
       -1   -1    0    0    0  501  0.00000000000E+00  0.00000000000E+00  0.40807888269E+03  0.40807888272E+03  0.50400001928E-02 0.  1.
        1   -1    0    0  501    0  0.00000000000E+00  0.00000000000E+00 -0.88304673899E+03  0.88304673901E+03  0.50400001928E-02 0. -1.
    10030    2    1    2    0    0  0.00000000000E+00  0.00000000000E+00 -0.47496785630E+03  0.12911256217E+04  0.12005877338E+04 0.  0.
        1    1    3    3  502    0  0.10042895215E+03 -0.22865290272E+03  0.34956122853E+03  0.42960583896E+03  0.50400001928E-02 0.  1.
       -1    1    3    3    0  502 -0.10042895215E+03  0.22865290272E+03 -0.82452908483E+03  0.86151978277E+03  0.50400001928E-02 0. -1.
</event>
<event>
 5   0  0.9145224E-04  0.1195134E+04  0.7818609E-02  0.9117126E-01
        2   -1    0    0  501    0  0.00000000000E+00  0.00000000000E+00  0.20908883874E+04  0.20908883874E+04  0.25500000920E-02 0. -1.
       -2   -1    0    0    0  501  0.00000000000E+00  0.00000000000E+00 -0.17078224179E+03  0.17078224181E+03  0.25500000920E-02 0.  1.
    10030    2    1    2    0    0  0.00000000000E+00  0.00000000000E+00  0.19201061456E+04  0.22616706292E+04  0.11951344797E+04 0.  0.
        5    1    3    3  502    0  0.20106743722E+03  0.51471860838E+03  0.52976163017E+03  0.76552781460E+03  0.46999998093E+01 0.  1.
       -5    1    3    3    0  502 -0.20106743722E+03 -0.51471860838E+03  0.13903445155E+04  0.14961428146E+04  0.46999998093E+01 0. -1.
</event>
<event>
 5   0  0.3453625E-04  0.1201295E+04  0.7818609E-02  0.9111724E-01
        3   -1    0    0  501    0  0.00000000000E+00  0.00000000000E+00  0.93963376060E+03  0.93963376603E+03  0.10100000352E+00 0. -1.
       -3   -1    0    0    0  501  0.00000000000E+00  0.00000000000E+00 -0.38395551750E+03  0.38395553079E+03  0.10100000352E+00 0.  1.
    10030    2    1    2    0    0  0.00000000000E+00  0.00000000000E+00  0.55567824310E+03  0.13235892968E+04  0.12012952663E+04 0.  0.
        3    1    3    3  502    0 -0.52758201608E+03 -0.21574522236E+03  0.69110091632E+02  0.57416461022E+03  0.10100000352E+00 0. -1.
       -3    1    3    3    0  502  0.52758201608E+03  0.21574522236E+03  0.48656815147E+03  0.74942468660E+03  0.10100000352E+00 0.  1.
</event>
<event>
 5   0  0.9298693E-04  0.1198122E+04  0.7818609E-02  0.9114502E-01
       -2   -1    0    0    0  501  0.00000000000E+00  0.00000000000E+00  0.22495470195E+03  0.22495470197E+03  0.25500000920E-02 0.  1.
        2   -1    0    0  501    0  0.00000000000E+00  0.00000000000E+00 -0.15953179591E+04  0.15953179591E+04  0.25500000920E-02 0. -1.
    10030    2    1    2    0    0  0.00000000000E+00  0.00000000000E+00 -0.13703632571E+04  0.18202726610E+04  0.11981223243E+04 0.  0.
        1    1    3    3  502    0  0.50993105529E+03 -0.59652659103E+02 -0.11541571637E+04  0.12631970865E+04  0.50400001928E-02 0. -1.
       -1    1    3    3    0  502 -0.50993105529E+03  0.59652659103E+02 -0.21620609346E+03  0.55707557455E+03  0.50400001928E-02 0.  1.
</event>
<event>
 5   0  0.9050363E-04  0.1206114E+04  0.7818609E-02  0.9107522E-01
        2   -1    0    0  501    0  0.00000000000E+00  0.00000000000E+00  0.12805761108E+04  0.12805761108E+04  0.25500000920E-02 0. -1.
       -2   -1    0    0    0  501  0.00000000000E+00  0.00000000000E+00 -0.28399531618E+03  0.28399531619E+03  0.25500000920E-02 0.  1.
    10030    2    1    2    0    0  0.00000000000E+00  0.00000000000E+00  0.99658079464E+03  0.15645714270E+04  0.12061137881E+04 0.  0.
        3    1    3    3  502    0  0.31938278561E+03 -0.49373058998E+03  0.67185538053E+03  0.89284092747E+03  0.10100000352E+00 0. -1.
       -3    1    3    3    0  502 -0.31938278561E+03  0.49373058998E+03  0.32472541411E+03  0.67173049953E+03  0.10100000352E+00 0.  1.
</event>
<event>
 5   0  0.5001586E-04  0.1202827E+04  0.7818609E-02  0.9110386E-01
        1   -1    0    0  501    0  0.00000000000E+00  0.00000000000E+00  0.28304117321E+03  0.28304117326E+03  0.50400001928E-02 0. -1.
       -1   -1    0    0    0  501  0.00000000000E+00  0.00000000000E+00 -0.12778994341E+04  0.12778994341E+04  0.50400001928E-02 0.  1.
    10030    2    1    2    0    0  0.00000000000E+00  0.00000000000E+00 -0.99485826086E+03  0.15609406073E+04  0.12028269287E+04 0.  0.
        1    1    3    3  502    0  0.36106650026E+03 -0.41241324222E+03 -0.17627269874E+03  0.57578274055E+03  0.50400001928E-02 0. -1.
       -1    1    3    3    0  502 -0.36106650026E+03  0.41241324222E+03 -0.81858556212E+03  0.98515786679E+03  0.50400001928E-02 0.  1.
</event>
<event>
 5   0  0.5052959E-04  0.1209346E+04  0.7818609E-02  0.9104715E-01
       -1   -1    0    0    0  501  0.00000000000E+00  0.00000000000E+00  0.12085790001E+04  0.12085790002E+04  0.50400001928E-02 0.  1.
        1   -1    0    0  501    0  0.00000000000E+00  0.00000000000E+00 -0.30252832927E+03  0.30252832931E+03  0.50400001928E-02 0. -1.
    10030    2    1    2    0    0  0.00000000000E+00  0.00000000000E+00  0.90605067088E+03  0.15111073295E+04  0.12093459153E+04 0.  0.
        2    1    3    3  502    0  0.36112985932E+03 -0.91439437664E+02  0.10481630246E+04  0.11123945668E+04  0.25500000920E-02 0.  1.
       -2    1    3    3    0  502 -0.36112985932E+03  0.91439437664E+02 -0.14211235371E+03  0.39871276270E+03  0.25500000920E-02 0. -1.
</event>
<event>
 5   0  0.9298693E-04  0.1200326E+04  0.7818609E-02  0.9112571E-01
       -2   -1    0    0    0  501  0.00000000000E+00  0.00000000000E+00  0.79654959164E+03  0.79654959164E+03  0.25500000920E-02 0.  1.
        2   -1    0    0  501    0  0.00000000000E+00  0.00000000000E+00 -0.45219466029E+03  0.45219466030E+03  0.25500000920E-02 0. -1.
    10030    2    1    2    0    0  0.00000000000E+00  0.00000000000E+00  0.34435493135E+03  0.12487442519E+04  0.12003257425E+04 0.  0.
        1    1    3    3  502    0 -0.21485382332E+03  0.16157393282E+03 -0.38605579222E+03  0.47043317899E+03  0.50400001928E-02 0. -1.
       -1    1    3    3    0  502  0.21485382332E+03 -0.16157393282E+03  0.73041072356E+03  0.77831107295E+03  0.50400001928E-02 0.  1.
</event>
<event>
 5   0  0.9050363E-04  0.1209378E+04  0.7818609E-02  0.9104687E-01
        2   -1    0    0  501    0  0.00000000000E+00  0.00000000000E+00  0.14936221940E+04  0.14936221940E+04  0.25500000920E-02 0. -1.
       -2   -1    0    0    0  501  0.00000000000E+00  0.00000000000E+00 -0.24480681073E+03  0.24480681074E+03  0.25500000920E-02 0.  1.
    10030    2    1    2    0    0  0.00000000000E+00  0.00000000000E+00  0.12488153832E+04  0.17384290047E+04  0.12093781638E+04 0.  0.
        3    1    3    3  502    0 -0.29861664281E+02  0.91665853981E+02 -0.23368850517E+03  0.25279374088E+03  0.10100000352E+00 0.  1.
       -3    1    3    3    0  502  0.29861664281E+02 -0.91665853981E+02  0.14825038884E+04  0.14856352638E+04  0.10100000352E+00 0. -1.
</event>
<event>
 5   0  0.5157631E-04  0.1196503E+04  0.7818609E-02  0.9115923E-01
        1   -1    0    0  501    0  0.00000000000E+00  0.00000000000E+00  0.92812003848E+03  0.92812003849E+03  0.50400001928E-02 0.  1.
       -1   -1    0    0    0  501  0.00000000000E+00  0.00000000000E+00 -0.38562357317E+03  0.38562357320E+03  0.50400001928E-02 0. -1.
    10030    2    1    2    0    0  0.00000000000E+00  0.00000000000E+00  0.54249646531E+03  0.13137436117E+04  0.11965031811E+04 0.  0.
        5    1    3    3  502    0  0.58272114152E+03  0.12572449074E+03  0.32628240555E+03  0.67959758278E+03  0.46999998093E+01 0.  1.
       -5    1    3    3    0  502 -0.58272114152E+03 -0.12572449074E+03  0.21621405977E+03  0.63414602892E+03  0.46999998093E+01 0. -1.
</event>
<event>
 5   0  0.9050363E-04  0.1197880E+04  0.7818609E-02  0.9114714E-01
       -2   -1    0    0    0  501  0.00000000000E+00  0.00000000000E+00  0.65155457255E+03  0.65155457256E+03  0.25500000920E-02 0.  1.
        2   -1    0    0  501    0  0.00000000000E+00  0.00000000000E+00 -0.55057449911E+03  0.55057449912E+03  0.25500000920E-02 0. -1.
    10030    2    1    2    0    0  0.00000000000E+00  0.00000000000E+00  0.10098007344E+03  0.12021290717E+04  0.11978803487E+04 0.  0.
        3    1    3    3  502    0  0.24439959028E+03 -0.49931595016E+03 -0.17319455946E+03  0.58227480062E+03  0.10100000352E+00 0. -1.
       -3    1    3    3    0  502 -0.24439959028E+03  0.49931595016E+03  0.27417463290E+03  0.61985427105E+03  0.10100000352E+00 0.  1.
</event>
<event>
 5   0  0.5447074E-04  0.1203886E+04  0.7818609E-02  0.9109462E-01
        1   -1    0    0  501    0  0.00000000000E+00  0.00000000000E+00  0.13054503564E+04  0.13054503564E+04  0.50400001928E-02 0.  1.
       -1   -1    0    0    0  501  0.00000000000E+00  0.00000000000E+00 -0.27755592899E+03  0.27755592903E+03  0.50400001928E-02 0. -1.
    10030    2    1    2    0    0  0.00000000000E+00  0.00000000000E+00  0.10278944274E+04  0.15830062854E+04  0.12038861848E+04 0.  0.
        4    1    3    3  502    0 -0.10250141055E+03 -0.11880989616E+03 -0.25018790728E+03  0.29532682310E+03  0.12699999809E+01 0. -1.
       -4    1    3    3    0  502  0.10250141055E+03  0.11880989616E+03  0.12780823347E+04  0.12876794623E+04  0.12699999809E+01 0.  1.
</event>
<event>
 5   0  0.5447074E-04  0.1148406E+04  0.7818609E-02  0.9159255E-01
        1   -1    0    0  501    0  0.00000000000E+00  0.00000000000E+00  0.51992819312E+03  0.51992819314E+03  0.50400001928E-02 0.  1.
       -1   -1    0    0    0  501  0.00000000000E+00  0.00000000000E+00 -0.63414351836E+03  0.63414351838E+03  0.50400001928E-02 0. -1.
    10030    2    1    2    0    0  0.00000000000E+00  0.00000000000E+00 -0.11421532524E+03  0.11540717115E+04  0.11484060148E+04 0.  0.
        4    1    3    3  502    0 -0.26617656225E+03 -0.47630674922E+03  0.12263053355E+03  0.55924765739E+03  0.12699999809E+01 0.  1.
       -4    1    3    3    0  502  0.26617656225E+03  0.47630674922E+03 -0.23684585879E+03  0.59482405413E+03  0.12699999809E+01 0. -1.
</event>
<event>
 5   0  0.9050363E-04  0.1198582E+04  0.7818609E-02  0.9114098E-01
       -2   -1    0    0    0  501  0.00000000000E+00  0.00000000000E+00  0.66830973866E+03  0.66830973867E+03  0.25500000920E-02 0.  1.
        2   -1    0    0  501    0  0.00000000000E+00  0.00000000000E+00 -0.53740037724E+03  0.53740037725E+03  0.25500000920E-02 0. -1.
    10030    2    1    2    0    0  0.00000000000E+00  0.00000000000E+00  0.13090936142E+03  0.12057101159E+04  0.11985823387E+04 0.  0.
        3    1    3    3  502    0  0.57267968942E+03 -0.47763503690E+02  0.23648492259E+03  0.62142457931E+03  0.10100000352E+00 0.  1.
       -3    1    3    3    0  502 -0.57267968942E+03  0.47763503690E+02 -0.10557556117E+03  0.58428553660E+03  0.10100000352E+00 0. -1.
</event>
<event>
 5   0  0.5003507E-04  0.1198857E+04  0.7818609E-02  0.9113857E-01
        1   -1    0    0  501    0  0.00000000000E+00  0.00000000000E+00  0.24503559736E+03  0.24503559741E+03  0.50400001928E-02 0. -1.
       -1   -1    0    0    0  501  0.00000000000E+00  0.00000000000E+00 -0.14663777141E+04  0.14663777141E+04  0.50400001928E-02 0.  1.
    10030    2    1    2    0    0  0.00000000000E+00  0.00000000000E+00 -0.12213421168E+04  0.17114133116E+04  0.11988573546E+04 0.  0.
        3    1    3    3  502    0  0.44817795087E+02 -0.47784579027E+03 -0.98009334752E+02  0.48984801105E+03  0.10100000352E+00 0.  1.
       -3    1    3    3    0  502 -0.44817795087E+02  0.47784579027E+03 -0.11233327820E+04  0.12215653005E+04  0.10100000352E+00 0. -1.
</event>
<event>
 5   0  0.5001586E-04  0.1200443E+04  0.7818609E-02  0.9112469E-01
        1   -1    0    0  501    0  0.00000000000E+00  0.00000000000E+00  0.65187862313E+03  0.65187862315E+03  0.50400001928E-02 0. -1.
       -1   -1    0    0    0  501  0.00000000000E+00  0.00000000000E+00 -0.55265814796E+03  0.55265814798E+03  0.50400001928E-02 0.  1.
    10030    2    1    2    0    0  0.00000000000E+00  0.00000000000E+00  0.99220475167E+02  0.12045367711E+04  0.12004433057E+04 0.  0.
        1    1    3    3  502    0 -0.42714065433E+03  0.22380004474E+03  0.40822288499E+03  0.63180813738E+03  0.50400001928E-02 0. -1.
       -1    1    3    3    0  502  0.42714065433E+03 -0.22380004474E+03 -0.30900240983E+03  0.57272863374E+03  0.50400001928E-02 0.  1.
</event>
<event>
 5   0  0.5447074E-04  0.1199635E+04  0.7818609E-02  0.9113176E-01
       -1   -1    0    0    0  501  0.00000000000E+00  0.00000000000E+00  0.40627794484E+03  0.40627794487E+03  0.50400001928E-02 0.  1.
        1   -1    0    0  501    0  0.00000000000E+00  0.00000000000E+00 -0.88555381881E+03  0.88555381883E+03  0.50400001928E-02 0. -1.
    10030    2    1    2    0    0  0.00000000000E+00  0.00000000000E+00 -0.47927587398E+03  0.12918317637E+04  0.11996349204E+04 0.  0.
        4    1    3    3  502    0 -0.11627011435E+03  0.48328176691E+03 -0.60114567512E+03  0.78003701280E+03  0.12699999809E+01 0. -1.
       -4    1    3    3    0  502  0.11627011435E+03 -0.48328176691E+03  0.12186980114E+03  0.51179475090E+03  0.12699999809E+01 0.  1.
</event>
<event>
 5   0  0.9410666E-04  0.1203184E+04  0.7818609E-02  0.9110075E-01
        2   -1    0    0  501    0  0.00000000000E+00  0.00000000000E+00  0.24226604152E+03  0.24226604153E+03  0.25500000920E-02 0. -1.
       -2   -1    0    0    0  501  0.00000000000E+00  0.00000000000E+00 -0.14938646440E+04  0.14938646440E+04  0.25500000920E-02 0.  1.
    10030    2    1    2    0    0  0.00000000000E+00  0.00000000000E+00 -0.12515986024E+04  0.17361306855E+04  0.12031835668E+04 0.  0.
        2    1    3    3  502    0 -0.38867722554E+03  0.30065767224E+03 -0.12501617010E+03  0.50704444018E+03  0.25500000920E-02 0. -1.
       -2    1    3    3    0  502  0.38867722554E+03 -0.30065767224E+03 -0.11265824323E+04  0.12290862453E+04  0.25500000920E-02 0.  1.
</event>
<event>
 5   0  0.9410666E-04  0.1199648E+04  0.7818609E-02  0.9113165E-01
       -2   -1    0    0    0  501  0.00000000000E+00  0.00000000000E+00  0.24113968728E+03  0.24113968729E+03  0.25500000920E-02 0.  1.
        2   -1    0    0  501    0  0.00000000000E+00  0.00000000000E+00 -0.14920354139E+04  0.14920354139E+04  0.25500000920E-02 0. -1.
    10030    2    1    2    0    0  0.00000000000E+00  0.00000000000E+00 -0.12508957266E+04  0.17331751012E+04  0.11996482037E+04 0.  0.
        2    1    3    3  502    0  0.47554457405E+03  0.57813568427E+02 -0.11469633922E+04  0.12429843417E+04  0.25500000920E-02 0. -1.
       -2    1    3    3    0  502 -0.47554457405E+03 -0.57813568427E+02 -0.10393233446E+03  0.49019075955E+03  0.25500000920E-02 0.  1.
</event>
<event>
 5   0  0.9410666E-04  0.1198269E+04  0.7818609E-02  0.9114373E-01
       -2   -1    0    0    0  501  0.00000000000E+00  0.00000000000E+00  0.81755924567E+03  0.81755924568E+03  0.25500000920E-02 0.  1.
        2   -1    0    0  501    0  0.00000000000E+00  0.00000000000E+00 -0.43906530852E+03  0.43906530853E+03  0.25500000920E-02 0. -1.
    10030    2    1    2    0    0  0.00000000000E+00  0.00000000000E+00  0.37849393715E+03  0.12566245542E+04  0.11982685883E+04 0.  0.
        2    1    3    3  502    0 -0.10774855688E+03  0.40444198984E+03  0.63881881367E+03  0.76372282364E+03  0.25500000920E-02 0.  1.
       -2    1    3    3    0  502  0.10774855688E+03 -0.40444198984E+03 -0.26032487652E+03  0.49290173056E+03  0.25500000920E-02 0. -1.
</event>
<event>
 5   0  0.5052959E-04  0.1203442E+04  0.7818609E-02  0.9109849E-01
        1   -1    0    0  501    0  0.00000000000E+00  0.00000000000E+00  0.65695631843E+03  0.65695631845E+03  0.50400001928E-02 0. -1.
       -1   -1    0    0    0  501  0.00000000000E+00  0.00000000000E+00 -0.55112950062E+03  0.55112950064E+03  0.50400001928E-02 0.  1.
    10030    2    1    2    0    0  0.00000000000E+00  0.00000000000E+00  0.10582681781E+03  0.12080858191E+04  0.12034417439E+04 0.  0.
        2    1    3    3  502    0 -0.46514132894E+03  0.12298627233E+03  0.41567467214E+03  0.63582034581E+03  0.25500000920E-02 0. -1.
       -2    1    3    3    0  502  0.46514132894E+03 -0.12298627233E+03 -0.30984785433E+03  0.57226547328E+03  0.25500000920E-02 0.  1.
</event>
<event>
 5   0  0.5447074E-04  0.1203875E+04  0.7818609E-02  0.9109472E-01
        1   -1    0    0  501    0  0.00000000000E+00  0.00000000000E+00  0.10080795013E+04  0.10080795013E+04  0.50400001928E-02 0. -1.
       -1   -1    0    0    0  501  0.00000000000E+00  0.00000000000E+00 -0.35942452511E+03  0.35942452515E+03  0.50400001928E-02 0.  1.
    10030    2    1    2    0    0  0.00000000000E+00  0.00000000000E+00  0.64865497622E+03  0.13675040265E+04  0.12038745717E+04 0.  0.
        4    1    3    3  502    0  0.17805221667E+03  0.82485861813E+02 -0.32206969824E+03  0.37714322569E+03  0.12699999809E+01 0.  1.
       -4    1    3    3    0  502 -0.17805221667E+03 -0.82485861813E+02  0.97072467445E+03  0.99036080080E+03  0.12699999809E+01 0. -1.
</event>
<event>
 5   0  0.5003507E-04  0.1192165E+04  0.7818609E-02  0.9119742E-01
        1   -1    0    0  501    0  0.00000000000E+00  0.00000000000E+00  0.11407284432E+04  0.11407284432E+04  0.50400001928E-02 0.  1.
       -1   -1    0    0    0  501  0.00000000000E+00  0.00000000000E+00 -0.31148011009E+03  0.31148011013E+03  0.50400001928E-02 0. -1.
    10030    2    1    2    0    0  0.00000000000E+00  0.00000000000E+00  0.82924833311E+03  0.14522085533E+04  0.11921647891E+04 0.  0.
        3    1    3    3  502    0  0.34117256033E+03 -0.79607099149E+02  0.10020826863E+04  0.10615581598E+04  0.10100000352E+00 0.  1.
       -3    1    3    3    0  502 -0.34117256033E+03  0.79607099149E+02 -0.17283435320E+03  0.39065039358E+03  0.10100000352E+00 0. -1.
</event>
<event>
 5   0  0.9145224E-04  0.1187263E+04  0.7818609E-02  0.9124079E-01
        2   -1    0    0  501    0  0.00000000000E+00  0.00000000000E+00  0.14378733026E+04  0.14378733026E+04  0.25500000920E-02 0. -1.
       -2   -1    0    0    0  501  0.00000000000E+00  0.00000000000E+00 -0.24508308877E+03  0.24508308878E+03  0.25500000920E-02 0.  1.
    10030    2    1    2    0    0  0.00000000000E+00  0.00000000000E+00  0.11927902138E+04  0.16829563914E+04  0.11872631221E+04 0.  0.
        5    1    3    3  502    0 -0.49513782935E+03  0.24223941623E+03  0.90868153664E+03  0.10628102511E+04  0.46999998093E+01 0. -1.
       -5    1    3    3    0  502  0.49513782935E+03 -0.24223941623E+03  0.28410867715E+03  0.62014614024E+03  0.46999998093E+01 0.  1.
</event>
<event>
 5   0  0.5447074E-04  0.1196061E+04  0.7818609E-02  0.9116311E-01
        1   -1    0    0  501    0  0.00000000000E+00  0.00000000000E+00  0.51949862219E+03  0.51949862222E+03  0.50400001928E-02 0.  1.
       -1   -1    0    0    0  501  0.00000000000E+00  0.00000000000E+00 -0.68843405825E+03  0.68843405827E+03  0.50400001928E-02 0. -1.
    10030    2    1    2    0    0  0.00000000000E+00  0.00000000000E+00 -0.16893543606E+03  0.12079326805E+04  0.11960611101E+04 0.  0.
        4    1    3    3  502    0  0.25453399732E+03  0.40461808406E+03  0.27845347009E+03  0.55320999416E+03  0.12699999809E+01 0.  1.
       -4    1    3    3    0  502 -0.25453399732E+03 -0.40461808406E+03 -0.44738890615E+03  0.65472268632E+03  0.12699999809E+01 0. -1.
</event>
<event>
 5   0  0.9145224E-04  0.1202918E+04  0.7818609E-02  0.9110306E-01
       -2   -1    0    0    0  501  0.00000000000E+00  0.00000000000E+00  0.25175475577E+03  0.25175475578E+03  0.25500000920E-02 0.  1.
        2   -1    0    0  501    0  0.00000000000E+00  0.00000000000E+00 -0.14369258536E+04  0.14369258536E+04  0.25500000920E-02 0. -1.
    10030    2    1    2    0    0  0.00000000000E+00  0.00000000000E+00 -0.11851710978E+04  0.16886806094E+04  0.12029179811E+04 0.  0.
        5    1    3    3  502    0 -0.40286057320E+03 -0.41468561532E+03 -0.82525589605E+03  0.10076359387E+04  0.46999998093E+01 0.  1.
       -5    1    3    3    0  502  0.40286057320E+03  0.41468561532E+03 -0.35991520177E+03  0.68104467067E+03  0.46999998093E+01 0. -1.
</event>
<event>
 5   0  0.5447074E-04  0.1245813E+04  0.7818609E-02  0.9073676E-01
       -1   -1    0    0    0  501  0.00000000000E+00  0.00000000000E+00  0.41373531746E+03  0.41373531749E+03  0.50400001928E-02 0. -1.
        1   -1    0    0  501    0  0.00000000000E+00  0.00000000000E+00 -0.93782714118E+03  0.93782714119E+03  0.50400001928E-02 0.  1.
    10030    2    1    2    0    0  0.00000000000E+00  0.00000000000E+00 -0.52409182372E+03  0.13515624587E+04  0.12458125220E+04 0.  0.
        4    1    3    3  502    0 -0.16705418763E+03 -0.41695395252E+03 -0.73024972535E+03  0.85733539201E+03  0.12699999809E+01 0.  1.
       -4    1    3    3    0  502  0.16705418763E+03  0.41695395252E+03  0.20615790163E+03  0.49422706667E+03  0.12699999809E+01 0. -1.
</event>
<event>
 5   0  0.5157631E-04  0.1195960E+04  0.7818609E-02  0.9116400E-01
       -1   -1    0    0    0  501  0.00000000000E+00  0.00000000000E+00  0.74787972897E+03  0.74787972898E+03  0.50400001928E-02 0.  1.
        1   -1    0    0  501    0  0.00000000000E+00  0.00000000000E+00 -0.47812512728E+03  0.47812512731E+03  0.50400001928E-02 0. -1.
    10030    2    1    2    0    0  0.00000000000E+00  0.00000000000E+00  0.26975460168E+03  0.12260048563E+04  0.11959600171E+04 0.  0.
        5    1    3    3  502    0 -0.26648795561E+03  0.52682369662E+03  0.23212330357E+03  0.63439920859E+03  0.46999998093E+01 0.  1.
       -5    1    3    3    0  502  0.26648795561E+03 -0.52682369662E+03  0.37631298112E+02  0.59160564770E+03  0.46999998093E+01 0. -1.
</event>
<event>
 5   0  0.5003507E-04  0.1199821E+04  0.7818609E-02  0.9113013E-01
        1   -1    0    0  501    0  0.00000000000E+00  0.00000000000E+00  0.10209623833E+04  0.10209623833E+04  0.50400001928E-02 0. -1.
       -1   -1    0    0    0  501  0.00000000000E+00  0.00000000000E+00 -0.35250316818E+03  0.35250316821E+03  0.50400001928E-02 0.  1.
    10030    2    1    2    0    0  0.00000000000E+00  0.00000000000E+00  0.66845921512E+03  0.13734655515E+04  0.11998207778E+04 0.  0.
        3    1    3    3  502    0 -0.21663152884E+03  0.29463729327E+03  0.87860904855E+03  0.95167968575E+03  0.10100000352E+00 0. -1.
       -3    1    3    3    0  502  0.21663152884E+03 -0.29463729327E+03 -0.21014983343E+03  0.42178586577E+03  0.10100000352E+00 0.  1.
</event>
<event>
 5   0  0.5003507E-04  0.1207901E+04  0.7818609E-02  0.9105968E-01
        1   -1    0    0  501    0  0.00000000000E+00  0.00000000000E+00  0.89844908025E+03  0.89844908026E+03  0.50400001928E-02 0.  1.
       -1   -1    0    0    0  501  0.00000000000E+00  0.00000000000E+00 -0.40598461916E+03  0.40598461919E+03  0.50400001928E-02 0. -1.
    10030    2    1    2    0    0  0.00000000000E+00  0.00000000000E+00  0.49246446108E+03  0.13044336995E+04  0.12079014988E+04 0.  0.
        3    1    3    3  502    0 -0.10089156410E+03 -0.58400478258E+03  0.37178070156E+03  0.69961531862E+03  0.10100000352E+00 0. -1.
       -3    1    3    3    0  502  0.10089156410E+03  0.58400478258E+03  0.12068375952E+03  0.60481838084E+03  0.10100000352E+00 0.  1.
</event>
<event>
 5   0  0.9070772E-04  0.1202687E+04  0.7818609E-02  0.9110507E-01
       -2   -1    0    0    0  501  0.00000000000E+00  0.00000000000E+00  0.25946822842E+03  0.25946822843E+03  0.25500000920E-02 0.  1.
        2   -1    0    0  501    0  0.00000000000E+00  0.00000000000E+00 -0.13936746998E+04  0.13936746998E+04  0.25500000920E-02 0. -1.
    10030    2    1    2    0    0  0.00000000000E+00  0.00000000000E+00 -0.11342064713E+04  0.16531429282E+04  0.12026874995E+04 0.  0.
        4    1    3    3  502    0  0.50901781918E+02  0.49176379900E+03 -0.96556236671E+02  0.50373340682E+03  0.12699999809E+01 0.  1.
       -4    1    3    3    0  502 -0.50901781918E+02 -0.49176379900E+03 -0.10376502347E+04  0.11494095214E+04  0.12699999809E+01 0. -1.
</event>
<event>
 5   0  0.9410666E-04  0.1181746E+04  0.7818609E-02  0.9128986E-01
       -2   -1    0    0    0  501  0.00000000000E+00  0.00000000000E+00  0.81977753075E+03  0.81977753076E+03  0.25500000920E-02 0. -1.
        2   -1    0    0  501    0  0.00000000000E+00  0.00000000000E+00 -0.42588510062E+03  0.42588510062E+03  0.25500000920E-02 0.  1.
    10030    2    1    2    0    0  0.00000000000E+00  0.00000000000E+00  0.39389243014E+03  0.12456626314E+04  0.11817462269E+04 0.  0.
        2    1    3    3  502    0  0.20665189765E+03  0.51058813960E+03 -0.28455272657E+02  0.55155684898E+03  0.25500000920E-02 0.  1.
       -2    1    3    3    0  502 -0.20665189765E+03 -0.51058813960E+03  0.42234770279E+03  0.69410578241E+03  0.25500000920E-02 0. -1.
</event>
<event>
 5   0  0.5003507E-04  0.1194760E+04  0.7818609E-02  0.9117455E-01
       -1   -1    0    0    0  501  0.00000000000E+00  0.00000000000E+00  0.25907879909E+03  0.25907879914E+03  0.50400001928E-02 0. -1.
        1   -1    0    0  501    0  0.00000000000E+00  0.00000000000E+00 -0.13774307514E+04  0.13774307514E+04  0.50400001928E-02 0.  1.
    10030    2    1    2    0    0  0.00000000000E+00  0.00000000000E+00 -0.11183519523E+04  0.16365095506E+04  0.11947604027E+04 0.  0.
        3    1    3    3  502    0 -0.54271783713E+03 -0.20790157350E+03 -0.36988730800E+03  0.68889937279E+03  0.10100000352E+00 0.  1.
       -3    1    3    3    0  502  0.54271783713E+03  0.20790157350E+03 -0.74846464435E+03  0.94761017779E+03  0.10100000352E+00 0. -1.
</event>
<event>
 5   0  0.9050363E-04  0.1201927E+04  0.7818609E-02  0.9111172E-01
        2   -1    0    0  501    0  0.00000000000E+00  0.00000000000E+00  0.30739250942E+03  0.30739250943E+03  0.25500000920E-02 0.  1.
       -2   -1    0    0    0  501  0.00000000000E+00  0.00000000000E+00 -0.11749050407E+04  0.11749050407E+04  0.25500000920E-02 0. -1.
    10030    2    1    2    0    0  0.00000000000E+00  0.00000000000E+00 -0.86751253130E+03  0.14822975502E+04  0.12019268011E+04 0.  0.
        3    1    3    3  502    0 -0.44099210506E+02 -0.49710264528E+03 -0.84667305107E+03  0.98280773599E+03  0.10100000352E+00 0. -1.
       -3    1    3    3    0  502  0.44099210506E+02  0.49710264528E+03 -0.20839480225E+02  0.49948981416E+03  0.10100000352E+00 0.  1.
</event>
<event>
 5   0  0.5001586E-04  0.1202731E+04  0.7818609E-02  0.9110469E-01
       -1   -1    0    0    0  501  0.00000000000E+00  0.00000000000E+00  0.18281421358E+03  0.18281421365E+03  0.50400001928E-02 0. -1.
        1   -1    0    0  501    0  0.00000000000E+00  0.00000000000E+00 -0.19781872740E+04  0.19781872740E+04  0.50400001928E-02 0.  1.
    10030    2    1    2    0    0  0.00000000000E+00  0.00000000000E+00 -0.17953730604E+04  0.21610014876E+04  0.12027314761E+04 0.  0.
        1    1    3    3  502    0 -0.13138517619E+03  0.58257940399E+03 -0.77089280436E+03  0.97515975220E+03  0.50400001928E-02 0. -1.
       -1    1    3    3    0  502  0.13138517619E+03 -0.58257940399E+03 -0.10244802560E+04  0.11858417354E+04  0.50400001928E-02 0.  1.
</event>
<event>
 5   0  0.5447074E-04  0.1197707E+04  0.7818609E-02  0.9114866E-01
        1   -1    0    0  501    0  0.00000000000E+00  0.00000000000E+00  0.47585361529E+03  0.47585361532E+03  0.50400001928E-02 0.  1.
       -1   -1    0    0    0  501  0.00000000000E+00  0.00000000000E+00 -0.75364722566E+03  0.75364722568E+03  0.50400001928E-02 0. -1.
    10030    2    1    2    0    0  0.00000000000E+00  0.00000000000E+00 -0.27779361037E+03  0.12295008410E+04  0.11977074050E+04 0.  0.
        4    1    3    3  502    0  0.10043557030E+03 -0.42177464686E+03 -0.56295193233E+03  0.71056150158E+03  0.12699999809E+01 0. -1.
       -4    1    3    3    0  502 -0.10043557030E+03  0.42177464686E+03  0.28515832196E+03  0.51893933942E+03  0.12699999809E+01 0.  1.
</event>
<event>
 5   0  0.5157631E-04  0.1164893E+04  0.7818609E-02  0.9144153E-01
        1   -1    0    0  501    0  0.00000000000E+00  0.00000000000E+00  0.21723097371E+04  0.21723097371E+04  0.50400001928E-02 0. -1.
       -1   -1    0    0    0  501  0.00000000000E+00  0.00000000000E+00 -0.15616751122E+03  0.15616751130E+03  0.50400001928E-02 0.  1.
    10030    2    1    2    0    0  0.00000000000E+00  0.00000000000E+00  0.20161422259E+04  0.23284772484E+04  0.11648934807E+04 0.  0.
        5    1    3    3  502    0  0.13845076353E+03 -0.10391800907E+03 -0.10351684217E+03  0.20175577598E+03  0.46999998093E+01 0.  1.
       -5    1    3    3    0  502 -0.13845076353E+03  0.10391800907E+03  0.21196590680E+04  0.21267214724E+04  0.46999998093E+01 0. -1.
</event>
<event>
 5   0  0.9050363E-04  0.1198732E+04  0.7818609E-02  0.9113967E-01
        2   -1    0    0  501    0  0.00000000000E+00  0.00000000000E+00  0.41111817208E+03  0.41111817208E+03  0.25500000920E-02 0. -1.
       -2   -1    0    0    0  501  0.00000000000E+00  0.00000000000E+00 -0.87381096635E+03  0.87381096636E+03  0.25500000920E-02 0.  1.
    10030    2    1    2    0    0  0.00000000000E+00  0.00000000000E+00 -0.46269279428E+03  0.12849291384E+04  0.11987319421E+04 0.  0.
        3    1    3    3  502    0 -0.17350793080E+03  0.32179335909E+03  0.27776269229E+03  0.45913842295E+03  0.10100000352E+00 0. -1.
       -3    1    3    3    0  502  0.17350793080E+03 -0.32179335909E+03 -0.74045548656E+03  0.82579071549E+03  0.10100000352E+00 0.  1.
</event>
<event>
 5   0  0.5001586E-04  0.1133649E+04  0.7818609E-02  0.9173002E-01
       -1   -1    0    0    0  501  0.00000000000E+00  0.00000000000E+00  0.70767034591E+03  0.70767034593E+03  0.50400001928E-02 0. -1.
        1   -1    0    0  501    0  0.00000000000E+00  0.00000000000E+00 -0.45401081509E+03  0.45401081512E+03  0.50400001928E-02 0.  1.
    10030    2    1    2    0    0  0.00000000000E+00  0.00000000000E+00  0.25365953081E+03  0.11616811610E+04  0.11336489591E+04 0.  0.
        1    1    3    3  502    0  0.22819866646E+03  0.46150551490E+03  0.36981771928E+03  0.63389834925E+03  0.50400001928E-02 0. -1.
       -1    1    3    3    0  502 -0.22819866646E+03 -0.46150551490E+03 -0.11615818847E+03  0.52778281180E+03  0.50400001928E-02 0.  1.
</event>
<event>
 5   0  0.9298693E-04  0.1214703E+04  0.7818609E-02  0.9100083E-01
       -2   -1    0    0    0  501  0.00000000000E+00  0.00000000000E+00  0.40111335263E+03  0.40111335264E+03  0.25500000920E-02 0.  1.
        2   -1    0    0  501    0  0.00000000000E+00  0.00000000000E+00 -0.91963004459E+03  0.91963004459E+03  0.25500000920E-02 0. -1.
    10030    2    1    2    0    0  0.00000000000E+00  0.00000000000E+00 -0.51851669196E+03  0.13207433972E+04  0.12147030754E+04 0.  0.
        1    1    3    3  502    0 -0.14381327886E+03 -0.40669002463E+03 -0.72412958409E+03  0.84287762450E+03  0.50400001928E-02 0. -1.
       -1    1    3    3    0  502  0.14381327886E+03  0.40669002463E+03  0.20561289213E+03  0.47786577273E+03  0.50400001928E-02 0.  1.
</event>
<event>
 5   0  0.5447074E-04  0.1193745E+04  0.7818609E-02  0.9118350E-01
       -1   -1    0    0    0  501  0.00000000000E+00  0.00000000000E+00  0.40619276066E+03  0.40619276069E+03  0.50400001928E-02 0.  1.
        1   -1    0    0  501    0  0.00000000000E+00  0.00000000000E+00 -0.87706283319E+03  0.87706283320E+03  0.50400001928E-02 0. -1.
    10030    2    1    2    0    0  0.00000000000E+00  0.00000000000E+00 -0.47087007253E+03  0.12832555939E+04  0.11937446519E+04 0.  0.
        4    1    3    3  502    0 -0.24209885130E+03 -0.18504997516E+03  0.31627297947E+03  0.43918738319E+03  0.12699999809E+01 0.  1.
       -4    1    3    3    0  502  0.24209885130E+03  0.18504997516E+03 -0.78714305200E+03  0.84406821070E+03  0.12699999809E+01 0. -1.
</event>
<event>
 5   0  0.5157631E-04  0.1196349E+04  0.7818609E-02  0.9116058E-01
       -1   -1    0    0    0  501  0.00000000000E+00  0.00000000000E+00  0.38715383338E+03  0.38715383341E+03  0.50400001928E-02 0.  1.
        1   -1    0    0  501    0  0.00000000000E+00  0.00000000000E+00 -0.92421323305E+03  0.92421323307E+03  0.50400001928E-02 0. -1.
    10030    2    1    2    0    0  0.00000000000E+00  0.00000000000E+00 -0.53705939967E+03  0.13113670665E+04  0.11963489392E+04 0.  0.
        5    1    3    3  502    0  0.10511800844E+02  0.57663409410E+03 -0.94615167778E+02  0.58445829313E+03  0.46999998093E+01 0. -1.
       -5    1    3    3    0  502 -0.10511800844E+02 -0.57663409410E+03 -0.44244423190E+03  0.72690877335E+03  0.46999998093E+01 0.  1.
</event>
<event>
 5   0  0.5052959E-04  0.1192191E+04  0.7818609E-02  0.9119719E-01
        1   -1    0    0  501    0  0.00000000000E+00  0.00000000000E+00  0.17647553980E+04  0.17647553980E+04  0.50400001928E-02 0.  1.
       -1   -1    0    0    0  501  0.00000000000E+00  0.00000000000E+00 -0.20134799164E+03  0.20134799170E+03  0.50400001928E-02 0. -1.
    10030    2    1    2    0    0  0.00000000000E+00  0.00000000000E+00  0.15634074064E+04  0.19661033897E+04  0.11921911847E+04 0.  0.
        2    1    3    3  502    0  0.12529795386E+03  0.32542808067E+02  0.17412933292E+04  0.17460988145E+04  0.25500000920E-02 0.  1.
       -2    1    3    3    0  502 -0.12529795386E+03 -0.32542808067E+02 -0.17788592281E+03  0.22000457526E+03  0.25500000920E-02 0. -1.
</event>
<event>
 5   0  0.5052959E-04  0.1225612E+04  0.7818609E-02  0.9090729E-01
       -1   -1    0    0    0  501  0.00000000000E+00  0.00000000000E+00  0.41303892877E+03  0.41303892881E+03  0.50400001928E-02 0.  1.
        1   -1    0    0  501    0  0.00000000000E+00  0.00000000000E+00 -0.90919100849E+03  0.90919100850E+03  0.50400001928E-02 0. -1.
    10030    2    1    2    0    0  0.00000000000E+00  0.00000000000E+00 -0.49615207971E+03  0.13222299373E+04  0.12256121413E+04 0.  0.
        2    1    3    3  502    0  0.32347951529E+03 -0.14406737261E+03  0.29148774429E+03  0.45864965904E+03  0.25500000920E-02 0.  1.
       -2    1    3    3    0  502 -0.32347951529E+03  0.14406737261E+03 -0.78763982400E+03  0.86358027827E+03  0.25500000920E-02 0. -1.
</event>
<event>
 5   0  0.5157631E-04  0.1201079E+04  0.7818609E-02  0.9111912E-01
        1   -1    0    0  501    0  0.00000000000E+00  0.00000000000E+00  0.46144336616E+03  0.46144336619E+03  0.50400001928E-02 0. -1.
       -1   -1    0    0    0  501  0.00000000000E+00  0.00000000000E+00 -0.78156497572E+03  0.78156497574E+03  0.50400001928E-02 0.  1.
    10030    2    1    2    0    0  0.00000000000E+00  0.00000000000E+00 -0.32012160956E+03  0.12430083419E+04  0.12010794700E+04 0.  0.
        5    1    3    3  502    0 -0.15260674235E+03 -0.17673367852E+03  0.41251840705E+03  0.47404339157E+03  0.46999998093E+01 0. -1.
       -5    1    3    3    0  502  0.15260674235E+03  0.17673367852E+03 -0.73264001662E+03  0.76896495036E+03  0.46999998093E+01 0.  1.
</event>
<event>
 5   0  0.9410666E-04  0.1191267E+04  0.7818609E-02  0.9120535E-01
       -2   -1    0    0    0  501  0.00000000000E+00  0.00000000000E+00  0.17684624744E+03  0.17684624746E+03  0.25500000920E-02 0.  1.
        2   -1    0    0  501    0  0.00000000000E+00  0.00000000000E+00 -0.20061442368E+04  0.20061442368E+04  0.25500000920E-02 0. -1.
    10030    2    1    2    0    0  0.00000000000E+00  0.00000000000E+00 -0.18292979893E+04  0.21829904842E+04  0.11912666874E+04 0.  0.
        2    1    3    3  502    0 -0.42480374629E+02  0.24096637434E+03  0.80498323887E+02  0.25758368727E+03  0.25500000920E-02 0.  1.
       -2    1    3    3    0  502  0.42480374629E+02 -0.24096637434E+03 -0.19097963132E+04  0.19254067970E+04  0.25500000920E-02 0. -1.
</event>
<event>
 5   0  0.5001586E-04  0.1198139E+04  0.7818609E-02  0.9114487E-01
       -1   -1    0    0    0  501  0.00000000000E+00  0.00000000000E+00  0.26393709875E+03  0.26393709880E+03  0.50400001928E-02 0. -1.
        1   -1    0    0  501    0  0.00000000000E+00  0.00000000000E+00 -0.13597347509E+04  0.13597347509E+04  0.50400001928E-02 0.  1.
    10030    2    1    2    0    0  0.00000000000E+00  0.00000000000E+00 -0.10957976521E+04  0.16236718497E+04  0.11981392995E+04 0.  0.
        1    1    3    3  502    0  0.44769479893E+03 -0.36485518988E+03 -0.33220031891E+03  0.66626345727E+03  0.50400001928E-02 0. -1.
       -1    1    3    3    0  502 -0.44769479893E+03  0.36485518988E+03 -0.76359733322E+03  0.95740839243E+03  0.50400001928E-02 0.  1.
</event>
<event>
 5   0  0.5001586E-04  0.1196594E+04  0.7818609E-02  0.9115843E-01
       -1   -1    0    0    0  501  0.00000000000E+00  0.00000000000E+00  0.18530516555E+04  0.18530516555E+04  0.50400001928E-02 0. -1.
        1   -1    0    0  501    0  0.00000000000E+00  0.00000000000E+00 -0.19317289795E+03  0.19317289802E+03  0.50400001928E-02 0.  1.
    10030    2    1    2    0    0  0.00000000000E+00  0.00000000000E+00  0.16598787575E+04  0.20462245535E+04  0.11965940973E+04 0.  0.
        1    1    3    3  502    0  0.11962219601E+03  0.50557802524E+03  0.32254190596E+03  0.61151605908E+03  0.50400001928E-02 0.  1.
       -1    1    3    3    0  502 -0.11962219601E+03 -0.50557802524E+03  0.13373368516E+04  0.14347084944E+04  0.50400001928E-02 0. -1.
</event>
<event>
 5   0  0.5001586E-04  0.1206663E+04  0.7818609E-02  0.9107044E-01
        1   -1    0    0  501    0  0.00000000000E+00  0.00000000000E+00  0.63226818675E+03  0.63226818677E+03  0.50400001928E-02 0. -1.
       -1   -1    0    0    0  501  0.00000000000E+00  0.00000000000E+00 -0.57571933187E+03  0.57571933189E+03  0.50400001928E-02 0.  1.
    10030    2    1    2    0    0  0.00000000000E+00  0.00000000000E+00  0.56548854883E+02  0.12079875187E+04  0.12066631975E+04 0.  0.
        1    1    3    3  502    0  0.13634219018E+03  0.26988243230E+03 -0.49439367984E+03  0.57952638488E+03  0.50400001928E-02 0.  1.
       -1    1    3    3    0  502 -0.13634219018E+03 -0.26988243230E+03  0.55094253472E+03  0.62846113378E+03  0.50400001928E-02 0. -1.
</event>
<event>
 5   0  0.9070772E-04  0.1196278E+04  0.7818609E-02  0.9116120E-01
        2   -1    0    0  501    0  0.00000000000E+00  0.00000000000E+00  0.23345321301E+04  0.23345321301E+04  0.25500000920E-02 0.  1.
       -2   -1    0    0    0  501  0.00000000000E+00  0.00000000000E+00 -0.15325142033E+03  0.15325142035E+03  0.25500000920E-02 0. -1.
    10030    2    1    2    0    0  0.00000000000E+00  0.00000000000E+00  0.21812807098E+04  0.24877835505E+04  0.11962781696E+04 0.  0.
        4    1    3    3  502    0 -0.90357044139E+02  0.35017290041E+03  0.99860052972E+02  0.37517875564E+03  0.12699999809E+01 0. -1.
       -4    1    3    3    0  502  0.90357044139E+02 -0.35017290041E+03  0.20814206568E+04  0.21126047948E+04  0.12699999809E+01 0.  1.
</event>
<event>
 5   0  0.5003507E-04  0.1206055E+04  0.7818609E-02  0.9107573E-01
        1   -1    0    0  501    0  0.00000000000E+00  0.00000000000E+00  0.99484979751E+03  0.99484979752E+03  0.50400001928E-02 0. -1.
       -1   -1    0    0    0  501  0.00000000000E+00  0.00000000000E+00 -0.36552490592E+03  0.36552490595E+03  0.50400001928E-02 0.  1.
    10030    2    1    2    0    0  0.00000000000E+00  0.00000000000E+00  0.62932489159E+03  0.13603747035E+04  0.12060553531E+04 0.  0.
        3    1    3    3  502    0  0.35439019730E+03 -0.11066641167E+03 -0.22132678805E+03  0.43223260396E+03  0.10100000352E+00 0.  1.
       -3    1    3    3    0  502 -0.35439019730E+03  0.11066641167E+03  0.85065167964E+03  0.92814209952E+03  0.10100000352E+00 0. -1.
</event>
<event>
 5   0  0.9070772E-04  0.1212744E+04  0.7818609E-02  0.9101774E-01
        2   -1    0    0  501    0  0.00000000000E+00  0.00000000000E+00  0.44927130067E+03  0.44927130067E+03  0.25500000920E-02 0.  1.
       -2   -1    0    0    0  501  0.00000000000E+00  0.00000000000E+00 -0.81840795071E+03  0.81840795071E+03  0.25500000920E-02 0. -1.
    10030    2    1    2    0    0  0.00000000000E+00  0.00000000000E+00 -0.36913665004E+03  0.12676792514E+04  0.12127443333E+04 0.  0.
        4    1    3    3  502    0  0.49306293227E+03 -0.22231697855E+03  0.10198387452E+03  0.55039823554E+03  0.12699999809E+01 0. -1.
       -4    1    3    3    0  502 -0.49306293227E+03  0.22231697855E+03 -0.47112052455E+03  0.71728101584E+03  0.12699999809E+01 0.  1.
</event>
<event>
 5   0  0.9050363E-04  0.1201284E+04  0.7818609E-02  0.9111733E-01
        2   -1    0    0  501    0  0.00000000000E+00  0.00000000000E+00  0.45770841380E+03  0.45770841381E+03  0.25500000920E-02 0.  1.
       -2   -1    0    0    0  501  0.00000000000E+00  0.00000000000E+00 -0.78821110980E+03  0.78821110981E+03  0.25500000920E-02 0. -1.
    10030    2    1    2    0    0  0.00000000000E+00  0.00000000000E+00 -0.33050269600E+03  0.12459195236E+04  0.12012840743E+04 0.  0.
        3    1    3    3  502    0  0.31299176539E+03 -0.90200572610E+02  0.35814886802E+03  0.48411838466E+03  0.10100000352E+00 0.  1.
       -3    1    3    3    0  502 -0.31299176539E+03  0.90200572610E+02 -0.68865156401E+03  0.76180113896E+03  0.10100000352E+00 0. -1.
</event>
<event>
 5   0  0.9298693E-04  0.1199918E+04  0.7818609E-02  0.9112928E-01
       -2   -1    0    0    0  501  0.00000000000E+00  0.00000000000E+00  0.11513336825E+04  0.11513336825E+04  0.25500000920E-02 0.  1.
        2   -1    0    0  501    0  0.00000000000E+00  0.00000000000E+00 -0.31263821701E+03  0.31263821702E+03  0.25500000920E-02 0. -1.
    10030    2    1    2    0    0  0.00000000000E+00  0.00000000000E+00  0.83869546547E+03  0.14639718995E+04  0.11999181800E+04 0.  0.
        1    1    3    3  502    0 -0.48021605735E+03 -0.11774434075E+03  0.83395218819E+03  0.96950886728E+03  0.50400001928E-02 0.  1.
       -1    1    3    3    0  502  0.48021605735E+03  0.11774434075E+03  0.47432772718E+01  0.49446303221E+03  0.50400001928E-02 0. -1.
</event>
<event>
 5   0  0.9070772E-04  0.1196421E+04  0.7818609E-02  0.9115995E-01
       -2   -1    0    0    0  501  0.00000000000E+00  0.00000000000E+00  0.10145923784E+04  0.10145923784E+04  0.25500000920E-02 0.  1.
        2   -1    0    0  501    0  0.00000000000E+00  0.00000000000E+00 -0.35270904399E+03  0.35270904400E+03  0.25500000920E-02 0. -1.
    10030    2    1    2    0    0  0.00000000000E+00  0.00000000000E+00  0.66188333443E+03  0.13673014224E+04  0.11964211764E+04 0.  0.
        4    1    3    3  502    0  0.54977686830E+03  0.23505657969E+03  0.35226370299E+03  0.69397228325E+03  0.12699999809E+01 0. -1.
       -4    1    3    3    0  502 -0.54977686830E+03 -0.23505657969E+03  0.30961963144E+03  0.67332913916E+03  0.12699999809E+01 0.  1.
</event>
<event>
 5   0  0.5003507E-04  0.1202174E+04  0.7818609E-02  0.9110956E-01
       -1   -1    0    0    0  501  0.00000000000E+00  0.00000000000E+00  0.13403008869E+04  0.13403008869E+04  0.50400001928E-02 0. -1.
        1   -1    0    0  501    0  0.00000000000E+00  0.00000000000E+00 -0.26957038945E+03  0.26957038950E+03  0.50400001928E-02 0.  1.
    10030    2    1    2    0    0  0.00000000000E+00  0.00000000000E+00  0.10707304974E+04  0.16098712764E+04  0.12021737513E+04 0.  0.
        3    1    3    3  502    0 -0.53947919728E+03  0.26360663638E+03  0.49798545365E+03  0.78007421781E+03  0.10100000352E+00 0.  1.
       -3    1    3    3    0  502  0.53947919728E+03 -0.26360663638E+03  0.57274504375E+03  0.82979705856E+03  0.10100000352E+00 0. -1.
</event>
<event>
 5   0  0.9050363E-04  0.1198659E+04  0.7818609E-02  0.9114031E-01
       -2   -1    0    0    0  501  0.00000000000E+00  0.00000000000E+00  0.30901047268E+03  0.30901047269E+03  0.25500000920E-02 0. -1.
        2   -1    0    0  501    0  0.00000000000E+00  0.00000000000E+00 -0.11624058699E+04  0.11624058699E+04  0.25500000920E-02 0.  1.
    10030    2    1    2    0    0  0.00000000000E+00  0.00000000000E+00 -0.85339539720E+03  0.14714163426E+04  0.11986585624E+04 0.  0.
        3    1    3    3  502    0 -0.81407548792E+02  0.25123688327E+03  0.23373059744E+03  0.35267146596E+03  0.10100000352E+00 0. -1.
       -3    1    3    3    0  502  0.81407548792E+02 -0.25123688327E+03 -0.10871259946E+04  0.11187448766E+04  0.10100000352E+00 0.  1.
</event>
<event>
 5   0  0.5003507E-04  0.1200962E+04  0.7818609E-02  0.9112015E-01
       -1   -1    0    0    0  501  0.00000000000E+00  0.00000000000E+00  0.34326156755E+03  0.34326156758E+03  0.50400001928E-02 0. -1.
        1   -1    0    0  501    0  0.00000000000E+00  0.00000000000E+00 -0.10504443455E+04  0.10504443455E+04  0.50400001928E-02 0.  1.
    10030    2    1    2    0    0  0.00000000000E+00  0.00000000000E+00 -0.70718277796E+03  0.13937059131E+04  0.12009615692E+04 0.  0.
        3    1    3    3  502    0  0.31897645198E+03 -0.39661848179E+03  0.16175873167E+02  0.50922869724E+03  0.10100000352E+00 0. -1.
       -3    1    3    3    0  502 -0.31897645198E+03  0.39661848179E+03 -0.72335865113E+03  0.88447721586E+03  0.10100000352E+00 0.  1.
</event>
<event>
 5   0  0.9070772E-04  0.1203440E+04  0.7818609E-02  0.9109851E-01
       -2   -1    0    0    0  501  0.00000000000E+00  0.00000000000E+00  0.41867567719E+03  0.41867567720E+03  0.25500000920E-02 0. -1.
        2   -1    0    0  501    0  0.00000000000E+00  0.00000000000E+00 -0.86479120604E+03  0.86479120604E+03  0.25500000920E-02 0.  1.
    10030    2    1    2    0    0  0.00000000000E+00  0.00000000000E+00 -0.44611552884E+03  0.12834668832E+04  0.12034401420E+04 0.  0.
        4    1    3    3  502    0  0.18177865952E+03  0.16553055814E+03  0.36266402677E+03  0.43814456056E+03  0.12699999809E+01 0. -1.
       -4    1    3    3    0  502 -0.18177865952E+03 -0.16553055814E+03 -0.80877955562E+03  0.84532232268E+03  0.12699999809E+01 0.  1.
</event>
<event>
 5   0  0.9410666E-04  0.1173306E+04  0.7818609E-02  0.9136548E-01
        2   -1    0    0  501    0  0.00000000000E+00  0.00000000000E+00  0.24901839732E+04  0.24901839732E+04  0.25500000920E-02 0.  1.
       -2   -1    0    0    0  501  0.00000000000E+00  0.00000000000E+00 -0.13820724300E+03  0.13820724303E+03  0.25500000920E-02 0. -1.
    10030    2    1    2    0    0  0.00000000000E+00  0.00000000000E+00  0.23519767302E+04  0.26283912162E+04  0.11733055212E+04 0.  0.
        2    1    3    3  502    0 -0.18170739262E+03  0.10346743560E+03 -0.51893527163E+02  0.21544378601E+03  0.25500000920E-02 0. -1.
       -2    1    3    3    0  502  0.18170739262E+03 -0.10346743560E+03  0.24038702573E+04  0.24129474302E+04  0.25500000920E-02 0.  1.
</event>
<event>
 5   0  0.9298693E-04  0.1199010E+04  0.7818609E-02  0.9113724E-01
       -2   -1    0    0    0  501  0.00000000000E+00  0.00000000000E+00  0.16882682687E+03  0.16882682689E+03  0.25500000920E-02 0.  1.
        2   -1    0    0  501    0  0.00000000000E+00  0.00000000000E+00 -0.21288447113E+04  0.21288447113E+04  0.25500000920E-02 0. -1.
    10030    2    1    2    0    0  0.00000000000E+00  0.00000000000E+00 -0.19600178844E+04  0.22976715382E+04  0.11990097540E+04 0.  0.
        1    1    3    3  502    0  0.21179790964E+03 -0.41872073813E+03 -0.26499071356E+03  0.53889283662E+03  0.50400001928E-02 0.  1.
       -1    1    3    3    0  502 -0.21179790964E+03  0.41872073813E+03 -0.16950271709E+04  0.17587787016E+04  0.50400001928E-02 0. -1.
</event>
<event>
 5   0  0.9050363E-04  0.1198066E+04  0.7818609E-02  0.9114551E-01
        2   -1    0    0  501    0  0.00000000000E+00  0.00000000000E+00  0.21547905407E+04  0.21547905407E+04  0.25500000920E-02 0.  1.
       -2   -1    0    0    0  501  0.00000000000E+00  0.00000000000E+00 -0.16653143553E+03  0.16653143555E+03  0.25500000920E-02 0. -1.
    10030    2    1    2    0    0  0.00000000000E+00  0.00000000000E+00  0.19882591051E+04  0.23213219762E+04  0.11980657111E+04 0.  0.
        3    1    3    3  502    0 -0.98726348192E+02  0.25604913578E+03  0.20258356914E+04  0.20443381106E+04  0.10100000352E+00 0.  1.
       -3    1    3    3    0  502  0.98726348192E+02 -0.25604913578E+03 -0.37576586280E+02  0.27698386559E+03  0.10100000352E+00 0. -1.
</event>
<event>
 5   0  0.9410666E-04  0.1203184E+04  0.7818609E-02  0.9110074E-01
       -2   -1    0    0    0  501  0.00000000000E+00  0.00000000000E+00  0.47950552800E+03  0.47950552801E+03  0.25500000920E-02 0.  1.
        2   -1    0    0  501    0  0.00000000000E+00  0.00000000000E+00 -0.75476268565E+03  0.75476268565E+03  0.25500000920E-02 0. -1.
    10030    2    1    2    0    0  0.00000000000E+00  0.00000000000E+00 -0.27525715765E+03  0.12342682137E+04  0.12031839096E+04 0.  0.
        2    1    3    3  502    0 -0.36984857104E+03 -0.96677077058E+02 -0.61414905955E+03  0.72340409874E+03  0.25500000920E-02 0. -1.
       -2    1    3    3    0  502  0.36984857104E+03  0.96677077058E+02  0.33889190190E+03  0.51086411491E+03  0.25500000920E-02 0.  1.
</event>
<event>
 5   0  0.5052959E-04  0.1199570E+04  0.7818609E-02  0.9113233E-01
       -1   -1    0    0    0  501  0.00000000000E+00  0.00000000000E+00  0.63086434746E+03  0.63086434748E+03  0.50400001928E-02 0. -1.
        1   -1    0    0  501    0  0.00000000000E+00  0.00000000000E+00 -0.57023691047E+03  0.57023691050E+03  0.50400001928E-02 0.  1.
    10030    2    1    2    0    0  0.00000000000E+00  0.00000000000E+00  0.60627436989E+02  0.12011012580E+04  0.11995701504E+04 0.  0.
        2    1    3    3  502    0 -0.51438130898E+03  0.23082642105E+03  0.23520424816E+03  0.61089279423E+03  0.25500000920E-02 0.  1.
       -2    1    3    3    0  502  0.51438130898E+03 -0.23082642105E+03 -0.17457681117E+03  0.59020846375E+03  0.25500000920E-02 0. -1.
</event>
<event>
 5   0  0.5052959E-04  0.1190627E+04  0.7818609E-02  0.9121100E-01
        1   -1    0    0  501    0  0.00000000000E+00  0.00000000000E+00  0.17164787089E+04  0.17164787089E+04  0.50400001928E-02 0. -1.
       -1   -1    0    0    0  501  0.00000000000E+00  0.00000000000E+00 -0.20646815528E+03  0.20646815534E+03  0.50400001928E-02 0.  1.
    10030    2    1    2    0    0  0.00000000000E+00  0.00000000000E+00  0.15100105536E+04  0.19229468642E+04  0.11906270494E+04 0.  0.
        2    1    3    3  502    0 -0.81833786144E+02 -0.10764566530E+03 -0.18133721708E+03  0.22620244057E+03  0.25500000920E-02 0.  1.
       -2    1    3    3    0  502  0.81833786144E+02  0.10764566530E+03  0.16913477707E+04  0.16967444236E+04  0.25500000920E-02 0. -1.
</event>
<event>
 5   0  0.5447074E-04  0.1200957E+04  0.7818609E-02  0.9112019E-01
       -1   -1    0    0    0  501  0.00000000000E+00  0.00000000000E+00  0.80263157552E+03  0.80263157553E+03  0.50400001928E-02 0.  1.
        1   -1    0    0  501    0  0.00000000000E+00  0.00000000000E+00 -0.44924032888E+03  0.44924032891E+03  0.50400001928E-02 0. -1.
    10030    2    1    2    0    0  0.00000000000E+00  0.00000000000E+00  0.35339124663E+03  0.12518719044E+04  0.12009570733E+04 0.  0.
        4    1    3    3  502    0  0.31090437983E+03  0.35244735634E+02 -0.35754502724E+03  0.47512501954E+03  0.12699999809E+01 0. -1.
       -4    1    3    3    0  502 -0.31090437983E+03 -0.35244735634E+02  0.71093627388E+03  0.77674688490E+03  0.12699999809E+01 0.  1.
</event>
<event>
 5   0  0.5157631E-04  0.1200198E+04  0.7818609E-02  0.9112683E-01
        1   -1    0    0  501    0  0.00000000000E+00  0.00000000000E+00  0.78964763432E+03  0.78964763433E+03  0.50400001928E-02 0. -1.
       -1   -1    0    0    0  501  0.00000000000E+00  0.00000000000E+00 -0.45604998355E+03  0.45604998358E+03  0.50400001928E-02 0.  1.
    10030    2    1    2    0    0  0.00000000000E+00  0.00000000000E+00  0.33359765077E+03  0.12456976179E+04  0.12001979681E+04 0.  0.
        5    1    3    3  502    0 -0.19013471441E+02 -0.49904108845E+03  0.51211759116E+03  0.71532512694E+03  0.46999998093E+01 0. -1.
       -5    1    3    3    0  502  0.19013471441E+02  0.49904108845E+03 -0.17851994039E+03  0.53037249097E+03  0.46999998093E+01 0.  1.
</event>
<event>
 5   0  0.5157631E-04  0.1202481E+04  0.7818609E-02  0.9110687E-01
       -1   -1    0    0    0  501  0.00000000000E+00  0.00000000000E+00  0.45942855823E+03  0.45942855826E+03  0.50400001928E-02 0.  1.
        1   -1    0    0  501    0  0.00000000000E+00  0.00000000000E+00 -0.78682586502E+03  0.78682586504E+03  0.50400001928E-02 0. -1.
    10030    2    1    2    0    0  0.00000000000E+00  0.00000000000E+00 -0.32739730679E+03  0.12462544233E+04  0.12024812228E+04 0.  0.
        5    1    3    3  502    0  0.71540730075E+02  0.52288088904E+02  0.45260451626E+03  0.46122126841E+03  0.46999998093E+01 0.  1.
       -5    1    3    3    0  502 -0.71540730075E+02 -0.52288088904E+02 -0.78000182305E+03  0.78503315488E+03  0.46999998093E+01 0. -1.
</event>
<event>
 5   0  0.9050363E-04  0.1199609E+04  0.7818609E-02  0.9113199E-01
       -2   -1    0    0    0  501  0.00000000000E+00  0.00000000000E+00  0.18420201268E+03  0.18420201270E+03  0.25500000920E-02 0. -1.
        2   -1    0    0  501    0  0.00000000000E+00  0.00000000000E+00 -0.19531027015E+04  0.19531027015E+04  0.25500000920E-02 0.  1.
    10030    2    1    2    0    0  0.00000000000E+00  0.00000000000E+00 -0.17689006888E+04  0.21373047142E+04  0.11996090173E+04 0.  0.
        3    1    3    3  502    0  0.11500317677E+03 -0.21604362305E+02  0.16366856272E+03  0.20119614252E+03  0.10100000352E+00 0. -1.
       -3    1    3    3    0  502 -0.11500317677E+03  0.21604362305E+02 -0.19325692516E+04  0.19361085717E+04  0.10100000352E+00 0.  1.
</event>
<event>
 5   0  0.9050363E-04  0.1191807E+04  0.7818609E-02  0.9120058E-01
       -2   -1    0    0    0  501  0.00000000000E+00  0.00000000000E+00  0.28732618162E+03  0.28732618163E+03  0.25500000920E-02 0.  1.
        2   -1    0    0  501    0  0.00000000000E+00  0.00000000000E+00 -0.12358812083E+04  0.12358812083E+04  0.25500000920E-02 0. -1.
    10030    2    1    2    0    0  0.00000000000E+00  0.00000000000E+00 -0.94855502669E+03  0.15232073899E+04  0.11918070792E+04 0.  0.
        3    1    3    3  502    0  0.56059700167E+03 -0.44153492373E+02 -0.72629466981E+03  0.91854367712E+03  0.10100000352E+00 0. -1.
       -3    1    3    3    0  502 -0.56059700167E+03  0.44153492373E+02 -0.22226035688E+03  0.60466371283E+03  0.10100000352E+00 0.  1.
</event>
<event>
 5   0  0.5157631E-04  0.1199832E+04  0.7818609E-02  0.9113004E-01
       -1   -1    0    0    0  501  0.00000000000E+00  0.00000000000E+00  0.26587489073E+03  0.26587489077E+03  0.50400001928E-02 0.  1.
        1   -1    0    0  501    0  0.00000000000E+00  0.00000000000E+00 -0.13536411896E+04  0.13536411896E+04  0.50400001928E-02 0. -1.
    10030    2    1    2    0    0  0.00000000000E+00  0.00000000000E+00 -0.10877662989E+04  0.16195160804E+04  0.11998319939E+04 0.  0.
        5    1    3    3  502    0 -0.73047510106E+02  0.16994880092E+03  0.22639235741E+03  0.29239378099E+03  0.46999998093E+01 0.  1.
       -5    1    3    3    0  502  0.73047510106E+02 -0.16994880092E+03 -0.13141586563E+04  0.13271222994E+04  0.46999998093E+01 0. -1.
</event>
<event>
 5   0  0.9298693E-04  0.1198090E+04  0.7818609E-02  0.9114530E-01
        2   -1    0    0  501    0  0.00000000000E+00  0.00000000000E+00  0.73660853385E+03  0.73660853386E+03  0.25500000920E-02 0.  1.
       -2   -1    0    0    0  501  0.00000000000E+00  0.00000000000E+00 -0.48717141629E+03  0.48717141629E+03  0.25500000920E-02 0. -1.
    10030    2    1    2    0    0  0.00000000000E+00  0.00000000000E+00  0.24943711757E+03  0.12237799501E+04  0.11980895170E+04 0.  0.
        1    1    3    3  502    0  0.15848962057E+03  0.37339837529E+03  0.57497597735E+03  0.70366375568E+03  0.50400001928E-02 0.  1.
       -1    1    3    3    0  502 -0.15848962057E+03 -0.37339837529E+03 -0.32553885978E+03  0.52011619447E+03  0.50400001928E-02 0. -1.
</event>
<event>
 5   0  0.5052959E-04  0.1194999E+04  0.7818609E-02  0.9117245E-01
        1   -1    0    0  501    0  0.00000000000E+00  0.00000000000E+00  0.61578773996E+03  0.61578773998E+03  0.50400001928E-02 0. -1.
       -1   -1    0    0    0  501  0.00000000000E+00  0.00000000000E+00 -0.57975462979E+03  0.57975462981E+03  0.50400001928E-02 0.  1.
    10030    2    1    2    0    0  0.00000000000E+00  0.00000000000E+00  0.36033110171E+02  0.11955423698E+04  0.11949992355E+04 0.  0.
        2    1    3    3  502    0 -0.35078961608E+03 -0.48203794688E+03  0.57932762169E+02  0.59897424145E+03  0.25500000920E-02 0. -1.
       -2    1    3    3    0  502  0.35078961608E+03  0.48203794688E+03 -0.21899651998E+02  0.59656812834E+03  0.25500000920E-02 0.  1.
</event>
<event>
 5   0  0.9050363E-04  0.1198690E+04  0.7818609E-02  0.9114004E-01
        2   -1    0    0  501    0  0.00000000000E+00  0.00000000000E+00  0.21846277170E+04  0.21846277170E+04  0.25500000920E-02 0.  1.
       -2   -1    0    0    0  501  0.00000000000E+00  0.00000000000E+00 -0.16442828493E+03  0.16442828495E+03  0.25500000920E-02 0. -1.
    10030    2    1    2    0    0  0.00000000000E+00  0.00000000000E+00  0.20201994320E+04  0.23490560019E+04  0.11986902665E+04 0.  0.
        3    1    3    3  502    0  0.38502767495E+02  0.41851429975E+03  0.18474563997E+04  0.18946587664E+04  0.10100000352E+00 0.  1.
       -3    1    3    3    0  502 -0.38502767495E+02 -0.41851429975E+03  0.17274303232E+03  0.45439723549E+03  0.10100000352E+00 0. -1.
</event>
<event>
 5   0  0.9070772E-04  0.1189558E+04  0.7818609E-02  0.9122046E-01
        2   -1    0    0  501    0  0.00000000000E+00  0.00000000000E+00  0.15118863168E+04  0.15118863168E+04  0.25500000920E-02 0.  1.
       -2   -1    0    0    0  501  0.00000000000E+00  0.00000000000E+00 -0.23398717635E+03  0.23398717636E+03  0.25500000920E-02 0. -1.
    10030    2    1    2    0    0  0.00000000000E+00  0.00000000000E+00  0.12778991404E+04  0.17458734931E+04  0.11895579183E+04 0.  0.
        4    1    3    3  502    0 -0.55732665702E+03 -0.14742506343E+03  0.85371700306E+03  0.10301366347E+04  0.12699999809E+01 0.  1.
       -4    1    3    3    0  502  0.55732665702E+03  0.14742506343E+03  0.42418213736E+03  0.71573685842E+03  0.12699999809E+01 0. -1.
</event>
<event>
 5   0  0.9145224E-04  0.1236697E+04  0.7818609E-02  0.9081328E-01
       -2   -1    0    0    0  501  0.00000000000E+00  0.00000000000E+00  0.41535404826E+03  0.41535404827E+03  0.25500000920E-02 0.  1.
        2   -1    0    0  501    0  0.00000000000E+00  0.00000000000E+00 -0.92055193775E+03  0.92055193775E+03  0.25500000920E-02 0. -1.
    10030    2    1    2    0    0  0.00000000000E+00  0.00000000000E+00 -0.50519788949E+03  0.13359059860E+04  0.12366971723E+04 0.  0.
        5    1    3    3  502    0 -0.53608424182E+03 -0.19852056637E+03  0.19670736368E+01  0.57168408145E+03  0.46999998093E+01 0.  1.
       -5    1    3    3    0  502  0.53608424182E+03  0.19852056637E+03 -0.50716496313E+03  0.76422190457E+03  0.46999998093E+01 0. -1.
</event>
<event>
 5   0  0.5001586E-04  0.1200202E+04  0.7818609E-02  0.9112680E-01
       -1   -1    0    0    0  501  0.00000000000E+00  0.00000000000E+00  0.41083672727E+03  0.41083672730E+03  0.50400001928E-02 0. -1.
        1   -1    0    0  501    0  0.00000000000E+00  0.00000000000E+00 -0.87655579802E+03  0.87655579804E+03  0.50400001928E-02 0.  1.
    10030    2    1    2    0    0  0.00000000000E+00  0.00000000000E+00 -0.46571907075E+03  0.12873925253E+04  0.12002021752E+04 0.  0.
        1    1    3    3  502    0 -0.32213170367E+03  0.19266048609E+03  0.26938005201E+03  0.46200920971E+03  0.50400001928E-02 0. -1.
       -1    1    3    3    0  502  0.32213170367E+03 -0.19266048609E+03 -0.73509912276E+03  0.82538331563E+03  0.50400001928E-02 0.  1.
</event>
<event>
 5   0  0.5003507E-04  0.1200492E+04  0.7818609E-02  0.9112426E-01
        1   -1    0    0  501    0  0.00000000000E+00  0.00000000000E+00  0.62702779152E+03  0.62702779154E+03  0.50400001928E-02 0.  1.
       -1   -1    0    0    0  501  0.00000000000E+00  0.00000000000E+00 -0.57460781660E+03  0.57460781662E+03  0.50400001928E-02 0. -1.
    10030    2    1    2    0    0  0.00000000000E+00  0.00000000000E+00  0.52419974921E+02  0.12016356082E+04  0.12004916830E+04 0.  0.
        3    1    3    3  502    0 -0.53685138933E+03 -0.25874275059E+03 -0.45537005496E+02  0.59768792382E+03  0.10100000352E+00 0.  1.
       -3    1    3    3    0  502  0.53685138933E+03  0.25874275059E+03  0.97956980417E+02  0.60394768434E+03  0.10100000352E+00 0. -1.
</event>
<event>
 5   0  0.5447074E-04  0.1198387E+04  0.7818609E-02  0.9114270E-01
       -1   -1    0    0    0  501  0.00000000000E+00  0.00000000000E+00  0.44836302149E+03  0.44836302152E+03  0.50400001928E-02 0. -1.
        1   -1    0    0  501    0  0.00000000000E+00  0.00000000000E+00 -0.80076353611E+03  0.80076353613E+03  0.50400001928E-02 0.  1.
    10030    2    1    2    0    0  0.00000000000E+00  0.00000000000E+00 -0.35240051462E+03  0.12491265577E+04  0.11983868467E+04 0.  0.
        4    1    3    3  502    0  0.47732216147E+03 -0.80464109521E+01  0.20125055524E+03  0.51807778320E+03  0.12699999809E+01 0. -1.
       -4    1    3    3    0  502 -0.47732216147E+03  0.80464109521E+01 -0.55365106986E+03  0.73104877445E+03  0.12699999809E+01 0.  1.
</event>
<event>
 5   0  0.5157631E-04  0.1205679E+04  0.7818609E-02  0.9107900E-01
       -1   -1    0    0    0  501  0.00000000000E+00  0.00000000000E+00  0.32933302179E+03  0.32933302182E+03  0.50400001928E-02 0. -1.
        1   -1    0    0  501    0  0.00000000000E+00  0.00000000000E+00 -0.11034896631E+04  0.11034896631E+04  0.50400001928E-02 0.  1.
    10030    2    1    2    0    0  0.00000000000E+00  0.00000000000E+00 -0.77415664132E+03  0.14328226849E+04  0.12056792033E+04 0.  0.
        5    1    3    3  502    0 -0.13992764336E+03 -0.58622894193E+03 -0.40160289359E+03  0.72425899502E+03  0.46999998093E+01 0. -1.
       -5    1    3    3    0  502  0.13992764336E+03  0.58622894193E+03 -0.37255374773E+03  0.70856368992E+03  0.46999998093E+01 0.  1.
</event>
<event>
 5   0  0.9050363E-04  0.1202468E+04  0.7818609E-02  0.9110699E-01
       -2   -1    0    0    0  501  0.00000000000E+00  0.00000000000E+00  0.44521595437E+03  0.44521595438E+03  0.25500000920E-02 0.  1.
        2   -1    0    0  501    0  0.00000000000E+00  0.00000000000E+00 -0.81192586027E+03  0.81192586027E+03  0.25500000920E-02 0. -1.
    10030    2    1    2    0    0  0.00000000000E+00  0.00000000000E+00 -0.36670990589E+03  0.12571418146E+04  0.12024680399E+04 0.  0.
        3    1    3    3  502    0  0.29501730522E+03 -0.52158668090E+03 -0.13219683397E+03  0.61364801734E+03  0.10100000352E+00 0. -1.
       -3    1    3    3    0  502 -0.29501730522E+03  0.52158668090E+03 -0.23451307192E+03  0.64349379731E+03  0.10100000352E+00 0.  1.
</event>
<event>
 5   0  0.5052959E-04  0.1202054E+04  0.7818609E-02  0.9111061E-01
       -1   -1    0    0    0  501  0.00000000000E+00  0.00000000000E+00  0.62791464967E+03  0.62791464969E+03  0.50400001928E-02 0. -1.
        1   -1    0    0  501    0  0.00000000000E+00  0.00000000000E+00 -0.57529036778E+03  0.57529036781E+03  0.50400001928E-02 0.  1.
    10030    2    1    2    0    0  0.00000000000E+00  0.00000000000E+00  0.52624281889E+02  0.12032050175E+04  0.12020536590E+04 0.  0.
        2    1    3    3  502    0 -0.12160699565E+03 -0.39645655457E+03 -0.40915304998E+03  0.58255667481E+03  0.25500000920E-02 0.  1.
       -2    1    3    3    0  502  0.12160699565E+03  0.39645655457E+03  0.46177733187E+03  0.62064834269E+03  0.25500000920E-02 0. -1.
</event>
<event>
 5   0  0.5447074E-04  0.1186834E+04  0.7818609E-02  0.9124460E-01
        1   -1    0    0  501    0  0.00000000000E+00  0.00000000000E+00  0.51016683888E+03  0.51016683890E+03  0.50400001928E-02 0. -1.
       -1   -1    0    0    0  501  0.00000000000E+00  0.00000000000E+00 -0.69025181749E+03  0.69025181751E+03  0.50400001928E-02 0.  1.
    10030    2    1    2    0    0  0.00000000000E+00  0.00000000000E+00 -0.18008497861E+03  0.12004186564E+04  0.11868337504E+04 0.  0.
        4    1    3    3  502    0 -0.28626929822E+03 -0.51181570907E+03  0.17517342827E+01  0.58643849858E+03  0.12699999809E+01 0. -1.
       -4    1    3    3    0  502  0.28626929822E+03  0.51181570907E+03 -0.18183671289E+03  0.61398015783E+03  0.12699999809E+01 0.  1.
</event>
<event>
 5   0  0.5003507E-04  0.1196050E+04  0.7818609E-02  0.9116321E-01
        1   -1    0    0  501    0  0.00000000000E+00  0.00000000000E+00  0.11430948922E+04  0.11430948922E+04  0.50400001928E-02 0.  1.
       -1   -1    0    0    0  501  0.00000000000E+00  0.00000000000E+00 -0.31286440345E+03  0.31286440349E+03  0.50400001928E-02 0. -1.
    10030    2    1    2    0    0  0.00000000000E+00  0.00000000000E+00  0.83023048877E+03  0.14559592957E+04  0.11960496672E+04 0.  0.
        3    1    3    3  502    0  0.55448127361E+03  0.15989105194E+03  0.22411419498E+03  0.61906527432E+03  0.10100000352E+00 0. -1.
       -3    1    3    3    0  502 -0.55448127361E+03 -0.15989105194E+03  0.60611629379E+03  0.83689402141E+03  0.10100000352E+00 0.  1.
</event>
<event>
 5   0  0.5447074E-04  0.1197911E+04  0.7818609E-02  0.9114687E-01
        1   -1    0    0  501    0  0.00000000000E+00  0.00000000000E+00  0.11441172574E+04  0.11441172575E+04  0.50400001928E-02 0. -1.
       -1   -1    0    0    0  501  0.00000000000E+00  0.00000000000E+00 -0.31355871563E+03  0.31355871567E+03  0.50400001928E-02 0.  1.
    10030    2    1    2    0    0  0.00000000000E+00  0.00000000000E+00  0.83055854181E+03  0.14576759731E+04  0.11979114121E+04 0.  0.
        4    1    3    3  502    0  0.39237754372E+03  0.10365167568E+02 -0.13524018572E+03  0.41516152790E+03  0.12699999809E+01 0.  1.
       -4    1    3    3    0  502 -0.39237754372E+03 -0.10365167568E+02  0.96579872753E+03  0.10425144452E+04  0.12699999809E+01 0. -1.
</event>
<event>
 5   0  0.9410666E-04  0.1199040E+04  0.7818609E-02  0.9113698E-01
       -2   -1    0    0    0  501  0.00000000000E+00  0.00000000000E+00  0.31073368638E+03  0.31073368639E+03  0.25500000920E-02 0.  1.
        2   -1    0    0  501    0  0.00000000000E+00  0.00000000000E+00 -0.11566946610E+04  0.11566946610E+04  0.25500000920E-02 0. -1.
    10030    2    1    2    0    0  0.00000000000E+00  0.00000000000E+00 -0.84596097463E+03  0.14674283474E+04  0.11990396091E+04 0.  0.
        2    1    3    3  502    0  0.29169201383E+03 -0.64105659635E+02 -0.10591756163E+04  0.11004756938E+04  0.25500000920E-02 0. -1.
       -2    1    3    3    0  502 -0.29169201383E+03  0.64105659635E+02  0.21321464168E+03  0.36695265357E+03  0.25500000920E-02 0.  1.
</event>
<event>
 5   0  0.9145224E-04  0.1197521E+04  0.7818609E-02  0.9115029E-01
        2   -1    0    0  501    0  0.00000000000E+00  0.00000000000E+00  0.93834608566E+03  0.93834608566E+03  0.25500000920E-02 0. -1.
       -2   -1    0    0    0  501  0.00000000000E+00  0.00000000000E+00 -0.38207024567E+03  0.38207024568E+03  0.25500000920E-02 0.  1.
    10030    2    1    2    0    0  0.00000000000E+00  0.00000000000E+00  0.55627583998E+03  0.13204163313E+04  0.11975209718E+04 0.  0.
        5    1    3    3  502    0  0.21886043791E+03  0.28420323149E+02 -0.33556409294E+03  0.40166273977E+03  0.46999998093E+01 0.  1.
       -5    1    3    3    0  502 -0.21886043791E+03 -0.28420323149E+02  0.89183993293E+03  0.91875359156E+03  0.46999998093E+01 0. -1.
</event>
<event>
 5   0  0.9050363E-04  0.1200017E+04  0.7818609E-02  0.9112842E-01
       -2   -1    0    0    0  501  0.00000000000E+00  0.00000000000E+00  0.18528955603E+03  0.18528955605E+03  0.25500000920E-02 0.  1.
        2   -1    0    0  501    0  0.00000000000E+00  0.00000000000E+00 -0.19429595722E+04  0.19429595722E+04  0.25500000920E-02 0. -1.
    10030    2    1    2    0    0  0.00000000000E+00  0.00000000000E+00 -0.17576700162E+04  0.21282491283E+04  0.12000168608E+04 0.  0.
        3    1    3    3  502    0 -0.55499177952E+03 -0.16398432886E+03 -0.59783836129E+03  0.83205615909E+03  0.10100000352E+00 0.  1.
       -3    1    3    3    0  502  0.55499177952E+03  0.16398432886E+03 -0.11598316549E+04  0.12961929692E+04  0.10100000352E+00 0. -1.
</event>
<event>
 5   0  0.9145224E-04  0.1197497E+04  0.7818609E-02  0.9115050E-01
        2   -1    0    0  501    0  0.00000000000E+00  0.00000000000E+00  0.40463337435E+03  0.40463337436E+03  0.25500000920E-02 0.  1.
       -2   -1    0    0    0  501  0.00000000000E+00  0.00000000000E+00 -0.88598716859E+03  0.88598716860E+03  0.25500000920E-02 0. -1.
    10030    2    1    2    0    0  0.00000000000E+00  0.00000000000E+00 -0.48135379424E+03  0.12906205430E+04  0.11974973531E+04 0.  0.
        5    1    3    3  502    0 -0.57776266436E+03  0.34867049868E+02 -0.40572798840E+03  0.70686823246E+03  0.46999998093E+01 0. -1.
       -5    1    3    3    0  502  0.57776266436E+03 -0.34867049868E+02 -0.75625805844E+02  0.58375231049E+03  0.46999998093E+01 0.  1.
</event>
<event>
 5   0  0.5447074E-04  0.1199977E+04  0.7818609E-02  0.9112877E-01
        1   -1    0    0  501    0  0.00000000000E+00  0.00000000000E+00  0.12050195562E+04  0.12050195562E+04  0.50400001928E-02 0. -1.
       -1   -1    0    0    0  501  0.00000000000E+00  0.00000000000E+00 -0.29873878534E+03  0.29873878538E+03  0.50400001928E-02 0.  1.
    10030    2    1    2    0    0  0.00000000000E+00  0.00000000000E+00  0.90628077085E+03  0.15037583416E+04  0.11999767974E+04 0.  0.
        4    1    3    3  502    0  0.50032038371E+03 -0.28564139754E+03  0.66310658709E+03  0.87842099991E+03  0.12699999809E+01 0. -1.
       -4    1    3    3    0  502 -0.50032038371E+03  0.28564139754E+03  0.24317418376E+03  0.62533734167E+03  0.12699999809E+01 0.  1.
</event>
<event>
 5   0  0.5003507E-04  0.1201869E+04  0.7818609E-02  0.9111222E-01
        1   -1    0    0  501    0  0.00000000000E+00  0.00000000000E+00  0.34070984589E+03  0.34070984593E+03  0.50400001928E-02 0. -1.
       -1   -1    0    0    0  501  0.00000000000E+00  0.00000000000E+00 -0.10599114851E+04  0.10599114851E+04  0.50400001928E-02 0.  1.
    10030    2    1    2    0    0  0.00000000000E+00  0.00000000000E+00 -0.71920163917E+03  0.14006213310E+04  0.12018690091E+04 0.  0.
        3    1    3    3  502    0  0.20204635097E+03  0.47103191257E+03 -0.72521580196E+03  0.88804941316E+03  0.10100000352E+00 0.  1.
       -3    1    3    3    0  502 -0.20204635097E+03 -0.47103191257E+03  0.60141627881E+01  0.51257191784E+03  0.10100000352E+00 0. -1.
</event>
<event>
 5   0  0.5003507E-04  0.1202087E+04  0.7818609E-02  0.9111032E-01
        1   -1    0    0  501    0  0.00000000000E+00  0.00000000000E+00  0.12240316761E+04  0.12240316761E+04  0.50400001928E-02 0.  1.
       -1   -1    0    0    0  501  0.00000000000E+00  0.00000000000E+00 -0.29513395825E+03  0.29513395829E+03  0.50400001928E-02 0. -1.
    10030    2    1    2    0    0  0.00000000000E+00  0.00000000000E+00  0.92889771781E+03  0.15191656344E+04  0.12020870411E+04 0.  0.
        3    1    3    3  502    0  0.27456318920E+02 -0.13008971975E+03 -0.27631655456E+03  0.30663990797E+03  0.10100000352E+00 0. -1.
       -3    1    3    3    0  502 -0.27456318920E+02  0.13008971975E+03  0.12052142724E+04  0.12125257264E+04  0.10100000352E+00 0.  1.
</event>
<event>
 5   0  0.5157631E-04  0.1160940E+04  0.7818609E-02  0.9147750E-01
        1   -1    0    0  501    0  0.00000000000E+00  0.00000000000E+00  0.58980971414E+03  0.58980971416E+03  0.50400001928E-02 0. -1.
       -1   -1    0    0    0  501  0.00000000000E+00  0.00000000000E+00 -0.57127833752E+03  0.57127833754E+03  0.50400001928E-02 0.  1.
    10030    2    1    2    0    0  0.00000000000E+00  0.00000000000E+00  0.18531376623E+02  0.11610880517E+04  0.11609401586E+04 0.  0.
        5    1    3    3  502    0 -0.55464738929E+03 -0.50107360021E+02  0.17292928298E+03  0.58315615480E+03  0.46999998093E+01 0. -1.
       -5    1    3    3    0  502  0.55464738929E+03  0.50107360021E+02 -0.15439790636E+03  0.57793189690E+03  0.46999998093E+01 0.  1.
</event>
<event>
 5   0  0.9410666E-04  0.1201644E+04  0.7818609E-02  0.9111419E-01
        2   -1    0    0  501    0  0.00000000000E+00  0.00000000000E+00  0.17571458106E+04  0.17571458106E+04  0.25500000920E-02 0.  1.
       -2   -1    0    0    0  501  0.00000000000E+00  0.00000000000E+00 -0.20543940996E+03  0.20543940997E+03  0.25500000920E-02 0. -1.
    10030    2    1    2    0    0  0.00000000000E+00  0.00000000000E+00  0.15517064007E+04  0.19625852206E+04  0.12016438716E+04 0.  0.
        2    1    3    3  502    0 -0.36449326806E+03  0.38656438872E+03  0.12340363274E+04  0.13435523907E+04  0.25500000920E-02 0. -1.
       -2    1    3    3    0  502  0.36449326806E+03 -0.38656438872E+03  0.31767007325E+03  0.61903282993E+03  0.25500000920E-02 0.  1.
</event>
<event>
 5   0  0.9050363E-04  0.1199669E+04  0.7818609E-02  0.9113146E-01
       -2   -1    0    0    0  501  0.00000000000E+00  0.00000000000E+00  0.54777568869E+03  0.54777568869E+03  0.25500000920E-02 0. -1.
        2   -1    0    0  501    0  0.00000000000E+00  0.00000000000E+00 -0.65684061762E+03  0.65684061762E+03  0.25500000920E-02 0.  1.
    10030    2    1    2    0    0  0.00000000000E+00  0.00000000000E+00 -0.10906492893E+03  0.12046163063E+04  0.11996688238E+04 0.  0.
        3    1    3    3  502    0  0.33014850323E+03 -0.50035363296E+03 -0.33243157427E+02  0.60038063753E+03  0.10100000352E+00 0. -1.
       -3    1    3    3    0  502 -0.33014850323E+03  0.50035363296E+03 -0.75821771504E+02  0.60423566879E+03  0.10100000352E+00 0.  1.
</event>
<event>
 5   0  0.9050363E-04  0.1199188E+04  0.7818609E-02  0.9113567E-01
       -2   -1    0    0    0  501  0.00000000000E+00  0.00000000000E+00  0.25640185530E+03  0.25640185532E+03  0.25500000920E-02 0. -1.
        2   -1    0    0  501    0  0.00000000000E+00  0.00000000000E+00 -0.14021467542E+04  0.14021467542E+04  0.25500000920E-02 0.  1.
    10030    2    1    2    0    0  0.00000000000E+00  0.00000000000E+00 -0.11457448989E+04  0.16585486095E+04  0.11991881073E+04 0.  0.
        3    1    3    3  502    0  0.58732372660E+03 -0.97198440298E+01 -0.73923896085E+03  0.94420224880E+03  0.10100000352E+00 0.  1.
       -3    1    3    3    0  502 -0.58732372660E+03  0.97198440298E+01 -0.40650593802E+03  0.71434636069E+03  0.10100000352E+00 0. -1.
</event>
<event>
 5   0  0.5052959E-04  0.1198247E+04  0.7818609E-02  0.9114393E-01
        1   -1    0    0  501    0  0.00000000000E+00  0.00000000000E+00  0.30685915348E+03  0.30685915353E+03  0.50400001928E-02 0. -1.
       -1   -1    0    0    0  501  0.00000000000E+00  0.00000000000E+00 -0.11697505869E+04  0.11697505869E+04  0.50400001928E-02 0.  1.
    10030    2    1    2    0    0  0.00000000000E+00  0.00000000000E+00 -0.86289143338E+03  0.14766097404E+04  0.11982465104E+04 0.  0.
        2    1    3    3  502    0 -0.52313124552E+03  0.82012777243E+02 -0.86055518475E+02  0.53646803068E+03  0.25500000920E-02 0. -1.
       -2    1    3    3    0  502  0.52313124552E+03 -0.82012777243E+02 -0.77683591490E+03  0.94014170972E+03  0.25500000920E-02 0.  1.
</event>
<event>
 5   0  0.9070772E-04  0.1191387E+04  0.7818609E-02  0.9120429E-01
        2   -1    0    0  501    0  0.00000000000E+00  0.00000000000E+00  0.26738603584E+04  0.26738603584E+04  0.25500000920E-02 0.  1.
       -2   -1    0    0    0  501  0.00000000000E+00  0.00000000000E+00 -0.13271098054E+03  0.13271098056E+03  0.25500000920E-02 0. -1.
    10030    2    1    2    0    0  0.00000000000E+00  0.00000000000E+00  0.25411493779E+04  0.28065713390E+04  0.11913868054E+04 0.  0.
        4    1    3    3  502    0 -0.54854493869E+03  0.27874460955E+02  0.18137732335E+04  0.18951130549E+04  0.12699999809E+01 0.  1.
       -4    1    3    3    0  502  0.54854493869E+03 -0.27874460955E+02  0.72737614435E+03  0.91145828408E+03  0.12699999809E+01 0. -1.
</event>
<event>
 5   0  0.9050363E-04  0.1197747E+04  0.7818609E-02  0.9114830E-01
        2   -1    0    0  501    0  0.00000000000E+00  0.00000000000E+00  0.85315200176E+03  0.85315200177E+03  0.25500000920E-02 0.  1.
       -2   -1    0    0    0  501  0.00000000000E+00  0.00000000000E+00 -0.42038196876E+03  0.42038196877E+03  0.25500000920E-02 0. -1.
    10030    2    1    2    0    0  0.00000000000E+00  0.00000000000E+00  0.43277003300E+03  0.12735339705E+04  0.11977474160E+04 0.  0.
        3    1    3    3  502    0  0.11914561899E+02  0.58547301977E+03  0.83033748597E+02  0.59145179624E+03  0.10100000352E+00 0.  1.
       -3    1    3    3    0  502 -0.11914561899E+02 -0.58547301977E+03  0.34973628440E+03  0.68208217430E+03  0.10100000352E+00 0. -1.
</event>
<event>
 5   0  0.9050363E-04  0.1204448E+04  0.7818609E-02  0.9108972E-01
       -2   -1    0    0    0  501  0.00000000000E+00  0.00000000000E+00  0.58054772219E+03  0.58054772220E+03  0.25500000920E-02 0. -1.
        2   -1    0    0  501    0  0.00000000000E+00  0.00000000000E+00 -0.62470999624E+03  0.62470999624E+03  0.25500000920E-02 0.  1.
    10030    2    1    2    0    0  0.00000000000E+00  0.00000000000E+00 -0.44162274043E+02  0.12052577184E+04  0.12044483639E+04 0.  0.
        3    1    3    3  502    0 -0.37058602652E+03 -0.37379798348E+03 -0.31487819975E+03  0.61335733988E+03  0.10100000352E+00 0.  1.
       -3    1    3    3    0  502  0.37058602652E+03  0.37379798348E+03  0.27071592571E+03  0.59190037856E+03  0.10100000352E+00 0. -1.
</event>
<event>
 5   0  0.9050363E-04  0.1222807E+04  0.7818609E-02  0.9093124E-01
       -2   -1    0    0    0  501  0.00000000000E+00  0.00000000000E+00  0.25536561331E+03  0.25536561332E+03  0.25500000920E-02 0.  1.
        2   -1    0    0  501    0  0.00000000000E+00  0.00000000000E+00 -0.14638401681E+04  0.14638401681E+04  0.25500000920E-02 0. -1.
    10030    2    1    2    0    0  0.00000000000E+00  0.00000000000E+00 -0.12084745547E+04  0.17192057814E+04  0.12228073312E+04 0.  0.
        3    1    3    3  502    0 -0.57380299028E+03  0.20455453126E+03 -0.53088489493E+03  0.80804158914E+03  0.10100000352E+00 0.  1.
       -3    1    3    3    0  502  0.57380299028E+03 -0.20455453126E+03 -0.67758965982E+03  0.91116419223E+03  0.10100000352E+00 0. -1.
</event>
<event>
 5   0  0.9145224E-04  0.1197301E+04  0.7818609E-02  0.9115222E-01
       -2   -1    0    0    0  501  0.00000000000E+00  0.00000000000E+00  0.21815681313E+03  0.21815681314E+03  0.25500000920E-02 0. -1.
        2   -1    0    0  501    0  0.00000000000E+00  0.00000000000E+00 -0.16427740100E+04  0.16427740100E+04  0.25500000920E-02 0.  1.
    10030    2    1    2    0    0  0.00000000000E+00  0.00000000000E+00 -0.14246171968E+04  0.18609308231E+04  0.11973008690E+04 0.  0.
        5    1    3    3  502    0  0.48379252541E+03 -0.78352026189E+02 -0.17802331962E+03  0.52144859763E+03  0.46999998093E+01 0. -1.
       -5    1    3    3    0  502 -0.48379252541E+03  0.78352026189E+02 -0.12465938772E+04  0.13394822255E+04  0.46999998093E+01 0.  1.
</event>
<event>
 5   0  0.5003507E-04  0.1204393E+04  0.7818609E-02  0.9109020E-01
       -1   -1    0    0    0  501  0.00000000000E+00  0.00000000000E+00  0.15967370093E+03  0.15967370101E+03  0.50400001928E-02 0.  1.
        1   -1    0    0  501    0  0.00000000000E+00  0.00000000000E+00 -0.22711341897E+04  0.22711341897E+04  0.50400001928E-02 0. -1.
    10030    2    1    2    0    0  0.00000000000E+00  0.00000000000E+00 -0.21114604888E+04  0.24308078907E+04  0.12043926295E+04 0.  0.
        3    1    3    3  502    0  0.53171359624E+03  0.21016835822E+03 -0.67411789693E+03  0.88392592246E+03  0.10100000352E+00 0. -1.
       -3    1    3    3    0  502 -0.53171359624E+03 -0.21016835822E+03 -0.14373425918E+04  0.15468819683E+04  0.10100000352E+00 0.  1.
</event>
<event>
 5   0  0.5052959E-04  0.1203438E+04  0.7818609E-02  0.9109853E-01
       -1   -1    0    0    0  501  0.00000000000E+00  0.00000000000E+00  0.23311078056E+03  0.23311078061E+03  0.50400001928E-02 0.  1.
        1   -1    0    0  501    0  0.00000000000E+00  0.00000000000E+00 -0.15531907324E+04  0.15531907325E+04  0.50400001928E-02 0. -1.
    10030    2    1    2    0    0  0.00000000000E+00  0.00000000000E+00 -0.13200799519E+04  0.17863015131E+04  0.12034375830E+04 0.  0.
        2    1    3    3  502    0  0.50778051339E+03  0.31301319230E+03 -0.54271951749E+03  0.80645073192E+03  0.25500000920E-02 0.  1.
       -2    1    3    3    0  502 -0.50778051339E+03 -0.31301319230E+03 -0.77736043440E+03  0.97985078115E+03  0.25500000920E-02 0. -1.
</event>
<event>
 5   0  0.5447074E-04  0.1169777E+04  0.7818609E-02  0.9139730E-01
        1   -1    0    0  501    0  0.00000000000E+00  0.00000000000E+00  0.51390613029E+03  0.51390613031E+03  0.50400001928E-02 0. -1.
       -1   -1    0    0    0  501  0.00000000000E+00  0.00000000000E+00 -0.66567554081E+03  0.66567554083E+03  0.50400001928E-02 0.  1.
    10030    2    1    2    0    0  0.00000000000E+00  0.00000000000E+00 -0.15176941053E+03  0.11795816711E+04  0.11697773142E+04 0.  0.
        4    1    3    3  502    0  0.16120623343E+03 -0.21823880314E+03  0.44660624328E+03  0.52256518668E+03  0.12699999809E+01 0. -1.
       -4    1    3    3    0  502 -0.16120623343E+03  0.21823880314E+03 -0.59837565381E+03  0.65701648447E+03  0.12699999809E+01 0.  1.
</event>
<event>
 5   0  0.9050363E-04  0.1209325E+04  0.7818609E-02  0.9104733E-01
       -2   -1    0    0    0  501  0.00000000000E+00  0.00000000000E+00  0.34933261788E+03  0.34933261789E+03  0.25500000920E-02 0. -1.
        2   -1    0    0  501    0  0.00000000000E+00  0.00000000000E+00 -0.10466147883E+04  0.10466147883E+04  0.25500000920E-02 0.  1.
    10030    2    1    2    0    0  0.00000000000E+00  0.00000000000E+00 -0.69728217041E+03  0.13959474062E+04  0.12093249090E+04 0.  0.
        3    1    3    3  502    0  0.21547491184E+03 -0.35764326297E+03 -0.85348738019E+03  0.95014675684E+03  0.10100000352E+00 0.  1.
       -3    1    3    3    0  502 -0.21547491184E+03  0.35764326297E+03  0.15620520979E+03  0.44580064934E+03  0.10100000352E+00 0. -1.
</event>
<event>
 5   0  0.9050363E-04  0.1196859E+04  0.7818609E-02  0.9115610E-01
        2   -1    0    0  501    0  0.00000000000E+00  0.00000000000E+00  0.52534081427E+03  0.52534081428E+03  0.25500000920E-02 0.  1.
       -2   -1    0    0    0  501  0.00000000000E+00  0.00000000000E+00 -0.68168708825E+03  0.68168708826E+03  0.25500000920E-02 0. -1.
    10030    2    1    2    0    0  0.00000000000E+00  0.00000000000E+00 -0.15634627398E+03  0.12070279025E+04  0.11968593067E+04 0.  0.
        3    1    3    3  502    0  0.39392535035E+03 -0.17831930718E+03  0.33903607001E+03  0.54947286005E+03  0.10100000352E+00 0.  1.
       -3    1    3    3    0  502 -0.39392535035E+03  0.17831930718E+03 -0.49538234399E+03  0.65755504249E+03  0.10100000352E+00 0. -1.
</event>
<event>
 5   0  0.9298693E-04  0.1200487E+04  0.7818609E-02  0.9112430E-01
        2   -1    0    0  501    0  0.00000000000E+00  0.00000000000E+00  0.10895924402E+04  0.10895924402E+04  0.25500000920E-02 0.  1.
       -2   -1    0    0    0  501  0.00000000000E+00  0.00000000000E+00 -0.33066701262E+03  0.33066701263E+03  0.25500000920E-02 0. -1.
    10030    2    1    2    0    0  0.00000000000E+00  0.00000000000E+00  0.75892542762E+03  0.14202594529E+04  0.12004870298E+04 0.  0.
        1    1    3    3  502    0  0.21790886684E+03  0.53149404642E+03  0.17345204032E+03  0.60004650315E+03  0.50400001928E-02 0.  1.
       -1    1    3    3    0  502 -0.21790886684E+03 -0.53149404642E+03  0.58547338730E+03  0.82021294972E+03  0.50400001928E-02 0. -1.
</event>
<event>
 5   0  0.5001586E-04  0.1196709E+04  0.7818609E-02  0.9115742E-01
        1   -1    0    0  501    0  0.00000000000E+00  0.00000000000E+00  0.15929446119E+04  0.15929446119E+04  0.50400001928E-02 0.  1.
       -1   -1    0    0    0  501  0.00000000000E+00  0.00000000000E+00 -0.22475867947E+03  0.22475867952E+03  0.50400001928E-02 0. -1.
    10030    2    1    2    0    0  0.00000000000E+00  0.00000000000E+00  0.13681859324E+04  0.18177032914E+04  0.11967090331E+04 0.  0.
        1    1    3    3  502    0 -0.29419803027E+03  0.35960303174E+03  0.11139567799E+03  0.47778218736E+03  0.50400001928E-02 0. -1.
       -1    1    3    3    0  502  0.29419803027E+03 -0.35960303174E+03  0.12567902544E+04  0.13399211040E+04  0.50400001928E-02 0.  1.
</event>
<event>
 5   0  0.9410666E-04  0.1201057E+04  0.7818609E-02  0.9111932E-01
        2   -1    0    0  501    0  0.00000000000E+00  0.00000000000E+00  0.92023781693E+03  0.92023781694E+03  0.25500000920E-02 0.  1.
       -2   -1    0    0    0  501  0.00000000000E+00  0.00000000000E+00 -0.39189267899E+03  0.39189267899E+03  0.25500000920E-02 0. -1.
    10030    2    1    2    0    0  0.00000000000E+00  0.00000000000E+00  0.52834513795E+03  0.13121304959E+04  0.12010569735E+04 0.  0.
        2    1    3    3  502    0  0.97163734663E+02 -0.13686616081E+03  0.89409052254E+03  0.90970929412E+03  0.25500000920E-02 0.  1.
       -2    1    3    3    0  502 -0.97163734663E+02  0.13686616081E+03 -0.36574538459E+03  0.40242120181E+03  0.25500000920E-02 0. -1.
</event>
<event>
 5   0  0.9050363E-04  0.1198818E+04  0.7818609E-02  0.9113892E-01
        2   -1    0    0  501    0  0.00000000000E+00  0.00000000000E+00  0.18949893045E+04  0.18949893045E+04  0.25500000920E-02 0.  1.
       -2   -1    0    0    0  501  0.00000000000E+00  0.00000000000E+00 -0.18960071529E+03  0.18960071530E+03  0.25500000920E-02 0. -1.
    10030    2    1    2    0    0  0.00000000000E+00  0.00000000000E+00  0.17053885892E+04  0.20845900198E+04  0.11988182975E+04 0.  0.
        3    1    3    3  502    0 -0.45616121524E+03  0.24052187794E+03  0.32139177782E+03  0.60764011809E+03  0.10100000352E+00 0. -1.
       -3    1    3    3    0  502  0.45616121524E+03 -0.24052187794E+03  0.13839968114E+04  0.14769499017E+04  0.10100000352E+00 0.  1.
</event>
<event>
 5   0  0.5001586E-04  0.1206800E+04  0.7818609E-02  0.9106925E-01
        1   -1    0    0  501    0  0.00000000000E+00  0.00000000000E+00  0.59416187472E+03  0.59416187474E+03  0.50400001928E-02 0. -1.
       -1   -1    0    0    0  501  0.00000000000E+00  0.00000000000E+00 -0.61278205844E+03  0.61278205846E+03  0.50400001928E-02 0.  1.
    10030    2    1    2    0    0  0.00000000000E+00  0.00000000000E+00 -0.18620183713E+02  0.12069439332E+04  0.12068002928E+04 0.  0.
        1    1    3    3  502    0  0.25138198039E+03 -0.22391415273E+03  0.49151022171E+03  0.59574553790E+03  0.50400001928E-02 0. -1.
       -1    1    3    3    0  502 -0.25138198039E+03  0.22391415273E+03 -0.51013040542E+03  0.61119839530E+03  0.50400001928E-02 0.  1.
</event>
<event>
 5   0  0.9070772E-04  0.1199530E+04  0.7818609E-02  0.9113268E-01
       -2   -1    0    0    0  501  0.00000000000E+00  0.00000000000E+00  0.63238064430E+03  0.63238064431E+03  0.25500000920E-02 0. -1.
        2   -1    0    0  501    0  0.00000000000E+00  0.00000000000E+00 -0.56883171326E+03  0.56883171327E+03  0.25500000920E-02 0.  1.
    10030    2    1    2    0    0  0.00000000000E+00  0.00000000000E+00  0.63548931042E+02  0.12012123576E+04  0.11995301836E+04 0.  0.
        4    1    3    3  502    0  0.55349454109E+02  0.14649371581E+03  0.61154456012E+03  0.63127833224E+03  0.12699999809E+01 0. -1.
       -4    1    3    3    0  502 -0.55349454109E+02 -0.14649371581E+03 -0.54799562908E+03  0.56993402533E+03  0.12699999809E+01 0.  1.
</event>
<event>
 5   0  0.5157631E-04  0.1202475E+04  0.7818609E-02  0.9110693E-01
       -1   -1    0    0    0  501  0.00000000000E+00  0.00000000000E+00  0.71960225193E+03  0.71960225195E+03  0.50400001928E-02 0. -1.
        1   -1    0    0  501    0  0.00000000000E+00  0.00000000000E+00 -0.50234201538E+03  0.50234201540E+03  0.50400001928E-02 0.  1.
    10030    2    1    2    0    0  0.00000000000E+00  0.00000000000E+00  0.21726023655E+03  0.12219442674E+04  0.12024748572E+04 0.  0.
        5    1    3    3  502    0 -0.28092684139E+03  0.53147079725E+03  0.99357854994E+02  0.60932353630E+03  0.46999998093E+01 0. -1.
       -5    1    3    3    0  502  0.28092684139E+03 -0.53147079725E+03  0.11790238156E+03  0.61262073105E+03  0.46999998093E+01 0.  1.
</event>
<event>
 5   0  0.9145224E-04  0.1179794E+04  0.7818609E-02  0.9130729E-01
       -2   -1    0    0    0  501  0.00000000000E+00  0.00000000000E+00  0.57871768614E+03  0.57871768615E+03  0.25500000920E-02 0.  1.
        2   -1    0    0  501    0  0.00000000000E+00  0.00000000000E+00 -0.60129269725E+03  0.60129269725E+03  0.25500000920E-02 0. -1.
    10030    2    1    2    0    0  0.00000000000E+00  0.00000000000E+00 -0.22575011104E+02  0.11800103834E+04  0.11797944201E+04 0.  0.
        5    1    3    3  502    0  0.53510212129E+03 -0.23624649994E+03 -0.87524417542E+02  0.59146369508E+03  0.46999998093E+01 0. -1.
       -5    1    3    3    0  502 -0.53510212129E+03  0.23624649994E+03  0.64949406439E+02  0.58854668832E+03  0.46999998093E+01 0.  1.
</event>
<event>
 5   0  0.9070772E-04  0.1185512E+04  0.7818609E-02  0.9125633E-01
        2   -1    0    0  501    0  0.00000000000E+00  0.00000000000E+00  0.16908965610E+04  0.16908965610E+04  0.25500000920E-02 0.  1.
       -2   -1    0    0    0  501  0.00000000000E+00  0.00000000000E+00 -0.20779484612E+03  0.20779484614E+03  0.25500000920E-02 0. -1.
    10030    2    1    2    0    0  0.00000000000E+00  0.00000000000E+00  0.14831017149E+04  0.18986914072E+04  0.11855118569E+04 0.  0.
        4    1    3    3  502    0  0.35384103401E+03 -0.22120026998E+02  0.15023688653E+04  0.15436342161E+04  0.12699999809E+01 0.  1.
       -4    1    3    3    0  502 -0.35384103401E+03  0.22120026998E+02 -0.19267150341E+02  0.35505719107E+03  0.12699999809E+01 0. -1.
</event>
<event>
 5   0  0.9050363E-04  0.1200352E+04  0.7818609E-02  0.9112549E-01
        2   -1    0    0  501    0  0.00000000000E+00  0.00000000000E+00  0.14808815154E+04  0.14808815154E+04  0.25500000920E-02 0. -1.
       -2   -1    0    0    0  501  0.00000000000E+00  0.00000000000E+00 -0.24324092994E+03  0.24324092995E+03  0.25500000920E-02 0.  1.
    10030    2    1    2    0    0  0.00000000000E+00  0.00000000000E+00  0.12376405854E+04  0.17241224453E+04  0.12003516101E+04 0.  0.
        3    1    3    3  502    0 -0.58561789878E+03 -0.10680530280E+02  0.80691381122E+03  0.99708189535E+03  0.10100000352E+00 0. -1.
       -3    1    3    3    0  502  0.58561789878E+03  0.10680530280E+02  0.43072677422E+03  0.72704054999E+03  0.10100000352E+00 0.  1.
</event>
<event>
 5   0  0.9145224E-04  0.1191528E+04  0.7818609E-02  0.9120305E-01
       -2   -1    0    0    0  501  0.00000000000E+00  0.00000000000E+00  0.28894648208E+03  0.28894648209E+03  0.25500000920E-02 0.  1.
        2   -1    0    0  501    0  0.00000000000E+00  0.00000000000E+00 -0.12283743775E+04  0.12283743775E+04  0.25500000920E-02 0. -1.
    10030    2    1    2    0    0  0.00000000000E+00  0.00000000000E+00 -0.93942789546E+03  0.15173208596E+04  0.11915275155E+04 0.  0.
        5    1    3    3  502    0 -0.44551519418E+03  0.35272447869E+03 -0.69756101947E+03  0.89972874356E+03  0.46999998093E+01 0. -1.
       -5    1    3    3    0  502  0.44551519418E+03 -0.35272447869E+03 -0.24186687599E+03  0.61759211606E+03  0.46999998093E+01 0.  1.
</event>
<event>
 5   0  0.9070772E-04  0.1197856E+04  0.7818609E-02  0.9114735E-01
        2   -1    0    0  501    0  0.00000000000E+00  0.00000000000E+00  0.55498442017E+03  0.55498442017E+03  0.25500000920E-02 0. -1.
       -2   -1    0    0    0  501  0.00000000000E+00  0.00000000000E+00 -0.64635108702E+03  0.64635108702E+03  0.25500000920E-02 0.  1.
    10030    2    1    2    0    0  0.00000000000E+00  0.00000000000E+00 -0.91366666852E+02  0.12013355072E+04  0.11978560569E+04 0.  0.
        4    1    3    3  502    0  0.75539451228E+02 -0.15139947507E+03 -0.62188257264E+03  0.64449015260E+03  0.12699999809E+01 0.  1.
       -4    1    3    3    0  502 -0.75539451228E+02  0.15139947507E+03  0.53051590579E+03  0.55684535460E+03  0.12699999809E+01 0. -1.
</event>
<event>
 5   0  0.9050363E-04  0.1158685E+04  0.7818609E-02  0.9149808E-01
        2   -1    0    0  501    0  0.00000000000E+00  0.00000000000E+00  0.12830789716E+04  0.12830789716E+04  0.25500000920E-02 0.  1.
       -2   -1    0    0    0  501  0.00000000000E+00  0.00000000000E+00 -0.26158788729E+03  0.26158788730E+03  0.25500000920E-02 0. -1.
    10030    2    1    2    0    0  0.00000000000E+00  0.00000000000E+00  0.10214910843E+04  0.15446668589E+04  0.11586853195E+04 0.  0.
        3    1    3    3  502    0 -0.36481418755E+03 -0.27540180954E+03  0.36217726453E+02  0.45852729695E+03  0.10100000352E+00 0. -1.
       -3    1    3    3    0  502  0.36481418755E+03  0.27540180954E+03  0.98527335781E+03  0.10861395619E+04  0.10100000352E+00 0.  1.
</event>
<event>
 5   0  0.5157631E-04  0.1200222E+04  0.7818609E-02  0.9112662E-01
       -1   -1    0    0    0  501  0.00000000000E+00  0.00000000000E+00  0.76669465569E+03  0.76669465570E+03  0.50400001928E-02 0.  1.
        1   -1    0    0  501    0  0.00000000000E+00  0.00000000000E+00 -0.46972202046E+03  0.46972202048E+03  0.50400001928E-02 0. -1.
    10030    2    1    2    0    0  0.00000000000E+00  0.00000000000E+00  0.29697263523E+03  0.12364166762E+04  0.12002222507E+04 0.  0.
        5    1    3    3  502    0  0.28164994905E+03 -0.24223986696E+03 -0.33700535663E+03  0.50159899057E+03  0.46999998093E+01 0. -1.
       -5    1    3    3    0  502 -0.28164994905E+03  0.24223986696E+03  0.63397799186E+03  0.73481768562E+03  0.46999998093E+01 0.  1.
</event>
<event>
 5   0  0.9298693E-04  0.1199536E+04  0.7818609E-02  0.9113263E-01
        2   -1    0    0  501    0  0.00000000000E+00  0.00000000000E+00  0.86977856590E+03  0.86977856590E+03  0.25500000920E-02 0. -1.
       -2   -1    0    0    0  501  0.00000000000E+00  0.00000000000E+00 -0.41357839808E+03  0.41357839809E+03  0.25500000920E-02 0.  1.
    10030    2    1    2    0    0  0.00000000000E+00  0.00000000000E+00  0.45620016782E+03  0.12833569640E+04  0.11995359536E+04 0.  0.
        1    1    3    3  502    0  0.57736325899E+03 -0.45093938941E+02  0.61186004901E+02  0.58234484920E+03  0.50400001928E-02 0.  1.
       -1    1    3    3    0  502 -0.57736325899E+03  0.45093938941E+02  0.39501416292E+03  0.70101211480E+03  0.50400001928E-02 0. -1.
</event>
<event>
 5   0  0.5003507E-04  0.1193733E+04  0.7818609E-02  0.9118359E-01
       -1   -1    0    0    0  501  0.00000000000E+00  0.00000000000E+00  0.34646888313E+03  0.34646888317E+03  0.50400001928E-02 0. -1.
        1   -1    0    0  501    0  0.00000000000E+00  0.00000000000E+00 -0.10282304622E+04  0.10282304622E+04  0.50400001928E-02 0.  1.
    10030    2    1    2    0    0  0.00000000000E+00  0.00000000000E+00 -0.68176157904E+03  0.13746993453E+04  0.11937334038E+04 0.  0.
        3    1    3    3  502    0  0.45098710135E+03  0.16898641155E+02 -0.79070409702E+03  0.91043281405E+03  0.10100000352E+00 0.  1.
       -3    1    3    3    0  502 -0.45098710135E+03 -0.16898641155E+02  0.10894251798E+03  0.46426653130E+03  0.10100000352E+00 0. -1.
</event>
<event>
 5   0  0.9070772E-04  0.1200561E+04  0.7818609E-02  0.9112366E-01
       -2   -1    0    0    0  501  0.00000000000E+00  0.00000000000E+00  0.34106807125E+03  0.34106807126E+03  0.25500000920E-02 0.  1.
        2   -1    0    0  501    0  0.00000000000E+00  0.00000000000E+00 -0.10564944276E+04  0.10564944276E+04  0.25500000920E-02 0. -1.
    10030    2    1    2    0    0  0.00000000000E+00  0.00000000000E+00 -0.71542635634E+03  0.13975624988E+04  0.12005607302E+04 0.  0.
        4    1    3    3  502    0  0.23585188691E+03  0.41820077263E+03 -0.77713664952E+03  0.91348835992E+03  0.12699999809E+01 0.  1.
       -4    1    3    3    0  502 -0.23585188691E+03 -0.41820077263E+03  0.61710293180E+02  0.48407413892E+03  0.12699999809E+01 0. -1.
</event>
<event>
 5   0  0.9298693E-04  0.1131736E+04  0.7818609E-02  0.9174800E-01
        2   -1    0    0  501    0  0.00000000000E+00  0.00000000000E+00  0.74197590286E+03  0.74197590286E+03  0.25500000920E-02 0. -1.
       -2   -1    0    0    0  501  0.00000000000E+00  0.00000000000E+00 -0.43155943755E+03  0.43155943756E+03  0.25500000920E-02 0.  1.
    10030    2    1    2    0    0  0.00000000000E+00  0.00000000000E+00  0.31041646531E+03  0.11735353404E+04  0.11317361942E+04 0.  0.
        1    1    3    3  502    0  0.24988859006E+03  0.50624189773E+03  0.19512057300E+03  0.59732504091E+03  0.50400001928E-02 0.  1.
       -1    1    3    3    0  502 -0.24988859006E+03 -0.50624189773E+03  0.11529589230E+03  0.57621029952E+03  0.50400001928E-02 0. -1.
</event>
<event>
 5   0  0.3453625E-04  0.1192309E+04  0.7818609E-02  0.9119615E-01
        3   -1    0    0  501    0  0.00000000000E+00  0.00000000000E+00  0.66877176419E+03  0.66877177182E+03  0.10100000352E+00 0.  1.
       -3   -1    0    0    0  501  0.00000000000E+00  0.00000000000E+00 -0.53142215811E+03  0.53142216771E+03  0.10100000352E+00 0. -1.
    10030    2    1    2    0    0  0.00000000000E+00  0.00000000000E+00  0.13734960608E+03  0.12001939395E+04  0.11923089273E+04 0.  0.
        1    1    3    3  502    0  0.74631662550E+02  0.22825429076E+03  0.61792991316E+03  0.66295345531E+03  0.50400001928E-02 0.  1.
       -1    1    3    3    0  502 -0.74631662550E+02 -0.22825429076E+03 -0.48058030708E+03  0.53724048422E+03  0.50400001928E-02 0. -1.
</event>
<event>
 5   0  0.9070772E-04  0.1199477E+04  0.7818609E-02  0.9113314E-01
        2   -1    0    0  501    0  0.00000000000E+00  0.00000000000E+00  0.10338040232E+04  0.10338040232E+04  0.25500000920E-02 0. -1.
       -2   -1    0    0    0  501  0.00000000000E+00  0.00000000000E+00 -0.34792525205E+03  0.34792525206E+03  0.25500000920E-02 0.  1.
    10030    2    1    2    0    0  0.00000000000E+00  0.00000000000E+00  0.68587877112E+03  0.13817292752E+04  0.11994774285E+04 0.  0.
        4    1    3    3  502    0  0.18007229613E+03 -0.54691439975E+03  0.53618964542E+03  0.78679243847E+03  0.12699999809E+01 0. -1.
       -4    1    3    3    0  502 -0.18007229613E+03  0.54691439975E+03  0.14968912570E+03  0.59493683677E+03  0.12699999809E+01 0.  1.
</event>
<event>
 5   0  0.9298693E-04  0.1180886E+04  0.7818609E-02  0.9129754E-01
       -2   -1    0    0    0  501  0.00000000000E+00  0.00000000000E+00  0.17550794026E+03  0.17550794028E+03  0.25500000920E-02 0.  1.
        2   -1    0    0  501    0  0.00000000000E+00  0.00000000000E+00 -0.19863640114E+04  0.19863640114E+04  0.25500000920E-02 0. -1.
    10030    2    1    2    0    0  0.00000000000E+00  0.00000000000E+00 -0.18108560711E+04  0.21618719517E+04  0.11808855258E+04 0.  0.
        1    1    3    3  502    0 -0.32458872270E+03  0.33764715138E+03 -0.24723553377E+03  0.52961197770E+03  0.50400001928E-02 0.  1.
       -1    1    3    3    0  502  0.32458872270E+03 -0.33764715138E+03 -0.15636205374E+04  0.16322599740E+04  0.50400001928E-02 0. -1.
</event>
<event>
 5   0  0.5447074E-04  0.1203008E+04  0.7818609E-02  0.9110228E-01
        1   -1    0    0  501    0  0.00000000000E+00  0.00000000000E+00  0.19984877708E+04  0.19984877708E+04  0.50400001928E-02 0. -1.
       -1   -1    0    0    0  501  0.00000000000E+00  0.00000000000E+00 -0.18104048691E+03  0.18104048698E+03  0.50400001928E-02 0.  1.
    10030    2    1    2    0    0  0.00000000000E+00  0.00000000000E+00  0.18174472839E+04  0.21795282578E+04  0.12030082281E+04 0.  0.
        4    1    3    3  502    0 -0.25394685867E+03  0.25596452208E+03  0.36456638022E+02  0.36240521926E+03  0.12699999809E+01 0.  1.
       -4    1    3    3    0  502  0.25394685867E+03 -0.25596452208E+03  0.17809906459E+04  0.18171230386E+04  0.12699999809E+01 0. -1.
</event>
<event>
 5   0  0.3453625E-04  0.1201043E+04  0.7818609E-02  0.9111944E-01
        3   -1    0    0  501    0  0.00000000000E+00  0.00000000000E+00  0.57931156963E+03  0.57931157844E+03  0.10100000352E+00 0. -1.
       -3   -1    0    0    0  501  0.00000000000E+00  0.00000000000E+00 -0.62250777261E+03  0.62250778081E+03  0.10100000352E+00 0.  1.
    10030    2    1    2    0    0  0.00000000000E+00  0.00000000000E+00 -0.43196202979E+02  0.12018193592E+04  0.12010428220E+04 0.  0.
        1    1    3    3  502    0 -0.37896494807E+03 -0.20840471430E+02 -0.48727755727E+03  0.61764729010E+03  0.50400001928E-02 0. -1.
       -1    1    3    3    0  502  0.37896494807E+03  0.20840471430E+02  0.44408135429E+03  0.58417206915E+03  0.50400001928E-02 0.  1.
</event>
<event>
 5   0  0.5157631E-04  0.1204399E+04  0.7818609E-02  0.9109015E-01
       -1   -1    0    0    0  501  0.00000000000E+00  0.00000000000E+00  0.60565669394E+03  0.60565669396E+03  0.50400001928E-02 0.  1.
        1   -1    0    0  501    0  0.00000000000E+00  0.00000000000E+00 -0.59876173699E+03  0.59876173701E+03  0.50400001928E-02 0. -1.
    10030    2    1    2    0    0  0.00000000000E+00  0.00000000000E+00  0.68949569496E+01  0.12044184310E+04  0.12043986950E+04 0.  0.
        5    1    3    3  502    0  0.39750733473E+03 -0.41695330933E+03  0.17883513165E+03  0.60321326049E+03  0.46999998093E+01 0.  1.
       -5    1    3    3    0  502 -0.39750733473E+03  0.41695330933E+03 -0.17194017471E+03  0.60120517047E+03  0.46999998093E+01 0. -1.
</event>
<event>
 5   0  0.9070772E-04  0.1205877E+04  0.7818609E-02  0.9107728E-01
       -2   -1    0    0    0  501  0.00000000000E+00  0.00000000000E+00  0.24755031822E+03  0.24755031824E+03  0.25500000920E-02 0. -1.
        2   -1    0    0  501    0  0.00000000000E+00  0.00000000000E+00 -0.14685278772E+04  0.14685278772E+04  0.25500000920E-02 0.  1.
    10030    2    1    2    0    0  0.00000000000E+00  0.00000000000E+00 -0.12209775590E+04  0.17160781955E+04  0.12058765166E+04 0.  0.
        4    1    3    3  502    0 -0.20465330634E+02 -0.30977575477E+03 -0.13460423876E+04  0.13813803134E+04  0.12699999809E+01 0.  1.
       -4    1    3    3    0  502  0.20465330634E+02  0.30977575477E+03  0.12506482864E+03  0.33469788207E+03  0.12699999809E+01 0. -1.
</event>
<event>
 5   0  0.9298693E-04  0.1200780E+04  0.7818609E-02  0.9112174E-01
       -2   -1    0    0    0  501  0.00000000000E+00  0.00000000000E+00  0.21505571798E+03  0.21505571799E+03  0.25500000920E-02 0.  1.
        2   -1    0    0  501    0  0.00000000000E+00  0.00000000000E+00 -0.16761624958E+04  0.16761624958E+04  0.25500000920E-02 0. -1.
    10030    2    1    2    0    0  0.00000000000E+00  0.00000000000E+00 -0.14611067779E+04  0.18912182138E+04  0.12007802947E+04 0.  0.
        1    1    3    3  502    0  0.24402358392E+03  0.54173143818E+03 -0.86647674388E+03  0.10506200114E+04  0.50400001928E-02 0.  1.
       -1    1    3    3    0  502 -0.24402358392E+03 -0.54173143818E+03 -0.59463003398E+03  0.84059820244E+03  0.50400001928E-02 0. -1.
</event>
<event>
 5   0  0.9070772E-04  0.1201110E+04  0.7818609E-02  0.9111886E-01
       -2   -1    0    0    0  501  0.00000000000E+00  0.00000000000E+00  0.45949477433E+03  0.45949477434E+03  0.25500000920E-02 0.  1.
        2   -1    0    0  501    0  0.00000000000E+00  0.00000000000E+00 -0.78491919564E+03  0.78491919565E+03  0.25500000920E-02 0. -1.
    10030    2    1    2    0    0  0.00000000000E+00  0.00000000000E+00 -0.32542442131E+03  0.12444139700E+04  0.12011099345E+04 0.  0.
        4    1    3    3  502    0  0.38649496701E+03 -0.58775375853E+02 -0.63503409410E+03  0.74572301687E+03  0.12699999809E+01 0. -1.
       -4    1    3    3    0  502 -0.38649496701E+03  0.58775375853E+02  0.30960967278E+03  0.49869095311E+03  0.12699999809E+01 0.  1.
</event>
<event>
 5   0  0.9145224E-04  0.1202678E+04  0.7818609E-02  0.9110515E-01
       -2   -1    0    0    0  501  0.00000000000E+00  0.00000000000E+00  0.15509061945E+03  0.15509061947E+03  0.25500000920E-02 0. -1.
        2   -1    0    0  501    0  0.00000000000E+00  0.00000000000E+00 -0.23315966813E+04  0.23315966813E+04  0.25500000920E-02 0.  1.
    10030    2    1    2    0    0  0.00000000000E+00  0.00000000000E+00 -0.21765060619E+04  0.24866873008E+04  0.12026783005E+04 0.  0.
        5    1    3    3  502    0 -0.29260808296E+03  0.22755029520E+03 -0.10926374849E+03  0.38647028836E+03  0.46999998093E+01 0. -1.
       -5    1    3    3    0  502  0.29260808296E+03 -0.22755029520E+03 -0.20672423134E+04  0.21002170124E+04  0.46999998093E+01 0.  1.
</event>
<event>
 5   0  0.9410666E-04  0.1150411E+04  0.7818609E-02  0.9157405E-01
        2   -1    0    0  501    0  0.00000000000E+00  0.00000000000E+00  0.22040011639E+04  0.22040011639E+04  0.25500000920E-02 0. -1.
       -2   -1    0    0    0  501  0.00000000000E+00  0.00000000000E+00 -0.15011838148E+03  0.15011838150E+03  0.25500000920E-02 0.  1.
    10030    2    1    2    0    0  0.00000000000E+00  0.00000000000E+00  0.20538827824E+04  0.23541195454E+04  0.11504105138E+04 0.  0.
        2    1    3    3  502    0  0.10420060803E+03  0.54519483019E+03  0.71818336627E+03  0.90767974373E+03  0.25500000920E-02 0.  1.
       -2    1    3    3    0  502 -0.10420060803E+03 -0.54519483019E+03  0.13356994162E+04  0.14464398017E+04  0.25500000920E-02 0. -1.
</event>
<event>
 5   0  0.5003507E-04  0.1198036E+04  0.7818609E-02  0.9114578E-01
       -1   -1    0    0    0  501  0.00000000000E+00  0.00000000000E+00  0.19377861114E+03  0.19377861120E+03  0.50400001928E-02 0.  1.
        1   -1    0    0  501    0  0.00000000000E+00  0.00000000000E+00 -0.18517131084E+04  0.18517131084E+04  0.50400001928E-02 0. -1.
    10030    2    1    2    0    0  0.00000000000E+00  0.00000000000E+00 -0.16579344973E+04  0.20454917196E+04  0.11980357164E+04 0.  0.
        3    1    3    3  502    0 -0.21721484722E+03  0.43638553854E+03 -0.14233869098E+04  0.15045414362E+04  0.10100000352E+00 0. -1.
       -3    1    3    3    0  502  0.21721484722E+03 -0.43638553854E+03 -0.23454758744E+03  0.54095028337E+03  0.10100000352E+00 0.  1.
</event>
<event>
 5   0  0.9298693E-04  0.1186920E+04  0.7818609E-02  0.9124383E-01
        2   -1    0    0  501    0  0.00000000000E+00  0.00000000000E+00  0.44994834566E+03  0.44994834567E+03  0.25500000920E-02 0.  1.
       -2   -1    0    0    0  501  0.00000000000E+00  0.00000000000E+00 -0.78274438216E+03  0.78274438216E+03  0.25500000920E-02 0. -1.
    10030    2    1    2    0    0  0.00000000000E+00  0.00000000000E+00 -0.33279603649E+03  0.12326927278E+04  0.11869196095E+04 0.  0.
        1    1    3    3  502    0 -0.38535718590E+03 -0.11566413891E+02  0.30217835540E+03  0.48984252689E+03  0.50400001928E-02 0.  1.
       -1    1    3    3    0  502  0.38535718590E+03  0.11566413891E+02 -0.63497439189E+03  0.74285020094E+03  0.50400001928E-02 0. -1.
</event>
<event>
 5   0  0.5052959E-04  0.1200703E+04  0.7818609E-02  0.9112242E-01
        1   -1    0    0  501    0  0.00000000000E+00  0.00000000000E+00  0.20515281893E+04  0.20515281893E+04  0.50400001928E-02 0.  1.
       -1   -1    0    0    0  501  0.00000000000E+00  0.00000000000E+00 -0.17568448473E+03  0.17568448480E+03  0.50400001928E-02 0. -1.
    10030    2    1    2    0    0  0.00000000000E+00  0.00000000000E+00  0.18758437046E+04  0.22272126741E+04  0.12007025825E+04 0.  0.
        2    1    3    3  502    0  0.47814098688E+03  0.33350743165E+03  0.12039962940E+04  0.13377044092E+04  0.25500000920E-02 0.  1.
       -2    1    3    3    0  502 -0.47814098688E+03 -0.33350743165E+03  0.67184741054E+03  0.88950826492E+03  0.25500000920E-02 0. -1.
</event>
<event>
 5   0  0.5447074E-04  0.1192293E+04  0.7818609E-02  0.9119629E-01
       -1   -1    0    0    0  501  0.00000000000E+00  0.00000000000E+00  0.19676199338E+03  0.19676199344E+03  0.50400001928E-02 0. -1.
        1   -1    0    0  501    0  0.00000000000E+00  0.00000000000E+00 -0.18061968681E+04  0.18061968681E+04  0.50400001928E-02 0.  1.
    10030    2    1    2    0    0  0.00000000000E+00  0.00000000000E+00 -0.16094348747E+04  0.20029588615E+04  0.11922934140E+04 0.  0.
        4    1    3    3  502    0 -0.21614719331E+03  0.21407931815E+03 -0.16659776450E+04  0.16935267019E+04  0.12699999809E+01 0.  1.
       -4    1    3    3    0  502  0.21614719331E+03 -0.21407931815E+03  0.56542770270E+02  0.30943215962E+03  0.12699999809E+01 0. -1.
</event>
<event>
 5   0  0.9050363E-04  0.1196948E+04  0.7818609E-02  0.9115532E-01
        2   -1    0    0  501    0  0.00000000000E+00  0.00000000000E+00  0.53033248575E+03  0.53033248575E+03  0.25500000920E-02 0. -1.
       -2   -1    0    0    0  501  0.00000000000E+00  0.00000000000E+00 -0.67537105350E+03  0.67537105350E+03  0.25500000920E-02 0.  1.
    10030    2    1    2    0    0  0.00000000000E+00  0.00000000000E+00 -0.14503856775E+03  0.12057035393E+04  0.11969481352E+04 0.  0.
        3    1    3    3  502    0 -0.10834664679E+02  0.23533178617E+03 -0.62670058974E+03  0.66951630221E+03  0.10100000352E+00 0.  1.
       -3    1    3    3    0  502  0.10834664679E+02 -0.23533178617E+03  0.48166202199E+03  0.53618723704E+03  0.10100000352E+00 0. -1.
</event>
<event>
 5   0  0.9145224E-04  0.1194377E+04  0.7818609E-02  0.9117792E-01
        2   -1    0    0  501    0  0.00000000000E+00  0.00000000000E+00  0.35404101001E+03  0.35404101002E+03  0.25500000920E-02 0.  1.
       -2   -1    0    0    0  501  0.00000000000E+00  0.00000000000E+00 -0.10073247435E+04  0.10073247435E+04  0.25500000920E-02 0. -1.
    10030    2    1    2    0    0  0.00000000000E+00  0.00000000000E+00 -0.65328373353E+03  0.13613657536E+04  0.11943772764E+04 0.  0.
        5    1    3    3  502    0 -0.30454146313E+03 -0.49350452335E+03 -0.48911993166E+03  0.75865184035E+03  0.46999998093E+01 0. -1.
       -5    1    3    3    0  502  0.30454146313E+03  0.49350452335E+03 -0.16416380186E+03  0.60271391320E+03  0.46999998093E+01 0.  1.
</event>
<event>
 5   0  0.3453625E-04  0.1200907E+04  0.7818609E-02  0.9112063E-01
       -3   -1    0    0    0  501  0.00000000000E+00  0.00000000000E+00  0.39978919316E+03  0.39978920592E+03  0.10100000352E+00 0.  1.
        3   -1    0    0  501    0  0.00000000000E+00  0.00000000000E+00 -0.90183689068E+03  0.90183689634E+03  0.10100000352E+00 0. -1.
    10030    2    1    2    0    0  0.00000000000E+00  0.00000000000E+00 -0.50204769752E+03  0.13016261023E+04  0.12009074150E+04 0.  0.
        1    1    3    3  502    0 -0.49088900821E+01 -0.50270943282E+03 -0.60689577165E+03  0.78807572525E+03  0.50400001928E-02 0. -1.
       -1    1    3    3    0  502  0.49088900821E+01  0.50270943282E+03  0.10484807413E+03  0.51355037701E+03  0.50400001928E-02 0.  1.
</event>
<event>
 5   0  0.9145224E-04  0.1196070E+04  0.7818609E-02  0.9116303E-01
        2   -1    0    0  501    0  0.00000000000E+00  0.00000000000E+00  0.15569792650E+04  0.15569792650E+04  0.25500000920E-02 0.  1.
       -2   -1    0    0    0  501  0.00000000000E+00  0.00000000000E+00 -0.22970503818E+03  0.22970503819E+03  0.25500000920E-02 0. -1.
    10030    2    1    2    0    0  0.00000000000E+00  0.00000000000E+00  0.13272742269E+04  0.17866843032E+04  0.11960702012E+04 0.  0.
        5    1    3    3  502    0 -0.17531540877E+03 -0.43614137160E+03  0.12158751590E+04  0.13035832466E+04  0.46999998093E+01 0.  1.
       -5    1    3    3    0  502  0.17531540877E+03  0.43614137160E+03  0.11139906782E+03  0.48310105659E+03  0.46999998093E+01 0. -1.
</event>
<event>
 5   0  0.9298693E-04  0.1205648E+04  0.7818609E-02  0.9107927E-01
       -2   -1    0    0    0  501  0.00000000000E+00  0.00000000000E+00  0.36943176670E+03  0.36943176671E+03  0.25500000920E-02 0.  1.
        2   -1    0    0  501    0  0.00000000000E+00  0.00000000000E+00 -0.98366412482E+03  0.98366412482E+03  0.25500000920E-02 0. -1.
    10030    2    1    2    0    0  0.00000000000E+00  0.00000000000E+00 -0.61423235812E+03  0.13530958915E+04  0.12056480008E+04 0.  0.
        1    1    3    3  502    0  0.43866442759E+03 -0.30890115787E+02  0.15564089343E+03  0.46648126117E+03  0.50400001928E-02 0.  1.
       -1    1    3    3    0  502 -0.43866442759E+03  0.30890115787E+02 -0.76987325155E+03  0.88661463036E+03  0.50400001928E-02 0. -1.
</event>
<event>
 5   0  0.5447074E-04  0.1199129E+04  0.7818609E-02  0.9113619E-01
        1   -1    0    0  501    0  0.00000000000E+00  0.00000000000E+00  0.27201707612E+04  0.27201707612E+04  0.50400001928E-02 0. -1.
       -1   -1    0    0    0  501  0.00000000000E+00  0.00000000000E+00 -0.13215256798E+03  0.13215256807E+03  0.50400001928E-02 0.  1.
    10030    2    1    2    0    0  0.00000000000E+00  0.00000000000E+00  0.25880181932E+04  0.28523233293E+04  0.11991289365E+04 0.  0.
        4    1    3    3  502    0 -0.39118509131E+03 -0.24453330246E+03  0.22049270779E+04  0.22526711574E+04  0.12699999809E+01 0. -1.
       -4    1    3    3    0  502  0.39118509131E+03  0.24453330246E+03  0.38309111532E+03  0.59965217186E+03  0.12699999809E+01 0.  1.
</event>
<event>
 5   0  0.5157631E-04  0.1201122E+04  0.7818609E-02  0.9111875E-01
        1   -1    0    0  501    0  0.00000000000E+00  0.00000000000E+00  0.62829395513E+03  0.62829395515E+03  0.50400001928E-02 0. -1.
       -1   -1    0    0    0  501  0.00000000000E+00  0.00000000000E+00 -0.57405231406E+03  0.57405231408E+03  0.50400001928E-02 0.  1.
    10030    2    1    2    0    0  0.00000000000E+00  0.00000000000E+00  0.54241641071E+02  0.12023462692E+04  0.12011221401E+04 0.  0.
        5    1    3    3  502    0  0.11135042968E+03  0.29500085275E+03 -0.48450386657E+03  0.57809212763E+03  0.46999998093E+01 0.  1.
       -5    1    3    3    0  502 -0.11135042968E+03 -0.29500085275E+03  0.53874550764E+03  0.62425414161E+03  0.46999998093E+01 0. -1.
</event>
<event>
 5   0  0.9145224E-04  0.1198249E+04  0.7818609E-02  0.9114391E-01
        2   -1    0    0  501    0  0.00000000000E+00  0.00000000000E+00  0.10850220727E+04  0.10850220727E+04  0.25500000920E-02 0. -1.
       -2   -1    0    0    0  501  0.00000000000E+00  0.00000000000E+00 -0.33082278068E+03  0.33082278069E+03  0.25500000920E-02 0.  1.
    10030    2    1    2    0    0  0.00000000000E+00  0.00000000000E+00  0.75419929203E+03  0.14158448534E+04  0.11982487541E+04 0.  0.
        5    1    3    3  502    0 -0.16179948523E+03 -0.12902719566E+03  0.10414260352E+04  0.10617991182E+04  0.46999998093E+01 0. -1.
       -5    1    3    3    0  502  0.16179948523E+03  0.12902719566E+03 -0.28722674315E+03  0.35404573521E+03  0.46999998093E+01 0.  1.
</event>
<event>
 5   0  0.9410666E-04  0.1200058E+04  0.7818609E-02  0.9112806E-01
       -2   -1    0    0    0  501  0.00000000000E+00  0.00000000000E+00  0.55772407453E+03  0.55772407454E+03  0.25500000920E-02 0.  1.
        2   -1    0    0  501    0  0.00000000000E+00  0.00000000000E+00 -0.64554298670E+03  0.64554298671E+03  0.25500000920E-02 0. -1.
    10030    2    1    2    0    0  0.00000000000E+00  0.00000000000E+00 -0.87818912175E+02  0.12032670612E+04  0.12000581067E+04 0.  0.
        2    1    3    3  502    0  0.11214933938E+03  0.54239740652E+03 -0.27531315577E+03  0.61852223458E+03  0.25500000920E-02 0. -1.
       -2    1    3    3    0  502 -0.11214933938E+03 -0.54239740652E+03  0.18749424359E+03  0.58474482667E+03  0.25500000920E-02 0.  1.
</event>
<event>
 5   0  0.9050363E-04  0.1199907E+04  0.7818609E-02  0.9112938E-01
        2   -1    0    0  501    0  0.00000000000E+00  0.00000000000E+00  0.85476165708E+03  0.85476165709E+03  0.25500000920E-02 0.  1.
       -2   -1    0    0    0  501  0.00000000000E+00  0.00000000000E+00 -0.42110495255E+03  0.42110495256E+03  0.25500000920E-02 0. -1.
    10030    2    1    2    0    0  0.00000000000E+00  0.00000000000E+00  0.43365670453E+03  0.12758666096E+04  0.11999072748E+04 0.  0.
        3    1    3    3  502    0 -0.35105873938E+03  0.45677415218E+03  0.39494211954E+03  0.69847272859E+03  0.10100000352E+00 0.  1.
       -3    1    3    3    0  502  0.35105873938E+03 -0.45677415218E+03  0.38714584992E+02  0.57739388106E+03  0.10100000352E+00 0. -1.
</event>
<event>
 5   0  0.5001586E-04  0.1197276E+04  0.7818609E-02  0.9115245E-01
       -1   -1    0    0    0  501  0.00000000000E+00  0.00000000000E+00  0.87916030092E+03  0.87916030093E+03  0.50400001928E-02 0.  1.
        1   -1    0    0  501    0  0.00000000000E+00  0.00000000000E+00 -0.40762438824E+03  0.40762438827E+03  0.50400001928E-02 0. -1.
    10030    2    1    2    0    0  0.00000000000E+00  0.00000000000E+00  0.47153591268E+03  0.12867846892E+04  0.11972755403E+04 0.  0.
        1    1    3    3  502    0 -0.20854080317E+03  0.33820171615E+03  0.71701299915E+03  0.81974222068E+03  0.50400001928E-02 0.  1.
       -1    1    3    3    0  502  0.20854080317E+03 -0.33820171615E+03 -0.24547708648E+03  0.46704246852E+03  0.50400001928E-02 0. -1.
</event>
<event>
 5   0  0.9050363E-04  0.1204701E+04  0.7818609E-02  0.9108752E-01
       -2   -1    0    0    0  501  0.00000000000E+00  0.00000000000E+00  0.23407770932E+03  0.23407770933E+03  0.25500000920E-02 0. -1.
        2   -1    0    0  501    0  0.00000000000E+00  0.00000000000E+00 -0.15500231919E+04  0.15500231919E+04  0.25500000920E-02 0.  1.
    10030    2    1    2    0    0  0.00000000000E+00  0.00000000000E+00 -0.13159454826E+04  0.17841009013E+04  0.12047005905E+04 0.  0.
        3    1    3    3  502    0  0.91008041930E+02  0.11058362815E+03 -0.15244417668E+04  0.15311544381E+04  0.10100000352E+00 0.  1.
       -3    1    3    3    0  502 -0.91008041930E+02 -0.11058362815E+03  0.20849628423E+03  0.25294646321E+03  0.10100000352E+00 0. -1.
</event>
<event>
 5   0  0.9145224E-04  0.1200525E+04  0.7818609E-02  0.9112397E-01
       -2   -1    0    0    0  501  0.00000000000E+00  0.00000000000E+00  0.19852292916E+03  0.19852292917E+03  0.25500000920E-02 0. -1.
        2   -1    0    0  501    0  0.00000000000E+00  0.00000000000E+00 -0.18149808887E+04  0.18149808887E+04  0.25500000920E-02 0.  1.
    10030    2    1    2    0    0  0.00000000000E+00  0.00000000000E+00 -0.16164579596E+04  0.20135038179E+04  0.12005254223E+04 0.  0.
        5    1    3    3  502    0 -0.42399908772E+03 -0.36512359265E+03 -0.11726176207E+04  0.12992862035E+04  0.46999998093E+01 0.  1.
       -5    1    3    3    0  502  0.42399908772E+03  0.36512359265E+03 -0.44384033890E+03  0.71421761441E+03  0.46999998093E+01 0. -1.
</event>
<event>
 5   0  0.5001586E-04  0.1196956E+04  0.7818609E-02  0.9115525E-01
        1   -1    0    0  501    0  0.00000000000E+00  0.00000000000E+00  0.24311259310E+03  0.24311259315E+03  0.50400001928E-02 0. -1.
       -1   -1    0    0    0  501  0.00000000000E+00  0.00000000000E+00 -0.14732914230E+04  0.14732914230E+04  0.50400001928E-02 0.  1.
    10030    2    1    2    0    0  0.00000000000E+00  0.00000000000E+00 -0.12301788299E+04  0.17164040161E+04  0.11969556354E+04 0.  0.
        1    1    3    3  502    0  0.56219900905E+03  0.20517320129E+03 -0.62004232791E+03  0.86175185334E+03  0.50400001928E-02 0.  1.
       -1    1    3    3    0  502 -0.56219900905E+03 -0.20517320129E+03 -0.61013650194E+03  0.85465216277E+03  0.50400001928E-02 0. -1.
</event>
<event>
 5   0  0.5052959E-04  0.1200617E+04  0.7818609E-02  0.9112317E-01
        1   -1    0    0  501    0  0.00000000000E+00  0.00000000000E+00  0.43491992104E+03  0.43491992107E+03  0.50400001928E-02 0. -1.
       -1   -1    0    0    0  501  0.00000000000E+00  0.00000000000E+00 -0.82859018804E+03  0.82859018806E+03  0.50400001928E-02 0.  1.
    10030    2    1    2    0    0  0.00000000000E+00  0.00000000000E+00 -0.39367026700E+03  0.12635101091E+04  0.12006171400E+04 0.  0.
        2    1    3    3  502    0  0.21180310301E+03  0.54067188381E+02  0.39154680831E+03  0.44843362765E+03  0.25500000920E-02 0. -1.
       -2    1    3    3    0  502 -0.21180310301E+03 -0.54067188381E+02 -0.78521707531E+03  0.81507648148E+03  0.25500000920E-02 0.  1.
</event>
<event>
 5   0  0.9070772E-04  0.1201226E+04  0.7818609E-02  0.9111784E-01
        2   -1    0    0  501    0  0.00000000000E+00  0.00000000000E+00  0.15470691356E+04  0.15470691356E+04  0.25500000920E-02 0. -1.
       -2   -1    0    0    0  501  0.00000000000E+00  0.00000000000E+00 -0.23317394347E+03  0.23317394348E+03  0.25500000920E-02 0.  1.
    10030    2    1    2    0    0  0.00000000000E+00  0.00000000000E+00  0.13138951921E+04  0.17802430791E+04  0.12012263919E+04 0.  0.
        4    1    3    3  502    0 -0.29463005045E+03  0.26466365513E+03 -0.12232002004E+02  0.39623850362E+03  0.12699999809E+01 0.  1.
       -4    1    3    3    0  502  0.29463005045E+03 -0.26466365513E+03  0.13261271941E+04  0.13840045755E+04  0.12699999809E+01 0. -1.
</event>
<event>
 5   0  0.9070772E-04  0.1153400E+04  0.7818609E-02  0.9154652E-01
       -2   -1    0    0    0  501  0.00000000000E+00  0.00000000000E+00  0.37272607183E+03  0.37272607184E+03  0.25500000920E-02 0. -1.
        2   -1    0    0  501    0  0.00000000000E+00  0.00000000000E+00 -0.89229899383E+03  0.89229899383E+03  0.25500000920E-02 0.  1.
    10030    2    1    2    0    0  0.00000000000E+00  0.00000000000E+00 -0.51957292199E+03  0.12650250657E+04  0.11534003622E+04 0.  0.
        4    1    3    3  502    0 -0.12901879009E+03  0.17839820324E+03  0.32481795633E+03  0.39240296223E+03  0.12699999809E+01 0. -1.
       -4    1    3    3    0  502  0.12901879009E+03 -0.17839820324E+03 -0.84439087832E+03  0.87262210344E+03  0.12699999809E+01 0.  1.
</event>
<event>
 5   0  0.9410666E-04  0.1190277E+04  0.7818609E-02  0.9121410E-01
       -2   -1    0    0    0  501  0.00000000000E+00  0.00000000000E+00  0.33887217889E+03  0.33887217890E+03  0.25500000920E-02 0. -1.
        2   -1    0    0  501    0  0.00000000000E+00  0.00000000000E+00 -0.10452014239E+04  0.10452014239E+04  0.25500000920E-02 0.  1.
    10030    2    1    2    0    0  0.00000000000E+00  0.00000000000E+00 -0.70632924501E+03  0.13840736028E+04  0.11902767475E+04 0.  0.
        2    1    3    3  502    0 -0.53657353075E+03  0.23726819115E+03 -0.23698570740E+03  0.63274763844E+03  0.25500000920E-02 0. -1.
       -2    1    3    3    0  502  0.53657353075E+03 -0.23726819115E+03 -0.46934353761E+03  0.75132596437E+03  0.25500000920E-02 0.  1.
</event>
<event>
 5   0  0.9298693E-04  0.1175529E+04  0.7818609E-02  0.9134550E-01
       -2   -1    0    0    0  501  0.00000000000E+00  0.00000000000E+00  0.49985650378E+03  0.49985650379E+03  0.25500000920E-02 0.  1.
        2   -1    0    0  501    0  0.00000000000E+00  0.00000000000E+00 -0.69113262794E+03  0.69113262795E+03  0.25500000920E-02 0. -1.
    10030    2    1    2    0    0  0.00000000000E+00  0.00000000000E+00 -0.19127612416E+03  0.11909891317E+04  0.11755290538E+04 0.  0.
        1    1    3    3  502    0  0.32391715143E+03 -0.49045054271E+03 -0.97417059441E+02  0.59578027773E+03  0.50400001928E-02 0. -1.
       -1    1    3    3    0  502 -0.32391715143E+03  0.49045054271E+03 -0.93859064721E+02  0.59520885401E+03  0.50400001928E-02 0.  1.
</event>
<event>
 5   0  0.9070772E-04  0.1198643E+04  0.7818609E-02  0.9114046E-01
       -2   -1    0    0    0  501  0.00000000000E+00  0.00000000000E+00  0.38050757715E+03  0.38050757716E+03  0.25500000920E-02 0. -1.
        2   -1    0    0  501    0  0.00000000000E+00  0.00000000000E+00 -0.94396544131E+03  0.94396544131E+03  0.25500000920E-02 0.  1.
    10030    2    1    2    0    0  0.00000000000E+00  0.00000000000E+00 -0.56345786416E+03  0.13244730185E+04  0.11986425706E+04 0.  0.
        4    1    3    3  502    0  0.45486624168E+03 -0.79239165569E+02  0.14048560995E+03  0.48261782259E+03  0.12699999809E+01 0. -1.
       -4    1    3    3    0  502 -0.45486624168E+03  0.79239165569E+02 -0.70394347411E+03  0.84185519588E+03  0.12699999809E+01 0.  1.
</event>
<event>
 5   0  0.9145224E-04  0.1199409E+04  0.7818609E-02  0.9113374E-01
        2   -1    0    0  501    0  0.00000000000E+00  0.00000000000E+00  0.17114869768E+04  0.17114869768E+04  0.25500000920E-02 0. -1.
       -2   -1    0    0    0  501  0.00000000000E+00  0.00000000000E+00 -0.21013612538E+03  0.21013612540E+03  0.25500000920E-02 0.  1.
    10030    2    1    2    0    0  0.00000000000E+00  0.00000000000E+00  0.15013508514E+04  0.19216231021E+04  0.11994085909E+04 0.  0.
        5    1    3    3  502    0  0.43386206835E+03 -0.23660187846E+03  0.12949474592E+04  0.13860475299E+04  0.46999998093E+01 0. -1.
       -5    1    3    3    0  502 -0.43386206835E+03  0.23660187846E+03  0.20640339221E+03  0.53557557222E+03  0.46999998093E+01 0.  1.
</event>
<event>
 5   0  0.5003507E-04  0.1214574E+04  0.7818609E-02  0.9100195E-01
       -1   -1    0    0    0  501  0.00000000000E+00  0.00000000000E+00  0.36558295654E+03  0.36558295658E+03  0.50400001928E-02 0.  1.
        1   -1    0    0  501    0  0.00000000000E+00  0.00000000000E+00 -0.10087924493E+04  0.10087924493E+04  0.50400001928E-02 0. -1.
    10030    2    1    2    0    0  0.00000000000E+00  0.00000000000E+00 -0.64320949272E+03  0.13743754059E+04  0.12145737132E+04 0.  0.
        3    1    3    3  502    0 -0.33843724051E+03  0.41505601096E+03  0.24000953756E+01  0.53555301199E+03  0.10100000352E+00 0.  1.
       -3    1    3    3    0  502  0.33843724051E+03 -0.41505601096E+03 -0.64560958810E+03  0.83882239386E+03  0.10100000352E+00 0. -1.
</event>
<event>
 5   0  0.5003507E-04  0.1189784E+04  0.7818609E-02  0.9121846E-01
       -1   -1    0    0    0  501  0.00000000000E+00  0.00000000000E+00  0.40818118289E+03  0.40818118293E+03  0.50400001928E-02 0. -1.
        1   -1    0    0  501    0  0.00000000000E+00  0.00000000000E+00 -0.86700765105E+03  0.86700765106E+03  0.50400001928E-02 0.  1.
    10030    2    1    2    0    0  0.00000000000E+00  0.00000000000E+00 -0.45882646815E+03  0.12751888340E+04  0.11897835242E+04 0.  0.
        3    1    3    3  502    0  0.42335003053E+03 -0.17696241776E+03  0.17638799306E+03  0.49158283122E+03  0.10100000352E+00 0. -1.
       -3    1    3    3    0  502 -0.42335003053E+03  0.17696241776E+03 -0.63521446121E+03  0.78360600277E+03  0.10100000352E+00 0.  1.
</event>
<event>
 5   0  0.5447074E-04  0.1198956E+04  0.7818609E-02  0.9113771E-01
        1   -1    0    0  501    0  0.00000000000E+00  0.00000000000E+00  0.12877994084E+04  0.12877994084E+04  0.50400001928E-02 0. -1.
       -1   -1    0    0    0  501  0.00000000000E+00  0.00000000000E+00 -0.27906054276E+03  0.27906054281E+03  0.50400001928E-02 0.  1.
    10030    2    1    2    0    0  0.00000000000E+00  0.00000000000E+00  0.10087388656E+04  0.15668599512E+04  0.11989562159E+04 0.  0.
        4    1    3    3  502    0  0.17924018415E+03  0.56566951173E+03  0.39299248565E+03  0.71172589302E+03  0.12699999809E+01 0.  1.
       -4    1    3    3    0  502 -0.17924018415E+03 -0.56566951173E+03  0.61574637999E+03  0.85513405820E+03  0.12699999809E+01 0. -1.
</event>
<event>
 5   0  0.5001586E-04  0.1199797E+04  0.7818609E-02  0.9113034E-01
        1   -1    0    0  501    0  0.00000000000E+00  0.00000000000E+00  0.64917115078E+03  0.64917115080E+03  0.50400001928E-02 0. -1.
       -1   -1    0    0    0  501  0.00000000000E+00  0.00000000000E+00 -0.55436560183E+03  0.55436560185E+03  0.50400001928E-02 0.  1.
    10030    2    1    2    0    0  0.00000000000E+00  0.00000000000E+00  0.94805548957E+02  0.12035367527E+04  0.11997969090E+04 0.  0.
        1    1    3    3  502    0  0.18459901934E+03 -0.57077528760E+03  0.43275485175E+02  0.60144325960E+03  0.50400001928E-02 0.  1.
       -1    1    3    3    0  502 -0.18459901934E+03  0.57077528760E+03  0.51530063783E+02  0.60209349305E+03  0.50400001928E-02 0. -1.
</event>
<event>
 5   0  0.9298693E-04  0.1202719E+04  0.7818609E-02  0.9110480E-01
        2   -1    0    0  501    0  0.00000000000E+00  0.00000000000E+00  0.98772306533E+03  0.98772306533E+03  0.25500000920E-02 0. -1.
       -2   -1    0    0    0  501  0.00000000000E+00  0.00000000000E+00 -0.36612810498E+03  0.36612810499E+03  0.25500000920E-02 0.  1.
    10030    2    1    2    0    0  0.00000000000E+00  0.00000000000E+00  0.62159496035E+03  0.13538511703E+04  0.12027188768E+04 0.  0.
        1    1    3    3  502    0  0.12098320080E+02  0.23474822877E+03  0.93386778807E+03  0.96299644126E+03  0.50400001928E-02 0. -1.
       -1    1    3    3    0  502 -0.12098320080E+02 -0.23474822877E+03 -0.31227282773E+03  0.39085472905E+03  0.50400001928E-02 0.  1.
</event>
<event>
 5   0  0.9070772E-04  0.1201857E+04  0.7818609E-02  0.9111233E-01
       -2   -1    0    0    0  501  0.00000000000E+00  0.00000000000E+00  0.32597111263E+03  0.32597111264E+03  0.25500000920E-02 0.  1.
        2   -1    0    0  501    0  0.00000000000E+00  0.00000000000E+00 -0.11078123307E+04  0.11078123307E+04  0.25500000920E-02 0. -1.
    10030    2    1    2    0    0  0.00000000000E+00  0.00000000000E+00 -0.78184121811E+03  0.14337834434E+04  0.12018565938E+04 0.  0.
        4    1    3    3  502    0 -0.17951135741E+03 -0.13040746213E+03  0.27531310050E+03  0.35359489508E+03  0.12699999809E+01 0.  1.
       -4    1    3    3    0  502  0.17951135741E+03  0.13040746213E+03 -0.10571543186E+04  0.10801885483E+04  0.12699999809E+01 0. -1.
</event>
<event>
 5   0  0.9410666E-04  0.1201108E+04  0.7818609E-02  0.9111887E-01
       -2   -1    0    0    0  501  0.00000000000E+00  0.00000000000E+00  0.41127684036E+03  0.41127684037E+03  0.25500000920E-02 0. -1.
        2   -1    0    0  501    0  0.00000000000E+00  0.00000000000E+00 -0.87693958370E+03  0.87693958370E+03  0.25500000920E-02 0.  1.
    10030    2    1    2    0    0  0.00000000000E+00  0.00000000000E+00 -0.46566274334E+03  0.12882164241E+04  0.12011077240E+04 0.  0.
        2    1    3    3  502    0  0.32067129586E+03  0.25213034089E+03 -0.70555174898E+03  0.81498653932E+03  0.25500000920E-02 0.  1.
       -2    1    3    3    0  502 -0.32067129586E+03 -0.25213034089E+03  0.23988900564E+03  0.47322988475E+03  0.25500000920E-02 0. -1.
</event>
<event>
 5   0  0.5157631E-04  0.1198992E+04  0.7818609E-02  0.9113740E-01
       -1   -1    0    0    0  501  0.00000000000E+00  0.00000000000E+00  0.19443692452E+03  0.19443692459E+03  0.50400001928E-02 0.  1.
        1   -1    0    0  501    0  0.00000000000E+00  0.00000000000E+00 -0.18483901141E+04  0.18483901141E+04  0.50400001928E-02 0. -1.
    10030    2    1    2    0    0  0.00000000000E+00  0.00000000000E+00 -0.16539531896E+04  0.20428270387E+04  0.11989917250E+04 0.  0.
        5    1    3    3  502    0  0.12315451582E+03  0.14105994300E+03  0.14329745160E+03  0.23584145505E+03  0.46999998093E+01 0.  1.
       -5    1    3    3    0  502 -0.12315451582E+03 -0.14105994300E+03 -0.17972506412E+04  0.18069855837E+04  0.46999998093E+01 0. -1.
</event>
<event>
 5   0  0.5003507E-04  0.1200360E+04  0.7818609E-02  0.9112541E-01
       -1   -1    0    0    0  501  0.00000000000E+00  0.00000000000E+00  0.21729528573E+03  0.21729528579E+03  0.50400001928E-02 0.  1.
        1   -1    0    0  501    0  0.00000000000E+00  0.00000000000E+00 -0.16577267608E+04  0.16577267608E+04  0.50400001928E-02 0. -1.
    10030    2    1    2    0    0  0.00000000000E+00  0.00000000000E+00 -0.14404314751E+04  0.18750220466E+04  0.12003602963E+04 0.  0.
        3    1    3    3  502    0  0.42978846670E+03 -0.40892885451E+03 -0.86231300753E+03  0.10466731425E+04  0.10100000352E+00 0. -1.
       -3    1    3    3    0  502 -0.42978846670E+03  0.40892885451E+03 -0.57811846753E+03  0.82834890406E+03  0.10100000352E+00 0.  1.
</event>
<event>
 5   0  0.9298693E-04  0.1196581E+04  0.7818609E-02  0.9115855E-01
       -2   -1    0    0    0  501  0.00000000000E+00  0.00000000000E+00  0.39929268736E+03  0.39929268737E+03  0.25500000920E-02 0.  1.
        2   -1    0    0  501    0  0.00000000000E+00  0.00000000000E+00 -0.89646330112E+03  0.89646330112E+03  0.25500000920E-02 0. -1.
    10030    2    1    2    0    0  0.00000000000E+00  0.00000000000E+00 -0.49717061375E+03  0.12957559885E+04  0.11965805291E+04 0.  0.
        1    1    3    3  502    0  0.42479246980E+03  0.45195581672E+02  0.20501182837E+03  0.47383660981E+03  0.50400001928E-02 0.  1.
       -1    1    3    3    0  502 -0.42479246980E+03 -0.45195581672E+02 -0.70218244212E+03  0.82191937868E+03  0.50400001928E-02 0. -1.
</event>
<event>
 5   0  0.5447074E-04  0.1209545E+04  0.7818609E-02  0.9104542E-01
       -1   -1    0    0    0  501  0.00000000000E+00  0.00000000000E+00  0.18154391033E+03  0.18154391040E+03  0.50400001928E-02 0.  1.
        1   -1    0    0  501    0  0.00000000000E+00  0.00000000000E+00 -0.20146642190E+04  0.20146642190E+04  0.50400001928E-02 0. -1.
    10030    2    1    2    0    0  0.00000000000E+00  0.00000000000E+00 -0.18331203087E+04  0.21962081294E+04  0.12095454029E+04 0.  0.
        4    1    3    3  502    0  0.23446908478E+03  0.50467448676E+03 -0.48658727290E+03  0.73921639346E+03  0.12699999809E+01 0.  1.
       -4    1    3    3    0  502 -0.23446908478E+03 -0.50467448676E+03 -0.13465330358E+04  0.14569917360E+04  0.12699999809E+01 0. -1.
</event>
<event>
 5   0  0.5003507E-04  0.1190149E+04  0.7818609E-02  0.9121523E-01
       -1   -1    0    0    0  501  0.00000000000E+00  0.00000000000E+00  0.39414665330E+03  0.39414665334E+03  0.50400001928E-02 0. -1.
        1   -1    0    0  501    0  0.00000000000E+00  0.00000000000E+00 -0.89843138639E+03  0.89843138640E+03  0.50400001928E-02 0.  1.
    10030    2    1    2    0    0  0.00000000000E+00  0.00000000000E+00 -0.50428473308E+03  0.12925780397E+04  0.11901491070E+04 0.  0.
        3    1    3    3  502    0 -0.12370564783E+03 -0.13758857956E+03  0.36211298413E+03  0.40664422781E+03  0.10100000352E+00 0. -1.
       -3    1    3    3    0  502  0.12370564783E+03  0.13758857956E+03 -0.86639771721E+03  0.88593381193E+03  0.10100000352E+00 0.  1.
</event>
<event>
 5   0  0.5001586E-04  0.1197425E+04  0.7818609E-02  0.9115113E-01
       -1   -1    0    0    0  501  0.00000000000E+00  0.00000000000E+00  0.34224238079E+03  0.34224238083E+03  0.50400001928E-02 0. -1.
        1   -1    0    0  501    0  0.00000000000E+00  0.00000000000E+00 -0.10473770946E+04  0.10473770946E+04  0.50400001928E-02 0.  1.
    10030    2    1    2    0    0  0.00000000000E+00  0.00000000000E+00 -0.70513471377E+03  0.13896194754E+04  0.11974252886E+04 0.  0.
        1    1    3    3  502    0  0.20345147070E+03  0.46599762039E+03 -0.71938746558E+03  0.88094529274E+03  0.50400001928E-02 0.  1.
       -1    1    3    3    0  502 -0.20345147070E+03 -0.46599762039E+03  0.14252751813E+02  0.50867418266E+03  0.50400001928E-02 0. -1.
</event>
<event>
 5   0  0.5157631E-04  0.1199386E+04  0.7818609E-02  0.9113394E-01
        1   -1    0    0  501    0  0.00000000000E+00  0.00000000000E+00  0.10797982909E+04  0.10797982909E+04  0.50400001928E-02 0.  1.
       -1   -1    0    0    0  501  0.00000000000E+00  0.00000000000E+00 -0.33305448871E+03  0.33305448875E+03  0.50400001928E-02 0. -1.
    10030    2    1    2    0    0  0.00000000000E+00  0.00000000000E+00  0.74674380221E+03  0.14128527797E+04  0.11993859558E+04 0.  0.
        5    1    3    3  502    0  0.33871699022E+03  0.34016353498E+03 -0.49995435264E+02  0.48266143780E+03  0.46999998093E+01 0. -1.
       -5    1    3    3    0  502 -0.33871699022E+03 -0.34016353498E+03  0.79673923748E+03  0.93019134189E+03  0.46999998093E+01 0.  1.
</event>
<event>
 5   0  0.5003507E-04  0.1200245E+04  0.7818609E-02  0.9112642E-01
        1   -1    0    0  501    0  0.00000000000E+00  0.00000000000E+00  0.41208041046E+03  0.41208041049E+03  0.50400001928E-02 0. -1.
       -1   -1    0    0    0  501  0.00000000000E+00  0.00000000000E+00 -0.87397236428E+03  0.87397236430E+03  0.50400001928E-02 0.  1.
    10030    2    1    2    0    0  0.00000000000E+00  0.00000000000E+00 -0.46189195383E+03  0.12860527748E+04  0.12002447928E+04 0.  0.
        3    1    3    3  502    0  0.46942825190E+03 -0.36025937250E+03 -0.12381187239E+03  0.60454866561E+03  0.10100000352E+00 0. -1.
       -3    1    3    3    0  502 -0.46942825190E+03  0.36025937250E+03 -0.33808008144E+03  0.68150410917E+03  0.10100000352E+00 0.  1.
</event>
<event>
 5   0  0.9070772E-04  0.1203962E+04  0.7818609E-02  0.9109396E-01
       -2   -1    0    0    0  501  0.00000000000E+00  0.00000000000E+00  0.43140491169E+03  0.43140491170E+03  0.25500000920E-02 0.  1.
        2   -1    0    0  501    0  0.00000000000E+00  0.00000000000E+00 -0.84000170969E+03  0.84000170970E+03  0.25500000920E-02 0. -1.
    10030    2    1    2    0    0  0.00000000000E+00  0.00000000000E+00 -0.40859679800E+03  0.12714066214E+04  0.12039615665E+04 0.  0.
        4    1    3    3  502    0  0.58532248435E+03  0.82129732006E+02 -0.83747672569E+02  0.59696146369E+03  0.12699999809E+01 0.  1.
       -4    1    3    3    0  502 -0.58532248435E+03 -0.82129732006E+02 -0.32484912543E+03  0.67444515771E+03  0.12699999809E+01 0. -1.
</event>
<event>
 5   0  0.9298693E-04  0.1198725E+04  0.7818609E-02  0.9113973E-01
       -2   -1    0    0    0  501  0.00000000000E+00  0.00000000000E+00  0.50682890762E+03  0.50682890763E+03  0.25500000920E-02 0.  1.
        2   -1    0    0  501    0  0.00000000000E+00  0.00000000000E+00 -0.70879033384E+03  0.70879033385E+03  0.25500000920E-02 0. -1.
    10030    2    1    2    0    0  0.00000000000E+00  0.00000000000E+00 -0.20196142622E+03  0.12156192415E+04  0.11987250404E+04 0.  0.
        1    1    3    3  502    0  0.34176966789E+03 -0.45199436663E+03 -0.29900182245E+03  0.64070859461E+03  0.50400001928E-02 0. -1.
       -1    1    3    3    0  502 -0.34176966789E+03  0.45199436663E+03  0.97040396229E+02  0.57491064687E+03  0.50400001928E-02 0.  1.
</event>
<event>
 5   0  0.5447074E-04  0.1186993E+04  0.7818609E-02  0.9124318E-01
       -1   -1    0    0    0  501  0.00000000000E+00  0.00000000000E+00  0.23010219943E+03  0.23010219949E+03  0.50400001928E-02 0.  1.
        1   -1    0    0  501    0  0.00000000000E+00  0.00000000000E+00 -0.15307902860E+04  0.15307902860E+04  0.50400001928E-02 0. -1.
    10030    2    1    2    0    0  0.00000000000E+00  0.00000000000E+00 -0.13006880865E+04  0.17608924855E+04  0.11869931958E+04 0.  0.
        4    1    3    3  502    0 -0.44214181293E+02  0.81469376397E+02  0.21929549161E+03  0.23808460399E+03  0.12699999809E+01 0.  1.
       -4    1    3    3    0  502  0.44214181293E+02 -0.81469376397E+02 -0.15199835781E+04  0.15228078815E+04  0.12699999809E+01 0. -1.
</event>
<event>
 5   0  0.9145224E-04  0.1204342E+04  0.7818609E-02  0.9109064E-01
        2   -1    0    0  501    0  0.00000000000E+00  0.00000000000E+00  0.26151060904E+04  0.26151060904E+04  0.25500000920E-02 0.  1.
       -2   -1    0    0    0  501  0.00000000000E+00  0.00000000000E+00 -0.13865981648E+03  0.13865981651E+03  0.25500000920E-02 0. -1.
    10030    2    1    2    0    0  0.00000000000E+00  0.00000000000E+00  0.24764462739E+04  0.27537659069E+04  0.12043423610E+04 0.  0.
        5    1    3    3  502    0  0.14051069848E+03 -0.57995420419E+03  0.14225394372E+04  0.15426375711E+04  0.46999998093E+01 0.  1.
       -5    1    3    3    0  502 -0.14051069848E+03  0.57995420419E+03  0.10539068367E+04  0.12111283358E+04  0.46999998093E+01 0. -1.
</event>
<event>
 5   0  0.5447074E-04  0.1196738E+04  0.7818609E-02  0.9115716E-01
        1   -1    0    0  501    0  0.00000000000E+00  0.00000000000E+00  0.13657018690E+04  0.13657018690E+04  0.50400001928E-02 0. -1.
       -1   -1    0    0    0  501  0.00000000000E+00  0.00000000000E+00 -0.26216963976E+03  0.26216963981E+03  0.50400001928E-02 0.  1.
    10030    2    1    2    0    0  0.00000000000E+00  0.00000000000E+00  0.11035322292E+04  0.16278715088E+04  0.11967381787E+04 0.  0.
        4    1    3    3  502    0  0.42303669702E+03 -0.23420090285E+03  0.10312134817E+04  0.11389525748E+04  0.12699999809E+01 0. -1.
       -4    1    3    3    0  502 -0.42303669702E+03  0.23420090285E+03  0.72318747579E+02  0.48891893405E+03  0.12699999809E+01 0.  1.
</event>
<event>
 5   0  0.5001586E-04  0.1198645E+04  0.7818609E-02  0.9114043E-01
        1   -1    0    0  501    0  0.00000000000E+00  0.00000000000E+00  0.99955210603E+03  0.99955210604E+03  0.50400001928E-02 0.  1.
       -1   -1    0    0    0  501  0.00000000000E+00  0.00000000000E+00 -0.35934842220E+03  0.35934842224E+03  0.50400001928E-02 0. -1.
    10030    2    1    2    0    0  0.00000000000E+00  0.00000000000E+00  0.64020368382E+03  0.13589005283E+04  0.11986450221E+04 0.  0.
        1    1    3    3  502    0  0.50192396009E+03  0.22298896722E+03  0.59203733718E+03  0.80756420789E+03  0.50400001928E-02 0. -1.
       -1    1    3    3    0  502 -0.50192396009E+03 -0.22298896722E+03  0.48166346640E+02  0.55133632039E+03  0.50400001928E-02 0.  1.
</event>
<event>
 5   0  0.5001586E-04  0.1131711E+04  0.7818609E-02  0.9174824E-01
       -1   -1    0    0    0  501  0.00000000000E+00  0.00000000000E+00  0.58350600793E+03  0.58350600796E+03  0.50400001928E-02 0. -1.
        1   -1    0    0  501    0  0.00000000000E+00  0.00000000000E+00 -0.54873885057E+03  0.54873885060E+03  0.50400001928E-02 0.  1.
    10030    2    1    2    0    0  0.00000000000E+00  0.00000000000E+00  0.34767157362E+02  0.11322448586E+04  0.11317109456E+04 0.  0.
        1    1    3    3  502    0  0.31995470242E+03  0.27985272170E+03  0.39106194113E+03  0.57759674451E+03  0.50400001928E-02 0. -1.
       -1    1    3    3    0  502 -0.31995470242E+03 -0.27985272170E+03 -0.35629478377E+03  0.55464811404E+03  0.50400001928E-02 0.  1.
</event>
<event>
 5   0  0.5003507E-04  0.1196526E+04  0.7818609E-02  0.9115903E-01
        1   -1    0    0  501    0  0.00000000000E+00  0.00000000000E+00  0.53294819836E+03  0.53294819838E+03  0.50400001928E-02 0.  1.
       -1   -1    0    0    0  501  0.00000000000E+00  0.00000000000E+00 -0.67158203797E+03  0.67158203799E+03  0.50400001928E-02 0. -1.
    10030    2    1    2    0    0  0.00000000000E+00  0.00000000000E+00 -0.13863383961E+03  0.12045302364E+04  0.11965256992E+04 0.  0.
        3    1    3    3  502    0 -0.35601233693E+02  0.15965686207E+03 -0.64863228666E+03  0.66894066623E+03  0.10100000352E+00 0. -1.
       -3    1    3    3    0  502  0.35601233693E+02 -0.15965686207E+03  0.50999844705E+03  0.53558957013E+03  0.10100000352E+00 0.  1.
</event>
<event>
 5   0  0.9145224E-04  0.1195449E+04  0.7818609E-02  0.9116849E-01
       -2   -1    0    0    0  501  0.00000000000E+00  0.00000000000E+00  0.30036720856E+03  0.30036720858E+03  0.25500000920E-02 0.  1.
        2   -1    0    0  501    0  0.00000000000E+00  0.00000000000E+00 -0.11894592129E+04  0.11894592129E+04  0.25500000920E-02 0. -1.
    10030    2    1    2    0    0  0.00000000000E+00  0.00000000000E+00 -0.88909200430E+03  0.14898264214E+04  0.11954489424E+04 0.  0.
        5    1    3    3  502    0  0.41489265644E+03  0.21113301895E+03 -0.91174689591E+03  0.10237272880E+04  0.46999998093E+01 0. -1.
       -5    1    3    3    0  502 -0.41489265644E+03 -0.21113301895E+03  0.22654891607E+02  0.46609913342E+03  0.46999998093E+01 0.  1.
</event>
<event>
 5   0  0.9298693E-04  0.1279784E+04  0.7818609E-02  0.9045752E-01
       -2   -1    0    0    0  501  0.00000000000E+00  0.00000000000E+00  0.25234431710E+03  0.25234431711E+03  0.25500000920E-02 0. -1.
        2   -1    0    0  501    0  0.00000000000E+00  0.00000000000E+00 -0.16226305455E+04  0.16226305455E+04  0.25500000920E-02 0.  1.
    10030    2    1    2    0    0  0.00000000000E+00  0.00000000000E+00 -0.13702862284E+04  0.18749748626E+04  0.12797837269E+04 0.  0.
        1    1    3    3  502    0 -0.29784989877E+01 -0.13669642664E+03  0.23069286722E+03  0.26816782716E+03  0.50400001928E-02 0. -1.
       -1    1    3    3    0  502  0.29784989877E+01  0.13669642664E+03 -0.16009790956E+04  0.16068070355E+04  0.50400001928E-02 0.  1.
</event>
<event>
 5   0  0.5447074E-04  0.1200029E+04  0.7818609E-02  0.9112831E-01
       -1   -1    0    0    0  501  0.00000000000E+00  0.00000000000E+00  0.33550761224E+03  0.33550761228E+03  0.50400001928E-02 0. -1.
        1   -1    0    0  501    0  0.00000000000E+00  0.00000000000E+00 -0.10730533291E+04  0.10730533292E+04  0.50400001928E-02 0.  1.
    10030    2    1    2    0    0  0.00000000000E+00  0.00000000000E+00 -0.73754571691E+03  0.14085609414E+04  0.12000292668E+04 0.  0.
        4    1    3    3  502    0 -0.49699831153E+03  0.18542260876E+03 -0.39641029941E+02  0.53194162242E+03  0.12699999809E+01 0.  1.
       -4    1    3    3    0  502  0.49699831153E+03 -0.18542260876E+03 -0.69790468696E+03  0.87661931903E+03  0.12699999809E+01 0. -1.
</event>
<event>
 5   0  0.5003507E-04  0.1202763E+04  0.7818609E-02  0.9110441E-01
       -1   -1    0    0    0  501  0.00000000000E+00  0.00000000000E+00  0.11337111995E+04  0.11337111995E+04  0.50400001928E-02 0.  1.
        1   -1    0    0  501    0  0.00000000000E+00  0.00000000000E+00 -0.31900527988E+03  0.31900527992E+03  0.50400001928E-02 0. -1.
    10030    2    1    2    0    0  0.00000000000E+00  0.00000000000E+00  0.81470591958E+03  0.14527164794E+04  0.12027632494E+04 0.  0.
        3    1    3    3  502    0 -0.90653392071E+02 -0.58489442653E+03  0.53597440367E+03  0.79849113913E+03  0.10100000352E+00 0.  1.
       -3    1    3    3    0  502  0.90653392071E+02  0.58489442653E+03  0.27873151590E+03  0.65422534026E+03  0.10100000352E+00 0. -1.
</event>
<event>
 5   0  0.9145224E-04  0.1200060E+04  0.7818609E-02  0.9112804E-01
        2   -1    0    0  501    0  0.00000000000E+00  0.00000000000E+00  0.21153684458E+04  0.21153684458E+04  0.25500000920E-02 0.  1.
       -2   -1    0    0    0  501  0.00000000000E+00  0.00000000000E+00 -0.17019999854E+03  0.17019999855E+03  0.25500000920E-02 0. -1.
    10030    2    1    2    0    0  0.00000000000E+00  0.00000000000E+00  0.19451684473E+04  0.22855684444E+04  0.12000595092E+04 0.  0.
        5    1    3    3  502    0 -0.12592441308E+03 -0.55256004081E+03  0.59726756019E+03  0.82336515894E+03  0.46999998093E+01 0. -1.
       -5    1    3    3    0  502  0.12592441308E+03  0.55256004081E+03  0.13479008871E+04  0.14622032854E+04  0.46999998093E+01 0.  1.
</event>
<event>
 5   0  0.5003507E-04  0.1194643E+04  0.7818609E-02  0.9117559E-01
        1   -1    0    0  501    0  0.00000000000E+00  0.00000000000E+00  0.95037722680E+03  0.95037722681E+03  0.50400001928E-02 0. -1.
       -1   -1    0    0    0  501  0.00000000000E+00  0.00000000000E+00 -0.37542225033E+03  0.37542225037E+03  0.50400001928E-02 0.  1.
    10030    2    1    2    0    0  0.00000000000E+00  0.00000000000E+00  0.57495497647E+03  0.13257994772E+04  0.11946426364E+04 0.  0.
        3    1    3    3  502    0 -0.31268371905E+03  0.15953650263E+03 -0.24887231358E+03  0.43030273355E+03  0.10100000352E+00 0.  1.
       -3    1    3    3    0  502  0.31268371905E+03 -0.15953650263E+03  0.82382729005E+03  0.89549674363E+03  0.10100000352E+00 0. -1.
</event>
<event>
 5   0  0.5003507E-04  0.1189842E+04  0.7818609E-02  0.9121795E-01
        1   -1    0    0  501    0  0.00000000000E+00  0.00000000000E+00  0.35506270980E+03  0.35506270983E+03  0.50400001928E-02 0.  1.
       -1   -1    0    0    0  501  0.00000000000E+00  0.00000000000E+00 -0.99681196309E+03  0.99681196310E+03  0.50400001928E-02 0. -1.
    10030    2    1    2    0    0  0.00000000000E+00  0.00000000000E+00 -0.64174925329E+03  0.13518746729E+04  0.11898415975E+04 0.  0.
        3    1    3    3  502    0 -0.16622444595E+03 -0.39153406619E+03  0.15170164400E+03  0.45160036582E+03  0.10100000352E+00 0.  1.
       -3    1    3    3    0  502  0.16622444595E+03  0.39153406619E+03 -0.79345089729E+03  0.90027430711E+03  0.10100000352E+00 0. -1.
</event>
<event>
 5   0  0.9070772E-04  0.1184238E+04  0.7818609E-02  0.9126766E-01
       -2   -1    0    0    0  501  0.00000000000E+00  0.00000000000E+00  0.27827190688E+03  0.27827190689E+03  0.25500000920E-02 0.  1.
        2   -1    0    0  501    0  0.00000000000E+00  0.00000000000E+00 -0.12599357328E+04  0.12599357328E+04  0.25500000920E-02 0. -1.
    10030    2    1    2    0    0  0.00000000000E+00  0.00000000000E+00 -0.98166382592E+03  0.15382076397E+04  0.11842376770E+04 0.  0.
        4    1    3    3  502    0  0.12477558240E+03  0.57066872626E+03 -0.61657308812E+03  0.84935017924E+03  0.12699999809E+01 0.  1.
       -4    1    3    3    0  502 -0.12477558240E+03 -0.57066872626E+03 -0.36509073780E+03  0.68885746045E+03  0.12699999809E+01 0. -1.
</event>
<event>
 5   0  0.9410666E-04  0.1200946E+04  0.7818609E-02  0.9112029E-01
       -2   -1    0    0    0  501  0.00000000000E+00  0.00000000000E+00  0.21991591450E+03  0.21991591451E+03  0.25500000920E-02 0.  1.
        2   -1    0    0  501    0  0.00000000000E+00  0.00000000000E+00 -0.16395702194E+04  0.16395702194E+04  0.25500000920E-02 0. -1.
    10030    2    1    2    0    0  0.00000000000E+00  0.00000000000E+00 -0.14196543049E+04  0.18594861340E+04  0.12009456011E+04 0.  0.
        2    1    3    3  502    0  0.28898464507E+03  0.52127954208E+03 -0.59686008777E+03  0.84349656220E+03  0.25500000920E-02 0.  1.
       -2    1    3    3    0  502 -0.28898464507E+03 -0.52127954208E+03 -0.82279421718E+03  0.10159895717E+04  0.25500000920E-02 0. -1.
</event>
<event>
 5   0  0.5052959E-04  0.1200661E+04  0.7818609E-02  0.9112278E-01
        1   -1    0    0  501    0  0.00000000000E+00  0.00000000000E+00  0.14309903451E+04  0.14309903451E+04  0.50400001928E-02 0. -1.
       -1   -1    0    0    0  501  0.00000000000E+00  0.00000000000E+00 -0.25185129410E+03  0.25185129415E+03  0.50400001928E-02 0.  1.
    10030    2    1    2    0    0  0.00000000000E+00  0.00000000000E+00  0.11791390510E+04  0.16828416393E+04  0.12006611017E+04 0.  0.
        2    1    3    3  502    0  0.53495194509E+03 -0.51792271176E+02  0.21468324678E+03  0.57874426076E+03  0.25500000920E-02 0.  1.
       -2    1    3    3    0  502 -0.53495194509E+03  0.51792271176E+02  0.96445580423E+03  0.11040973785E+04  0.25500000920E-02 0. -1.
</event>
<event>
 5   0  0.9410666E-04  0.1177481E+04  0.7818609E-02  0.9132799E-01
       -2   -1    0    0    0  501  0.00000000000E+00  0.00000000000E+00  0.12249803865E+04  0.12249803865E+04  0.25500000920E-02 0. -1.
        2   -1    0    0  501    0  0.00000000000E+00  0.00000000000E+00 -0.28295581036E+03  0.28295581037E+03  0.25500000920E-02 0.  1.
    10030    2    1    2    0    0  0.00000000000E+00  0.00000000000E+00  0.94202457614E+03  0.15079361969E+04  0.11774809008E+04 0.  0.
        2    1    3    3  502    0  0.58839412611E+03 -0.13970432771E+02  0.45234394327E+03  0.74230577504E+03  0.25500000920E-02 0. -1.
       -2    1    3    3    0  502 -0.58839412611E+03  0.13970432771E+02  0.48968063287E+03  0.76563042184E+03  0.25500000920E-02 0.  1.
</event>
<event>
 5   0  0.5052959E-04  0.1202066E+04  0.7818609E-02  0.9111050E-01
       -1   -1    0    0    0  501  0.00000000000E+00  0.00000000000E+00  0.52375112423E+03  0.52375112425E+03  0.50400001928E-02 0. -1.
        1   -1    0    0  501    0  0.00000000000E+00  0.00000000000E+00 -0.68971804774E+03  0.68971804776E+03  0.50400001928E-02 0.  1.
    10030    2    1    2    0    0  0.00000000000E+00  0.00000000000E+00 -0.16596692351E+03  0.12134691720E+04  0.12020658933E+04 0.  0.
        2    1    3    3  502    0  0.10240299064E+03  0.45481322576E+03 -0.46592246480E+03  0.65910938851E+03  0.25500000920E-02 0.  1.
       -2    1    3    3    0  502 -0.10240299064E+03 -0.45481322576E+03  0.29995554128E+03  0.55435978350E+03  0.25500000920E-02 0. -1.
</event>
<event>
 5   0  0.3453625E-04  0.1197917E+04  0.7818609E-02  0.9114682E-01
        3   -1    0    0  501    0  0.00000000000E+00  0.00000000000E+00  0.49421611544E+03  0.49421612576E+03  0.10100000352E+00 0. -1.
       -3   -1    0    0    0  501  0.00000000000E+00  0.00000000000E+00 -0.72589980146E+03  0.72589980849E+03  0.10100000352E+00 0.  1.
    10030    2    1    2    0    0  0.00000000000E+00  0.00000000000E+00 -0.23168368602E+03  0.12201159342E+04  0.11979171769E+04 0.  0.
        1    1    3    3  502    0 -0.49504019486E+03  0.33067287962E+03 -0.18295711527E+03  0.62280225906E+03  0.50400001928E-02 0.  1.
       -1    1    3    3    0  502  0.49504019486E+03 -0.33067287962E+03 -0.48726570751E+02  0.59731367518E+03  0.50400001928E-02 0. -1.
</event>
<event>
 5   0  0.5001586E-04  0.1210189E+04  0.7818609E-02  0.9103985E-01
       -1   -1    0    0    0  501  0.00000000000E+00  0.00000000000E+00  0.18158999180E+03  0.18158999187E+03  0.50400001928E-02 0.  1.
        1   -1    0    0  501    0  0.00000000000E+00  0.00000000000E+00 -0.20162962122E+04  0.20162962122E+04  0.50400001928E-02 0. -1.
    10030    2    1    2    0    0  0.00000000000E+00  0.00000000000E+00 -0.18347062204E+04  0.21978862041E+04  0.12101887666E+04 0.  0.
        1    1    3    3  502    0 -0.30308969247E+03  0.36076958460E+03 -0.22788218487E+03  0.52340074996E+03  0.50400001928E-02 0.  1.
       -1    1    3    3    0  502  0.30308969247E+03 -0.36076958460E+03 -0.16068240355E+04  0.16744854541E+04  0.50400001928E-02 0. -1.
</event>
<event>
 5   0  0.9410666E-04  0.1200393E+04  0.7818609E-02  0.9112513E-01
        2   -1    0    0  501    0  0.00000000000E+00  0.00000000000E+00  0.16306935418E+04  0.16306935418E+04  0.25500000920E-02 0. -1.
       -2   -1    0    0    0  501  0.00000000000E+00  0.00000000000E+00 -0.22090958771E+03  0.22090958773E+03  0.25500000920E-02 0.  1.
    10030    2    1    2    0    0  0.00000000000E+00  0.00000000000E+00  0.14097839541E+04  0.18516031296E+04  0.12003929990E+04 0.  0.
        2    1    3    3  502    0 -0.39199679533E+03  0.45827553386E+02  0.73928055424E+01  0.39473574170E+03  0.25500000920E-02 0.  1.
       -2    1    3    3    0  502  0.39199679533E+03 -0.45827553386E+02  0.14023911486E+04  0.14568673879E+04  0.25500000920E-02 0. -1.
</event>
<event>
 5   0  0.9070772E-04  0.1199519E+04  0.7818609E-02  0.9113278E-01
       -2   -1    0    0    0  501  0.00000000000E+00  0.00000000000E+00  0.28291309943E+03  0.28291309944E+03  0.25500000920E-02 0.  1.
        2   -1    0    0  501    0  0.00000000000E+00  0.00000000000E+00 -0.12714553690E+04  0.12714553690E+04  0.25500000920E-02 0. -1.
    10030    2    1    2    0    0  0.00000000000E+00  0.00000000000E+00 -0.98854226960E+03  0.15543684685E+04  0.11995188690E+04 0.  0.
        4    1    3    3  502    0  0.21415111388E+03 -0.17228440022E+03  0.19649944291E+03  0.33787017935E+03  0.12699999809E+01 0.  1.
       -4    1    3    3    0  502 -0.21415111388E+03  0.17228440022E+03 -0.11850417125E+04  0.12164982891E+04  0.12699999809E+01 0. -1.
</event>
<event>
 5   0  0.9298693E-04  0.1200301E+04  0.7818609E-02  0.9112593E-01
        2   -1    0    0  501    0  0.00000000000E+00  0.00000000000E+00  0.10189832304E+04  0.10189832304E+04  0.25500000920E-02 0. -1.
       -2   -1    0    0    0  501  0.00000000000E+00  0.00000000000E+00 -0.35347065522E+03  0.35347065523E+03  0.25500000920E-02 0.  1.
    10030    2    1    2    0    0  0.00000000000E+00  0.00000000000E+00  0.66551257520E+03  0.13724538857E+04  0.12003010791E+04 0.  0.
        1    1    3    3  502    0 -0.66556900317E+02 -0.53492689162E+03  0.63442125723E+03  0.83250641560E+03  0.50400001928E-02 0. -1.
       -1    1    3    3    0  502  0.66556900317E+02  0.53492689162E+03  0.31091317972E+02  0.53994747007E+03  0.50400001928E-02 0.  1.
</event>
<event>
 5   0  0.9298693E-04  0.1199139E+04  0.7818609E-02  0.9113610E-01
        2   -1    0    0  501    0  0.00000000000E+00  0.00000000000E+00  0.13818666339E+04  0.13818666339E+04  0.25500000920E-02 0. -1.
       -2   -1    0    0    0  501  0.00000000000E+00  0.00000000000E+00 -0.26014362208E+03  0.26014362209E+03  0.25500000920E-02 0.  1.
    10030    2    1    2    0    0  0.00000000000E+00  0.00000000000E+00  0.11217230118E+04  0.16420102559E+04  0.11991393437E+04 0.  0.
        1    1    3    3  502    0  0.32460213327E+03 -0.49451391599E+03  0.42688287523E+03  0.72947895599E+03  0.50400001928E-02 0.  1.
       -1    1    3    3    0  502 -0.32460213327E+03  0.49451391599E+03  0.69484013654E+03  0.91253129996E+03  0.50400001928E-02 0. -1.
</event>
<event>
 5   0  0.5052959E-04  0.1200617E+04  0.7818609E-02  0.9112316E-01
        1   -1    0    0  501    0  0.00000000000E+00  0.00000000000E+00  0.13814640788E+04  0.13814640788E+04  0.50400001928E-02 0. -1.
       -1   -1    0    0    0  501  0.00000000000E+00  0.00000000000E+00 -0.26086126383E+03  0.26086126388E+03  0.50400001928E-02 0.  1.
    10030    2    1    2    0    0  0.00000000000E+00  0.00000000000E+00  0.11206028150E+04  0.16423253427E+04  0.12006172839E+04 0.  0.
        2    1    3    3  502    0  0.32475769650E+03  0.27304172136E+03  0.11412183305E+04  0.12175379340E+04  0.25500000920E-02 0. -1.
       -2    1    3    3    0  502 -0.32475769650E+03 -0.27304172136E+03 -0.20615515517E+02  0.42478740862E+03  0.25500000920E-02 0.  1.
</event>
<event>
 5   0  0.3453625E-04  0.1205734E+04  0.7818609E-02  0.9107853E-01
       -4   -1    0    0    0  501  0.00000000000E+00  0.00000000000E+00  0.11883454596E+04  0.11883461383E+04  0.12699999809E+01 0.  1.
        4   -1    0    0  501    0  0.00000000000E+00  0.00000000000E+00 -0.30584201466E+03  0.30584465146E+03  0.12699999809E+01 0. -1.
    10030    2    1    2    0    0  0.00000000000E+00  0.00000000000E+00  0.88250344499E+03  0.14941907897E+04  0.12057337126E+04 0.  0.
        5    1    3    3  502    0  0.54076132433E+03 -0.11452231179E+03  0.73941189000E+03  0.92319564712E+03  0.46999998093E+01 0.  1.
       -5    1    3    3    0  502 -0.54076132433E+03  0.11452231179E+03  0.14309155499E+03  0.57099514262E+03  0.46999998093E+01 0. -1.
</event>
<event>
 5   0  0.9298693E-04  0.1179320E+04  0.7818609E-02  0.9131153E-01
       -2   -1    0    0    0  501  0.00000000000E+00  0.00000000000E+00  0.11653820352E+04  0.11653820352E+04  0.25500000920E-02 0. -1.
        2   -1    0    0  501    0  0.00000000000E+00  0.00000000000E+00 -0.29835630212E+03  0.29835630214E+03  0.25500000920E-02 0.  1.
    10030    2    1    2    0    0  0.00000000000E+00  0.00000000000E+00  0.86702573308E+03  0.14637383373E+04  0.11793202696E+04 0.  0.
        1    1    3    3  502    0  0.10044802005E+03  0.56155573229E+03  0.24831436472E+03  0.62216932499E+03  0.50400001928E-02 0.  1.
       -1    1    3    3    0  502 -0.10044802005E+03 -0.56155573229E+03  0.61871136836E+03  0.84156901236E+03  0.50400001928E-02 0. -1.
</event>
<event>
 5   0  0.9145224E-04  0.1200459E+04  0.7818609E-02  0.9112455E-01
        2   -1    0    0  501    0  0.00000000000E+00  0.00000000000E+00  0.13027769978E+04  0.13027769978E+04  0.25500000920E-02 0. -1.
       -2   -1    0    0    0  501  0.00000000000E+00  0.00000000000E+00 -0.27654436881E+03  0.27654436882E+03  0.25500000920E-02 0.  1.
    10030    2    1    2    0    0  0.00000000000E+00  0.00000000000E+00  0.10262326290E+04  0.15793213666E+04  0.12004593164E+04 0.  0.
        5    1    3    3  502    0 -0.19674922547E+03  0.38140380347E+03 -0.38924533755E+02  0.43094817363E+03  0.46999998093E+01 0.  1.
       -5    1    3    3    0  502  0.19674922547E+03 -0.38140380347E+03  0.10651571627E+04  0.11483731930E+04  0.46999998093E+01 0. -1.
</event>
<event>
 5   0  0.9070772E-04  0.1200656E+04  0.7818609E-02  0.9112283E-01
        2   -1    0    0  501    0  0.00000000000E+00  0.00000000000E+00  0.76993881490E+03  0.76993881491E+03  0.25500000920E-02 0.  1.
       -2   -1    0    0    0  501  0.00000000000E+00  0.00000000000E+00 -0.46808061519E+03  0.46808061519E+03  0.25500000920E-02 0. -1.
    10030    2    1    2    0    0  0.00000000000E+00  0.00000000000E+00  0.30185819972E+03  0.12380194301E+04  0.12006555445E+04 0.  0.
        4    1    3    3  502    0  0.46804534872E+03 -0.31829488269E+03 -0.55330231392E+02  0.56871884813E+03  0.12699999809E+01 0. -1.
       -4    1    3    3    0  502 -0.46804534872E+03  0.31829488269E+03  0.35718843111E+03  0.66930058197E+03  0.12699999809E+01 0.  1.
</event>
<event>
 5   0  0.5001586E-04  0.1164399E+04  0.7818609E-02  0.9144601E-01
        1   -1    0    0  501    0  0.00000000000E+00  0.00000000000E+00  0.14702206201E+04  0.14702206201E+04  0.50400001928E-02 0.  1.
       -1   -1    0    0    0  501  0.00000000000E+00  0.00000000000E+00 -0.23054808511E+03  0.23054808516E+03  0.50400001928E-02 0. -1.
    10030    2    1    2    0    0  0.00000000000E+00  0.00000000000E+00  0.12396725350E+04  0.17007687053E+04  0.11643994997E+04 0.  0.
        1    1    3    3  502    0  0.14399329374E+03  0.52439786322E+03  0.31614475513E+03  0.62902678307E+03  0.50400001928E-02 0. -1.
       -1    1    3    3    0  502 -0.14399329374E+03 -0.52439786322E+03  0.92352777985E+03  0.10717419222E+04  0.50400001928E-02 0.  1.
</event>
<event>
 5   0  0.9050363E-04  0.1200059E+04  0.7818609E-02  0.9112805E-01
       -2   -1    0    0    0  501  0.00000000000E+00  0.00000000000E+00  0.59417942634E+03  0.59417942635E+03  0.25500000920E-02 0.  1.
        2   -1    0    0  501    0  0.00000000000E+00  0.00000000000E+00 -0.60593742589E+03  0.60593742590E+03  0.25500000920E-02 0. -1.
    10030    2    1    2    0    0  0.00000000000E+00  0.00000000000E+00 -0.11757999553E+02  0.12001168522E+04  0.12000592521E+04 0.  0.
        3    1    3    3  502    0  0.50819774430E+03 -0.23458621626E+02 -0.32404563003E+03  0.60317562516E+03  0.10100000352E+00 0. -1.
       -3    1    3    3    0  502 -0.50819774430E+03  0.23458621626E+02  0.31228763048E+03  0.59694122708E+03  0.10100000352E+00 0.  1.
</event>
<event>
 5   0  0.9298693E-04  0.1197442E+04  0.7818609E-02  0.9115099E-01
        2   -1    0    0  501    0  0.00000000000E+00  0.00000000000E+00  0.67711412345E+03  0.67711412345E+03  0.25500000920E-02 0.  1.
       -2   -1    0    0    0  501  0.00000000000E+00  0.00000000000E+00 -0.52940342634E+03  0.52940342635E+03  0.25500000920E-02 0. -1.
    10030    2    1    2    0    0  0.00000000000E+00  0.00000000000E+00  0.14771069711E+03  0.12065175498E+04  0.11974415008E+04 0.  0.
        1    1    3    3  502    0 -0.35660595241E+03 -0.46835490907E+03 -0.36254290997E+02  0.58977834801E+03  0.50400001928E-02 0. -1.
       -1    1    3    3    0  502  0.35660595241E+03  0.46835490907E+03  0.18396498811E+03  0.61673920179E+03  0.50400001928E-02 0.  1.
</event>
<event>
 5   0  0.5447074E-04  0.1202501E+04  0.7818609E-02  0.9110670E-01
        1   -1    0    0  501    0  0.00000000000E+00  0.00000000000E+00  0.60361945543E+03  0.60361945545E+03  0.50400001928E-02 0. -1.
       -1   -1    0    0    0  501  0.00000000000E+00  0.00000000000E+00 -0.59889110076E+03  0.59889110078E+03  0.50400001928E-02 0.  1.
    10030    2    1    2    0    0  0.00000000000E+00  0.00000000000E+00  0.47283546684E+01  0.12025105562E+04  0.12025012601E+04 0.  0.
        4    1    3    3  502    0  0.24989448516E+03 -0.44059859354E+03 -0.32156167096E+03  0.59998157928E+03  0.12699999809E+01 0.  1.
       -4    1    3    3    0  502 -0.24989448516E+03  0.44059859354E+03  0.32629002563E+03  0.60252897695E+03  0.12699999809E+01 0. -1.
</event>
<event>
 5   0  0.9050363E-04  0.1200862E+04  0.7818609E-02  0.9112102E-01
        2   -1    0    0  501    0  0.00000000000E+00  0.00000000000E+00  0.17850299122E+04  0.17850299122E+04  0.25500000920E-02 0.  1.
       -2   -1    0    0    0  501  0.00000000000E+00  0.00000000000E+00 -0.20196710348E+03  0.20196710350E+03  0.25500000920E-02 0. -1.
    10030    2    1    2    0    0  0.00000000000E+00  0.00000000000E+00  0.15830628087E+04  0.19869970157E+04  0.12008618922E+04 0.  0.
        3    1    3    3  502    0  0.29025664871E+03 -0.50992029232E+03  0.10024557031E+04  0.11615442624E+04  0.10100000352E+00 0.  1.
       -3    1    3    3    0  502 -0.29025664871E+03  0.50992029232E+03  0.58060710562E+03  0.82545275330E+03  0.10100000352E+00 0. -1.
</event>
<event>
 5   0  0.9298693E-04  0.1201919E+04  0.7818609E-02  0.9111179E-01
        2   -1    0    0  501    0  0.00000000000E+00  0.00000000000E+00  0.23918868188E+03  0.23918868189E+03  0.25500000920E-02 0.  1.
       -2   -1    0    0    0  501  0.00000000000E+00  0.00000000000E+00 -0.15099045109E+04  0.15099045109E+04  0.25500000920E-02 0. -1.
    10030    2    1    2    0    0  0.00000000000E+00  0.00000000000E+00 -0.12707158290E+04  0.17490931928E+04  0.12019185825E+04 0.  0.
        1    1    3    3  502    0  0.26530291546E+03  0.33424732569E+03 -0.12511288556E+04  0.13219040529E+04  0.50400001928E-02 0. -1.
       -1    1    3    3    0  502 -0.26530291546E+03 -0.33424732569E+03 -0.19586973393E+02  0.42718913989E+03  0.50400001928E-02 0.  1.
</event>
<event>
 5   0  0.5052959E-04  0.1203536E+04  0.7818609E-02  0.9109767E-01
       -1   -1    0    0    0  501  0.00000000000E+00  0.00000000000E+00  0.25336363830E+03  0.25336363835E+03  0.50400001928E-02 0.  1.
        1   -1    0    0  501    0  0.00000000000E+00  0.00000000000E+00 -0.14292678904E+04  0.14292678904E+04  0.50400001928E-02 0. -1.
    10030    2    1    2    0    0  0.00000000000E+00  0.00000000000E+00 -0.11759042521E+04  0.16826315288E+04  0.12035356461E+04 0.  0.
        2    1    3    3  502    0 -0.49920235221E+03  0.32766428580E+02 -0.10555192359E+04  0.11680742633E+04  0.25500000920E-02 0. -1.
       -2    1    3    3    0  502  0.49920235221E+03 -0.32766428580E+02 -0.12038501621E+03  0.51455726545E+03  0.25500000920E-02 0.  1.
</event>
<event>
 5   0  0.9145224E-04  0.1193289E+04  0.7818609E-02  0.9118751E-01
       -2   -1    0    0    0  501  0.00000000000E+00  0.00000000000E+00  0.69749931000E+03  0.69749931000E+03  0.25500000920E-02 0. -1.
        2   -1    0    0  501    0  0.00000000000E+00  0.00000000000E+00 -0.51037258581E+03  0.51037258582E+03  0.25500000920E-02 0.  1.
    10030    2    1    2    0    0  0.00000000000E+00  0.00000000000E+00  0.18712672418E+03  0.12078718958E+04  0.11932887772E+04 0.  0.
        5    1    3    3  502    0  0.19805955504E+03  0.13335931981E+03 -0.45988193521E+03  0.51819473160E+03  0.46999998093E+01 0.  1.
       -5    1    3    3    0  502 -0.19805955504E+03 -0.13335931981E+03  0.64700865940E+03  0.68967716422E+03  0.46999998093E+01 0. -1.
</event>
<event>
 5   0  0.5001586E-04  0.1199504E+04  0.7818609E-02  0.9113291E-01
        1   -1    0    0  501    0  0.00000000000E+00  0.00000000000E+00  0.12896715348E+04  0.12896715348E+04  0.50400001928E-02 0. -1.
       -1   -1    0    0    0  501  0.00000000000E+00  0.00000000000E+00 -0.27891008002E+03  0.27891008006E+03  0.50400001928E-02 0.  1.
    10030    2    1    2    0    0  0.00000000000E+00  0.00000000000E+00  0.10107614548E+04  0.15685816149E+04  0.11995038825E+04 0.  0.
        1    1    3    3  502    0 -0.21637712321E+03  0.10625330267E+03 -0.21277147956E+03  0.32152842225E+03  0.50400001928E-02 0.  1.
       -1    1    3    3    0  502  0.21637712321E+03 -0.10625330267E+03  0.12235329344E+04  0.12470531926E+04  0.50400001928E-02 0. -1.
</event>
<event>
 5   0  0.9298693E-04  0.1197989E+04  0.7818609E-02  0.9114618E-01
        2   -1    0    0  501    0  0.00000000000E+00  0.00000000000E+00  0.57295260123E+03  0.57295260124E+03  0.25500000920E-02 0.  1.
       -2   -1    0    0    0  501  0.00000000000E+00  0.00000000000E+00 -0.62622028297E+03  0.62622028298E+03  0.25500000920E-02 0. -1.
    10030    2    1    2    0    0  0.00000000000E+00  0.00000000000E+00 -0.53267681741E+02  0.11991728842E+04  0.11979892154E+04 0.  0.
        1    1    3    3  502    0  0.74986084655E+02  0.49050158304E+03  0.30922684788E+03  0.58466739206E+03  0.50400001928E-02 0.  1.
       -1    1    3    3    0  502 -0.74986084655E+02 -0.49050158304E+03 -0.36249452962E+03  0.61450549215E+03  0.50400001928E-02 0. -1.
</event>
<event>
 5   0  0.9410666E-04  0.1198478E+04  0.7818609E-02  0.9114190E-01
        2   -1    0    0  501    0  0.00000000000E+00  0.00000000000E+00  0.12204892472E+04  0.12204892472E+04  0.25500000920E-02 0.  1.
       -2   -1    0    0    0  501  0.00000000000E+00  0.00000000000E+00 -0.29421580331E+03  0.29421580332E+03  0.25500000920E-02 0. -1.
    10030    2    1    2    0    0  0.00000000000E+00  0.00000000000E+00  0.92627344391E+03  0.15147050505E+04  0.11984777416E+04 0.  0.
        2    1    3    3  502    0 -0.14261944200E+03  0.26834514911E+03 -0.18960351276E+03  0.35818838108E+03  0.25500000920E-02 0. -1.
       -2    1    3    3    0  502  0.14261944200E+03 -0.26834514911E+03  0.11158769567E+04  0.11565166695E+04  0.25500000920E-02 0.  1.
</event>
<event>
 5   0  0.5157631E-04  0.1217419E+04  0.7818609E-02  0.9097745E-01
        1   -1    0    0  501    0  0.00000000000E+00  0.00000000000E+00  0.81871557791E+03  0.81871557792E+03  0.50400001928E-02 0. -1.
       -1   -1    0    0    0  501  0.00000000000E+00  0.00000000000E+00 -0.45257171375E+03  0.45257171377E+03  0.50400001928E-02 0.  1.
    10030    2    1    2    0    0  0.00000000000E+00  0.00000000000E+00  0.36614386416E+03  0.12712872917E+04  0.12174194219E+04 0.  0.
        5    1    3    3  502    0 -0.47010866211E+03 -0.38400944173E+03  0.13590687805E+03  0.62205962338E+03  0.46999998093E+01 0.  1.
       -5    1    3    3    0  502  0.47010866211E+03  0.38400944173E+03  0.23023698611E+03  0.64922766832E+03  0.46999998093E+01 0. -1.
</event>
<event>
 5   0  0.5003507E-04  0.1202265E+04  0.7818609E-02  0.9110877E-01
        1   -1    0    0  501    0  0.00000000000E+00  0.00000000000E+00  0.21975461309E+04  0.21975461309E+04  0.50400001928E-02 0.  1.
       -1   -1    0    0    0  501  0.00000000000E+00  0.00000000000E+00 -0.16443800850E+03  0.16443800857E+03  0.50400001928E-02 0. -1.
    10030    2    1    2    0    0  0.00000000000E+00  0.00000000000E+00  0.20331081224E+04  0.23619841395E+04  0.12022647120E+04 0.  0.
        3    1    3    3  502    0  0.21226273456E+03  0.90320309349E+02  0.21071296164E+04  0.21197189572E+04  0.10100000352E+00 0.  1.
       -3    1    3    3    0  502 -0.21226273456E+03 -0.90320309349E+02 -0.74021494047E+02  0.24226518228E+03  0.10100000352E+00 0. -1.
</event>
<event>
 5   0  0.9050363E-04  0.1211417E+04  0.7818609E-02  0.9102922E-01
        2   -1    0    0  501    0  0.00000000000E+00  0.00000000000E+00  0.10311841916E+04  0.10311841916E+04  0.25500000920E-02 0. -1.
       -2   -1    0    0    0  501  0.00000000000E+00  0.00000000000E+00 -0.35578754034E+03  0.35578754035E+03  0.25500000920E-02 0.  1.
    10030    2    1    2    0    0  0.00000000000E+00  0.00000000000E+00  0.67539665126E+03  0.13869717320E+04  0.12114165051E+04 0.  0.
        3    1    3    3  502    0  0.15881263499E+03 -0.27936154256E+03 -0.25014525411E+03  0.40723087168E+03  0.10100000352E+00 0.  1.
       -3    1    3    3    0  502 -0.15881263499E+03  0.27936154256E+03  0.92554190537E+03  0.97974086027E+03  0.10100000352E+00 0. -1.
</event>
<event>
 5   0  0.9145224E-04  0.1201335E+04  0.7818609E-02  0.9111689E-01
       -2   -1    0    0    0  501  0.00000000000E+00  0.00000000000E+00  0.58239640834E+03  0.58239640835E+03  0.25500000920E-02 0.  1.
        2   -1    0    0  501    0  0.00000000000E+00  0.00000000000E+00 -0.61951136915E+03  0.61951136915E+03  0.25500000920E-02 0. -1.
    10030    2    1    2    0    0  0.00000000000E+00  0.00000000000E+00 -0.37114960806E+02  0.12019077775E+04  0.12013345851E+04 0.  0.
        5    1    3    3  502    0 -0.10535429131E+03  0.16768157726E+03  0.54877786619E+03  0.58343455029E+03  0.46999998093E+01 0.  1.
       -5    1    3    3    0  502  0.10535429131E+03 -0.16768157726E+03 -0.58589282700E+03  0.61847322721E+03  0.46999998093E+01 0. -1.
</event>
<event>
 5   0  0.5157631E-04  0.1196827E+04  0.7818609E-02  0.9115639E-01
        1   -1    0    0  501    0  0.00000000000E+00  0.00000000000E+00  0.29073228732E+04  0.29073228732E+04  0.50400001928E-02 0.  1.
       -1   -1    0    0    0  501  0.00000000000E+00  0.00000000000E+00 -0.12317119025E+03  0.12317119035E+03  0.50400001928E-02 0. -1.
    10030    2    1    2    0    0  0.00000000000E+00  0.00000000000E+00  0.27841516830E+04  0.30304940636E+04  0.11968265019E+04 0.  0.
        5    1    3    3  502    0  0.40704020786E+03  0.31720321753E+03  0.21591696881E+04  0.22199854604E+04  0.46999998093E+01 0.  1.
       -5    1    3    3    0  502 -0.40704020786E+03 -0.31720321753E+03  0.62498199482E+03  0.81050860321E+03  0.46999998093E+01 0. -1.
</event>
<event>
 5   0  0.9298693E-04  0.1200811E+04  0.7818609E-02  0.9112147E-01
        2   -1    0    0  501    0  0.00000000000E+00  0.00000000000E+00  0.13384591704E+04  0.13384591704E+04  0.25500000920E-02 0.  1.
       -2   -1    0    0    0  501  0.00000000000E+00  0.00000000000E+00 -0.26932973087E+03  0.26932973089E+03  0.25500000920E-02 0. -1.
    10030    2    1    2    0    0  0.00000000000E+00  0.00000000000E+00  0.10691294395E+04  0.16077889013E+04  0.12008111394E+04 0.  0.
        1    1    3    3  502    0 -0.43982749893E+03  0.97161654525E+02  0.10660974217E+04  0.11573471080E+04  0.50400001928E-02 0.  1.
       -1    1    3    3    0  502  0.43982749893E+03 -0.97161654525E+02  0.30320178043E+01  0.45044179322E+03  0.50400001928E-02 0. -1.
</event>
<event>
 5   0  0.5001586E-04  0.1199809E+04  0.7818609E-02  0.9113024E-01
       -1   -1    0    0    0  501  0.00000000000E+00  0.00000000000E+00  0.43339743790E+03  0.43339743793E+03  0.50400001928E-02 0. -1.
        1   -1    0    0  501    0  0.00000000000E+00  0.00000000000E+00 -0.83038187845E+03  0.83038187847E+03  0.50400001928E-02 0.  1.
    10030    2    1    2    0    0  0.00000000000E+00  0.00000000000E+00 -0.39698444056E+03  0.12637793164E+04  0.11998089492E+04 0.  0.
        1    1    3    3  502    0 -0.46376181867E+03  0.13653005432E+03 -0.57263470229E+03  0.74941709514E+03  0.50400001928E-02 0.  1.
       -1    1    3    3    0  502  0.46376181867E+03 -0.13653005432E+03  0.17565026174E+03  0.51436222126E+03  0.50400001928E-02 0. -1.
</event>
<event>
 5   0  0.9050363E-04  0.1206271E+04  0.7818609E-02  0.9107385E-01
        2   -1    0    0  501    0  0.00000000000E+00  0.00000000000E+00  0.30328654137E+03  0.30328654138E+03  0.25500000920E-02 0.  1.
       -2   -1    0    0    0  501  0.00000000000E+00  0.00000000000E+00 -0.11994354354E+04  0.11994354354E+04  0.25500000920E-02 0. -1.
    10030    2    1    2    0    0  0.00000000000E+00  0.00000000000E+00 -0.89614889404E+03  0.15027219768E+04  0.12062713207E+04 0.  0.
        3    1    3    3  502    0 -0.11922820659E+03 -0.41476183095E+03 -0.97296572526E+03  0.10643801268E+04  0.10100000352E+00 0. -1.
       -3    1    3    3    0  502  0.11922820659E+03  0.41476183095E+03  0.76816831216E+02  0.43834184996E+03  0.10100000352E+00 0.  1.
</event>
<event>
 5   0  0.9070772E-04  0.1194974E+04  0.7818609E-02  0.9117267E-01
       -2   -1    0    0    0  501  0.00000000000E+00  0.00000000000E+00  0.24492374398E+03  0.24492374399E+03  0.25500000920E-02 0.  1.
        2   -1    0    0  501    0  0.00000000000E+00  0.00000000000E+00 -0.14575587359E+04  0.14575587359E+04  0.25500000920E-02 0. -1.
    10030    2    1    2    0    0  0.00000000000E+00  0.00000000000E+00 -0.12126349920E+04  0.17024824799E+04  0.11949740461E+04 0.  0.
        4    1    3    3  502    0 -0.34259893113E+03 -0.44266540933E+03 -0.90401703852E+03  0.10632850564E+04  0.12699999809E+01 0. -1.
       -4    1    3    3    0  502  0.34259893113E+03  0.44266540933E+03 -0.30861795343E+03  0.63919742357E+03  0.12699999809E+01 0.  1.
</event>
<event>
 5   0  0.9410666E-04  0.1187415E+04  0.7818609E-02  0.9123944E-01
       -2   -1    0    0    0  501  0.00000000000E+00  0.00000000000E+00  0.37690205644E+03  0.37690205645E+03  0.25500000920E-02 0. -1.
        2   -1    0    0  501    0  0.00000000000E+00  0.00000000000E+00 -0.93522649327E+03  0.93522649328E+03  0.25500000920E-02 0.  1.
    10030    2    1    2    0    0  0.00000000000E+00  0.00000000000E+00 -0.55832443683E+03  0.13121285497E+04  0.11874153251E+04 0.  0.
        2    1    3    3  502    0  0.13264058719E+03  0.38027147971E+03  0.20287483510E+03  0.45095246132E+03  0.25500000920E-02 0. -1.
       -2    1    3    3    0  502 -0.13264058719E+03 -0.38027147971E+03 -0.76119927193E+03  0.86117608841E+03  0.25500000920E-02 0.  1.
</event>
<event>
 5   0  0.9070772E-04  0.1194366E+04  0.7818609E-02  0.9117802E-01
       -2   -1    0    0    0  501  0.00000000000E+00  0.00000000000E+00  0.56897185557E+03  0.56897185557E+03  0.25500000920E-02 0. -1.
        2   -1    0    0  501    0  0.00000000000E+00  0.00000000000E+00 -0.62679331611E+03  0.62679331611E+03  0.25500000920E-02 0.  1.
    10030    2    1    2    0    0  0.00000000000E+00  0.00000000000E+00 -0.57821460540E+02  0.11957651717E+04  0.11943663695E+04 0.  0.
        4    1    3    3  502    0  0.70519527736E+02  0.43000737262E+03  0.37991393174E+03  0.57811378874E+03  0.12699999809E+01 0. -1.
       -4    1    3    3    0  502 -0.70519527736E+02 -0.43000737262E+03 -0.43773539228E+03  0.61765138295E+03  0.12699999809E+01 0.  1.
</event>
<event>
 5   0  0.9298693E-04  0.1195901E+04  0.7818609E-02  0.9116452E-01
        2   -1    0    0  501    0  0.00000000000E+00  0.00000000000E+00  0.70327313263E+03  0.70327313263E+03  0.25500000920E-02 0.  1.
       -2   -1    0    0    0  501  0.00000000000E+00  0.00000000000E+00 -0.50840080907E+03  0.50840080908E+03  0.25500000920E-02 0. -1.
    10030    2    1    2    0    0  0.00000000000E+00  0.00000000000E+00  0.19487232356E+03  0.12116739417E+04  0.11959007143E+04 0.  0.
        1    1    3    3  502    0  0.34916337210E+03  0.15555804134E+03  0.56331742762E+03  0.68076419480E+03  0.50400001928E-02 0.  1.
       -1    1    3    3    0  502 -0.34916337210E+03 -0.15555804134E+03 -0.36844510406E+03  0.53090974692E+03  0.50400001928E-02 0. -1.
</event>
<event>
 5   0  0.5157631E-04  0.1201079E+04  0.7818609E-02  0.9111913E-01
        1   -1    0    0  501    0  0.00000000000E+00  0.00000000000E+00  0.50415795684E+03  0.50415795686E+03  0.50400001928E-02 0. -1.
       -1   -1    0    0    0  501  0.00000000000E+00  0.00000000000E+00 -0.71534674475E+03  0.71534674477E+03  0.50400001928E-02 0.  1.
    10030    2    1    2    0    0  0.00000000000E+00  0.00000000000E+00 -0.21118878792E+03  0.12195047016E+04  0.12010791036E+04 0.  0.
        5    1    3    3  502    0 -0.58149286150E+03  0.86988795875E+02 -0.22963507996E+03  0.63123320455E+03  0.46999998093E+01 0.  1.
       -5    1    3    3    0  502  0.58149286150E+03 -0.86988795875E+02  0.18446292044E+02  0.58827149708E+03  0.46999998093E+01 0. -1.
</event>
<event>
 5   0  0.5001586E-04  0.1197421E+04  0.7818609E-02  0.9115117E-01
       -1   -1    0    0    0  501  0.00000000000E+00  0.00000000000E+00  0.36412303269E+03  0.36412303272E+03  0.50400001928E-02 0.  1.
        1   -1    0    0  501    0  0.00000000000E+00  0.00000000000E+00 -0.98443100586E+03  0.98443100587E+03  0.50400001928E-02 0. -1.
    10030    2    1    2    0    0  0.00000000000E+00  0.00000000000E+00 -0.62030797317E+03  0.13485540386E+04  0.11974205666E+04 0.  0.
        1    1    3    3  502    0  0.13531523354E+03 -0.26348163687E+03 -0.89613397973E+03  0.94381613413E+03  0.50400001928E-02 0. -1.
       -1    1    3    3    0  502 -0.13531523354E+03  0.26348163687E+03  0.27582600656E+03  0.40473790447E+03  0.50400001928E-02 0.  1.
</event>
<event>
 5   0  0.9298693E-04  0.1194299E+04  0.7818609E-02  0.9117861E-01
        2   -1    0    0  501    0  0.00000000000E+00  0.00000000000E+00  0.14068222566E+04  0.14068222566E+04  0.25500000920E-02 0.  1.
       -2   -1    0    0    0  501  0.00000000000E+00  0.00000000000E+00 -0.25347040928E+03  0.25347040929E+03  0.25500000920E-02 0. -1.
    10030    2    1    2    0    0  0.00000000000E+00  0.00000000000E+00  0.11533518474E+04  0.16602926659E+04  0.11942994820E+04 0.  0.
        1    1    3    3  502    0  0.69673967296E+02  0.58846331369E+03  0.67925094760E+03  0.90140189878E+03  0.50400001928E-02 0.  1.
       -1    1    3    3    0  502 -0.69673967296E+02 -0.58846331369E+03  0.47410089976E+03  0.75889076715E+03  0.50400001928E-02 0. -1.
</event>
<event>
 5   0  0.5052959E-04  0.1200269E+04  0.7818609E-02  0.9112621E-01
       -1   -1    0    0    0  501  0.00000000000E+00  0.00000000000E+00  0.30455227485E+03  0.30455227489E+03  0.50400001928E-02 0.  1.
        1   -1    0    0  501    0  0.00000000000E+00  0.00000000000E+00 -0.11825927636E+04  0.11825927636E+04  0.50400001928E-02 0. -1.
    10030    2    1    2    0    0  0.00000000000E+00  0.00000000000E+00 -0.87804048874E+03  0.14871450385E+04  0.12002688306E+04 0.  0.
        2    1    3    3  502    0  0.35581343344E+02  0.39629935081E+03  0.11762779788E+03  0.41491626418E+03  0.25500000920E-02 0.  1.
       -2    1    3    3    0  502 -0.35581343344E+02 -0.39629935081E+03 -0.99566828663E+03  0.10722287743E+04  0.25500000920E-02 0. -1.
</event>
<event>
 5   0  0.5003507E-04  0.1204046E+04  0.7818609E-02  0.9109322E-01
       -1   -1    0    0    0  501  0.00000000000E+00  0.00000000000E+00  0.56070409318E+03  0.56070409320E+03  0.50400001928E-02 0.  1.
        1   -1    0    0  501    0  0.00000000000E+00  0.00000000000E+00 -0.64638707887E+03  0.64638707889E+03  0.50400001928E-02 0. -1.
    10030    2    1    2    0    0  0.00000000000E+00  0.00000000000E+00 -0.85682985691E+02  0.12070911721E+04  0.12040463129E+04 0.  0.
        3    1    3    3  502    0 -0.43461868181E+03 -0.15422812363E+03 -0.43079834463E+03  0.63108393787E+03  0.10100000352E+00 0. -1.
       -3    1    3    3    0  502  0.43461868181E+03  0.15422812363E+03  0.34511535894E+03  0.57600723422E+03  0.10100000352E+00 0.  1.
</event>
<event>
 5   0  0.5447074E-04  0.1200561E+04  0.7818609E-02  0.9112366E-01
        1   -1    0    0  501    0  0.00000000000E+00  0.00000000000E+00  0.14734866705E+04  0.14734866705E+04  0.50400001928E-02 0. -1.
       -1   -1    0    0    0  501  0.00000000000E+00  0.00000000000E+00 -0.24454686052E+03  0.24454686058E+03  0.50400001928E-02 0.  1.
    10030    2    1    2    0    0  0.00000000000E+00  0.00000000000E+00  0.12289398099E+04  0.17180335310E+04  0.12005607679E+04 0.  0.
        4    1    3    3  502    0 -0.44806254036E+02  0.53914647470E+03  0.24226999080E+03  0.59277557552E+03  0.12699999809E+01 0.  1.
       -4    1    3    3    0  502  0.44806254036E+02 -0.53914647470E+03  0.98666981914E+03  0.11252579555E+04  0.12699999809E+01 0. -1.
</event>
<event>
 5   0  0.9298693E-04  0.1133153E+04  0.7818609E-02  0.9173468E-01
       -2   -1    0    0    0  501  0.00000000000E+00  0.00000000000E+00  0.38672892568E+03  0.38672892569E+03  0.25500000920E-02 0. -1.
        2   -1    0    0  501    0  0.00000000000E+00  0.00000000000E+00 -0.83006167691E+03  0.83006167691E+03  0.25500000920E-02 0.  1.
    10030    2    1    2    0    0  0.00000000000E+00  0.00000000000E+00 -0.44333275123E+03  0.12167906026E+04  0.11331528768E+04 0.  0.
        1    1    3    3  502    0 -0.37111186039E+03 -0.21912527526E+03  0.17326934769E+03  0.46450206249E+03  0.50400001928E-02 0. -1.
       -1    1    3    3    0  502  0.37111186039E+03  0.21912527526E+03 -0.61660209891E+03  0.75228854012E+03  0.50400001928E-02 0.  1.
</event>
<event>
 5   0  0.5052959E-04  0.1244374E+04  0.7818609E-02  0.9074878E-01
       -1   -1    0    0    0  501  0.00000000000E+00  0.00000000000E+00  0.22471509459E+03  0.22471509464E+03  0.50400001928E-02 0. -1.
        1   -1    0    0  501    0  0.00000000000E+00  0.00000000000E+00 -0.17227008443E+04  0.17227008443E+04  0.50400001928E-02 0.  1.
    10030    2    1    2    0    0  0.00000000000E+00  0.00000000000E+00 -0.14979857497E+04  0.19474159390E+04  0.12443743540E+04 0.  0.
        2    1    3    3  502    0 -0.14118320725E+03  0.40811730981E+03 -0.48022612133E+02  0.43450961768E+03  0.25500000920E-02 0. -1.
       -2    1    3    3    0  502  0.14118320725E+03 -0.40811730981E+03 -0.14499631376E+04  0.15129063213E+04  0.25500000920E-02 0.  1.
</event>
<event>
 5   0  0.5157631E-04  0.1201433E+04  0.7818609E-02  0.9111604E-01
       -1   -1    0    0    0  501  0.00000000000E+00  0.00000000000E+00  0.62354752015E+03  0.62354752017E+03  0.50400001928E-02 0.  1.
        1   -1    0    0  501    0  0.00000000000E+00  0.00000000000E+00 -0.57872095192E+03  0.57872095194E+03  0.50400001928E-02 0. -1.
    10030    2    1    2    0    0  0.00000000000E+00  0.00000000000E+00  0.44826568232E+02  0.12022684721E+04  0.12014325024E+04 0.  0.
        5    1    3    3  502    0 -0.36359048689E+03 -0.32302856659E+03  0.37520990495E+03  0.61428825462E+03  0.46999998093E+01 0.  1.
       -5    1    3    3    0  502  0.36359048689E+03  0.32302856659E+03 -0.33038333672E+03  0.58798021750E+03  0.46999998093E+01 0. -1.
</event>
<event>
 5   0  0.5157631E-04  0.1198406E+04  0.7818609E-02  0.9114253E-01
        1   -1    0    0  501    0  0.00000000000E+00  0.00000000000E+00  0.87528241415E+03  0.87528241417E+03  0.50400001928E-02 0. -1.
       -1   -1    0    0    0  501  0.00000000000E+00  0.00000000000E+00 -0.41020358155E+03  0.41020358158E+03  0.50400001928E-02 0.  1.
    10030    2    1    2    0    0  0.00000000000E+00  0.00000000000E+00  0.46507883260E+03  0.12854859957E+04  0.11984055761E+04 0.  0.
        5    1    3    3  502    0 -0.14644569992E+03  0.46543719869E+03 -0.14050046629E+03  0.50778007048E+03  0.46999998093E+01 0.  1.
       -5    1    3    3    0  502  0.14644569992E+03 -0.46543719869E+03  0.60557929889E+03  0.77770592527E+03  0.46999998093E+01 0. -1.
</event>
<event>
 5   0  0.9298693E-04  0.1192541E+04  0.7818609E-02  0.9119411E-01
       -2   -1    0    0    0  501  0.00000000000E+00  0.00000000000E+00  0.35183423288E+03  0.35183423288E+03  0.25500000920E-02 0.  1.
        2   -1    0    0  501    0  0.00000000000E+00  0.00000000000E+00 -0.10105284775E+04  0.10105284775E+04  0.25500000920E-02 0. -1.
    10030    2    1    2    0    0  0.00000000000E+00  0.00000000000E+00 -0.65869424458E+03  0.13623627103E+04  0.11925410042E+04 0.  0.
        1    1    3    3  502    0 -0.45462014231E+03 -0.38464168533E+03 -0.36380552947E+03  0.69784178951E+03  0.50400001928E-02 0.  1.
       -1    1    3    3    0  502  0.45462014231E+03  0.38464168533E+03 -0.29488871510E+03  0.66452092083E+03  0.50400001928E-02 0. -1.
</event>
<event>
 5   0  0.3453625E-04  0.1202120E+04  0.7818609E-02  0.9111003E-01
        3   -1    0    0  501    0  0.00000000000E+00  0.00000000000E+00  0.23147964826E+03  0.23147967029E+03  0.10100000352E+00 0. -1.
       -3   -1    0    0    0  501  0.00000000000E+00  0.00000000000E+00 -0.15607124941E+04  0.15607124973E+04  0.10100000352E+00 0.  1.
    10030    2    1    2    0    0  0.00000000000E+00  0.00000000000E+00 -0.13292328458E+04  0.17921921676E+04  0.12021201302E+04 0.  0.
        5    1    3    3  502    0  0.50841969246E+03 -0.28955160260E+03 -0.45954656315E+03  0.74399989782E+03  0.46999998093E+01 0. -1.
       -5    1    3    3    0  502 -0.50841969246E+03  0.28955160260E+03 -0.86968628264E+03  0.10481922698E+04  0.46999998093E+01 0.  1.
</event>
<event>
 5   0  0.5157631E-04  0.1195598E+04  0.7818609E-02  0.9116718E-01
        1   -1    0    0  501    0  0.00000000000E+00  0.00000000000E+00  0.12183905115E+04  0.12183905115E+04  0.50400001928E-02 0.  1.
       -1   -1    0    0    0  501  0.00000000000E+00  0.00000000000E+00 -0.29330813380E+03  0.29330813384E+03  0.50400001928E-02 0. -1.
    10030    2    1    2    0    0  0.00000000000E+00  0.00000000000E+00  0.92508237771E+03  0.15116986454E+04  0.11955983393E+04 0.  0.
        5    1    3    3  502    0  0.28414028382E+03  0.22841916809E+03 -0.13645090685E+03  0.38929674699E+03  0.46999998093E+01 0. -1.
       -5    1    3    3    0  502 -0.28414028382E+03 -0.22841916809E+03  0.10615332846E+04  0.11224018984E+04  0.46999998093E+01 0.  1.
</event>
<event>
 5   0  0.9410666E-04  0.1215312E+04  0.7818609E-02  0.9099559E-01
        2   -1    0    0  501    0  0.00000000000E+00  0.00000000000E+00  0.21640857141E+04  0.21640857141E+04  0.25500000920E-02 0. -1.
       -2   -1    0    0    0  501  0.00000000000E+00  0.00000000000E+00 -0.17062427948E+03  0.17062427950E+03  0.25500000920E-02 0.  1.
    10030    2    1    2    0    0  0.00000000000E+00  0.00000000000E+00  0.19934614346E+04  0.23347099936E+04  0.12153115909E+04 0.  0.
        2    1    3    3  502    0  0.13143842979E+03 -0.37879398277E+03  0.11956365162E+03  0.41839742948E+03  0.25500000920E-02 0.  1.
       -2    1    3    3    0  502 -0.13143842979E+03  0.37879398277E+03  0.18738977830E+04  0.19163125641E+04  0.25500000920E-02 0. -1.
</event>
<event>
 5   0  0.5052959E-04  0.1196299E+04  0.7818609E-02  0.9116102E-01
        1   -1    0    0  501    0  0.00000000000E+00  0.00000000000E+00  0.18167450040E+04  0.18167450040E+04  0.50400001928E-02 0.  1.
       -1   -1    0    0    0  501  0.00000000000E+00  0.00000000000E+00 -0.19693633508E+03  0.19693633514E+03  0.50400001928E-02 0. -1.
    10030    2    1    2    0    0  0.00000000000E+00  0.00000000000E+00  0.16198086689E+04  0.20136813392E+04  0.11962994657E+04 0.  0.
        2    1    3    3  502    0  0.33976488750E+03  0.49168095859E+03  0.76892263564E+03  0.97387492185E+03  0.25500000920E-02 0. -1.
       -2    1    3    3    0  502 -0.33976488750E+03 -0.49168095859E+03  0.85088603331E+03  0.10398064173E+04  0.25500000920E-02 0.  1.
</event>
<event>
 5   0  0.9145224E-04  0.1200653E+04  0.7818609E-02  0.9112285E-01
       -2   -1    0    0    0  501  0.00000000000E+00  0.00000000000E+00  0.37734787635E+03  0.37734787636E+03  0.25500000920E-02 0.  1.
        2   -1    0    0  501    0  0.00000000000E+00  0.00000000000E+00 -0.95506575299E+03  0.95506575299E+03  0.25500000920E-02 0. -1.
    10030    2    1    2    0    0  0.00000000000E+00  0.00000000000E+00 -0.57771787664E+03  0.13324136294E+04  0.12006532117E+04 0.  0.
        5    1    3    3  502    0  0.44437000895E+03  0.17143891750E+03  0.11663538596E+03  0.49038954979E+03  0.46999998093E+01 0.  1.
       -5    1    3    3    0  502 -0.44437000895E+03 -0.17143891750E+03 -0.69435326260E+03  0.84202407956E+03  0.46999998093E+01 0. -1.
</event>
<event>
 5   0  0.9070772E-04  0.1202623E+04  0.7818609E-02  0.9110564E-01
       -2   -1    0    0    0  501  0.00000000000E+00  0.00000000000E+00  0.41791309148E+03  0.41791309149E+03  0.25500000920E-02 0.  1.
        2   -1    0    0  501    0  0.00000000000E+00  0.00000000000E+00 -0.86519330250E+03  0.86519330250E+03  0.25500000920E-02 0. -1.
    10030    2    1    2    0    0  0.00000000000E+00  0.00000000000E+00 -0.44728021101E+03  0.12831063940E+04  0.12026231459E+04 0.  0.
        4    1    3    3  502    0 -0.31588749509E+02 -0.38678491119E+03  0.26641751335E+03  0.47072318929E+03  0.12699999809E+01 0.  1.
       -4    1    3    3    0  502  0.31588749509E+02  0.38678491119E+03 -0.71369772436E+03  0.81238320470E+03  0.12699999809E+01 0. -1.
</event>
<event>
 5   0  0.9070772E-04  0.1209192E+04  0.7818609E-02  0.9104849E-01
        2   -1    0    0  501    0  0.00000000000E+00  0.00000000000E+00  0.97591011051E+03  0.97591011051E+03  0.25500000920E-02 0.  1.
       -2   -1    0    0    0  501  0.00000000000E+00  0.00000000000E+00 -0.37455946185E+03  0.37455946186E+03  0.25500000920E-02 0. -1.
    10030    2    1    2    0    0  0.00000000000E+00  0.00000000000E+00  0.60135064866E+03  0.13504695724E+04  0.12091920705E+04 0.  0.
        4    1    3    3  502    0 -0.16404636993E+03 -0.56842237168E+03  0.16154267391E+03  0.61328040284E+03  0.12699999809E+01 0.  1.
       -4    1    3    3    0  502  0.16404636993E+03  0.56842237168E+03  0.43980797475E+03  0.73718916953E+03  0.12699999809E+01 0. -1.
</event>
<event>
 5   0  0.5157631E-04  0.1199678E+04  0.7818609E-02  0.9113138E-01
        1   -1    0    0  501    0  0.00000000000E+00  0.00000000000E+00  0.36892386211E+03  0.36892386215E+03  0.50400001928E-02 0.  1.
       -1   -1    0    0    0  501  0.00000000000E+00  0.00000000000E+00 -0.97528742588E+03  0.97528742589E+03  0.50400001928E-02 0. -1.
    10030    2    1    2    0    0  0.00000000000E+00  0.00000000000E+00 -0.60636356376E+03  0.13442112880E+04  0.11996779632E+04 0.  0.
        5    1    3    3  502    0 -0.24873189042E+03 -0.41476626194E+03 -0.70073178473E+03  0.85143744896E+03  0.46999998093E+01 0. -1.
       -5    1    3    3    0  502  0.24873189042E+03  0.41476626194E+03  0.94368220968E+02  0.49277383908E+03  0.46999998093E+01 0.  1.
</event>
<event>
 5   0  0.3453625E-04  0.1203569E+04  0.7818609E-02  0.9109738E-01
       -3   -1    0    0    0  501  0.00000000000E+00  0.00000000000E+00  0.71128849378E+03  0.71128850095E+03  0.10100000352E+00 0.  1.
        3   -1    0    0  501    0  0.00000000000E+00  0.00000000000E+00 -0.50913868518E+03  0.50913869520E+03  0.10100000352E+00 0. -1.
    10030    2    1    2    0    0  0.00000000000E+00  0.00000000000E+00  0.20214980860E+03  0.12204271961E+04  0.12035688580E+04 0.  0.
        2    1    3    3  502    0  0.18403734142E+03 -0.19671948107E+03  0.64673521834E+03  0.70059598909E+03  0.25500000920E-02 0.  1.
       -2    1    3    3    0  502 -0.18403734142E+03  0.19671948107E+03 -0.44458540975E+03  0.51983120706E+03  0.25500000920E-02 0. -1.
</event>
<event>
 5   0  0.5157631E-04  0.1199250E+04  0.7818609E-02  0.9113514E-01
       -1   -1    0    0    0  501  0.00000000000E+00  0.00000000000E+00  0.38161350723E+03  0.38161350726E+03  0.50400001928E-02 0.  1.
        1   -1    0    0  501    0  0.00000000000E+00  0.00000000000E+00 -0.94218332354E+03  0.94218332355E+03  0.50400001928E-02 0. -1.
    10030    2    1    2    0    0  0.00000000000E+00  0.00000000000E+00 -0.56056981631E+03  0.13237968308E+04  0.11992495697E+04 0.  0.
        5    1    3    3  502    0 -0.24341943051E+03 -0.16651796852E+02 -0.88488829700E+03  0.91792139623E+03  0.46999998093E+01 0. -1.
       -5    1    3    3    0  502  0.24341943051E+03  0.16651796852E+02  0.32431848069E+03  0.40587543459E+03  0.46999998093E+01 0.  1.
</event>
<event>
 5   0  0.9298693E-04  0.1194918E+04  0.7818609E-02  0.9117316E-01
       -2   -1    0    0    0  501  0.00000000000E+00  0.00000000000E+00  0.15981763440E+03  0.15981763442E+03  0.25500000920E-02 0. -1.
        2   -1    0    0  501    0  0.00000000000E+00  0.00000000000E+00 -0.22335287086E+04  0.22335287086E+04  0.25500000920E-02 0.  1.
    10030    2    1    2    0    0  0.00000000000E+00  0.00000000000E+00 -0.20737110742E+04  0.23933463430E+04  0.11949180300E+04 0.  0.
        1    1    3    3  502    0  0.50554291749E+03 -0.29668510237E+03 -0.80533133520E+03  0.99606940063E+03  0.50400001928E-02 0.  1.
       -1    1    3    3    0  502 -0.50554291749E+03  0.29668510237E+03 -0.12683797390E+04  0.13972769424E+04  0.50400001928E-02 0. -1.
</event>
<event>
 5   0  0.9145224E-04  0.1202215E+04  0.7818609E-02  0.9110920E-01
       -2   -1    0    0    0  501  0.00000000000E+00  0.00000000000E+00  0.60699627827E+03  0.60699627828E+03  0.25500000920E-02 0. -1.
        2   -1    0    0  501    0  0.00000000000E+00  0.00000000000E+00 -0.59527624708E+03  0.59527624708E+03  0.25500000920E-02 0.  1.
    10030    2    1    2    0    0  0.00000000000E+00  0.00000000000E+00  0.11720031194E+02  0.12022725254E+04  0.12022153992E+04 0.  0.
        5    1    3    3  502    0 -0.13854333993E+03 -0.36168849131E+03 -0.45383078880E+03  0.59665509019E+03  0.46999998093E+01 0.  1.
       -5    1    3    3    0  502  0.13854333993E+03  0.36168849131E+03  0.46555082000E+03  0.60561743517E+03  0.46999998093E+01 0. -1.
</event>
<event>
 5   0  0.5003507E-04  0.1199393E+04  0.7818609E-02  0.9113388E-01
        1   -1    0    0  501    0  0.00000000000E+00  0.00000000000E+00  0.85553691409E+03  0.85553691410E+03  0.50400001928E-02 0.  1.
       -1   -1    0    0    0  501  0.00000000000E+00  0.00000000000E+00 -0.42036253369E+03  0.42036253372E+03  0.50400001928E-02 0. -1.
    10030    2    1    2    0    0  0.00000000000E+00  0.00000000000E+00  0.43517438040E+03  0.12758994478E+04  0.11993926211E+04 0.  0.
        3    1    3    3  502    0  0.49926471152E+03 -0.18461265058E+03  0.51140953419E+03  0.73816448355E+03  0.10100000352E+00 0.  1.
       -3    1    3    3    0  502 -0.49926471152E+03  0.18461265058E+03 -0.76235153791E+02  0.53773496427E+03  0.10100000352E+00 0. -1.
</event>
<event>
 5   0  0.9070772E-04  0.1201262E+04  0.7818609E-02  0.9111752E-01
       -2   -1    0    0    0  501  0.00000000000E+00  0.00000000000E+00  0.62153490593E+03  0.62153490594E+03  0.25500000920E-02 0. -1.
        2   -1    0    0  501    0  0.00000000000E+00  0.00000000000E+00 -0.58043058822E+03  0.58043058822E+03  0.25500000920E-02 0.  1.
    10030    2    1    2    0    0  0.00000000000E+00  0.00000000000E+00  0.41104317718E+02  0.12019654942E+04  0.12012624543E+04 0.  0.
        4    1    3    3  502    0 -0.30638753275E+02 -0.15783281323E+03 -0.55849745139E+03  0.58118064854E+03  0.12699999809E+01 0.  1.
       -4    1    3    3    0  502  0.30638753275E+02  0.15783281323E+03  0.59960176911E+03  0.62078484562E+03  0.12699999809E+01 0. -1.
</event>
<event>
 5   0  0.9298693E-04  0.1196122E+04  0.7818609E-02  0.9116257E-01
       -2   -1    0    0    0  501  0.00000000000E+00  0.00000000000E+00  0.16359358961E+03  0.16359358963E+03  0.25500000920E-02 0.  1.
        2   -1    0    0  501    0  0.00000000000E+00  0.00000000000E+00 -0.21863768418E+04  0.21863768418E+04  0.25500000920E-02 0. -1.
    10030    2    1    2    0    0  0.00000000000E+00  0.00000000000E+00 -0.20227832522E+04  0.23499704314E+04  0.11961224616E+04 0.  0.
        1    1    3    3  502    0 -0.49407591909E+03  0.29599440826E+03 -0.13278998423E+04  0.14474258858E+04  0.50400001928E-02 0. -1.
       -1    1    3    3    0  502  0.49407591909E+03 -0.29599440826E+03 -0.69488340985E+03  0.90254454564E+03  0.50400001928E-02 0.  1.
</event>
<event>
 5   0  0.5003507E-04  0.1196046E+04  0.7818609E-02  0.9116324E-01
        1   -1    0    0  501    0  0.00000000000E+00  0.00000000000E+00  0.10520142251E+04  0.10520142251E+04  0.50400001928E-02 0.  1.
       -1   -1    0    0    0  501  0.00000000000E+00  0.00000000000E+00 -0.33994948835E+03  0.33994948838E+03  0.50400001928E-02 0. -1.
    10030    2    1    2    0    0  0.00000000000E+00  0.00000000000E+00  0.71206473671E+03  0.13919637135E+04  0.11960463161E+04 0.  0.
        3    1    3    3  502    0  0.29969729250E+03  0.47638929201E+03  0.59130068234E+03  0.81633432600E+03  0.10100000352E+00 0.  1.
       -3    1    3    3    0  502 -0.29969729250E+03 -0.47638929201E+03  0.12076405438E+03  0.57562938746E+03  0.10100000352E+00 0. -1.
</event>
<event>
 5   0  0.9050363E-04  0.1201567E+04  0.7818609E-02  0.9111486E-01
        2   -1    0    0  501    0  0.00000000000E+00  0.00000000000E+00  0.92347145507E+03  0.92347145508E+03  0.25500000920E-02 0.  1.
       -2   -1    0    0    0  501  0.00000000000E+00  0.00000000000E+00 -0.39085201976E+03  0.39085201976E+03  0.25500000920E-02 0. -1.
    10030    2    1    2    0    0  0.00000000000E+00  0.00000000000E+00  0.53261943532E+03  0.13143234748E+04  0.12015667828E+04 0.  0.
        3    1    3    3  502    0  0.52804082754E+03  0.16527027090E+03  0.52236977446E+03  0.76092809743E+03  0.10100000352E+00 0.  1.
       -3    1    3    3    0  502 -0.52804082754E+03 -0.16527027090E+03  0.10249660861E+02  0.55339537741E+03  0.10100000352E+00 0. -1.
</event>
<event>
 5   0  0.5003507E-04  0.1203782E+04  0.7818609E-02  0.9109553E-01
        1   -1    0    0  501    0  0.00000000000E+00  0.00000000000E+00  0.79072395168E+03  0.79072395169E+03  0.50400001928E-02 0. -1.
       -1   -1    0    0    0  501  0.00000000000E+00  0.00000000000E+00 -0.45815318266E+03  0.45815318269E+03  0.50400001928E-02 0.  1.
    10030    2    1    2    0    0  0.00000000000E+00  0.00000000000E+00  0.33257076901E+03  0.12488771344E+04  0.12037818658E+04 0.  0.
        3    1    3    3  502    0 -0.16298662090E+03 -0.48980311933E+03  0.48739759985E+03  0.70994941006E+03  0.10100000352E+00 0. -1.
       -3    1    3    3    0  502  0.16298662090E+03  0.48980311933E+03 -0.15482683084E+03  0.53892772433E+03  0.10100000352E+00 0.  1.
</event>
<event>
 5   0  0.5157631E-04  0.1201266E+04  0.7818609E-02  0.9111749E-01
       -1   -1    0    0    0  501  0.00000000000E+00  0.00000000000E+00  0.25856925616E+04  0.25856925616E+04  0.50400001928E-02 0. -1.
        1   -1    0    0  501    0  0.00000000000E+00  0.00000000000E+00 -0.13952160248E+03  0.13952160258E+03  0.50400001928E-02 0.  1.
    10030    2    1    2    0    0  0.00000000000E+00  0.00000000000E+00  0.24461709591E+04  0.27252141642E+04  0.12012659487E+04 0.  0.
        5    1    3    3  502    0  0.24269237686E+03  0.14457268242E+02  0.24690286037E+04  0.24809741914E+04  0.46999998093E+01 0. -1.
       -5    1    3    3    0  502 -0.24269237686E+03 -0.14457268242E+02 -0.22857644606E+02  0.24423997278E+03  0.46999998093E+01 0.  1.
</event>
<event>
 5   0  0.5001586E-04  0.1202629E+04  0.7818609E-02  0.9110559E-01
       -1   -1    0    0    0  501  0.00000000000E+00  0.00000000000E+00  0.37878115862E+03  0.37878115866E+03  0.50400001928E-02 0.  1.
        1   -1    0    0  501    0  0.00000000000E+00  0.00000000000E+00 -0.95458544570E+03  0.95458544572E+03  0.50400001928E-02 0. -1.
    10030    2    1    2    0    0  0.00000000000E+00  0.00000000000E+00 -0.57580428708E+03  0.13333666044E+04  0.12026287559E+04 0.  0.
        1    1    3    3  502    0  0.95284058198E+02  0.35767943316E+03  0.23749700554E+03  0.43979365198E+03  0.50400001928E-02 0.  1.
       -1    1    3    3    0  502 -0.95284058198E+02 -0.35767943316E+03 -0.81330129262E+03  0.89357295240E+03  0.50400001928E-02 0. -1.
</event>
<event>
 5   0  0.5001586E-04  0.1200706E+04  0.7818609E-02  0.9112239E-01
       -1   -1    0    0    0  501  0.00000000000E+00  0.00000000000E+00  0.34748313138E+03  0.34748313142E+03  0.50400001928E-02 0. -1.
        1   -1    0    0  501    0  0.00000000000E+00  0.00000000000E+00 -0.10372407275E+04  0.10372407275E+04  0.50400001928E-02 0.  1.
    10030    2    1    2    0    0  0.00000000000E+00  0.00000000000E+00 -0.68975759616E+03  0.13847238590E+04  0.12007058858E+04 0.  0.
        1    1    3    3  502    0  0.19204008725E+03  0.10997847106E+03 -0.98848467909E+03  0.10129544018E+04  0.50400001928E-02 0.  1.
       -1    1    3    3    0  502 -0.19204008725E+03 -0.10997847106E+03  0.29872708294E+03  0.37176945721E+03  0.50400001928E-02 0. -1.
</event>
<event>
 5   0  0.9050363E-04  0.1208149E+04  0.7818609E-02  0.9105753E-01
        2   -1    0    0  501    0  0.00000000000E+00  0.00000000000E+00  0.36812358505E+03  0.36812358506E+03  0.25500000920E-02 0.  1.
       -2   -1    0    0    0  501  0.00000000000E+00  0.00000000000E+00 -0.99126024835E+03  0.99126024836E+03  0.25500000920E-02 0. -1.
    10030    2    1    2    0    0  0.00000000000E+00  0.00000000000E+00 -0.62313666330E+03  0.13593838334E+04  0.12081494549E+04 0.  0.
        3    1    3    3  502    0 -0.30408218582E+03 -0.22566471855E+03 -0.84113875224E+03  0.92244509411E+03  0.10100000352E+00 0. -1.
       -3    1    3    3    0  502  0.30408218582E+03  0.22566471855E+03  0.21800208894E+03  0.43693873931E+03  0.10100000352E+00 0.  1.
</event>
<event>
 5   0  0.5001586E-04  0.1198742E+04  0.7818609E-02  0.9113959E-01
        1   -1    0    0  501    0  0.00000000000E+00  0.00000000000E+00  0.11378711955E+04  0.11378711955E+04  0.50400001928E-02 0.  1.
       -1   -1    0    0    0  501  0.00000000000E+00  0.00000000000E+00 -0.31571710557E+03  0.31571710561E+03  0.50400001928E-02 0. -1.
    10030    2    1    2    0    0  0.00000000000E+00  0.00000000000E+00  0.82215408995E+03  0.14535883011E+04  0.11987416742E+04 0.  0.
        1    1    3    3  502    0  0.23006015797E+03  0.39209847721E+02 -0.25835927290E+03  0.34815887518E+03  0.50400001928E-02 0. -1.
       -1    1    3    3    0  502 -0.23006015797E+03 -0.39209847721E+02  0.10805133629E+04  0.11054294260E+04  0.50400001928E-02 0.  1.
</event>
<event>
 5   0  0.5052959E-04  0.1211676E+04  0.7818609E-02  0.9102697E-01
       -1   -1    0    0    0  501  0.00000000000E+00  0.00000000000E+00  0.32894456565E+03  0.32894456569E+03  0.50400001928E-02 0.  1.
        1   -1    0    0  501    0  0.00000000000E+00  0.00000000000E+00 -0.11158107898E+04  0.11158107898E+04  0.50400001928E-02 0. -1.
    10030    2    1    2    0    0  0.00000000000E+00  0.00000000000E+00 -0.78686622414E+03  0.14447553555E+04  0.12116763522E+04 0.  0.
        2    1    3    3  502    0 -0.43396778824E+03  0.42036144401E+03 -0.34000110164E+03  0.69327666481E+03  0.25500000920E-02 0. -1.
       -2    1    3    3    0  502  0.43396778824E+03 -0.42036144401E+03 -0.44686512249E+03  0.75147869068E+03  0.25500000920E-02 0.  1.
</event>
<event>
 5   0  0.5157631E-04  0.1207936E+04  0.7818609E-02  0.9105938E-01
       -1   -1    0    0    0  501  0.00000000000E+00  0.00000000000E+00  0.62283298425E+03  0.62283298427E+03  0.50400001928E-02 0. -1.
        1   -1    0    0  501    0  0.00000000000E+00  0.00000000000E+00 -0.58567474722E+03  0.58567474724E+03  0.50400001928E-02 0.  1.
    10030    2    1    2    0    0  0.00000000000E+00  0.00000000000E+00  0.37158237031E+02  0.12085077315E+04  0.12079363404E+04 0.  0.
        5    1    3    3  502    0 -0.45878395236E+03 -0.22070368136E+03 -0.30647860421E+03  0.59425924876E+03  0.46999998093E+01 0.  1.
       -5    1    3    3    0  502  0.45878395236E+03  0.22070368136E+03  0.34363684124E+03  0.61424848275E+03  0.46999998093E+01 0. -1.
</event>
<event>
 5   0  0.9298693E-04  0.1201651E+04  0.7818609E-02  0.9111413E-01
       -2   -1    0    0    0  501  0.00000000000E+00  0.00000000000E+00  0.43744703784E+03  0.43744703785E+03  0.25500000920E-02 0.  1.
        2   -1    0    0  501    0  0.00000000000E+00  0.00000000000E+00 -0.82522275153E+03  0.82522275154E+03  0.25500000920E-02 0. -1.
    10030    2    1    2    0    0  0.00000000000E+00  0.00000000000E+00 -0.38777571369E+03  0.12626697894E+04  0.12016509447E+04 0.  0.
        1    1    3    3  502    0  0.28290930979E+03  0.30834044094E+03 -0.64691840655E+03  0.77046410030E+03  0.50400001928E-02 0.  1.
       -1    1    3    3    0  502 -0.28290930979E+03 -0.30834044094E+03  0.25914269286E+03  0.49220568909E+03  0.50400001928E-02 0. -1.
</event>
<event>
 5   0  0.9050363E-04  0.1201775E+04  0.7818609E-02  0.9111304E-01
        2   -1    0    0  501    0  0.00000000000E+00  0.00000000000E+00  0.12547455068E+04  0.12547455068E+04  0.25500000920E-02 0.  1.
       -2   -1    0    0    0  501  0.00000000000E+00  0.00000000000E+00 -0.28776036334E+03  0.28776036335E+03  0.25500000920E-02 0. -1.
    10030    2    1    2    0    0  0.00000000000E+00  0.00000000000E+00  0.96698514343E+03  0.15425058701E+04  0.12017753916E+04 0.  0.
        3    1    3    3  502    0 -0.44054403616E+03  0.34051998201E+03  0.77344685102E+03  0.95302305717E+03  0.10100000352E+00 0.  1.
       -3    1    3    3    0  502  0.44054403616E+03 -0.34051998201E+03  0.19353829240E+03  0.58948281296E+03  0.10100000352E+00 0. -1.
</event>
<event>
 5   0  0.5447074E-04  0.1201505E+04  0.7818609E-02  0.9111541E-01
       -1   -1    0    0    0  501  0.00000000000E+00  0.00000000000E+00  0.21675658970E+03  0.21675658976E+03  0.50400001928E-02 0. -1.
        1   -1    0    0  501    0  0.00000000000E+00  0.00000000000E+00 -0.16650165379E+04  0.16650165380E+04  0.50400001928E-02 0.  1.
    10030    2    1    2    0    0  0.00000000000E+00  0.00000000000E+00 -0.14482599482E+04  0.18817731277E+04  0.12015045678E+04 0.  0.
        4    1    3    3  502    0  0.54621356264E+02  0.13647332478E+03 -0.16364126653E+04  0.16430022778E+04  0.12699999809E+01 0.  1.
       -4    1    3    3    0  502 -0.54621356264E+02 -0.13647332478E+03  0.18815271703E+03  0.23877084990E+03  0.12699999809E+01 0. -1.
</event>
<event>
 5   0  0.5052959E-04  0.1202328E+04  0.7818609E-02  0.9110822E-01
        1   -1    0    0  501    0  0.00000000000E+00  0.00000000000E+00  0.41323036128E+03  0.41323036131E+03  0.50400001928E-02 0.  1.
       -1   -1    0    0    0  501  0.00000000000E+00  0.00000000000E+00 -0.87456756347E+03  0.87456756348E+03  0.50400001928E-02 0. -1.
    10030    2    1    2    0    0  0.00000000000E+00  0.00000000000E+00 -0.46133720218E+03  0.12877979248E+04  0.12023275265E+04 0.  0.
        2    1    3    3  502    0 -0.21133872064E+03 -0.39366043769E+03 -0.66146055309E+03  0.79822469164E+03  0.25500000920E-02 0. -1.
       -2    1    3    3    0  502  0.21133872064E+03  0.39366043769E+03  0.20012335090E+03  0.48957323316E+03  0.25500000920E-02 0.  1.
</event>
<event>
 5   0  0.5447074E-04  0.1144326E+04  0.7818609E-02  0.9163034E-01
        1   -1    0    0  501    0  0.00000000000E+00  0.00000000000E+00  0.87595247806E+03  0.87595247807E+03  0.50400001928E-02 0.  1.
       -1   -1    0    0    0  501  0.00000000000E+00  0.00000000000E+00 -0.37373069651E+03  0.37373069654E+03  0.50400001928E-02 0. -1.
    10030    2    1    2    0    0  0.00000000000E+00  0.00000000000E+00  0.50222178155E+03  0.12496831746E+04  0.11443257050E+04 0.  0.
        4    1    3    3  502    0  0.20098192501E+03 -0.50932190245E+03  0.43242791449E+03  0.69770914328E+03  0.12699999809E+01 0.  1.
       -4    1    3    3    0  502 -0.20098192501E+03  0.50932190245E+03  0.69793867060E+02  0.55197403134E+03  0.12699999809E+01 0. -1.
</event>
<event>
 5   0  0.5001586E-04  0.1199038E+04  0.7818609E-02  0.9113699E-01
       -1   -1    0    0    0  501  0.00000000000E+00  0.00000000000E+00  0.41503309762E+03  0.41503309765E+03  0.50400001928E-02 0.  1.
        1   -1    0    0  501    0  0.00000000000E+00  0.00000000000E+00 -0.86601073334E+03  0.86601073335E+03  0.50400001928E-02 0. -1.
    10030    2    1    2    0    0  0.00000000000E+00  0.00000000000E+00 -0.45097763572E+03  0.12810438310E+04  0.11990381433E+04 0.  0.
        1    1    3    3  502    0 -0.42976134055E+02 -0.59369834176E+03 -0.30177572241E+03  0.66737789577E+03  0.50400001928E-02 0.  1.
       -1    1    3    3    0  502  0.42976134055E+02  0.59369834176E+03 -0.14920191331E+03  0.61366593523E+03  0.50400001928E-02 0. -1.
</event>
<event>
 5   0  0.3453625E-04  0.1171972E+04  0.7818609E-02  0.9137749E-01
        3   -1    0    0  501    0  0.00000000000E+00  0.00000000000E+00  0.14972861762E+04  0.14972861796E+04  0.10100000352E+00 0.  1.
       -3   -1    0    0    0  501  0.00000000000E+00  0.00000000000E+00 -0.22933482223E+03  0.22933484447E+03  0.10100000352E+00 0. -1.
    10030    2    1    2    0    0  0.00000000000E+00  0.00000000000E+00  0.12679513540E+04  0.17266210241E+04  0.11719724932E+04 0.  0.
        1    1    3    3  502    0 -0.49439042504E+03  0.21360483869E+03  0.97420309844E+03  0.11131579387E+04  0.50400001928E-02 0.  1.
       -1    1    3    3    0  502  0.49439042504E+03 -0.21360483869E+03  0.29374825558E+03  0.61346308541E+03  0.50400001928E-02 0. -1.
</event>
<event>
 5   0  0.5001586E-04  0.1198398E+04  0.7818609E-02  0.9114260E-01
       -1   -1    0    0    0  501  0.00000000000E+00  0.00000000000E+00  0.40076092983E+03  0.40076092987E+03  0.50400001928E-02 0. -1.
        1   -1    0    0  501    0  0.00000000000E+00  0.00000000000E+00 -0.89589378880E+03  0.89589378881E+03  0.50400001928E-02 0.  1.
    10030    2    1    2    0    0  0.00000000000E+00  0.00000000000E+00 -0.49513285897E+03  0.12966547187E+04  0.11983976433E+04 0.  0.
        1    1    3    3  502    0 -0.24734203817E+02 -0.34315562477E+03 -0.77837249762E+03  0.85101780753E+03  0.50400001928E-02 0.  1.
       -1    1    3    3    0  502  0.24734203817E+02  0.34315562477E+03  0.28323963865E+03  0.44563691115E+03  0.50400001928E-02 0. -1.
</event>
<event>
 5   0  0.9070772E-04  0.1189043E+04  0.7818609E-02  0.9122502E-01
       -2   -1    0    0    0  501  0.00000000000E+00  0.00000000000E+00  0.17593586521E+03  0.17593586523E+03  0.25500000920E-02 0.  1.
        2   -1    0    0  501    0  0.00000000000E+00  0.00000000000E+00 -0.20090026400E+04  0.20090026400E+04  0.25500000920E-02 0. -1.
    10030    2    1    2    0    0  0.00000000000E+00  0.00000000000E+00 -0.18330667748E+04  0.21849385052E+04  0.11890426699E+04 0.  0.
        4    1    3    3  502    0  0.41462494973E+03  0.11964132216E+02 -0.16991640281E+04  0.17490617475E+04  0.12699999809E+01 0. -1.
       -4    1    3    3    0  502 -0.41462494973E+03 -0.11964132216E+02 -0.13390274664E+03  0.43587675765E+03  0.12699999809E+01 0.  1.
</event>
<event>
 5   0  0.9070772E-04  0.1208219E+04  0.7818609E-02  0.9105693E-01
       -2   -1    0    0    0  501  0.00000000000E+00  0.00000000000E+00  0.27157748623E+03  0.27157748625E+03  0.25500000920E-02 0.  1.
        2   -1    0    0  501    0  0.00000000000E+00  0.00000000000E+00 -0.13438095774E+04  0.13438095774E+04  0.25500000920E-02 0. -1.
    10030    2    1    2    0    0  0.00000000000E+00  0.00000000000E+00 -0.10722320912E+04  0.16153870637E+04  0.12082192301E+04 0.  0.
        4    1    3    3  502    0  0.30263811091E+03 -0.48494615552E+03 -0.79737596326E+03  0.98110786340E+03  0.12699999809E+01 0.  1.
       -4    1    3    3    0  502 -0.30263811091E+03  0.48494615552E+03 -0.27485612793E+03  0.63427920027E+03  0.12699999809E+01 0. -1.
</event>
<event>
 5   0  0.5001586E-04  0.1200251E+04  0.7818609E-02  0.9112637E-01
       -1   -1    0    0    0  501  0.00000000000E+00  0.00000000000E+00  0.35333174307E+03  0.35333174311E+03  0.50400001928E-02 0.  1.
        1   -1    0    0  501    0  0.00000000000E+00  0.00000000000E+00 -0.10192991608E+04  0.10192991608E+04  0.50400001928E-02 0. -1.
    10030    2    1    2    0    0  0.00000000000E+00  0.00000000000E+00 -0.66596741771E+03  0.13726309039E+04  0.12002512224E+04 0.  0.
        1    1    3    3  502    0  0.20023809283E+03 -0.22353556857E+03  0.26135456859E+03  0.39795685041E+03  0.50400001928E-02 0.  1.
       -1    1    3    3    0  502 -0.20023809283E+03  0.22353556857E+03 -0.92732198631E+03  0.97467405349E+03  0.50400001928E-02 0. -1.
</event>
<event>
 5   0  0.5447074E-04  0.1198057E+04  0.7818609E-02  0.9114559E-01
        1   -1    0    0  501    0  0.00000000000E+00  0.00000000000E+00  0.24049226106E+03  0.24049226112E+03  0.50400001928E-02 0.  1.
       -1   -1    0    0    0  501  0.00000000000E+00  0.00000000000E+00 -0.14920872501E+04  0.14920872501E+04  0.50400001928E-02 0. -1.
    10030    2    1    2    0    0  0.00000000000E+00  0.00000000000E+00 -0.12515949891E+04  0.17325795112E+04  0.11980574887E+04 0.  0.
        4    1    3    3  502    0 -0.13692505634E+03  0.44312523326E+03 -0.11740520505E+04  0.12623423757E+04  0.12699999809E+01 0. -1.
       -4    1    3    3    0  502  0.13692505634E+03 -0.44312523326E+03 -0.77542938581E+02  0.47023713553E+03  0.12699999809E+01 0.  1.
</event>
<event>
 5   0  0.9070772E-04  0.1196190E+04  0.7818609E-02  0.9116198E-01
        2   -1    0    0  501    0  0.00000000000E+00  0.00000000000E+00  0.77647339666E+03  0.77647339666E+03  0.25500000920E-02 0. -1.
       -2   -1    0    0    0  501  0.00000000000E+00  0.00000000000E+00 -0.46069537952E+03  0.46069537953E+03  0.25500000920E-02 0.  1.
    10030    2    1    2    0    0  0.00000000000E+00  0.00000000000E+00  0.31577801714E+03  0.12371687762E+04  0.11961901290E+04 0.  0.
        4    1    3    3  502    0  0.11474084998E+03 -0.17256955629E+03 -0.42237504134E+03  0.47047635739E+03  0.12699999809E+01 0.  1.
       -4    1    3    3    0  502 -0.11474084998E+03  0.17256955629E+03  0.73815305848E+03  0.76669241880E+03  0.12699999809E+01 0. -1.
</event>
<event>
 5   0  0.9070772E-04  0.1198606E+04  0.7818609E-02  0.9114078E-01
       -2   -1    0    0    0  501  0.00000000000E+00  0.00000000000E+00  0.55076888530E+03  0.55076888530E+03  0.25500000920E-02 0.  1.
        2   -1    0    0  501    0  0.00000000000E+00  0.00000000000E+00 -0.65211389413E+03  0.65211389413E+03  0.25500000920E-02 0. -1.
    10030    2    1    2    0    0  0.00000000000E+00  0.00000000000E+00 -0.10134500883E+03  0.12028827794E+04  0.11986059278E+04 0.  0.
        4    1    3    3  502    0  0.44865658676E+03  0.22907827695E+03 -0.37647352451E+03  0.62889070384E+03  0.12699999809E+01 0. -1.
       -4    1    3    3    0  502 -0.44865658676E+03 -0.22907827695E+03  0.27512851568E+03  0.57399207560E+03  0.12699999809E+01 0.  1.
</event>
<event>
 5   0  0.9145224E-04  0.1200722E+04  0.7818609E-02  0.9112224E-01
       -2   -1    0    0    0  501  0.00000000000E+00  0.00000000000E+00  0.23180432922E+03  0.23180432923E+03  0.25500000920E-02 0. -1.
        2   -1    0    0  501    0  0.00000000000E+00  0.00000000000E+00 -0.15549043480E+04  0.15549043480E+04  0.25500000920E-02 0.  1.
    10030    2    1    2    0    0  0.00000000000E+00  0.00000000000E+00 -0.13231000188E+04  0.17867086772E+04  0.12007223816E+04 0.  0.
        5    1    3    3  502    0  0.40269368427E+03 -0.30815930930E+03 -0.11397771232E+04  0.12474928231E+04  0.46999998093E+01 0.  1.
       -5    1    3    3    0  502 -0.40269368427E+03  0.30815930930E+03 -0.18332289560E+03  0.53921585409E+03  0.46999998093E+01 0. -1.
</event>
<event>
 5   0  0.9298693E-04  0.1200369E+04  0.7818609E-02  0.9112533E-01
        2   -1    0    0  501    0  0.00000000000E+00  0.00000000000E+00  0.12620793610E+04  0.12620793610E+04  0.25500000920E-02 0. -1.
       -2   -1    0    0    0  501  0.00000000000E+00  0.00000000000E+00 -0.28541907159E+03  0.28541907160E+03  0.25500000920E-02 0.  1.
    10030    2    1    2    0    0  0.00000000000E+00  0.00000000000E+00  0.97666028943E+03  0.15474984326E+04  0.12003691424E+04 0.  0.
        1    1    3    3  502    0  0.88763740766E+02 -0.56444447173E+03  0.72515093673E+03  0.92321202571E+03  0.50400001928E-02 0.  1.
       -1    1    3    3    0  502 -0.88763740766E+02  0.56444447173E+03  0.25150935269E+03  0.62428640691E+03  0.50400001928E-02 0. -1.
</event>
<event>
 5   0  0.5157631E-04  0.1203203E+04  0.7818609E-02  0.9110057E-01
        1   -1    0    0  501    0  0.00000000000E+00  0.00000000000E+00  0.40009579591E+03  0.40009579594E+03  0.50400001928E-02 0.  1.
       -1   -1    0    0    0  501  0.00000000000E+00  0.00000000000E+00 -0.90459489828E+03  0.90459489829E+03  0.50400001928E-02 0. -1.
    10030    2    1    2    0    0  0.00000000000E+00  0.00000000000E+00 -0.50449910237E+03  0.13046906942E+04  0.12032034173E+04 0.  0.
        5    1    3    3  502    0 -0.45588116025E+02  0.59580968997E+03 -0.17684985951E+03  0.62318971894E+03  0.46999998093E+01 0. -1.
       -5    1    3    3    0  502  0.45588116025E+02 -0.59580968997E+03 -0.32764924285E+03  0.68150097529E+03  0.46999998093E+01 0.  1.
</event>
<event>
 5   0  0.9145224E-04  0.1221215E+04  0.7818609E-02  0.9094487E-01
        2   -1    0    0  501    0  0.00000000000E+00  0.00000000000E+00  0.13403277917E+04  0.13403277917E+04  0.25500000920E-02 0. -1.
       -2   -1    0    0    0  501  0.00000000000E+00  0.00000000000E+00 -0.27817174723E+03  0.27817174724E+03  0.25500000920E-02 0.  1.
    10030    2    1    2    0    0  0.00000000000E+00  0.00000000000E+00  0.10621560445E+04  0.16184995390E+04  0.12212146801E+04 0.  0.
        5    1    3    3  502    0 -0.45056328365E+03 -0.12961607182E+03  0.10494992685E+04  0.11494687483E+04  0.46999998093E+01 0. -1.
       -5    1    3    3    0  502  0.45056328365E+03  0.12961607182E+03  0.12656775989E+02  0.46903079070E+03  0.46999998093E+01 0.  1.
</event>
<event>
 5   0  0.5052959E-04  0.1204758E+04  0.7818609E-02  0.9108702E-01
        1   -1    0    0  501    0  0.00000000000E+00  0.00000000000E+00  0.50180118248E+03  0.50180118250E+03  0.50400001928E-02 0.  1.
       -1   -1    0    0    0  501  0.00000000000E+00  0.00000000000E+00 -0.72311567804E+03  0.72311567805E+03  0.50400001928E-02 0. -1.
    10030    2    1    2    0    0  0.00000000000E+00  0.00000000000E+00 -0.22131449556E+03  0.12249168606E+04  0.12047577389E+04 0.  0.
        2    1    3    3  502    0  0.39001813365E+02 -0.42937573874E+03  0.31706676106E+03  0.53517847251E+03  0.25500000920E-02 0.  1.
       -2    1    3    3    0  502 -0.39001813365E+02  0.42937573874E+03 -0.53838125662E+03  0.68973838805E+03  0.25500000920E-02 0. -1.
</event>
<event>
 5   0  0.9145224E-04  0.1198449E+04  0.7818609E-02  0.9114215E-01
        2   -1    0    0  501    0  0.00000000000E+00  0.00000000000E+00  0.30253770741E+03  0.30253770742E+03  0.25500000920E-02 0. -1.
       -2   -1    0    0    0  501  0.00000000000E+00  0.00000000000E+00 -0.11868602874E+04  0.11868602874E+04  0.25500000920E-02 0.  1.
    10030    2    1    2    0    0  0.00000000000E+00  0.00000000000E+00 -0.88432257997E+03  0.14893979948E+04  0.11984489816E+04 0.  0.
        5    1    3    3  502    0  0.10266430214E+03  0.16697839305E+03  0.26154379525E+03  0.32687763691E+03  0.46999998093E+01 0. -1.
       -5    1    3    3    0  502 -0.10266430214E+03 -0.16697839305E+03 -0.11458663752E+04  0.11625203579E+04  0.46999998093E+01 0.  1.
</event>
<event>
 5   0  0.5003507E-04  0.1167816E+04  0.7818609E-02  0.9141504E-01
        1   -1    0    0  501    0  0.00000000000E+00  0.00000000000E+00  0.38926926850E+03  0.38926926853E+03  0.50400001928E-02 0.  1.
       -1   -1    0    0    0  501  0.00000000000E+00  0.00000000000E+00 -0.87586743024E+03  0.87586743025E+03  0.50400001928E-02 0. -1.
    10030    2    1    2    0    0  0.00000000000E+00  0.00000000000E+00 -0.48659816174E+03  0.12651366988E+04  0.11678155229E+04 0.  0.
        3    1    3    3  502    0 -0.39970201507E+02  0.55502531377E+03 -0.43495329171E+03  0.70628258658E+03  0.10100000352E+00 0.  1.
       -3    1    3    3    0  502  0.39970201507E+02 -0.55502531377E+03 -0.51644870031E+02  0.55885411221E+03  0.10100000352E+00 0. -1.
</event>
<event>
 5   0  0.5447074E-04  0.1194623E+04  0.7818609E-02  0.9117576E-01
        1   -1    0    0  501    0  0.00000000000E+00  0.00000000000E+00  0.76477491331E+03  0.76477491333E+03  0.50400001928E-02 0.  1.
       -1   -1    0    0    0  501  0.00000000000E+00  0.00000000000E+00 -0.46651772375E+03  0.46651772378E+03  0.50400001928E-02 0. -1.
    10030    2    1    2    0    0  0.00000000000E+00  0.00000000000E+00  0.29825718956E+03  0.12312926371E+04  0.11946230397E+04 0.  0.
        4    1    3    3  502    0 -0.47290721278E+03  0.19131731167E+03 -0.17111083647E+03  0.53807441577E+03  0.12699999809E+01 0. -1.
       -4    1    3    3    0  502  0.47290721278E+03 -0.19131731167E+03  0.46936802603E+03  0.69321822134E+03  0.12699999809E+01 0.  1.
</event>
<event>
 5   0  0.5003507E-04  0.1196796E+04  0.7818609E-02  0.9115666E-01
       -1   -1    0    0    0  501  0.00000000000E+00  0.00000000000E+00  0.42602010601E+03  0.42602010604E+03  0.50400001928E-02 0.  1.
        1   -1    0    0  501    0  0.00000000000E+00  0.00000000000E+00 -0.84052380758E+03  0.84052380759E+03  0.50400001928E-02 0. -1.
    10030    2    1    2    0    0  0.00000000000E+00  0.00000000000E+00 -0.41450370157E+03  0.12665439136E+04  0.11967957915E+04 0.  0.
        3    1    3    3  502    0  0.80838262395E+02  0.55893408748E+03 -0.41661436141E+03  0.70179033561E+03  0.10100000352E+00 0. -1.
       -3    1    3    3    0  502 -0.80838262395E+02 -0.55893408748E+03  0.21106598493E+01  0.56475357803E+03  0.10100000352E+00 0.  1.
</event>
<event>
 5   0  0.5003507E-04  0.1200684E+04  0.7818609E-02  0.9112258E-01
       -1   -1    0    0    0  501  0.00000000000E+00  0.00000000000E+00  0.25462237464E+03  0.25462237469E+03  0.50400001928E-02 0.  1.
        1   -1    0    0  501    0  0.00000000000E+00  0.00000000000E+00 -0.14154704984E+04  0.14154704984E+04  0.50400001928E-02 0. -1.
    10030    2    1    2    0    0  0.00000000000E+00  0.00000000000E+00 -0.11608481238E+04  0.16700928731E+04  0.12006839044E+04 0.  0.
        3    1    3    3  502    0  0.49512735521E+03  0.28721913244E+03 -0.83219978308E+03  0.10100507002E+04  0.10100000352E+00 0. -1.
       -3    1    3    3    0  502 -0.49512735521E+03 -0.28721913244E+03 -0.32864834068E+03  0.66004217286E+03  0.10100000352E+00 0.  1.
</event>
<event>
 5   0  0.9410666E-04  0.1196892E+04  0.7818609E-02  0.9115581E-01
        2   -1    0    0  501    0  0.00000000000E+00  0.00000000000E+00  0.25217246063E+04  0.25217246063E+04  0.25500000920E-02 0.  1.
       -2   -1    0    0    0  501  0.00000000000E+00  0.00000000000E+00 -0.14202097568E+03  0.14202097570E+03  0.25500000920E-02 0. -1.
    10030    2    1    2    0    0  0.00000000000E+00  0.00000000000E+00  0.23797036307E+04  0.26637455820E+04  0.11968922909E+04 0.  0.
        2    1    3    3  502    0  0.19286955921E+03  0.52407372847E+03  0.16686602486E+04  0.17596246660E+04  0.25500000920E-02 0.  1.
       -2    1    3    3    0  502 -0.19286955921E+03 -0.52407372847E+03  0.71104338203E+03  0.90412091607E+03  0.25500000920E-02 0. -1.
</event>
<event>
 5   0  0.5157631E-04  0.1203797E+04  0.7818609E-02  0.9109540E-01
        1   -1    0    0  501    0  0.00000000000E+00  0.00000000000E+00  0.24737444389E+03  0.24737444394E+03  0.50400001928E-02 0.  1.
       -1   -1    0    0    0  501  0.00000000000E+00  0.00000000000E+00 -0.14645070002E+04  0.14645070002E+04  0.50400001928E-02 0. -1.
    10030    2    1    2    0    0  0.00000000000E+00  0.00000000000E+00 -0.12171325563E+04  0.17118814442E+04  0.12037966685E+04 0.  0.
        5    1    3    3  502    0  0.35191708393E+03  0.46914443109E+03 -0.80103150142E+03  0.99278179247E+03  0.46999998093E+01 0. -1.
       -5    1    3    3    0  502 -0.35191708393E+03 -0.46914443109E+03 -0.41610105492E+03  0.71909965171E+03  0.46999998093E+01 0.  1.
</event>
<event>
 5   0  0.5052959E-04  0.1229885E+04  0.7818609E-02  0.9087093E-01
        1   -1    0    0  501    0  0.00000000000E+00  0.00000000000E+00  0.38305196390E+03  0.38305196394E+03  0.50400001928E-02 0. -1.
       -1   -1    0    0    0  501  0.00000000000E+00  0.00000000000E+00 -0.98721481538E+03  0.98721481539E+03  0.50400001928E-02 0.  1.
    10030    2    1    2    0    0  0.00000000000E+00  0.00000000000E+00 -0.60416285148E+03  0.13702667793E+04  0.12298854806E+04 0.  0.
        2    1    3    3  502    0  0.55912360535E+03 -0.21903928327E+03 -0.44970903614E+03  0.75022372054E+03  0.25500000920E-02 0. -1.
       -2    1    3    3    0  502 -0.55912360535E+03  0.21903928327E+03 -0.15445381534E+03  0.62004305879E+03  0.25500000920E-02 0.  1.
</event>
<event>
 5   0  0.5003507E-04  0.1205272E+04  0.7818609E-02  0.9108255E-01
       -1   -1    0    0    0  501  0.00000000000E+00  0.00000000000E+00  0.53888754118E+03  0.53888754121E+03  0.50400001928E-02 0. -1.
        1   -1    0    0  501    0  0.00000000000E+00  0.00000000000E+00 -0.67392531996E+03  0.67392531998E+03  0.50400001928E-02 0.  1.
    10030    2    1    2    0    0  0.00000000000E+00  0.00000000000E+00 -0.13503777878E+03  0.12128128612E+04  0.12052716850E+04 0.  0.
        3    1    3    3  502    0  0.43475238335E+03  0.15863744187E+02 -0.48715170039E+03  0.65312945317E+03  0.10100000352E+00 0.  1.
       -3    1    3    3    0  502 -0.43475238335E+03 -0.15863744187E+02  0.35211392161E+03  0.55968340801E+03  0.10100000352E+00 0. -1.
</event>
<event>
 5   0  0.9298693E-04  0.1197241E+04  0.7818609E-02  0.9115275E-01
        2   -1    0    0  501    0  0.00000000000E+00  0.00000000000E+00  0.10746408299E+04  0.10746408299E+04  0.25500000920E-02 0. -1.
       -2   -1    0    0    0  501  0.00000000000E+00  0.00000000000E+00 -0.33345683367E+03  0.33345683368E+03  0.25500000920E-02 0.  1.
    10030    2    1    2    0    0  0.00000000000E+00  0.00000000000E+00  0.74118399620E+03  0.14080976636E+04  0.11972407084E+04 0.  0.
        1    1    3    3  502    0  0.29183186745E+03 -0.21953767684E+03 -0.18727006434E+03  0.41040554021E+03  0.50400001928E-02 0.  1.
       -1    1    3    3    0  502 -0.29183186745E+03  0.21953767684E+03  0.92845406054E+03  0.99769212334E+03  0.50400001928E-02 0. -1.
</event>
<event>
 5   0  0.9410666E-04  0.1197972E+04  0.7818609E-02  0.9114633E-01
        2   -1    0    0  501    0  0.00000000000E+00  0.00000000000E+00  0.73871792001E+03  0.73871792002E+03  0.25500000920E-02 0.  1.
       -2   -1    0    0    0  501  0.00000000000E+00  0.00000000000E+00 -0.48568524610E+03  0.48568524611E+03  0.25500000920E-02 0. -1.
    10030    2    1    2    0    0  0.00000000000E+00  0.00000000000E+00  0.25303267391E+03  0.12244031661E+04  0.11979722781E+04 0.  0.
        2    1    3    3  502    0  0.59084335552E+03  0.95837486095E+02  0.10357790280E+03  0.60746117280E+03  0.25500000920E-02 0. -1.
       -2    1    3    3    0  502 -0.59084335552E+03 -0.95837486095E+02  0.14945477112E+03  0.61694199332E+03  0.25500000920E-02 0.  1.
</event>
<event>
 5   0  0.5003507E-04  0.1205932E+04  0.7818609E-02  0.9107680E-01
        1   -1    0    0  501    0  0.00000000000E+00  0.00000000000E+00  0.19296737864E+04  0.19296737864E+04  0.50400001928E-02 0. -1.
       -1   -1    0    0    0  501  0.00000000000E+00  0.00000000000E+00 -0.18840910110E+03  0.18840910117E+03  0.50400001928E-02 0.  1.
    10030    2    1    2    0    0  0.00000000000E+00  0.00000000000E+00  0.17412646852E+04  0.21180828875E+04  0.12059321765E+04 0.  0.
        3    1    3    3  502    0  0.18432749721E+03 -0.46917428742E+03  0.28951800927E+03  0.58131043866E+03  0.10100000352E+00 0.  1.
       -3    1    3    3    0  502 -0.18432749721E+03  0.46917428742E+03  0.14517466760E+04  0.15367724489E+04  0.10100000352E+00 0. -1.
</event>
<event>
 5   0  0.9298693E-04  0.1208479E+04  0.7818609E-02  0.9105467E-01
        2   -1    0    0  501    0  0.00000000000E+00  0.00000000000E+00  0.42909782144E+03  0.42909782145E+03  0.25500000920E-02 0. -1.
       -2   -1    0    0    0  501  0.00000000000E+00  0.00000000000E+00 -0.85086714532E+03  0.85086714533E+03  0.25500000920E-02 0.  1.
    10030    2    1    2    0    0  0.00000000000E+00  0.00000000000E+00 -0.42176932388E+03  0.12799649668E+04  0.12084787767E+04 0.  0.
        1    1    3    3  502    0 -0.76214907421E+02  0.59180243348E+03 -0.11003449144E+03  0.60675070804E+03  0.50400001928E-02 0.  1.
       -1    1    3    3    0  502  0.76214907421E+02 -0.59180243348E+03 -0.31173483244E+03  0.67321425874E+03  0.50400001928E-02 0. -1.
</event>
<event>
 5   0  0.5001586E-04  0.1200796E+04  0.7818609E-02  0.9112160E-01
        1   -1    0    0  501    0  0.00000000000E+00  0.00000000000E+00  0.32534295389E+03  0.32534295393E+03  0.50400001928E-02 0. -1.
       -1   -1    0    0    0  501  0.00000000000E+00  0.00000000000E+00 -0.11079932251E+04  0.11079932251E+04  0.50400001928E-02 0.  1.
    10030    2    1    2    0    0  0.00000000000E+00  0.00000000000E+00 -0.78265027122E+03  0.14333361791E+04  0.12007960506E+04 0.  0.
        1    1    3    3  502    0 -0.55877692454E+03  0.21138858220E+03 -0.46255548664E+03  0.75556228223E+03  0.50400001928E-02 0.  1.
       -1    1    3    3    0  502  0.55877692454E+03 -0.21138858220E+03 -0.32009478457E+03  0.67777389682E+03  0.50400001928E-02 0. -1.
</event>
<event>
 5   0  0.5003507E-04  0.1180629E+04  0.7818609E-02  0.9129983E-01
       -1   -1    0    0    0  501  0.00000000000E+00  0.00000000000E+00  0.27338252236E+03  0.27338252240E+03  0.50400001928E-02 0.  1.
        1   -1    0    0  501    0  0.00000000000E+00  0.00000000000E+00 -0.12746656885E+04  0.12746656885E+04  0.50400001928E-02 0. -1.
    10030    2    1    2    0    0  0.00000000000E+00  0.00000000000E+00 -0.10012831662E+04  0.15480482109E+04  0.11806291901E+04 0.  0.
        3    1    3    3  502    0  0.32341655383E+03  0.30100808737E+03 -0.10139702776E+04  0.11060469565E+04  0.10100000352E+00 0. -1.
       -3    1    3    3    0  502 -0.32341655383E+03 -0.30100808737E+03  0.12687111381E+02  0.44200125447E+03  0.10100000352E+00 0.  1.
</event>
<event>
 5   0  0.9070772E-04  0.1211626E+04  0.7818609E-02  0.9102741E-01
        2   -1    0    0  501    0  0.00000000000E+00  0.00000000000E+00  0.44963863004E+03  0.44963863005E+03  0.25500000920E-02 0. -1.
       -2   -1    0    0    0  501  0.00000000000E+00  0.00000000000E+00 -0.81623208836E+03  0.81623208837E+03  0.25500000920E-02 0.  1.
    10030    2    1    2    0    0  0.00000000000E+00  0.00000000000E+00 -0.36659345832E+03  0.12658707184E+04  0.12116261437E+04 0.  0.
        4    1    3    3  502    0  0.60218925348E+03  0.62062415944E+02 -0.20721773457E+03  0.63986283132E+03  0.12699999809E+01 0. -1.
       -4    1    3    3    0  502 -0.60218925348E+03 -0.62062415944E+02 -0.15937572375E+03  0.62600788710E+03  0.12699999809E+01 0.  1.
</event>
<event>
 5   0  0.3453625E-04  0.1199737E+04  0.7818609E-02  0.9113087E-01
       -4   -1    0    0    0  501  0.00000000000E+00  0.00000000000E+00  0.57546924839E+03  0.57547064976E+03  0.12699999809E+01 0.  1.
        4   -1    0    0  501    0  0.00000000000E+00  0.00000000000E+00 -0.62529974395E+03  0.62530103365E+03  0.12699999809E+01 0. -1.
    10030    2    1    2    0    0  0.00000000000E+00  0.00000000000E+00 -0.49830495561E+02  0.12007716834E+04  0.11997372868E+04 0.  0.
        1    1    3    3  502    0 -0.18614284306E+03 -0.32161291763E+03  0.44640303240E+03  0.58082673335E+03  0.50400001928E-02 0.  1.
       -1    1    3    3    0  502  0.18614284306E+03  0.32161291763E+03 -0.49623352796E+03  0.61994495006E+03  0.50400001928E-02 0. -1.
</event>
<event>
 5   0  0.3453625E-04  0.1203125E+04  0.7818609E-02  0.9110126E-01
       -3   -1    0    0    0  501  0.00000000000E+00  0.00000000000E+00  0.10783181932E+04  0.10783181979E+04  0.10100000352E+00 0. -1.
        3   -1    0    0  501    0  0.00000000000E+00  0.00000000000E+00 -0.33559422502E+03  0.33559424021E+03  0.10100000352E+00 0.  1.
    10030    2    1    2    0    0  0.00000000000E+00  0.00000000000E+00  0.74272396820E+03  0.14139124382E+04  0.12031248854E+04 0.  0.
        3    1    3    3  502    0  0.48040544227E+03  0.30211465633E+03  0.13686699263E+03  0.58377670252E+03  0.10100000352E+00 0. -1.
       -3    1    3    3    0  502 -0.48040544227E+03 -0.30211465633E+03  0.60585697557E+03  0.83013573564E+03  0.10100000352E+00 0.  1.
</event>
<event>
 5   0  0.9298693E-04  0.1197197E+04  0.7818609E-02  0.9115314E-01
        2   -1    0    0  501    0  0.00000000000E+00  0.00000000000E+00  0.96488581131E+03  0.96488581132E+03  0.25500000920E-02 0.  1.
       -2   -1    0    0    0  501  0.00000000000E+00  0.00000000000E+00 -0.37136008098E+03  0.37136008099E+03  0.25500000920E-02 0. -1.
    10030    2    1    2    0    0  0.00000000000E+00  0.00000000000E+00  0.59352573034E+03  0.13362458923E+04  0.11971968477E+04 0.  0.
        1    1    3    3  502    0  0.36039879490E+03  0.36730468121E+03 -0.44566136277E+02  0.51651346616E+03  0.50400001928E-02 0. -1.
       -1    1    3    3    0  502 -0.36039879490E+03 -0.36730468121E+03  0.63809186661E+03  0.81973242614E+03  0.50400001928E-02 0.  1.
</event>
<event>
 5   0  0.9145224E-04  0.1199814E+04  0.7818609E-02  0.9113020E-01
       -2   -1    0    0    0  501  0.00000000000E+00  0.00000000000E+00  0.32951531029E+03  0.32951531030E+03  0.25500000920E-02 0.  1.
        2   -1    0    0  501    0  0.00000000000E+00  0.00000000000E+00 -0.10921746808E+04  0.10921746808E+04  0.25500000920E-02 0. -1.
    10030    2    1    2    0    0  0.00000000000E+00  0.00000000000E+00 -0.76265937055E+03  0.14216899911E+04  0.11998137836E+04 0.  0.
        5    1    3    3  502    0  0.34075362467E+03  0.29869278401E+02  0.20261261021E+03  0.39759170808E+03  0.46999998093E+01 0.  1.
       -5    1    3    3    0  502 -0.34075362467E+03 -0.29869278401E+02 -0.96527198077E+03  0.10240982831E+04  0.46999998093E+01 0. -1.
</event>
<event>
 5   0  0.9070772E-04  0.1201032E+04  0.7818609E-02  0.9111954E-01
       -2   -1    0    0    0  501  0.00000000000E+00  0.00000000000E+00  0.42173285429E+03  0.42173285430E+03  0.25500000920E-02 0.  1.
        2   -1    0    0  501    0  0.00000000000E+00  0.00000000000E+00 -0.85508995114E+03  0.85508995114E+03  0.25500000920E-02 0. -1.
    10030    2    1    2    0    0  0.00000000000E+00  0.00000000000E+00 -0.43335709684E+03  0.12768228054E+04  0.12010320991E+04 0.  0.
        4    1    3    3  502    0  0.12555844738E+03 -0.91729176071E+02  0.39995765650E+03  0.42912341505E+03  0.12699999809E+01 0.  1.
       -4    1    3    3    0  502 -0.12555844738E+03  0.91729176071E+02 -0.83331475334E+03  0.84769939040E+03  0.12699999809E+01 0. -1.
</event>
<event>
 5   0  0.5003507E-04  0.1194789E+04  0.7818609E-02  0.9117430E-01
       -1   -1    0    0    0  501  0.00000000000E+00  0.00000000000E+00  0.17691365509E+04  0.17691365509E+04  0.50400001928E-02 0. -1.
        1   -1    0    0  501    0  0.00000000000E+00  0.00000000000E+00 -0.20172563083E+03  0.20172563090E+03  0.50400001928E-02 0.  1.
    10030    2    1    2    0    0  0.00000000000E+00  0.00000000000E+00  0.15674109200E+04  0.19708621818E+04  0.11947889970E+04 0.  0.
        3    1    3    3  502    0  0.49805342790E+03  0.27080520411E+03  0.10944494591E+04  0.12325633064E+04  0.10100000352E+00 0. -1.
       -3    1    3    3    0  502 -0.49805342790E+03 -0.27080520411E+03  0.47296146094E+03  0.73829887535E+03  0.10100000352E+00 0.  1.
</event>
<event>
 5   0  0.5003507E-04  0.1207194E+04  0.7818609E-02  0.9106583E-01
       -1   -1    0    0    0  501  0.00000000000E+00  0.00000000000E+00  0.71135902895E+03  0.71135902897E+03  0.50400001928E-02 0.  1.
        1   -1    0    0  501    0  0.00000000000E+00  0.00000000000E+00 -0.51215979804E+03  0.51215979807E+03  0.50400001928E-02 0. -1.
    10030    2    1    2    0    0  0.00000000000E+00  0.00000000000E+00  0.19919923091E+03  0.12235188270E+04  0.12071942621E+04 0.  0.
        3    1    3    3  502    0 -0.39034688073E+03 -0.34865670372E+02  0.56487519930E+03  0.68751022047E+03  0.10100000352E+00 0.  1.
       -3    1    3    3    0  502  0.39034688073E+03  0.34865670372E+02 -0.36567596839E+03  0.53600860657E+03  0.10100000352E+00 0. -1.
</event>
<event>
 5   0  0.9050363E-04  0.1196482E+04  0.7818609E-02  0.9115941E-01
       -2   -1    0    0    0  501  0.00000000000E+00  0.00000000000E+00  0.59311038649E+03  0.59311038649E+03  0.25500000920E-02 0. -1.
        2   -1    0    0  501    0  0.00000000000E+00  0.00000000000E+00 -0.60341637139E+03  0.60341637140E+03  0.25500000920E-02 0.  1.
    10030    2    1    2    0    0  0.00000000000E+00  0.00000000000E+00 -0.10305984903E+02  0.11965267579E+04  0.11964823731E+04 0.  0.
        3    1    3    3  502    0  0.32706702686E+03  0.25849979379E+02 -0.50542293220E+03  0.60257232934E+03  0.10100000352E+00 0.  1.
       -3    1    3    3    0  502 -0.32706702686E+03 -0.25849979379E+02  0.49511694730E+03  0.59395442855E+03  0.10100000352E+00 0. -1.
</event>
<event>
 5   0  0.9070772E-04  0.1201495E+04  0.7818609E-02  0.9111549E-01
       -2   -1    0    0    0  501  0.00000000000E+00  0.00000000000E+00  0.11451122878E+04  0.11451122878E+04  0.25500000920E-02 0. -1.
        2   -1    0    0  501    0  0.00000000000E+00  0.00000000000E+00 -0.31516370336E+03  0.31516370337E+03  0.25500000920E-02 0.  1.
    10030    2    1    2    0    0  0.00000000000E+00  0.00000000000E+00  0.82994858443E+03  0.14602759912E+04  0.12014954505E+04 0.  0.
        4    1    3    3  502    0 -0.36591734321E+03 -0.43972948275E+03  0.63788575049E+03  0.85682983354E+03  0.12699999809E+01 0. -1.
       -4    1    3    3    0  502  0.36591734321E+03  0.43972948275E+03  0.19206283393E+03  0.60344615762E+03  0.12699999809E+01 0.  1.
</event>
<event>
 5   0  0.5052959E-04  0.1200796E+04  0.7818609E-02  0.9112160E-01
        1   -1    0    0  501    0  0.00000000000E+00  0.00000000000E+00  0.10503229931E+04  0.10503229931E+04  0.50400001928E-02 0.  1.
       -1   -1    0    0    0  501  0.00000000000E+00  0.00000000000E+00 -0.34320665515E+03  0.34320665519E+03  0.50400001928E-02 0. -1.
    10030    2    1    2    0    0  0.00000000000E+00  0.00000000000E+00  0.70711633794E+03  0.13935296483E+04  0.12007961381E+04 0.  0.
        2    1    3    3  502    0  0.37283422686E+03 -0.19304916094E+03 -0.14451947698E+03  0.44402614618E+03  0.25500000920E-02 0. -1.
       -2    1    3    3    0  502 -0.37283422686E+03  0.19304916094E+03  0.85163581492E+03  0.94950350211E+03  0.25500000920E-02 0.  1.
</event>
<event>
 5   0  0.5001586E-04  0.1203427E+04  0.7818609E-02  0.9109862E-01
       -1   -1    0    0    0  501  0.00000000000E+00  0.00000000000E+00  0.48977815732E+03  0.48977815734E+03  0.50400001928E-02 0.  1.
        1   -1    0    0  501    0  0.00000000000E+00  0.00000000000E+00 -0.73923106080E+03  0.73923106082E+03  0.50400001928E-02 0. -1.
    10030    2    1    2    0    0  0.00000000000E+00  0.00000000000E+00 -0.24945290348E+03  0.12290092182E+04  0.12034271508E+04 0.  0.
        1    1    3    3  502    0  0.31009855226E+03 -0.42749758510E+03 -0.41920292798E+03  0.67427471570E+03  0.50400001928E-02 0. -1.
       -1    1    3    3    0  502 -0.31009855226E+03  0.42749758510E+03  0.16975002449E+03  0.55473450246E+03  0.50400001928E-02 0.  1.
</event>
<event>
 5   0  0.5052959E-04  0.1208001E+04  0.7818609E-02  0.9105882E-01
        1   -1    0    0  501    0  0.00000000000E+00  0.00000000000E+00  0.14747161655E+04  0.14747161655E+04  0.50400001928E-02 0. -1.
       -1   -1    0    0    0  501  0.00000000000E+00  0.00000000000E+00 -0.24738108212E+03  0.24738108217E+03  0.50400001928E-02 0.  1.
    10030    2    1    2    0    0  0.00000000000E+00  0.00000000000E+00  0.12273350834E+04  0.17220972477E+04  0.12080014584E+04 0.  0.
        2    1    3    3  502    0  0.13217917107E+03  0.72344940682E+02 -0.22015611759E+03  0.26678425708E+03  0.25500000920E-02 0.  1.
       -2    1    3    3    0  502 -0.13217917107E+03 -0.72344940682E+02  0.14474912010E+04  0.14553129906E+04  0.25500000920E-02 0. -1.
</event>
<event>
 5   0  0.9070772E-04  0.1193829E+04  0.7818609E-02  0.9118275E-01
        2   -1    0    0  501    0  0.00000000000E+00  0.00000000000E+00  0.52249995141E+03  0.52249995141E+03  0.25500000920E-02 0. -1.
       -2   -1    0    0    0  501  0.00000000000E+00  0.00000000000E+00 -0.68192726108E+03  0.68192726109E+03  0.25500000920E-02 0.  1.
    10030    2    1    2    0    0  0.00000000000E+00  0.00000000000E+00 -0.15942730967E+03  0.12044272125E+04  0.11938290678E+04 0.  0.
        4    1    3    3  502    0 -0.25521193070E+03 -0.33946762459E+03 -0.50288206238E+03  0.65822745254E+03  0.12699999809E+01 0.  1.
       -4    1    3    3    0  502  0.25521193070E+03  0.33946762459E+03  0.34345475271E+03  0.54619975996E+03  0.12699999809E+01 0. -1.
</event>
<event>
 5   0  0.9070772E-04  0.1202934E+04  0.7818609E-02  0.9110292E-01
       -2   -1    0    0    0  501  0.00000000000E+00  0.00000000000E+00  0.14216876811E+04  0.14216876811E+04  0.25500000920E-02 0.  1.
        2   -1    0    0  501    0  0.00000000000E+00  0.00000000000E+00 -0.25446011273E+03  0.25446011275E+03  0.25500000920E-02 0. -1.
    10030    2    1    2    0    0  0.00000000000E+00  0.00000000000E+00  0.11672275684E+04  0.16761477939E+04  0.12029344249E+04 0.  0.
        4    1    3    3  502    0  0.81170939114E+02  0.30351620815E+03  0.12982579080E+04  0.13357342619E+04  0.12699999809E+01 0.  1.
       -4    1    3    3    0  502 -0.81170939114E+02 -0.30351620815E+03 -0.13103033956E+03  0.34041353197E+03  0.12699999809E+01 0. -1.
</event>
<event>
 5   0  0.9145224E-04  0.1206277E+04  0.7818609E-02  0.9107380E-01
        2   -1    0    0  501    0  0.00000000000E+00  0.00000000000E+00  0.86546841485E+03  0.86546841485E+03  0.25500000920E-02 0.  1.
       -2   -1    0    0    0  501  0.00000000000E+00  0.00000000000E+00 -0.42032259321E+03  0.42032259322E+03  0.25500000920E-02 0. -1.
    10030    2    1    2    0    0  0.00000000000E+00  0.00000000000E+00  0.44514582163E+03  0.12857910081E+04  0.12062767982E+04 0.  0.
        5    1    3    3  502    0  0.23909830173E+03 -0.69494215141E+02  0.80810628068E+03  0.84560942207E+03  0.46999998093E+01 0.  1.
       -5    1    3    3    0  502 -0.23909830173E+03  0.69494215141E+02 -0.36296045904E+03  0.44018158600E+03  0.46999998093E+01 0. -1.
</event>
<event>
 5   0  0.5003507E-04  0.1198580E+04  0.7818609E-02  0.9114100E-01
       -1   -1    0    0    0  501  0.00000000000E+00  0.00000000000E+00  0.15281754975E+03  0.15281754983E+03  0.50400001928E-02 0. -1.
        1   -1    0    0  501    0  0.00000000000E+00  0.00000000000E+00 -0.23501783455E+04  0.23501783455E+04  0.50400001928E-02 0.  1.
    10030    2    1    2    0    0  0.00000000000E+00  0.00000000000E+00 -0.21973607958E+04  0.25029958954E+04  0.11985799871E+04 0.  0.
        3    1    3    3  502    0 -0.38599113060E+03 -0.12196105467E+03 -0.17583834976E+03  0.44134202972E+03  0.10100000352E+00 0. -1.
       -3    1    3    3    0  502  0.38599113060E+03  0.12196105467E+03 -0.20215224460E+04  0.20616538656E+04  0.10100000352E+00 0.  1.
</event>
<event>
 5   0  0.5052959E-04  0.1203400E+04  0.7818609E-02  0.9109886E-01
        1   -1    0    0  501    0  0.00000000000E+00  0.00000000000E+00  0.15459758931E+04  0.15459758931E+04  0.50400001928E-02 0. -1.
       -1   -1    0    0    0  501  0.00000000000E+00  0.00000000000E+00 -0.23418413807E+03  0.23418413812E+03  0.50400001928E-02 0.  1.
    10030    2    1    2    0    0  0.00000000000E+00  0.00000000000E+00  0.13117917550E+04  0.17801600312E+04  0.12034002361E+04 0.  0.
        2    1    3    3  502    0 -0.48946046573E+03  0.16838255828E+03  0.11097195448E+04  0.12245005927E+04  0.25500000920E-02 0. -1.
       -2    1    3    3    0  502  0.48946046573E+03 -0.16838255828E+03  0.20207221021E+03  0.55565943850E+03  0.25500000920E-02 0.  1.
</event>
<event>
 5   0  0.9298693E-04  0.1203832E+04  0.7818609E-02  0.9109509E-01
        2   -1    0    0  501    0  0.00000000000E+00  0.00000000000E+00  0.16022271518E+04  0.16022271518E+04  0.25500000920E-02 0. -1.
       -2   -1    0    0    0  501  0.00000000000E+00  0.00000000000E+00 -0.22612447675E+03  0.22612447676E+03  0.25500000920E-02 0.  1.
    10030    2    1    2    0    0  0.00000000000E+00  0.00000000000E+00  0.13761026750E+04  0.18283516285E+04  0.12038318426E+04 0.  0.
        1    1    3    3  502    0 -0.37155827533E+03  0.44669413185E+03  0.92680174757E+03  0.10938705036E+04  0.50400001928E-02 0. -1.
       -1    1    3    3    0  502  0.37155827533E+03 -0.44669413185E+03  0.44930092745E+03  0.73448112489E+03  0.50400001928E-02 0.  1.
</event>
<event>
 5   0  0.5447074E-04  0.1198961E+04  0.7818609E-02  0.9113767E-01
        1   -1    0    0  501    0  0.00000000000E+00  0.00000000000E+00  0.17998021725E+03  0.17998021732E+03  0.50400001928E-02 0.  1.
       -1   -1    0    0    0  501  0.00000000000E+00  0.00000000000E+00 -0.19967571400E+04  0.19967571400E+04  0.50400001928E-02 0. -1.
    10030    2    1    2    0    0  0.00000000000E+00  0.00000000000E+00 -0.18167769227E+04  0.21767373573E+04  0.11989608566E+04 0.  0.
        4    1    3    3  502    0  0.39519904242E+03 -0.23680819922E+03 -0.16047409898E+04  0.16695675080E+04  0.12699999809E+01 0. -1.
       -4    1    3    3    0  502 -0.39519904242E+03  0.23680819922E+03 -0.21203593291E+03  0.50716984935E+03  0.12699999809E+01 0.  1.
</event>
<event>
 5   0  0.9298693E-04  0.1199176E+04  0.7818609E-02  0.9113578E-01
        2   -1    0    0  501    0  0.00000000000E+00  0.00000000000E+00  0.42656739771E+03  0.42656739772E+03  0.25500000920E-02 0. -1.
       -2   -1    0    0    0  501  0.00000000000E+00  0.00000000000E+00 -0.84278776578E+03  0.84278776578E+03  0.25500000920E-02 0.  1.
    10030    2    1    2    0    0  0.00000000000E+00  0.00000000000E+00 -0.41622036807E+03  0.12693551635E+04  0.11991760239E+04 0.  0.
        1    1    3    3  502    0 -0.11329402834E+03 -0.48746504981E+03  0.14143974142E+03  0.52006048890E+03  0.50400001928E-02 0. -1.
       -1    1    3    3    0  502  0.11329402834E+03  0.48746504981E+03 -0.55766010949E+03  0.74929467460E+03  0.50400001928E-02 0.  1.
</event>
<event>
 5   0  0.3453625E-04  0.1190003E+04  0.7818609E-02  0.9121652E-01
       -3   -1    0    0    0  501  0.00000000000E+00  0.00000000000E+00  0.51595239315E+03  0.51595240304E+03  0.10100000352E+00 0.  1.
        3   -1    0    0  501    0  0.00000000000E+00  0.00000000000E+00 -0.68616177098E+03  0.68616177841E+03  0.10100000352E+00 0. -1.
    10030    2    1    2    0    0  0.00000000000E+00  0.00000000000E+00 -0.17020937782E+03  0.12021141814E+04  0.11900030559E+04 0.  0.
        1    1    3    3  502    0 -0.28666306427E+03 -0.14188910498E+03  0.42171711128E+03  0.52929533580E+03  0.50400001928E-02 0.  1.
       -1    1    3    3    0  502  0.28666306427E+03  0.14188910498E+03 -0.59192648910E+03  0.67281884565E+03  0.50400001928E-02 0. -1.
</event>
<event>
 5   0  0.9410666E-04  0.1198923E+04  0.7818609E-02  0.9113800E-01
       -2   -1    0    0    0  501  0.00000000000E+00  0.00000000000E+00  0.55254477991E+03  0.55254477991E+03  0.25500000920E-02 0.  1.
        2   -1    0    0  501    0  0.00000000000E+00  0.00000000000E+00 -0.65036216809E+03  0.65036216809E+03  0.25500000920E-02 0. -1.
    10030    2    1    2    0    0  0.00000000000E+00  0.00000000000E+00 -0.97817388182E+02  0.12029069480E+04  0.11989232186E+04 0.  0.
        2    1    3    3  502    0  0.54563476904E+03  0.24431830121E+03 -0.46544538973E+01  0.59785482974E+03  0.25500000920E-02 0.  1.
       -2    1    3    3    0  502 -0.54563476904E+03 -0.24431830121E+03 -0.93162934285E+02  0.60505211827E+03  0.25500000920E-02 0. -1.
</event>
<event>
 5   0  0.5447074E-04  0.1196595E+04  0.7818609E-02  0.9115842E-01
       -1   -1    0    0    0  501  0.00000000000E+00  0.00000000000E+00  0.41396945756E+03  0.41396945759E+03  0.50400001928E-02 0. -1.
        1   -1    0    0  501    0  0.00000000000E+00  0.00000000000E+00 -0.86470115236E+03  0.86470115238E+03  0.50400001928E-02 0.  1.
    10030    2    1    2    0    0  0.00000000000E+00  0.00000000000E+00 -0.45073169480E+03  0.12786706100E+04  0.11965949474E+04 0.  0.
        4    1    3    3  502    0 -0.26432712106E+03 -0.65018253773E+02 -0.79469731547E+03  0.84002478319E+03  0.12699999809E+01 0.  1.
       -4    1    3    3    0  502  0.26432712106E+03  0.65018253773E+02  0.34396562067E+03  0.43864582678E+03  0.12699999809E+01 0. -1.
</event>
<event>
 5   0  0.9070772E-04  0.1206000E+04  0.7818609E-02  0.9107621E-01
        2   -1    0    0  501    0  0.00000000000E+00  0.00000000000E+00  0.35802921364E+03  0.35802921364E+03  0.25500000920E-02 0.  1.
       -2   -1    0    0    0  501  0.00000000000E+00  0.00000000000E+00 -0.10155839617E+04  0.10155839617E+04  0.25500000920E-02 0. -1.
    10030    2    1    2    0    0  0.00000000000E+00  0.00000000000E+00 -0.65755474808E+03  0.13736131754E+04  0.12059995476E+04 0.  0.
        4    1    3    3  502    0  0.81965350676E+02 -0.64052424607E+02 -0.10052855113E+04  0.10106540476E+04  0.12699999809E+01 0. -1.
       -4    1    3    3    0  502 -0.81965350676E+02  0.64052424607E+02  0.34773076324E+03  0.36295912774E+03  0.12699999809E+01 0.  1.
</event>
<event>
 5   0  0.5003507E-04  0.1197415E+04  0.7818609E-02  0.9115122E-01
        1   -1    0    0  501    0  0.00000000000E+00  0.00000000000E+00  0.16839736636E+04  0.16839736636E+04  0.50400001928E-02 0.  1.
       -1   -1    0    0    0  501  0.00000000000E+00  0.00000000000E+00 -0.21285999596E+03  0.21285999602E+03  0.50400001928E-02 0. -1.
    10030    2    1    2    0    0  0.00000000000E+00  0.00000000000E+00  0.14711136677E+04  0.18968336597E+04  0.11974149278E+04 0.  0.
        3    1    3    3  502    0 -0.50859847695E+03 -0.19618460309E+03  0.11277307541E+04  0.12525723425E+04  0.10100000352E+00 0. -1.
       -3    1    3    3    0  502  0.50859847695E+03  0.19618460309E+03  0.34338291353E+03  0.64426131713E+03  0.10100000352E+00 0.  1.
</event>
<event>
 5   0  0.9145224E-04  0.1201288E+04  0.7818609E-02  0.9111730E-01
        2   -1    0    0  501    0  0.00000000000E+00  0.00000000000E+00  0.90656813997E+03  0.90656813997E+03  0.25500000920E-02 0.  1.
       -2   -1    0    0    0  501  0.00000000000E+00  0.00000000000E+00 -0.39795460531E+03  0.39795460532E+03  0.25500000920E-02 0. -1.
    10030    2    1    2    0    0  0.00000000000E+00  0.00000000000E+00  0.50861353466E+03  0.13045227453E+04  0.12012875864E+04 0.  0.
        5    1    3    3  502    0 -0.43058836016E+03 -0.38633332149E+03  0.42971537604E+03  0.72065051558E+03  0.46999998093E+01 0.  1.
       -5    1    3    3    0  502  0.43058836016E+03  0.38633332149E+03  0.78898158619E+02  0.58387222971E+03  0.46999998093E+01 0. -1.
</event>
<event>
 5   0  0.9145224E-04  0.1197971E+04  0.7818609E-02  0.9114634E-01
        2   -1    0    0  501    0  0.00000000000E+00  0.00000000000E+00  0.69252376722E+03  0.69252376722E+03  0.25500000920E-02 0.  1.
       -2   -1    0    0    0  501  0.00000000000E+00  0.00000000000E+00 -0.51808161464E+03  0.51808161465E+03  0.25500000920E-02 0. -1.
    10030    2    1    2    0    0  0.00000000000E+00  0.00000000000E+00  0.17444215258E+03  0.12106053819E+04  0.11979713377E+04 0.  0.
        5    1    3    3  502    0  0.38569013128E+03  0.40604459772E+03 -0.12746386578E+03  0.57436766951E+03  0.46999998093E+01 0.  1.
       -5    1    3    3    0  502 -0.38569013128E+03 -0.40604459772E+03  0.30190601836E+03  0.63623771236E+03  0.46999998093E+01 0. -1.
</event>
<event>
 5   0  0.9298693E-04  0.1187972E+04  0.7818609E-02  0.9123450E-01
        2   -1    0    0  501    0  0.00000000000E+00  0.00000000000E+00  0.50402521787E+03  0.50402521788E+03  0.25500000920E-02 0. -1.
       -2   -1    0    0    0  501  0.00000000000E+00  0.00000000000E+00 -0.70000359555E+03  0.70000359556E+03  0.25500000920E-02 0.  1.
    10030    2    1    2    0    0  0.00000000000E+00  0.00000000000E+00 -0.19597837768E+03  0.12040288134E+04  0.11879721626E+04 0.  0.
        1    1    3    3  502    0 -0.12116627042E+03  0.13838133629E+03 -0.67041385183E+03  0.69518730719E+03  0.50400001928E-02 0.  1.
       -1    1    3    3    0  502  0.12116627042E+03 -0.13838133629E+03  0.47443547415E+03  0.50884150625E+03  0.50400001928E-02 0. -1.
</event>
<event>
 5   0  0.5052959E-04  0.1198002E+04  0.7818609E-02  0.9114608E-01
       -1   -1    0    0    0  501  0.00000000000E+00  0.00000000000E+00  0.32436152453E+03  0.32436152457E+03  0.50400001928E-02 0.  1.
        1   -1    0    0  501    0  0.00000000000E+00  0.00000000000E+00 -0.11061791970E+04  0.11061791970E+04  0.50400001928E-02 0. -1.
    10030    2    1    2    0    0  0.00000000000E+00  0.00000000000E+00 -0.78181767251E+03  0.14305407216E+04  0.11980016207E+04 0.  0.
        2    1    3    3  502    0 -0.33279795977E+03  0.25248005762E+03 -0.90354239070E+03  0.99543433400E+03  0.25500000920E-02 0. -1.
       -2    1    3    3    0  502  0.33279795977E+03 -0.25248005762E+03  0.12172471819E+03  0.43510638761E+03  0.25500000920E-02 0.  1.
</event>
<event>
 5   0  0.5003507E-04  0.1200192E+04  0.7818609E-02  0.9112689E-01
       -1   -1    0    0    0  501  0.00000000000E+00  0.00000000000E+00  0.47073112472E+03  0.47073112475E+03  0.50400001928E-02 0. -1.
        1   -1    0    0  501    0  0.00000000000E+00  0.00000000000E+00 -0.76501250101E+03  0.76501250103E+03  0.50400001928E-02 0.  1.
    10030    2    1    2    0    0  0.00000000000E+00  0.00000000000E+00 -0.29428137629E+03  0.12357436258E+04  0.12001919764E+04 0.  0.
        3    1    3    3  502    0 -0.17303347590E+03 -0.47105179584E+03  0.19167337065E+03  0.53718625202E+03  0.10100000352E+00 0. -1.
       -3    1    3    3    0  502  0.17303347590E+03  0.47105179584E+03 -0.48595474695E+03  0.69855737375E+03  0.10100000352E+00 0.  1.
</event>
<event>
 5   0  0.5003507E-04  0.1202104E+04  0.7818609E-02  0.9111017E-01
       -1   -1    0    0    0  501  0.00000000000E+00  0.00000000000E+00  0.25702305313E+03  0.25702305318E+03  0.50400001928E-02 0.  1.
        1   -1    0    0  501    0  0.00000000000E+00  0.00000000000E+00 -0.14055693073E+04  0.14055693073E+04  0.50400001928E-02 0. -1.
    10030    2    1    2    0    0  0.00000000000E+00  0.00000000000E+00 -0.11485462542E+04  0.16625923605E+04  0.12021043462E+04 0.  0.
        3    1    3    3  502    0  0.49560640798E+02 -0.13497913809E+03 -0.13814307177E+04  0.13888939711E+04  0.10100000352E+00 0. -1.
       -3    1    3    3    0  502 -0.49560640798E+02  0.13497913809E+03  0.23288446352E+03  0.27369838945E+03  0.10100000352E+00 0.  1.
</event>
<event>
 5   0  0.9070772E-04  0.1202607E+04  0.7818609E-02  0.9110577E-01
        2   -1    0    0  501    0  0.00000000000E+00  0.00000000000E+00  0.13388495214E+04  0.13388495214E+04  0.25500000920E-02 0. -1.
       -2   -1    0    0    0  501  0.00000000000E+00  0.00000000000E+00 -0.27005737997E+03  0.27005737999E+03  0.25500000920E-02 0.  1.
    10030    2    1    2    0    0  0.00000000000E+00  0.00000000000E+00  0.10687921414E+04  0.16089069014E+04  0.12026074903E+04 0.  0.
        4    1    3    3  502    0  0.31579357916E+03  0.93020793362E+02  0.12075694974E+04  0.12516405860E+04  0.12699999809E+01 0. -1.
       -4    1    3    3    0  502 -0.31579357916E+03 -0.93020793362E+02 -0.13877735600E+03  0.35726631534E+03  0.12699999809E+01 0.  1.
</event>
<event>
 5   0  0.5157631E-04  0.1204590E+04  0.7818609E-02  0.9108848E-01
       -1   -1    0    0    0  501  0.00000000000E+00  0.00000000000E+00  0.58445610414E+03  0.58445610416E+03  0.50400001928E-02 0.  1.
        1   -1    0    0  501    0  0.00000000000E+00  0.00000000000E+00 -0.62067883935E+03  0.62067883937E+03  0.50400001928E-02 0. -1.
    10030    2    1    2    0    0  0.00000000000E+00  0.00000000000E+00 -0.36222735207E+02  0.12051349435E+04  0.12045904472E+04 0.  0.
        5    1    3    3  502    0 -0.31587024031E+03 -0.84028377763E+02 -0.52420826228E+03  0.61777922369E+03  0.46999998093E+01 0. -1.
       -5    1    3    3    0  502  0.31587024031E+03  0.84028377763E+02  0.48798552707E+03  0.58735571983E+03  0.46999998093E+01 0.  1.
</event>
<event>
 5   0  0.5447074E-04  0.1200157E+04  0.7818609E-02  0.9112719E-01
       -1   -1    0    0    0  501  0.00000000000E+00  0.00000000000E+00  0.79667900496E+03  0.79667900497E+03  0.50400001928E-02 0. -1.
        1   -1    0    0  501    0  0.00000000000E+00  0.00000000000E+00 -0.45199427974E+03  0.45199427977E+03  0.50400001928E-02 0.  1.
    10030    2    1    2    0    0  0.00000000000E+00  0.00000000000E+00  0.34468472522E+03  0.12486732847E+04  0.12001572448E+04 0.  0.
        4    1    3    3  502    0 -0.52698736868E+03 -0.24975399172E+03  0.25204096304E+02  0.58372048320E+03  0.12699999809E+01 0. -1.
       -4    1    3    3    0  502  0.52698736868E+03  0.24975399172E+03  0.31948062891E+03  0.66495280155E+03  0.12699999809E+01 0.  1.
</event>
<event>
 5   0  0.5052959E-04  0.1207504E+04  0.7818609E-02  0.9106313E-01
        1   -1    0    0  501    0  0.00000000000E+00  0.00000000000E+00  0.99724048103E+03  0.99724048104E+03  0.50400001928E-02 0.  1.
       -1   -1    0    0    0  501  0.00000000000E+00  0.00000000000E+00 -0.36552540098E+03  0.36552540102E+03  0.50400001928E-02 0. -1.
    10030    2    1    2    0    0  0.00000000000E+00  0.00000000000E+00  0.63171508005E+03  0.13627658821E+04  0.12075044128E+04 0.  0.
        2    1    3    3  502    0 -0.24856842846E+03 -0.50555613807E+03  0.56090106225E+03  0.79497375681E+03  0.25500000920E-02 0.  1.
       -2    1    3    3    0  502  0.24856842846E+03  0.50555613807E+03  0.70814017795E+02  0.56779212525E+03  0.25500000920E-02 0. -1.
</event>
<event>
 5   0  0.9050363E-04  0.1194341E+04  0.7818609E-02  0.9117824E-01
       -2   -1    0    0    0  501  0.00000000000E+00  0.00000000000E+00  0.16752517883E+04  0.16752517883E+04  0.25500000920E-02 0.  1.
        2   -1    0    0  501    0  0.00000000000E+00  0.00000000000E+00 -0.21287113005E+03  0.21287113007E+03  0.25500000920E-02 0. -1.
    10030    2    1    2    0    0  0.00000000000E+00  0.00000000000E+00  0.14623806583E+04  0.18881229184E+04  0.11943412265E+04 0.  0.
        3    1    3    3  502    0  0.44739513388E+03  0.39527848983E+03  0.75383852785E+03  0.96160284245E+03  0.10100000352E+00 0.  1.
       -3    1    3    3    0  502 -0.44739513388E+03 -0.39527848983E+03  0.70854213042E+03  0.92652007594E+03  0.10100000352E+00 0. -1.
</event>
<event>
 5   0  0.9070772E-04  0.1198509E+04  0.7818609E-02  0.9114162E-01
       -2   -1    0    0    0  501  0.00000000000E+00  0.00000000000E+00  0.54720171381E+03  0.54720171382E+03  0.25500000920E-02 0.  1.
        2   -1    0    0  501    0  0.00000000000E+00  0.00000000000E+00 -0.65625902767E+03  0.65625902768E+03  0.25500000920E-02 0. -1.
    10030    2    1    2    0    0  0.00000000000E+00  0.00000000000E+00 -0.10905731386E+03  0.12034607415E+04  0.11985091817E+04 0.  0.
        4    1    3    3  502    0  0.11230715700E+03  0.48633270545E+03  0.27846175610E+03  0.57155486212E+03  0.12699999809E+01 0.  1.
       -4    1    3    3    0  502 -0.11230715700E+03 -0.48633270545E+03 -0.38751906996E+03  0.63190587937E+03  0.12699999809E+01 0. -1.
</event>
<event>
 5   0  0.9050363E-04  0.1200796E+04  0.7818609E-02  0.9112160E-01
       -2   -1    0    0    0  501  0.00000000000E+00  0.00000000000E+00  0.68162316508E+03  0.68162316508E+03  0.25500000920E-02 0.  1.
        2   -1    0    0  501    0  0.00000000000E+00  0.00000000000E+00 -0.52885207730E+03  0.52885207730E+03  0.25500000920E-02 0. -1.
    10030    2    1    2    0    0  0.00000000000E+00  0.00000000000E+00  0.15277108778E+03  0.12104752424E+04  0.12007961139E+04 0.  0.
        3    1    3    3  502    0  0.87718962415E+02 -0.36220789905E+02 -0.52124329085E+03  0.52981236343E+03  0.10100000352E+00 0. -1.
       -3    1    3    3    0  502 -0.87718962415E+02  0.36220789905E+02  0.67401437863E+03  0.68066287896E+03  0.10100000352E+00 0.  1.
</event>
<event>
 5   0  0.9050363E-04  0.1202745E+04  0.7818609E-02  0.9110457E-01
       -2   -1    0    0    0  501  0.00000000000E+00  0.00000000000E+00  0.33233801037E+03  0.33233801038E+03  0.25500000920E-02 0. -1.
        2   -1    0    0  501    0  0.00000000000E+00  0.00000000000E+00 -0.10881961638E+04  0.10881961638E+04  0.25500000920E-02 0.  1.
    10030    2    1    2    0    0  0.00000000000E+00  0.00000000000E+00 -0.75585815344E+03  0.14205341742E+04  0.12027451068E+04 0.  0.
        3    1    3    3  502    0  0.58231323034E+03  0.45616741905E+02 -0.20890981622E+03  0.62033290005E+03  0.10100000352E+00 0.  1.
       -3    1    3    3    0  502 -0.58231323034E+03 -0.45616741905E+02 -0.54694833722E+03  0.80020127416E+03  0.10100000352E+00 0. -1.
</event>
<event>
 5   0  0.5157631E-04  0.1200824E+04  0.7818609E-02  0.9112136E-01
       -1   -1    0    0    0  501  0.00000000000E+00  0.00000000000E+00  0.93075597220E+03  0.93075597221E+03  0.50400001928E-02 0. -1.
        1   -1    0    0  501    0  0.00000000000E+00  0.00000000000E+00 -0.38731377417E+03  0.38731377421E+03  0.50400001928E-02 0.  1.
    10030    2    1    2    0    0  0.00000000000E+00  0.00000000000E+00  0.54344219803E+03  0.13180697464E+04  0.12008240645E+04 0.  0.
        5    1    3    3  502    0  0.43379997507E+03  0.38051334092E+03  0.89699482362E+02  0.58398707873E+03  0.46999998093E+01 0. -1.
       -5    1    3    3    0  502 -0.43379997507E+03 -0.38051334092E+03  0.45374271566E+03  0.73408266769E+03  0.46999998093E+01 0.  1.
</event>
<event>
 5   0  0.5447074E-04  0.1201367E+04  0.7818609E-02  0.9111661E-01
        1   -1    0    0  501    0  0.00000000000E+00  0.00000000000E+00  0.30240085784E+03  0.30240085788E+03  0.50400001928E-02 0. -1.
       -1   -1    0    0    0  501  0.00000000000E+00  0.00000000000E+00 -0.11931868034E+04  0.11931868034E+04  0.50400001928E-02 0.  1.
    10030    2    1    2    0    0  0.00000000000E+00  0.00000000000E+00 -0.89078594557E+03  0.14955876613E+04  0.12013670762E+04 0.  0.
        4    1    3    3  502    0  0.12296039561E+03 -0.32253745318E+03 -0.10573867536E+04  0.11123030285E+04  0.12699999809E+01 0.  1.
       -4    1    3    3    0  502 -0.12296039561E+03  0.32253745318E+03  0.16660080804E+03  0.38328463280E+03  0.12699999809E+01 0. -1.
</event>
<event>
 5   0  0.5157631E-04  0.1203656E+04  0.7818609E-02  0.9109663E-01
        1   -1    0    0  501    0  0.00000000000E+00  0.00000000000E+00  0.12043436159E+04  0.12043436159E+04  0.50400001928E-02 0.  1.
       -1   -1    0    0    0  501  0.00000000000E+00  0.00000000000E+00 -0.30074216312E+03  0.30074216316E+03  0.50400001928E-02 0. -1.
    10030    2    1    2    0    0  0.00000000000E+00  0.00000000000E+00  0.90360145278E+03  0.15050857791E+04  0.12036559379E+04 0.  0.
        5    1    3    3  502    0  0.38252994627E+03 -0.28057536973E+03 -0.11234707739E+02  0.47455242761E+03  0.46999998093E+01 0. -1.
       -5    1    3    3    0  502 -0.38252994627E+03  0.28057536973E+03  0.91483616052E+03  0.10305333515E+04  0.46999998093E+01 0.  1.
</event>
<event>
 5   0  0.5001586E-04  0.1185591E+04  0.7818609E-02  0.9125563E-01
        1   -1    0    0  501    0  0.00000000000E+00  0.00000000000E+00  0.66973065339E+03  0.66973065341E+03  0.50400001928E-02 0. -1.
       -1   -1    0    0    0  501  0.00000000000E+00  0.00000000000E+00 -0.52469854530E+03  0.52469854532E+03  0.50400001928E-02 0.  1.
    10030    2    1    2    0    0  0.00000000000E+00  0.00000000000E+00  0.14503210810E+03  0.11944291987E+04  0.11855913286E+04 0.  0.
        1    1    3    3  502    0 -0.32706843357E+03 -0.49285083508E+03  0.33096464411E+02  0.59242812379E+03  0.50400001928E-02 0. -1.
       -1    1    3    3    0  502  0.32706843357E+03  0.49285083508E+03  0.11193564369E+03  0.60200107494E+03  0.50400001928E-02 0.  1.
</event>
<event>
 5   0  0.9070772E-04  0.1202738E+04  0.7818609E-02  0.9110463E-01
        2   -1    0    0  501    0  0.00000000000E+00  0.00000000000E+00  0.96645237982E+03  0.96645237983E+03  0.25500000920E-02 0.  1.
       -2   -1    0    0    0  501  0.00000000000E+00  0.00000000000E+00 -0.37419809470E+03  0.37419809471E+03  0.25500000920E-02 0. -1.
    10030    2    1    2    0    0  0.00000000000E+00  0.00000000000E+00  0.59225428512E+03  0.13406504745E+04  0.12027379418E+04 0.  0.
        4    1    3    3  502    0 -0.41692213882E+03 -0.11739517073E+03  0.76114085652E+03  0.87575265475E+03  0.12699999809E+01 0.  1.
       -4    1    3    3    0  502  0.41692213882E+03  0.11739517073E+03 -0.16888657140E+03  0.46489781979E+03  0.12699999809E+01 0. -1.
</event>
<event>
 5   0  0.9298693E-04  0.1196576E+04  0.7818609E-02  0.9115859E-01
        2   -1    0    0  501    0  0.00000000000E+00  0.00000000000E+00  0.11276453149E+04  0.11276453149E+04  0.25500000920E-02 0.  1.
       -2   -1    0    0    0  501  0.00000000000E+00  0.00000000000E+00 -0.31743014257E+03  0.31743014258E+03  0.25500000920E-02 0. -1.
    10030    2    1    2    0    0  0.00000000000E+00  0.00000000000E+00  0.81021517236E+03  0.14450754575E+04  0.11965761373E+04 0.  0.
        1    1    3    3  502    0  0.24924184124E+03  0.41837875498E+03  0.82482703076E+03  0.95786319939E+03  0.50400001928E-02 0.  1.
       -1    1    3    3    0  502 -0.24924184124E+03 -0.41837875498E+03 -0.14611858406E+02  0.48721225813E+03  0.50400001928E-02 0. -1.
</event>
<event>
 5   0  0.9070772E-04  0.1195559E+04  0.7818609E-02  0.9116752E-01
       -2   -1    0    0    0  501  0.00000000000E+00  0.00000000000E+00  0.22108561525E+03  0.22108561526E+03  0.25500000920E-02 0. -1.
        2   -1    0    0  501    0  0.00000000000E+00  0.00000000000E+00 -0.16162989815E+04  0.16162989815E+04  0.25500000920E-02 0.  1.
    10030    2    1    2    0    0  0.00000000000E+00  0.00000000000E+00 -0.13952133663E+04  0.18373845968E+04  0.11955592077E+04 0.  0.
        4    1    3    3  502    0 -0.37492575078E+03  0.12062644302E+03 -0.65085329540E+01  0.39390865852E+03  0.12699999809E+01 0. -1.
       -4    1    3    3    0  502  0.37492575078E+03 -0.12062644302E+03 -0.13887048333E+04  0.14434759382E+04  0.12699999809E+01 0.  1.
</event>
<event>
 5   0  0.5003507E-04  0.1192132E+04  0.7818609E-02  0.9119771E-01
        1   -1    0    0  501    0  0.00000000000E+00  0.00000000000E+00  0.26946733619E+03  0.26946733624E+03  0.50400001928E-02 0. -1.
       -1   -1    0    0    0  501  0.00000000000E+00  0.00000000000E+00 -0.13185078241E+04  0.13185078241E+04  0.50400001928E-02 0.  1.
    10030    2    1    2    0    0  0.00000000000E+00  0.00000000000E+00 -0.10490404879E+04  0.15879751603E+04  0.11921321926E+04 0.  0.
        3    1    3    3  502    0 -0.56224307500E+03  0.12597901943E+03 -0.72787790639E+03  0.92832873786E+03  0.10100000352E+00 0. -1.
       -3    1    3    3    0  502  0.56224307500E+03 -0.12597901943E+03 -0.32116258149E+03  0.65964642247E+03  0.10100000352E+00 0.  1.
</event>
<event>
 5   0  0.9050363E-04  0.1202228E+04  0.7818609E-02  0.9110909E-01
        2   -1    0    0  501    0  0.00000000000E+00  0.00000000000E+00  0.67241105843E+03  0.67241105844E+03  0.25500000920E-02 0.  1.
       -2   -1    0    0    0  501  0.00000000000E+00  0.00000000000E+00 -0.53737680306E+03  0.53737680307E+03  0.25500000920E-02 0. -1.
    10030    2    1    2    0    0  0.00000000000E+00  0.00000000000E+00  0.13503425537E+03  0.12097878615E+04  0.12022281064E+04 0.  0.
        3    1    3    3  502    0  0.11317660324E+03 -0.50910039188E+03  0.36830461258E+03  0.63846726649E+03  0.10100000352E+00 0.  1.
       -3    1    3    3    0  502 -0.11317660324E+03  0.50910039188E+03 -0.23327035721E+03  0.57132059501E+03  0.10100000352E+00 0. -1.
</event>
<event>
 5   0  0.9145224E-04  0.1194941E+04  0.7818609E-02  0.9117296E-01
        2   -1    0    0  501    0  0.00000000000E+00  0.00000000000E+00  0.54103050269E+03  0.54103050269E+03  0.25500000920E-02 0. -1.
       -2   -1    0    0    0  501  0.00000000000E+00  0.00000000000E+00 -0.65979852669E+03  0.65979852670E+03  0.25500000920E-02 0.  1.
    10030    2    1    2    0    0  0.00000000000E+00  0.00000000000E+00 -0.11876802400E+03  0.12008290294E+04  0.11949412179E+04 0.  0.
        5    1    3    3  502    0  0.48250043099E+02 -0.24470502486E+03 -0.60495904477E+03  0.65437462642E+03  0.46999998093E+01 0.  1.
       -5    1    3    3    0  502 -0.48250043099E+02  0.24470502486E+03  0.48619102077E+03  0.54645440297E+03  0.46999998093E+01 0. -1.
</event>
<event>
 5   0  0.9298693E-04  0.1192276E+04  0.7818609E-02  0.9119644E-01
       -2   -1    0    0    0  501  0.00000000000E+00  0.00000000000E+00  0.40606867906E+03  0.40606867906E+03  0.25500000920E-02 0. -1.
        2   -1    0    0  501    0  0.00000000000E+00  0.00000000000E+00 -0.87517376147E+03  0.87517376147E+03  0.25500000920E-02 0.  1.
    10030    2    1    2    0    0  0.00000000000E+00  0.00000000000E+00 -0.46910508241E+03  0.12812424405E+04  0.11922762319E+04 0.  0.
        1    1    3    3  502    0 -0.46187066281E+02  0.24388366445E+03 -0.81700005518E+03  0.85387445041E+03  0.50400001928E-02 0.  1.
       -1    1    3    3    0  502  0.46187066281E+02 -0.24388366445E+03  0.34789497277E+03  0.42736799012E+03  0.50400001928E-02 0. -1.
</event>
<event>
 5   0  0.5003507E-04  0.1204319E+04  0.7818609E-02  0.9109084E-01
        1   -1    0    0  501    0  0.00000000000E+00  0.00000000000E+00  0.12725094658E+04  0.12725094658E+04  0.50400001928E-02 0.  1.
       -1   -1    0    0    0  501  0.00000000000E+00  0.00000000000E+00 -0.28494590378E+03  0.28494590383E+03  0.50400001928E-02 0. -1.
    10030    2    1    2    0    0  0.00000000000E+00  0.00000000000E+00  0.98756356199E+03  0.15574553696E+04  0.12043194922E+04 0.  0.
        3    1    3    3  502    0  0.93585654195E+02  0.38718962076E+03 -0.90209315557E+02  0.40842601277E+03  0.10100000352E+00 0. -1.
       -3    1    3    3    0  502 -0.93585654195E+02 -0.38718962076E+03  0.10777728775E+04  0.11490293568E+04  0.10100000352E+00 0.  1.
</event>
<event>
 5   0  0.5447074E-04  0.1202063E+04  0.7818609E-02  0.9111052E-01
       -1   -1    0    0    0  501  0.00000000000E+00  0.00000000000E+00  0.30677406378E+03  0.30677406382E+03  0.50400001928E-02 0.  1.
        1   -1    0    0  501    0  0.00000000000E+00  0.00000000000E+00 -0.11775411357E+04  0.11775411357E+04  0.50400001928E-02 0. -1.
    10030    2    1    2    0    0  0.00000000000E+00  0.00000000000E+00 -0.87076707191E+03  0.14843151995E+04  0.12020633586E+04 0.  0.
        4    1    3    3  502    0  0.98514655000E+02  0.26921900196E+03  0.21690910679E+03  0.35949295094E+03  0.12699999809E+01 0.  1.
       -4    1    3    3    0  502 -0.98514655000E+02 -0.26921900196E+03 -0.10876761787E+04  0.11248222486E+04  0.12699999809E+01 0. -1.
</event>
<event>
 5   0  0.5003507E-04  0.1198104E+04  0.7818609E-02  0.9114518E-01
        1   -1    0    0  501    0  0.00000000000E+00  0.00000000000E+00  0.37634980593E+03  0.37634980596E+03  0.50400001928E-02 0.  1.
       -1   -1    0    0    0  501  0.00000000000E+00  0.00000000000E+00 -0.95353646613E+03  0.95353646614E+03  0.50400001928E-02 0. -1.
    10030    2    1    2    0    0  0.00000000000E+00  0.00000000000E+00 -0.57718666020E+03  0.13298862721E+04  0.11981039421E+04 0.  0.
        3    1    3    3  502    0 -0.14296777295E+03 -0.48938518115E+02  0.35484667155E+03  0.38568242528E+03  0.10100000352E+00 0.  1.
       -3    1    3    3    0  502  0.14296777295E+03  0.48938518115E+02 -0.93203333175E+03  0.94420384683E+03  0.10100000352E+00 0. -1.
</event>
<event>
 5   0  0.9298693E-04  0.1199291E+04  0.7818609E-02  0.9113477E-01
       -2   -1    0    0    0  501  0.00000000000E+00  0.00000000000E+00  0.75964684718E+03  0.75964684719E+03  0.25500000920E-02 0. -1.
        2   -1    0    0  501    0  0.00000000000E+00  0.00000000000E+00 -0.47334479474E+03  0.47334479475E+03  0.25500000920E-02 0.  1.
    10030    2    1    2    0    0  0.00000000000E+00  0.00000000000E+00  0.28630205244E+03  0.12329916419E+04  0.11992912590E+04 0.  0.
        1    1    3    3  502    0  0.17952248174E+03 -0.95553178609E+01  0.73128840158E+03  0.75306198407E+03  0.50400001928E-02 0. -1.
       -1    1    3    3    0  502 -0.17952248174E+03  0.95553178609E+01 -0.44498634913E+03  0.47992965786E+03  0.50400001928E-02 0.  1.
</event>
<event>
 5   0  0.9145224E-04  0.1209772E+04  0.7818609E-02  0.9104346E-01
       -2   -1    0    0    0  501  0.00000000000E+00  0.00000000000E+00  0.27119202467E+03  0.27119202468E+03  0.25500000920E-02 0. -1.
        2   -1    0    0  501    0  0.00000000000E+00  0.00000000000E+00 -0.13491806526E+04  0.13491806526E+04  0.25500000920E-02 0.  1.
    10030    2    1    2    0    0  0.00000000000E+00  0.00000000000E+00 -0.10779886279E+04  0.16203726773E+04  0.12097719336E+04 0.  0.
        5    1    3    3  502    0  0.57107912438E+03 -0.17251143132E+03 -0.67275628095E+03  0.89917443458E+03  0.46999998093E+01 0. -1.
       -5    1    3    3    0  502 -0.57107912438E+03  0.17251143132E+03 -0.40523234696E+03  0.72119824269E+03  0.46999998093E+01 0.  1.
</event>
<event>
 5   0  0.9410666E-04  0.1201424E+04  0.7818609E-02  0.9111611E-01
        2   -1    0    0  501    0  0.00000000000E+00  0.00000000000E+00  0.29117435190E+03  0.29117435191E+03  0.25500000920E-02 0. -1.
       -2   -1    0    0    0  501  0.00000000000E+00  0.00000000000E+00 -0.12393095292E+04  0.12393095292E+04  0.25500000920E-02 0.  1.
    10030    2    1    2    0    0  0.00000000000E+00  0.00000000000E+00 -0.94813517730E+03  0.15304838811E+04  0.12014244029E+04 0.  0.
        2    1    3    3  502    0 -0.41052350094E+03 -0.19969737513E+03  0.23315630767E+02  0.45711290192E+03  0.25500000920E-02 0. -1.
       -2    1    3    3    0  502  0.41052350094E+03  0.19969737513E+03 -0.97145080807E+03  0.10733709792E+04  0.25500000920E-02 0.  1.
</event>
<event>
 5   0  0.9050363E-04  0.1199776E+04  0.7818609E-02  0.9113052E-01
        2   -1    0    0  501    0  0.00000000000E+00  0.00000000000E+00  0.40749452245E+03  0.40749452246E+03  0.25500000920E-02 0. -1.
       -2   -1    0    0    0  501  0.00000000000E+00  0.00000000000E+00 -0.88311816055E+03  0.88311816056E+03  0.25500000920E-02 0.  1.
    10030    2    1    2    0    0  0.00000000000E+00  0.00000000000E+00 -0.47562363811E+03  0.12906126830E+04  0.11997763343E+04 0.  0.
        3    1    3    3  502    0  0.42867186611E+03 -0.95417066117E+02 -0.67741035405E+03  0.80730959568E+03  0.10100000352E+00 0.  1.
       -3    1    3    3    0  502 -0.42867186611E+03  0.95417066117E+02  0.20178671594E+03  0.48330308734E+03  0.10100000352E+00 0. -1.
</event>
<event>
 5   0  0.9410666E-04  0.1199373E+04  0.7818609E-02  0.9113405E-01
       -2   -1    0    0    0  501  0.00000000000E+00  0.00000000000E+00  0.34380073034E+03  0.34380073035E+03  0.25500000920E-02 0.  1.
        2   -1    0    0  501    0  0.00000000000E+00  0.00000000000E+00 -0.10460248662E+04  0.10460248662E+04  0.25500000920E-02 0. -1.
    10030    2    1    2    0    0  0.00000000000E+00  0.00000000000E+00 -0.70222413581E+03  0.13898255965E+04  0.11993733580E+04 0.  0.
        2    1    3    3  502    0 -0.10312318232E+03 -0.43336672052E+03 -0.81633973700E+03  0.92997401651E+03  0.25500000920E-02 0. -1.
       -2    1    3    3    0  502  0.10312318232E+03  0.43336672052E+03  0.11411560119E+03  0.45985158000E+03  0.25500000920E-02 0.  1.
</event>
<event>
 5   0  0.9050363E-04  0.1197051E+04  0.7818609E-02  0.9115442E-01
       -2   -1    0    0    0  501  0.00000000000E+00  0.00000000000E+00  0.25010510503E+03  0.25010510504E+03  0.25500000920E-02 0. -1.
        2   -1    0    0  501    0  0.00000000000E+00  0.00000000000E+00 -0.14323293891E+04  0.14323293891E+04  0.25500000920E-02 0.  1.
    10030    2    1    2    0    0  0.00000000000E+00  0.00000000000E+00 -0.11822242841E+04  0.16824344941E+04  0.11970511974E+04 0.  0.
        3    1    3    3  502    0 -0.54707189806E+03 -0.22886860378E+03 -0.70498556700E+03  0.92123458431E+03  0.10100000352E+00 0. -1.
       -3    1    3    3    0  502  0.54707189806E+03  0.22886860378E+03 -0.47723871706E+03  0.76119990982E+03  0.10100000352E+00 0.  1.
</event>
<event>
 5   0  0.9050363E-04  0.1202040E+04  0.7818609E-02  0.9111073E-01
        2   -1    0    0  501    0  0.00000000000E+00  0.00000000000E+00  0.69931123924E+03  0.69931123924E+03  0.25500000920E-02 0. -1.
       -2   -1    0    0    0  501  0.00000000000E+00  0.00000000000E+00 -0.51654397506E+03  0.51654397506E+03  0.25500000920E-02 0.  1.
    10030    2    1    2    0    0  0.00000000000E+00  0.00000000000E+00  0.18276726418E+03  0.12158552143E+04  0.12020399450E+04 0.  0.
        3    1    3    3  502    0  0.17368392813E+03 -0.56255463536E+03  0.21356586485E+03  0.62629403117E+03  0.10100000352E+00 0. -1.
       -3    1    3    3    0  502 -0.17368392813E+03  0.56255463536E+03 -0.30798600671E+02  0.58956118313E+03  0.10100000352E+00 0.  1.
</event>
<event>
 5   0  0.9070772E-04  0.1202247E+04  0.7818609E-02  0.9110892E-01
       -2   -1    0    0    0  501  0.00000000000E+00  0.00000000000E+00  0.49612831362E+03  0.49612831363E+03  0.25500000920E-02 0. -1.
        2   -1    0    0  501    0  0.00000000000E+00  0.00000000000E+00 -0.72833847698E+03  0.72833847698E+03  0.25500000920E-02 0.  1.
    10030    2    1    2    0    0  0.00000000000E+00  0.00000000000E+00 -0.23221016336E+03  0.12244667906E+04  0.12022467972E+04 0.  0.
        4    1    3    3  502    0  0.27618466308E+03 -0.49199721849E+03 -0.32732288007E+03  0.65228913209E+03  0.12699999809E+01 0.  1.
       -4    1    3    3    0  502 -0.27618466308E+03  0.49199721849E+03  0.95112716708E+02  0.57217765852E+03  0.12699999809E+01 0. -1.
</event>
<event>
 5   0  0.5157631E-04  0.1198378E+04  0.7818609E-02  0.9114278E-01
       -1   -1    0    0    0  501  0.00000000000E+00  0.00000000000E+00  0.48874053892E+03  0.48874053895E+03  0.50400001928E-02 0.  1.
        1   -1    0    0  501    0  0.00000000000E+00  0.00000000000E+00 -0.73459674936E+03  0.73459674938E+03  0.50400001928E-02 0. -1.
    10030    2    1    2    0    0  0.00000000000E+00  0.00000000000E+00 -0.24585621044E+03  0.12233372883E+04  0.11983775886E+04 0.  0.
        5    1    3    3  502    0 -0.30428881836E+03  0.38793800306E+03  0.22462975665E+03  0.54181933961E+03  0.46999998093E+01 0.  1.
       -5    1    3    3    0  502  0.30428881836E+03 -0.38793800306E+03 -0.47048596709E+03  0.68151794872E+03  0.46999998093E+01 0. -1.
</event>
<event>
 5   0  0.5052959E-04  0.1193140E+04  0.7818609E-02  0.9118883E-01
        1   -1    0    0  501    0  0.00000000000E+00  0.00000000000E+00  0.67886598681E+03  0.67886598683E+03  0.50400001928E-02 0.  1.
       -1   -1    0    0    0  501  0.00000000000E+00  0.00000000000E+00 -0.52425021524E+03  0.52425021526E+03  0.50400001928E-02 0. -1.
    10030    2    1    2    0    0  0.00000000000E+00  0.00000000000E+00  0.15461577157E+03  0.12031162021E+04  0.11931397902E+04 0.  0.
        2    1    3    3  502    0 -0.15953431714E+03 -0.25087874984E+03  0.59884068350E+03  0.66858171504E+03  0.25500000920E-02 0.  1.
       -2    1    3    3    0  502  0.15953431714E+03  0.25087874984E+03 -0.44422491193E+03  0.53453448705E+03  0.25500000920E-02 0. -1.
</event>
<event>
 5   0  0.5052959E-04  0.1202083E+04  0.7818609E-02  0.9111035E-01
       -1   -1    0    0    0  501  0.00000000000E+00  0.00000000000E+00  0.64913796780E+03  0.64913796782E+03  0.50400001928E-02 0.  1.
        1   -1    0    0  501    0  0.00000000000E+00  0.00000000000E+00 -0.55650886749E+03  0.55650886751E+03  0.50400001928E-02 0. -1.
    10030    2    1    2    0    0  0.00000000000E+00  0.00000000000E+00  0.92629100311E+02  0.12056468353E+04  0.12020832506E+04 0.  0.
        2    1    3    3  502    0 -0.58011087355E+03 -0.42969528339E+01 -0.11132628553E+03  0.59071196981E+03  0.25500000920E-02 0. -1.
       -2    1    3    3    0  502  0.58011087355E+03  0.42969528339E+01  0.20395538584E+03  0.61493486552E+03  0.25500000920E-02 0.  1.
</event>
<event>
 5   0  0.5003507E-04  0.1201026E+04  0.7818609E-02  0.9111959E-01
        1   -1    0    0  501    0  0.00000000000E+00  0.00000000000E+00  0.72912542756E+03  0.72912542757E+03  0.50400001928E-02 0.  1.
       -1   -1    0    0    0  501  0.00000000000E+00  0.00000000000E+00 -0.49458698821E+03  0.49458698824E+03  0.50400001928E-02 0. -1.
    10030    2    1    2    0    0  0.00000000000E+00  0.00000000000E+00  0.23453843935E+03  0.12237124158E+04  0.12010261434E+04 0.  0.
        3    1    3    3  502    0  0.23807041481E+03  0.16471917221E+03 -0.41879233775E+03  0.50911389734E+03  0.10100000352E+00 0. -1.
       -3    1    3    3    0  502 -0.23807041481E+03 -0.16471917221E+03  0.65333077710E+03  0.71459851847E+03  0.10100000352E+00 0.  1.
</event>
<event>
 5   0  0.9298693E-04  0.1201639E+04  0.7818609E-02  0.9111423E-01
       -2   -1    0    0    0  501  0.00000000000E+00  0.00000000000E+00  0.95681588919E+03  0.95681588919E+03  0.25500000920E-02 0.  1.
        2   -1    0    0  501    0  0.00000000000E+00  0.00000000000E+00 -0.37727624339E+03  0.37727624340E+03  0.25500000920E-02 0. -1.
    10030    2    1    2    0    0  0.00000000000E+00  0.00000000000E+00  0.57953964580E+03  0.13340921326E+04  0.12016387216E+04 0.  0.
        1    1    3    3  502    0  0.41838480488E+02 -0.55911482074E+03  0.50042813747E+02  0.56290685238E+03  0.50400001928E-02 0. -1.
       -1    1    3    3    0  502 -0.41838480488E+02  0.55911482074E+03  0.52949683205E+03  0.77118528021E+03  0.50400001928E-02 0.  1.
</event>
<event>
 5   0  0.5003507E-04  0.1197520E+04  0.7818609E-02  0.9115030E-01
        1   -1    0    0  501    0  0.00000000000E+00  0.00000000000E+00  0.14742545604E+04  0.14742545604E+04  0.50400001928E-02 0. -1.
       -1   -1    0    0    0  501  0.00000000000E+00  0.00000000000E+00 -0.24318286540E+03  0.24318286545E+03  0.50400001928E-02 0.  1.
    10030    2    1    2    0    0  0.00000000000E+00  0.00000000000E+00  0.12310716950E+04  0.17174374259E+04  0.11975198510E+04 0.  0.
        3    1    3    3  502    0  0.18321381368E+03 -0.36298444885E+03 -0.14824308023E+02  0.40687194784E+03  0.10100000352E+00 0. -1.
       -3    1    3    3    0  502 -0.18321381368E+03  0.36298444885E+03  0.12458960030E+04  0.13105654780E+04  0.10100000352E+00 0.  1.
</event>
<event>
 5   0  0.9050363E-04  0.1202531E+04  0.7818609E-02  0.9110644E-01
       -2   -1    0    0    0  501  0.00000000000E+00  0.00000000000E+00  0.31848255826E+03  0.31848255827E+03  0.25500000920E-02 0. -1.
        2   -1    0    0  501    0  0.00000000000E+00  0.00000000000E+00 -0.11351334883E+04  0.11351334883E+04  0.25500000920E-02 0.  1.
    10030    2    1    2    0    0  0.00000000000E+00  0.00000000000E+00 -0.81665093005E+03  0.14536160466E+04  0.12025310264E+04 0.  0.
        3    1    3    3  502    0  0.99984964304E+02  0.34682505388E+03 -0.98959928466E+03  0.10533714281E+04  0.10100000352E+00 0.  1.
       -3    1    3    3    0  502 -0.99984964304E+02 -0.34682505388E+03  0.17294835461E+03  0.40024461852E+03  0.10100000352E+00 0. -1.
</event>
<event>
 5   0  0.5001586E-04  0.1218817E+04  0.7818609E-02  0.9096544E-01
       -1   -1    0    0    0  501  0.00000000000E+00  0.00000000000E+00  0.23631367726E+03  0.23631367731E+03  0.50400001928E-02 0.  1.
        1   -1    0    0  501    0  0.00000000000E+00  0.00000000000E+00 -0.15715498203E+04  0.15715498203E+04  0.50400001928E-02 0. -1.
    10030    2    1    2    0    0  0.00000000000E+00  0.00000000000E+00 -0.13352361431E+04  0.18078634976E+04  0.12188169954E+04 0.  0.
        1    1    3    3  502    0  0.36409967942E+01 -0.14697047871E+03 -0.15448519487E+04  0.15518315378E+04  0.50400001928E-02 0. -1.
       -1    1    3    3    0  502 -0.36409967942E+01  0.14697047871E+03  0.20961580560E+03  0.25603195982E+03  0.50400001928E-02 0.  1.
</event>
<event>
 5   0  0.9070772E-04  0.1200709E+04  0.7818609E-02  0.9112236E-01
       -2   -1    0    0    0  501  0.00000000000E+00  0.00000000000E+00  0.20528504915E+03  0.20528504917E+03  0.25500000920E-02 0.  1.
        2   -1    0    0  501    0  0.00000000000E+00  0.00000000000E+00 -0.17557322527E+04  0.17557322527E+04  0.25500000920E-02 0. -1.
    10030    2    1    2    0    0  0.00000000000E+00  0.00000000000E+00 -0.15504472035E+04  0.19610173018E+04  0.12007090935E+04 0.  0.
        4    1    3    3  502    0  0.21641302688E+03 -0.41226056123E+03 -0.13941900575E+04  0.14698846547E+04  0.12699999809E+01 0. -1.
       -4    1    3    3    0  502 -0.21641302688E+03  0.41226056123E+03 -0.15625714596E+03  0.49113264717E+03  0.12699999809E+01 0.  1.
</event>
<event>
 5   0  0.9070772E-04  0.1202780E+04  0.7818609E-02  0.9110427E-01
        2   -1    0    0  501    0  0.00000000000E+00  0.00000000000E+00  0.26067486829E+04  0.26067486829E+04  0.25500000920E-02 0. -1.
       -2   -1    0    0    0  501  0.00000000000E+00  0.00000000000E+00 -0.13874370894E+03  0.13874370896E+03  0.25500000920E-02 0.  1.
    10030    2    1    2    0    0  0.00000000000E+00  0.00000000000E+00  0.24680049740E+04  0.27454923918E+04  0.12027800806E+04 0.  0.
        4    1    3    3  502    0  0.49108562991E+03 -0.22670430453E+03  0.63393578100E+03  0.83332834161E+03  0.12699999809E+01 0.  1.
       -4    1    3    3    0  502 -0.49108562991E+03  0.22670430453E+03  0.18340691929E+04  0.19121640502E+04  0.12699999809E+01 0. -1.
</event>
<event>
 5   0  0.5157631E-04  0.1196413E+04  0.7818609E-02  0.9116002E-01
       -1   -1    0    0    0  501  0.00000000000E+00  0.00000000000E+00  0.38128791266E+03  0.38128791270E+03  0.50400001928E-02 0. -1.
        1   -1    0    0  501    0  0.00000000000E+00  0.00000000000E+00 -0.93853166218E+03  0.93853166219E+03  0.50400001928E-02 0.  1.
    10030    2    1    2    0    0  0.00000000000E+00  0.00000000000E+00 -0.55724374952E+03  0.13198195749E+04  0.11964126019E+04 0.  0.
        5    1    3    3  502    0 -0.36952507124E+03 -0.46882105265E+03 -0.32115719957E+03  0.67786871481E+03  0.46999998093E+01 0.  1.
       -5    1    3    3    0  502  0.36952507124E+03  0.46882105265E+03 -0.23608654994E+03  0.64195086007E+03  0.46999998093E+01 0. -1.
</event>
<event>
 5   0  0.5003507E-04  0.1181032E+04  0.7818609E-02  0.9129623E-01
       -1   -1    0    0    0  501  0.00000000000E+00  0.00000000000E+00  0.45099548443E+03  0.45099548446E+03  0.50400001928E-02 0. -1.
        1   -1    0    0  501    0  0.00000000000E+00  0.00000000000E+00 -0.77319930747E+03  0.77319930749E+03  0.50400001928E-02 0.  1.
    10030    2    1    2    0    0  0.00000000000E+00  0.00000000000E+00 -0.32220382304E+03  0.12241947919E+04  0.11810324234E+04 0.  0.
        3    1    3    3  502    0 -0.10536941342E+03 -0.88909124076E+01  0.44110171748E+03  0.45359948960E+03  0.10100000352E+00 0. -1.
       -3    1    3    3    0  502  0.10536941342E+03  0.88909124076E+01 -0.76330554052E+03  0.77059530234E+03  0.10100000352E+00 0.  1.
</event>
<event>
 5   0  0.5052959E-04  0.1203028E+04  0.7818609E-02  0.9110211E-01
       -1   -1    0    0    0  501  0.00000000000E+00  0.00000000000E+00  0.88154487207E+03  0.88154487209E+03  0.50400001928E-02 0.  1.
        1   -1    0    0  501    0  0.00000000000E+00  0.00000000000E+00 -0.41043721888E+03  0.41043721891E+03  0.50400001928E-02 0. -1.
    10030    2    1    2    0    0  0.00000000000E+00  0.00000000000E+00  0.47110765320E+03  0.12919820910E+04  0.12030275569E+04 0.  0.
        2    1    3    3  502    0 -0.52515023151E+03 -0.18178600480E+03  0.48277035456E+03  0.73613594699E+03  0.25500000920E-02 0.  1.
       -2    1    3    3    0  502  0.52515023151E+03  0.18178600480E+03 -0.11662701360E+02  0.55584614401E+03  0.25500000920E-02 0. -1.
</event>
<event>
 5   0  0.9070772E-04  0.1200367E+04  0.7818609E-02  0.9112536E-01
       -2   -1    0    0    0  501  0.00000000000E+00  0.00000000000E+00  0.99737106638E+03  0.99737106638E+03  0.25500000920E-02 0.  1.
        2   -1    0    0  501    0  0.00000000000E+00  0.00000000000E+00 -0.36116956597E+03  0.36116956598E+03  0.25500000920E-02 0. -1.
    10030    2    1    2    0    0  0.00000000000E+00  0.00000000000E+00  0.63620150040E+03  0.13585406324E+04  0.12003667359E+04 0.  0.
        4    1    3    3  502    0  0.51336140528E+03  0.10582001955E+02  0.66980048478E+03  0.84397050512E+03  0.12699999809E+01 0.  1.
       -4    1    3    3    0  502 -0.51336140528E+03 -0.10582001955E+02 -0.33598984376E+02  0.51457012724E+03  0.12699999809E+01 0. -1.
</event>
<event>
 5   0  0.5003507E-04  0.1197093E+04  0.7818609E-02  0.9115405E-01
        1   -1    0    0  501    0  0.00000000000E+00  0.00000000000E+00  0.44578144577E+03  0.44578144579E+03  0.50400001928E-02 0.  1.
       -1   -1    0    0    0  501  0.00000000000E+00  0.00000000000E+00 -0.80366275900E+03  0.80366275902E+03  0.50400001928E-02 0. -1.
    10030    2    1    2    0    0  0.00000000000E+00  0.00000000000E+00 -0.35788131323E+03  0.12494442048E+04  0.11970930568E+04 0.  0.
        3    1    3    3  502    0 -0.43300341363E+03  0.10102813229E+03  0.23928115965E+03  0.50492982016E+03  0.10100000352E+00 0.  1.
       -3    1    3    3    0  502  0.43300341363E+03 -0.10102813229E+03 -0.59716247288E+03  0.74451438465E+03  0.10100000352E+00 0. -1.
</event>
<event>
 5   0  0.9410666E-04  0.1202589E+04  0.7818609E-02  0.9110593E-01
        2   -1    0    0  501    0  0.00000000000E+00  0.00000000000E+00  0.89626802483E+03  0.89626802484E+03  0.25500000920E-02 0. -1.
       -2   -1    0    0    0  501  0.00000000000E+00  0.00000000000E+00 -0.40340067872E+03  0.40340067873E+03  0.25500000920E-02 0.  1.
    10030    2    1    2    0    0  0.00000000000E+00  0.00000000000E+00  0.49286734611E+03  0.12996687036E+04  0.12025890895E+04 0.  0.
        2    1    3    3  502    0  0.40116834424E+03 -0.18365712678E+03  0.68793239596E+03  0.81726186871E+03  0.25500000920E-02 0. -1.
       -2    1    3    3    0  502 -0.40116834424E+03  0.18365712678E+03 -0.19506504984E+03  0.48240683486E+03  0.25500000920E-02 0.  1.
</event>
<event>
 5   0  0.9070772E-04  0.1199310E+04  0.7818609E-02  0.9113461E-01
        2   -1    0    0  501    0  0.00000000000E+00  0.00000000000E+00  0.84071617477E+03  0.84071617478E+03  0.25500000920E-02 0. -1.
       -2   -1    0    0    0  501  0.00000000000E+00  0.00000000000E+00 -0.42771409327E+03  0.42771409328E+03  0.25500000920E-02 0.  1.
    10030    2    1    2    0    0  0.00000000000E+00  0.00000000000E+00  0.41300208151E+03  0.12684302681E+04  0.11993100623E+04 0.  0.
        4    1    3    3  502    0 -0.26309847449E+03  0.53818794848E+03  0.23483038273E+03  0.64343919427E+03  0.12699999809E+01 0. -1.
       -4    1    3    3    0  502  0.26309847449E+03 -0.53818794848E+03  0.17817169877E+03  0.62499107379E+03  0.12699999809E+01 0.  1.
</event>
<event>
 5   0  0.5157631E-04  0.1199982E+04  0.7818609E-02  0.9112872E-01
       -1   -1    0    0    0  501  0.00000000000E+00  0.00000000000E+00  0.45794004786E+03  0.45794004789E+03  0.50400001928E-02 0. -1.
        1   -1    0    0  501    0  0.00000000000E+00  0.00000000000E+00 -0.78610544794E+03  0.78610544795E+03  0.50400001928E-02 0.  1.
    10030    2    1    2    0    0  0.00000000000E+00  0.00000000000E+00 -0.32816540008E+03  0.12440454958E+04  0.11999819440E+04 0.  0.
        5    1    3    3  502    0 -0.51864231447E+03 -0.27155450839E+03 -0.30018702364E+03  0.65792555851E+03  0.46999998093E+01 0.  1.
       -5    1    3    3    0  502  0.51864231447E+03  0.27155450839E+03 -0.27978376439E+02  0.58611993733E+03  0.46999998093E+01 0. -1.
</event>
<event>
 5   0  0.5052959E-04  0.1205772E+04  0.7818609E-02  0.9107819E-01
        1   -1    0    0  501    0  0.00000000000E+00  0.00000000000E+00  0.12089721338E+04  0.12089721338E+04  0.50400001928E-02 0.  1.
       -1   -1    0    0    0  501  0.00000000000E+00  0.00000000000E+00 -0.30064510470E+03  0.30064510474E+03  0.50400001928E-02 0. -1.
    10030    2    1    2    0    0  0.00000000000E+00  0.00000000000E+00  0.90832702908E+03  0.15096172385E+04  0.12057720411E+04 0.  0.
        2    1    3    3  502    0 -0.34664970455E+03  0.42602636234E+03  0.76542166435E+03  0.94209065558E+03  0.25500000920E-02 0.  1.
       -2    1    3    3    0  502  0.34664970455E+03 -0.42602636234E+03  0.14290536473E+03  0.56752658294E+03  0.25500000920E-02 0. -1.
</event>
<event>
 5   0  0.9410666E-04  0.1166327E+04  0.7818609E-02  0.9142852E-01
        2   -1    0    0  501    0  0.00000000000E+00  0.00000000000E+00  0.90986316256E+03  0.90986316256E+03  0.25500000920E-02 0.  1.
       -2   -1    0    0    0  501  0.00000000000E+00  0.00000000000E+00 -0.37377042744E+03  0.37377042745E+03  0.25500000920E-02 0. -1.
    10030    2    1    2    0    0  0.00000000000E+00  0.00000000000E+00  0.53609273512E+03  0.12836335900E+04  0.11663274723E+04 0.  0.
        2    1    3    3  502    0 -0.66220074910E+02 -0.47813803638E+03 -0.92094530632E+02  0.49140867181E+03  0.25500000920E-02 0. -1.
       -2    1    3    3    0  502  0.66220074910E+02  0.47813803638E+03  0.62818726575E+03  0.79222491820E+03  0.25500000920E-02 0.  1.
</event>
<event>
 5   0  0.9050363E-04  0.1200424E+04  0.7818609E-02  0.9112485E-01
       -2   -1    0    0    0  501  0.00000000000E+00  0.00000000000E+00  0.16018036598E+04  0.16018036598E+04  0.25500000920E-02 0.  1.
        2   -1    0    0  501    0  0.00000000000E+00  0.00000000000E+00 -0.22490566895E+03  0.22490566896E+03  0.25500000920E-02 0. -1.
    10030    2    1    2    0    0  0.00000000000E+00  0.00000000000E+00  0.13768979908E+04  0.18267093287E+04  0.12004244643E+04 0.  0.
        3    1    3    3  502    0  0.66337605342E+02 -0.28427940975E+03  0.14865023890E+04  0.15148943275E+04  0.10100000352E+00 0.  1.
       -3    1    3    3    0  502 -0.66337605342E+02  0.28427940975E+03 -0.10960439821E+03  0.31181500124E+03  0.10100000352E+00 0. -1.
</event>
<event>
 5   0  0.9145224E-04  0.1202831E+04  0.7818609E-02  0.9110382E-01
       -2   -1    0    0    0  501  0.00000000000E+00  0.00000000000E+00  0.45287380864E+03  0.45287380865E+03  0.25500000920E-02 0. -1.
        2   -1    0    0  501    0  0.00000000000E+00  0.00000000000E+00 -0.79867903171E+03  0.79867903172E+03  0.25500000920E-02 0.  1.
    10030    2    1    2    0    0  0.00000000000E+00  0.00000000000E+00 -0.34580522307E+03  0.12515528404E+04  0.12028313514E+04 0.  0.
        5    1    3    3  502    0  0.46933352081E+03 -0.21453871240E+03  0.14844002781E+03  0.53698914768E+03  0.46999998093E+01 0.  1.
       -5    1    3    3    0  502 -0.46933352081E+03  0.21453871240E+03 -0.49424525089E+03  0.71456369268E+03  0.46999998093E+01 0. -1.
</event>
<event>
 5   0  0.5052959E-04  0.1219177E+04  0.7818609E-02  0.9096234E-01
        1   -1    0    0  501    0  0.00000000000E+00  0.00000000000E+00  0.81143732728E+03  0.81143732729E+03  0.50400001928E-02 0.  1.
       -1   -1    0    0    0  501  0.00000000000E+00  0.00000000000E+00 -0.45795086782E+03  0.45795086785E+03  0.50400001928E-02 0. -1.
    10030    2    1    2    0    0  0.00000000000E+00  0.00000000000E+00  0.35348645946E+03  0.12693881951E+04  0.12191774739E+04 0.  0.
        2    1    3    3  502    0  0.11653680915E+03  0.37884957305E+03  0.65894817364E+03  0.76897368124E+03  0.25500000920E-02 0.  1.
       -2    1    3    3    0  502 -0.11653680915E+03 -0.37884957305E+03 -0.30546171418E+03  0.50041451390E+03  0.25500000920E-02 0. -1.
</event>
<event>
 5   0  0.9410666E-04  0.1201516E+04  0.7818609E-02  0.9111531E-01
        2   -1    0    0  501    0  0.00000000000E+00  0.00000000000E+00  0.13771367870E+04  0.13771367870E+04  0.25500000920E-02 0. -1.
       -2   -1    0    0    0  501  0.00000000000E+00  0.00000000000E+00 -0.26207281839E+03  0.26207281840E+03  0.25500000920E-02 0.  1.
    10030    2    1    2    0    0  0.00000000000E+00  0.00000000000E+00  0.11150639686E+04  0.16392096054E+04  0.12015159076E+04 0.  0.
        2    1    3    3  502    0 -0.52034548051E+03 -0.29287691847E+03  0.46730530951E+03  0.75822856763E+03  0.25500000920E-02 0.  1.
       -2    1    3    3    0  502  0.52034548051E+03  0.29287691847E+03  0.64775865906E+03  0.88098103774E+03  0.25500000920E-02 0. -1.
</event>
<event>
 5   0  0.5052959E-04  0.1200507E+04  0.7818609E-02  0.9112413E-01
       -1   -1    0    0    0  501  0.00000000000E+00  0.00000000000E+00  0.12488607775E+04  0.12488607775E+04  0.50400001928E-02 0.  1.
        1   -1    0    0  501    0  0.00000000000E+00  0.00000000000E+00 -0.28850625105E+03  0.28850625109E+03  0.50400001928E-02 0. -1.
    10030    2    1    2    0    0  0.00000000000E+00  0.00000000000E+00  0.96035452645E+03  0.15373670286E+04  0.12005067947E+04 0.  0.
        2    1    3    3  502    0 -0.21467159960E+03  0.48321869137E+03  0.11634319721E+03  0.54140552168E+03  0.25500000920E-02 0. -1.
       -2    1    3    3    0  502  0.21467159960E+03 -0.48321869137E+03  0.84401132924E+03  0.99596150691E+03  0.25500000920E-02 0.  1.
</event>
<event>
 5   0  0.9145224E-04  0.1201095E+04  0.7818609E-02  0.9111898E-01
        2   -1    0    0  501    0  0.00000000000E+00  0.00000000000E+00  0.75601103580E+03  0.75601103580E+03  0.25500000920E-02 0. -1.
       -2   -1    0    0    0  501  0.00000000000E+00  0.00000000000E+00 -0.47705309682E+03  0.47705309683E+03  0.25500000920E-02 0.  1.
    10030    2    1    2    0    0  0.00000000000E+00  0.00000000000E+00  0.27895793898E+03  0.12330641326E+04  0.12010951767E+04 0.  0.
        5    1    3    3  502    0 -0.25205225764E+03  0.38081021793E+03  0.53984434023E+03  0.70710732165E+03  0.46999998093E+01 0. -1.
       -5    1    3    3    0  502  0.25205225764E+03 -0.38081021793E+03 -0.26088640125E+03  0.52595681098E+03  0.46999998093E+01 0.  1.
</event>
<event>
 5   0  0.5001586E-04  0.1199592E+04  0.7818609E-02  0.9113213E-01
        1   -1    0    0  501    0  0.00000000000E+00  0.00000000000E+00  0.11633983205E+04  0.11633983205E+04  0.50400001928E-02 0.  1.
       -1   -1    0    0    0  501  0.00000000000E+00  0.00000000000E+00 -0.30922816204E+03  0.30922816208E+03  0.50400001928E-02 0. -1.
    10030    2    1    2    0    0  0.00000000000E+00  0.00000000000E+00  0.85417015842E+03  0.14726264826E+04  0.11995924715E+04 0.  0.
        1    1    3    3  502    0 -0.29054139873E+03  0.36106199499E+03  0.89450381461E+03  0.10074309619E+04  0.50400001928E-02 0.  1.
       -1    1    3    3    0  502  0.29054139873E+03 -0.36106199499E+03 -0.40333656187E+02  0.46519552067E+03  0.50400001928E-02 0. -1.
</event>
<event>
 5   0  0.5052959E-04  0.1213345E+04  0.7818609E-02  0.9101256E-01
       -1   -1    0    0    0  501  0.00000000000E+00  0.00000000000E+00  0.41438459303E+03  0.41438459306E+03  0.50400001928E-02 0.  1.
        1   -1    0    0  501    0  0.00000000000E+00  0.00000000000E+00 -0.88818767800E+03  0.88818767801E+03  0.50400001928E-02 0. -1.
    10030    2    1    2    0    0  0.00000000000E+00  0.00000000000E+00 -0.47380308496E+03  0.13025722711E+04  0.12133446164E+04 0.  0.
        2    1    3    3  502    0 -0.31412206186E+03  0.51723928274E+03 -0.28297804086E+03  0.66804619374E+03  0.25500000920E-02 0.  1.
       -2    1    3    3    0  502  0.31412206186E+03 -0.51723928274E+03 -0.19082504410E+03  0.63452607734E+03  0.25500000920E-02 0. -1.
</event>
<event>
 5   0  0.5001586E-04  0.1198802E+04  0.7818609E-02  0.9113905E-01
        1   -1    0    0  501    0  0.00000000000E+00  0.00000000000E+00  0.30400370940E+03  0.30400370944E+03  0.50400001928E-02 0.  1.
       -1   -1    0    0    0  501  0.00000000000E+00  0.00000000000E+00 -0.11818336102E+04  0.11818336102E+04  0.50400001928E-02 0. -1.
    10030    2    1    2    0    0  0.00000000000E+00  0.00000000000E+00 -0.87782990084E+03  0.14858373197E+04  0.11988024048E+04 0.  0.
        1    1    3    3  502    0  0.43601761241E+03  0.37469700542E+03 -0.22867599510E+03  0.61870987948E+03  0.50400001928E-02 0.  1.
       -1    1    3    3    0  502 -0.43601761241E+03 -0.37469700542E+03 -0.64915390574E+03  0.86712744021E+03  0.50400001928E-02 0. -1.
</event>
<event>
 5   0  0.9145224E-04  0.1169937E+04  0.7818609E-02  0.9139586E-01
        2   -1    0    0  501    0  0.00000000000E+00  0.00000000000E+00  0.30175275555E+03  0.30175275556E+03  0.25500000920E-02 0.  1.
       -2   -1    0    0    0  501  0.00000000000E+00  0.00000000000E+00 -0.11340011934E+04  0.11340011934E+04  0.25500000920E-02 0. -1.
    10030    2    1    2    0    0  0.00000000000E+00  0.00000000000E+00 -0.83224843788E+03  0.14357539490E+04  0.11699367247E+04 0.  0.
        5    1    3    3  502    0  0.10777026628E+03 -0.44767837486E+03  0.26581977213E+02  0.46125811551E+03  0.46999998093E+01 0.  1.
       -5    1    3    3    0  502 -0.10777026628E+03  0.44767837486E+03 -0.85883041509E+03  0.97449583349E+03  0.46999998093E+01 0. -1.
</event>
<event>
 5   0  0.5157631E-04  0.1208193E+04  0.7818609E-02  0.9105715E-01
       -1   -1    0    0    0  501  0.00000000000E+00  0.00000000000E+00  0.69496236849E+03  0.69496236851E+03  0.50400001928E-02 0.  1.
        1   -1    0    0  501    0  0.00000000000E+00  0.00000000000E+00 -0.52511118154E+03  0.52511118156E+03  0.50400001928E-02 0. -1.
    10030    2    1    2    0    0  0.00000000000E+00  0.00000000000E+00  0.16985118695E+03  0.12200735501E+04  0.12081928827E+04 0.  0.
        5    1    3    3  502    0 -0.10744268334E+03  0.31716044913E+03 -0.42278641342E+03  0.53935621074E+03  0.46999998093E+01 0. -1.
       -5    1    3    3    0  502  0.10744268334E+03 -0.31716044913E+03  0.59263760037E+03  0.68071733933E+03  0.46999998093E+01 0.  1.
</event>
<event>
 5   0  0.5003507E-04  0.1203706E+04  0.7818609E-02  0.9109619E-01
       -1   -1    0    0    0  501  0.00000000000E+00  0.00000000000E+00  0.24033309091E+03  0.24033309096E+03  0.50400001928E-02 0. -1.
        1   -1    0    0  501    0  0.00000000000E+00  0.00000000000E+00 -0.15071881156E+04  0.15071881156E+04  0.50400001928E-02 0.  1.
    10030    2    1    2    0    0  0.00000000000E+00  0.00000000000E+00 -0.12668550247E+04  0.17475212066E+04  0.12037062407E+04 0.  0.
        3    1    3    3  502    0  0.50934463998E+03  0.18013256126E+03 -0.10184855318E+04  0.11529061066E+04  0.10100000352E+00 0.  1.
       -3    1    3    3    0  502 -0.50934463998E+03 -0.18013256126E+03 -0.24836949283E+03  0.59461509994E+03  0.10100000352E+00 0. -1.
</event>
<event>
 5   0  0.9298693E-04  0.1211571E+04  0.7818609E-02  0.9102788E-01
       -2   -1    0    0    0  501  0.00000000000E+00  0.00000000000E+00  0.48487250098E+03  0.48487250099E+03  0.25500000920E-02 0. -1.
        2   -1    0    0  501    0  0.00000000000E+00  0.00000000000E+00 -0.75685104354E+03  0.75685104354E+03  0.25500000920E-02 0.  1.
    10030    2    1    2    0    0  0.00000000000E+00  0.00000000000E+00 -0.27197854255E+03  0.12417235445E+04  0.12115713076E+04 0.  0.
        1    1    3    3  502    0 -0.26465289484E+03 -0.44126816852E+03  0.19168216026E+03  0.54909088673E+03  0.50400001928E-02 0. -1.
       -1    1    3    3    0  502  0.26465289484E+03  0.44126816852E+03 -0.46366070282E+03  0.69263265781E+03  0.50400001928E-02 0.  1.
</event>
<event>
 5   0  0.5003507E-04  0.1205261E+04  0.7818609E-02  0.9108264E-01
        1   -1    0    0  501    0  0.00000000000E+00  0.00000000000E+00  0.63547073505E+03  0.63547073507E+03  0.50400001928E-02 0. -1.
       -1   -1    0    0    0  501  0.00000000000E+00  0.00000000000E+00 -0.57148709486E+03  0.57148709488E+03  0.50400001928E-02 0.  1.
    10030    2    1    2    0    0  0.00000000000E+00  0.00000000000E+00  0.63983640197E+02  0.12069578300E+04  0.12052606760E+04 0.  0.
        3    1    3    3  502    0 -0.13201922003E+03 -0.65355291405E+02 -0.55317930479E+03  0.57245763339E+03  0.10100000352E+00 0.  1.
       -3    1    3    3    0  502  0.13201922003E+03  0.65355291405E+02  0.61716294499E+03  0.63450019656E+03  0.10100000352E+00 0. -1.
</event>
<event>
 5   0  0.9050363E-04  0.1205065E+04  0.7818609E-02  0.9108435E-01
        2   -1    0    0  501    0  0.00000000000E+00  0.00000000000E+00  0.11329056300E+04  0.11329056300E+04  0.25500000920E-02 0. -1.
       -2   -1    0    0    0  501  0.00000000000E+00  0.00000000000E+00 -0.32045511757E+03  0.32045511758E+03  0.25500000920E-02 0.  1.
    10030    2    1    2    0    0  0.00000000000E+00  0.00000000000E+00  0.81245051243E+03  0.14533607476E+04  0.12050649889E+04 0.  0.
        3    1    3    3  502    0 -0.45524578702E+03  0.10148386025E+03  0.86626040601E+03  0.98384694018E+03  0.10100000352E+00 0. -1.
       -3    1    3    3    0  502  0.45524578702E+03 -0.10148386025E+03 -0.53809893574E+02  0.46951380740E+03  0.10100000352E+00 0.  1.
</event>
<event>
 5   0  0.5001586E-04  0.1201731E+04  0.7818609E-02  0.9111342E-01
       -1   -1    0    0    0  501  0.00000000000E+00  0.00000000000E+00  0.34361504678E+03  0.34361504681E+03  0.50400001928E-02 0. -1.
        1   -1    0    0  501    0  0.00000000000E+00  0.00000000000E+00 -0.10507093488E+04  0.10507093488E+04  0.50400001928E-02 0.  1.
    10030    2    1    2    0    0  0.00000000000E+00  0.00000000000E+00 -0.70709430201E+03  0.13943243956E+04  0.12017313212E+04 0.  0.
        1    1    3    3  502    0  0.42079413374E+03  0.72676094531E+01 -0.85113500256E+03  0.94950056016E+03  0.50400001928E-02 0.  1.
       -1    1    3    3    0  502 -0.42079413374E+03 -0.72676094531E+01  0.14404070056E+03  0.44482383544E+03  0.50400001928E-02 0. -1.
</event>
<event>
 5   0  0.5001586E-04  0.1198864E+04  0.7818609E-02  0.9113851E-01
        1   -1    0    0  501    0  0.00000000000E+00  0.00000000000E+00  0.17277194483E+04  0.17277194483E+04  0.50400001928E-02 0. -1.
       -1   -1    0    0    0  501  0.00000000000E+00  0.00000000000E+00 -0.20797293447E+03  0.20797293453E+03  0.50400001928E-02 0.  1.
    10030    2    1    2    0    0  0.00000000000E+00  0.00000000000E+00  0.15197465138E+04  0.19356923828E+04  0.11988642687E+04 0.  0.
        1    1    3    3  502    0  0.33710653959E+03 -0.49547045149E+03  0.78195833471E+03  0.98518557876E+03  0.50400001928E-02 0.  1.
       -1    1    3    3    0  502 -0.33710653959E+03  0.49547045149E+03  0.73778817912E+03  0.95050680409E+03  0.50400001928E-02 0. -1.
</event>
<event>
 5   0  0.9298693E-04  0.1199918E+04  0.7818609E-02  0.9112928E-01
       -2   -1    0    0    0  501  0.00000000000E+00  0.00000000000E+00  0.22830889868E+03  0.22830889869E+03  0.25500000920E-02 0. -1.
        2   -1    0    0  501    0  0.00000000000E+00  0.00000000000E+00 -0.15765960747E+04  0.15765960747E+04  0.25500000920E-02 0.  1.
    10030    2    1    2    0    0  0.00000000000E+00  0.00000000000E+00 -0.13482871761E+04  0.18049049734E+04  0.11999181864E+04 0.  0.
        1    1    3    3  502    0  0.38654020018E+03  0.40308184793E+03 -0.10039099750E+04  0.11487922094E+04  0.50400001928E-02 0.  1.
       -1    1    3    3    0  502 -0.38654020018E+03 -0.40308184793E+03 -0.34437720110E+03  0.65611276405E+03  0.50400001928E-02 0. -1.
</event>
<event>
 5   0  0.5003507E-04  0.1201248E+04  0.7818609E-02  0.9111765E-01
        1   -1    0    0  501    0  0.00000000000E+00  0.00000000000E+00  0.82871500987E+03  0.82871500989E+03  0.50400001928E-02 0.  1.
       -1   -1    0    0    0  501  0.00000000000E+00  0.00000000000E+00 -0.43531150147E+03  0.43531150150E+03  0.50400001928E-02 0. -1.
    10030    2    1    2    0    0  0.00000000000E+00  0.00000000000E+00  0.39340350840E+03  0.12640265114E+04  0.12012479765E+04 0.  0.
        3    1    3    3  502    0 -0.50232252018E+03 -0.24842224447E+03  0.42411589831E+03  0.70279145642E+03  0.10100000352E+00 0.  1.
       -3    1    3    3    0  502  0.50232252018E+03  0.24842224447E+03 -0.30712389901E+02  0.56123505496E+03  0.10100000352E+00 0. -1.
</event>
<event>
 5   0  0.5001586E-04  0.1200765E+04  0.7818609E-02  0.9112187E-01
        1   -1    0    0  501    0  0.00000000000E+00  0.00000000000E+00  0.83313221184E+03  0.83313221186E+03  0.50400001928E-02 0.  1.
       -1   -1    0    0    0  501  0.00000000000E+00  0.00000000000E+00 -0.43265516161E+03  0.43265516164E+03  0.50400001928E-02 0. -1.
    10030    2    1    2    0    0  0.00000000000E+00  0.00000000000E+00  0.40047705023E+03  0.12657873735E+04  0.12007646760E+04 0.  0.
        1    1    3    3  502    0  0.46065241317E+03  0.21364104469E+02 -0.20502996318E+03  0.50467252406E+03  0.50400001928E-02 0. -1.
       -1    1    3    3    0  502 -0.46065241317E+03 -0.21364104469E+02  0.60550701341E+03  0.76111484944E+03  0.50400001928E-02 0.  1.
</event>
<event>
 5   0  0.9050363E-04  0.1197082E+04  0.7818609E-02  0.9115414E-01
       -2   -1    0    0    0  501  0.00000000000E+00  0.00000000000E+00  0.28628221165E+03  0.28628221166E+03  0.25500000920E-02 0.  1.
        2   -1    0    0  501    0  0.00000000000E+00  0.00000000000E+00 -0.12513928223E+04  0.12513928224E+04  0.25500000920E-02 0. -1.
    10030    2    1    2    0    0  0.00000000000E+00  0.00000000000E+00 -0.96511061070E+03  0.15376750340E+04  0.11970822943E+04 0.  0.
        3    1    3    3  502    0  0.17070078516E+03 -0.51674363520E+03 -0.80262681723E+03  0.96972808587E+03  0.10100000352E+00 0. -1.
       -3    1    3    3    0  502 -0.17070078516E+03  0.51674363520E+03 -0.16248379346E+03  0.56794694815E+03  0.10100000352E+00 0.  1.
</event>
<event>
 5   0  0.9145224E-04  0.1198647E+04  0.7818609E-02  0.9114041E-01
        2   -1    0    0  501    0  0.00000000000E+00  0.00000000000E+00  0.48367343386E+03  0.48367343387E+03  0.25500000920E-02 0. -1.
       -2   -1    0    0    0  501  0.00000000000E+00  0.00000000000E+00 -0.74262688126E+03  0.74262688126E+03  0.25500000920E-02 0.  1.
    10030    2    1    2    0    0  0.00000000000E+00  0.00000000000E+00 -0.25895344739E+03  0.12263003151E+04  0.11986473939E+04 0.  0.
        5    1    3    3  502    0  0.63645191546E+02  0.48569552990E+03  0.22376546603E+03  0.53855726897E+03  0.46999998093E+01 0. -1.
       -5    1    3    3    0  502 -0.63645191546E+02 -0.48569552990E+03 -0.48271891342E+03  0.68774304616E+03  0.46999998093E+01 0.  1.
</event>
<event>
 5   0  0.9070772E-04  0.1204244E+04  0.7818609E-02  0.9109150E-01
        2   -1    0    0  501    0  0.00000000000E+00  0.00000000000E+00  0.55518880407E+03  0.55518880408E+03  0.25500000920E-02 0. -1.
       -2   -1    0    0    0  501  0.00000000000E+00  0.00000000000E+00 -0.65302293620E+03  0.65302293621E+03  0.25500000920E-02 0.  1.
    10030    2    1    2    0    0  0.00000000000E+00  0.00000000000E+00 -0.97834132129E+02  0.12082117403E+04  0.12042441995E+04 0.  0.
        4    1    3    3  502    0  0.27994535567E+02 -0.58417224060E+03  0.94762674864E+02  0.59247149987E+03  0.12699999809E+01 0. -1.
       -4    1    3    3    0  502 -0.27994535567E+02  0.58417224060E+03 -0.19259680699E+03  0.61574024042E+03  0.12699999809E+01 0.  1.
</event>
<event>
 5   0  0.9410666E-04  0.1202001E+04  0.7818609E-02  0.9111107E-01
        2   -1    0    0  501    0  0.00000000000E+00  0.00000000000E+00  0.95941131827E+03  0.95941131827E+03  0.25500000920E-02 0. -1.
       -2   -1    0    0    0  501  0.00000000000E+00  0.00000000000E+00 -0.37648270070E+03  0.37648270071E+03  0.25500000920E-02 0.  1.
    10030    2    1    2    0    0  0.00000000000E+00  0.00000000000E+00  0.58292861757E+03  0.13358940190E+04  0.12020012715E+04 0.  0.
        2    1    3    3  502    0 -0.17552430117E+03 -0.53388412896E+03  0.54759516029E+02  0.56465887761E+03  0.25500000920E-02 0.  1.
       -2    1    3    3    0  502  0.17552430117E+03  0.53388412896E+03  0.52816910154E+03  0.77123514137E+03  0.25500000920E-02 0. -1.
</event>
<event>
 5   0  0.9050363E-04  0.1190830E+04  0.7818609E-02  0.9120921E-01
       -2   -1    0    0    0  501  0.00000000000E+00  0.00000000000E+00  0.82690079365E+03  0.82690079366E+03  0.25500000920E-02 0. -1.
        2   -1    0    0  501    0  0.00000000000E+00  0.00000000000E+00 -0.42873217929E+03  0.42873217929E+03  0.25500000920E-02 0.  1.
    10030    2    1    2    0    0  0.00000000000E+00  0.00000000000E+00  0.39816861437E+03  0.12556329729E+04  0.11908299279E+04 0.  0.
        3    1    3    3  502    0  0.45223567369E+03 -0.38603488337E+03  0.16609375839E+03  0.61735498906E+03  0.10100000352E+00 0.  1.
       -3    1    3    3    0  502 -0.45223567369E+03  0.38603488337E+03  0.23207485597E+03  0.63827798389E+03  0.10100000352E+00 0. -1.
</event>
<event>
 5   0  0.5052959E-04  0.1211429E+04  0.7818609E-02  0.9102911E-01
       -1   -1    0    0    0  501  0.00000000000E+00  0.00000000000E+00  0.30870272178E+03  0.30870272182E+03  0.50400001928E-02 0.  1.
        1   -1    0    0  501    0  0.00000000000E+00  0.00000000000E+00 -0.11884896526E+04  0.11884896526E+04  0.50400001928E-02 0. -1.
    10030    2    1    2    0    0  0.00000000000E+00  0.00000000000E+00 -0.87978693082E+03  0.14971923744E+04  0.12114288928E+04 0.  0.
        2    1    3    3  502    0 -0.45599898942E+03 -0.64912306458E+02  0.46270545309E+02  0.46291430012E+03  0.25500000920E-02 0.  1.
       -2    1    3    3    0  502  0.45599898942E+03  0.64912306458E+02 -0.92605747613E+03  0.10342780743E+04  0.25500000920E-02 0. -1.
</event>
<event>
 5   0  0.9298693E-04  0.1193056E+04  0.7818609E-02  0.9118956E-01
       -2   -1    0    0    0  501  0.00000000000E+00  0.00000000000E+00  0.41553140511E+03  0.41553140512E+03  0.25500000920E-02 0.  1.
        2   -1    0    0  501    0  0.00000000000E+00  0.00000000000E+00 -0.85636350877E+03  0.85636350878E+03  0.25500000920E-02 0. -1.
    10030    2    1    2    0    0  0.00000000000E+00  0.00000000000E+00 -0.44083210366E+03  0.12718949139E+04  0.11930564649E+04 0.  0.
        1    1    3    3  502    0 -0.36243594922E+03 -0.45315075272E+03 -0.36790754963E+03  0.68706723621E+03  0.50400001928E-02 0.  1.
       -1    1    3    3    0  502  0.36243594922E+03  0.45315075272E+03 -0.72924554035E+02  0.58482767768E+03  0.50400001928E-02 0. -1.
</event>
<event>
 5   0  0.5003507E-04  0.1203360E+04  0.7818609E-02  0.9109921E-01
       -1   -1    0    0    0  501  0.00000000000E+00  0.00000000000E+00  0.10356072089E+04  0.10356072090E+04  0.50400001928E-02 0. -1.
        1   -1    0    0  501    0  0.00000000000E+00  0.00000000000E+00 -0.34957150973E+03  0.34957150977E+03  0.50400001928E-02 0.  1.
    10030    2    1    2    0    0  0.00000000000E+00  0.00000000000E+00  0.68603569921E+03  0.13851787187E+04  0.12033599221E+04 0.  0.
        3    1    3    3  502    0 -0.55974827438E+03 -0.18201456833E+03  0.19937859461E+03  0.62144932855E+03  0.10100000352E+00 0. -1.
       -3    1    3    3    0  502  0.55974827438E+03  0.18201456833E+03  0.48665710460E+03  0.76372939017E+03  0.10100000352E+00 0.  1.
</event>
<event>
 5   0  0.5003507E-04  0.1198777E+04  0.7818609E-02  0.9113927E-01
       -1   -1    0    0    0  501  0.00000000000E+00  0.00000000000E+00  0.50739251223E+03  0.50739251226E+03  0.50400001928E-02 0. -1.
        1   -1    0    0  501    0  0.00000000000E+00  0.00000000000E+00 -0.70806486249E+03  0.70806486251E+03  0.50400001928E-02 0.  1.
    10030    2    1    2    0    0  0.00000000000E+00  0.00000000000E+00 -0.20067235026E+03  0.12154573748E+04  0.11987773929E+04 0.  0.
        3    1    3    3  502    0  0.21277228019E+03  0.55941121209E+03 -0.13325095536E+03  0.61316292674E+03  0.10100000352E+00 0.  1.
       -3    1    3    3    0  502 -0.21277228019E+03 -0.55941121209E+03 -0.67421394900E+02  0.60229444802E+03  0.10100000352E+00 0. -1.
</event>
<event>
 5   0  0.5447074E-04  0.1198178E+04  0.7818609E-02  0.9114452E-01
        1   -1    0    0  501    0  0.00000000000E+00  0.00000000000E+00  0.89625146016E+03  0.89625146018E+03  0.50400001928E-02 0. -1.
       -1   -1    0    0    0  501  0.00000000000E+00  0.00000000000E+00 -0.40045444496E+03  0.40045444499E+03  0.50400001928E-02 0.  1.
    10030    2    1    2    0    0  0.00000000000E+00  0.00000000000E+00  0.49579701520E+03  0.12967059052E+04  0.11981784192E+04 0.  0.
        4    1    3    3  502    0  0.30216591907E+03  0.13444834318E+02 -0.31175336655E+03  0.43436940577E+03  0.12699999809E+01 0.  1.
       -4    1    3    3    0  502 -0.30216591907E+03 -0.13444834318E+02  0.80755038175E+03  0.86233649939E+03  0.12699999809E+01 0. -1.
</event>
<event>
 5   0  0.9070772E-04  0.1198122E+04  0.7818609E-02  0.9114502E-01
        2   -1    0    0  501    0  0.00000000000E+00  0.00000000000E+00  0.15249385988E+04  0.15249385988E+04  0.25500000920E-02 0.  1.
       -2   -1    0    0    0  501  0.00000000000E+00  0.00000000000E+00 -0.23533662551E+03  0.23533662552E+03  0.25500000920E-02 0. -1.
    10030    2    1    2    0    0  0.00000000000E+00  0.00000000000E+00  0.12896019733E+04  0.17602752243E+04  0.11981217033E+04 0.  0.
        4    1    3    3  502    0  0.42093490751E+03  0.41379314669E+03  0.49453073335E+03  0.77004754641E+03  0.12699999809E+01 0. -1.
       -4    1    3    3    0  502 -0.42093490751E+03 -0.41379314669E+03  0.79507123993E+03  0.99022767790E+03  0.12699999809E+01 0.  1.
</event>
<event>
 5   0  0.5003507E-04  0.1201832E+04  0.7818609E-02  0.9111254E-01
        1   -1    0    0  501    0  0.00000000000E+00  0.00000000000E+00  0.84625859217E+03  0.84625859218E+03  0.50400001928E-02 0. -1.
       -1   -1    0    0    0  501  0.00000000000E+00  0.00000000000E+00 -0.42670199334E+03  0.42670199337E+03  0.50400001928E-02 0.  1.
    10030    2    1    2    0    0  0.00000000000E+00  0.00000000000E+00  0.41955659883E+03  0.12729605855E+04  0.12018323147E+04 0.  0.
        3    1    3    3  502    0  0.35188722057E+03 -0.32787954199E+03 -0.17177854585E+03  0.51072251671E+03  0.10100000352E+00 0.  1.
       -3    1    3    3    0  502 -0.35188722057E+03  0.32787954199E+03  0.59133514468E+03  0.76223806884E+03  0.10100000352E+00 0. -1.
</event>
<event>
 5   0  0.9145224E-04  0.1200010E+04  0.7818609E-02  0.9112848E-01
        2   -1    0    0  501    0  0.00000000000E+00  0.00000000000E+00  0.42380379175E+03  0.42380379175E+03  0.25500000920E-02 0. -1.
       -2   -1    0    0    0  501  0.00000000000E+00  0.00000000000E+00 -0.84946429912E+03  0.84946429913E+03  0.25500000920E-02 0.  1.
    10030    2    1    2    0    0  0.00000000000E+00  0.00000000000E+00 -0.42566050738E+03  0.12732680909E+04  0.12000103182E+04 0.  0.
        5    1    3    3  502    0 -0.29956717252E+02  0.46944871324E+03 -0.60799692607E+03  0.76874043173E+03  0.46999998093E+01 0.  1.
       -5    1    3    3    0  502  0.29956717252E+02 -0.46944871324E+03  0.18233641869E+03  0.50452765915E+03  0.46999998093E+01 0. -1.
</event>
<event>
 5   0  0.5003507E-04  0.1197316E+04  0.7818609E-02  0.9115209E-01
       -1   -1    0    0    0  501  0.00000000000E+00  0.00000000000E+00  0.26287468984E+03  0.26287468989E+03  0.50400001928E-02 0. -1.
        1   -1    0    0  501    0  0.00000000000E+00  0.00000000000E+00 -0.13633546581E+04  0.13633546581E+04  0.50400001928E-02 0.  1.
    10030    2    1    2    0    0  0.00000000000E+00  0.00000000000E+00 -0.11004799683E+04  0.16262293480E+04  0.11973160534E+04 0.  0.
        3    1    3    3  502    0  0.24954731985E+02 -0.23980385390E+03  0.19401842598E+03  0.30947017112E+03  0.10100000352E+00 0. -1.
       -3    1    3    3    0  502 -0.24954731985E+02  0.23980385390E+03 -0.12944983943E+04  0.13167591769E+04  0.10100000352E+00 0.  1.
</event>
<event>
 5   0  0.9298693E-04  0.1200022E+04  0.7818609E-02  0.9112837E-01
        2   -1    0    0  501    0  0.00000000000E+00  0.00000000000E+00  0.15649993204E+04  0.15649993204E+04  0.25500000920E-02 0.  1.
       -2   -1    0    0    0  501  0.00000000000E+00  0.00000000000E+00 -0.23004051818E+03  0.23004051820E+03  0.25500000920E-02 0. -1.
    10030    2    1    2    0    0  0.00000000000E+00  0.00000000000E+00  0.13349588022E+04  0.17950398386E+04  0.12000220909E+04 0.  0.
        1    1    3    3  502    0  0.42152191993E+03 -0.88451648265E+02  0.12923549857E+04  0.13622356008E+04  0.50400001928E-02 0.  1.
       -1    1    3    3    0  502 -0.42152191993E+03  0.88451648265E+02  0.42603816558E+02  0.43280423781E+03  0.50400001928E-02 0. -1.
</event>
<event>
 5   0  0.5003507E-04  0.1204002E+04  0.7818609E-02  0.9109361E-01
       -1   -1    0    0    0  501  0.00000000000E+00  0.00000000000E+00  0.29745793754E+03  0.29745793758E+03  0.50400001928E-02 0.  1.
        1   -1    0    0  501    0  0.00000000000E+00  0.00000000000E+00 -0.12183405389E+04  0.12183405389E+04  0.50400001928E-02 0. -1.
    10030    2    1    2    0    0  0.00000000000E+00  0.00000000000E+00 -0.92088260135E+03  0.15157984765E+04  0.12040017674E+04 0.  0.
        3    1    3    3  502    0 -0.12428090854E+03  0.48991954131E+03 -0.48741477621E+02  0.50778208222E+03  0.10100000352E+00 0.  1.
       -3    1    3    3    0  502  0.12428090854E+03 -0.48991954131E+03 -0.87214112373E+03  0.10080163943E+04  0.10100000352E+00 0. -1.
</event>
<event>
 5   0  0.9145224E-04  0.1205045E+04  0.7818609E-02  0.9108452E-01
        2   -1    0    0  501    0  0.00000000000E+00  0.00000000000E+00  0.10458804587E+04  0.10458804587E+04  0.25500000920E-02 0.  1.
       -2   -1    0    0    0  501  0.00000000000E+00  0.00000000000E+00 -0.34710788022E+03  0.34710788023E+03  0.25500000920E-02 0. -1.
    10030    2    1    2    0    0  0.00000000000E+00  0.00000000000E+00  0.69877257847E+03  0.13929883389E+04  0.12050449767E+04 0.  0.
        5    1    3    3  502    0  0.31707170592E+03 -0.51231084548E+03  0.34500125328E+03  0.69429447920E+03  0.46999998093E+01 0. -1.
       -5    1    3    3    0  502 -0.31707170592E+03  0.51231084548E+03  0.35377132519E+03  0.69869385972E+03  0.46999998093E+01 0.  1.
</event>
<event>
 5   0  0.9050363E-04  0.1191581E+04  0.7818609E-02  0.9120258E-01
        2   -1    0    0  501    0  0.00000000000E+00  0.00000000000E+00  0.98380995379E+03  0.98380995379E+03  0.25500000920E-02 0.  1.
       -2   -1    0    0    0  501  0.00000000000E+00  0.00000000000E+00 -0.36080776507E+03  0.36080776508E+03  0.25500000920E-02 0. -1.
    10030    2    1    2    0    0  0.00000000000E+00  0.00000000000E+00  0.62300218872E+03  0.13446177189E+04  0.11915809174E+04 0.  0.
        3    1    3    3  502    0 -0.52226464617E+03  0.75519044761E+02  0.62361554819E+03  0.81692095634E+03  0.10100000352E+00 0.  1.
       -3    1    3    3    0  502  0.52226464617E+03 -0.75519044761E+02 -0.61335947537E+00  0.52769676252E+03  0.10100000352E+00 0. -1.
</event>
<event>
 5   0  0.9050363E-04  0.1198455E+04  0.7818609E-02  0.9114210E-01
       -2   -1    0    0    0  501  0.00000000000E+00  0.00000000000E+00  0.36481497202E+03  0.36481497203E+03  0.25500000920E-02 0. -1.
        2   -1    0    0  501    0  0.00000000000E+00  0.00000000000E+00 -0.98426241686E+03  0.98426241687E+03  0.25500000920E-02 0.  1.
    10030    2    1    2    0    0  0.00000000000E+00  0.00000000000E+00 -0.61944744484E+03  0.13490773889E+04  0.11984551157E+04 0.  0.
        3    1    3    3  502    0  0.85174404549E+02  0.58995894061E+03 -0.37881725576E+03  0.70626394093E+03  0.10100000352E+00 0.  1.
       -3    1    3    3    0  502 -0.85174404549E+02 -0.58995894061E+03 -0.24063018909E+03  0.64281344797E+03  0.10100000352E+00 0. -1.
</event>
<event>
 5   0  0.5001586E-04  0.1202394E+04  0.7818609E-02  0.9110763E-01
        1   -1    0    0  501    0  0.00000000000E+00  0.00000000000E+00  0.37628284836E+03  0.37628284839E+03  0.50400001928E-02 0. -1.
       -1   -1    0    0    0  501  0.00000000000E+00  0.00000000000E+00 -0.96054883790E+03  0.96054883791E+03  0.50400001928E-02 0.  1.
    10030    2    1    2    0    0  0.00000000000E+00  0.00000000000E+00 -0.58426598954E+03  0.13368316863E+04  0.12023943658E+04 0.  0.
        1    1    3    3  502    0  0.12242583445E+03 -0.58164018308E+03 -0.19179476918E+03  0.62456274387E+03  0.50400001928E-02 0. -1.
       -1    1    3    3    0  502 -0.12242583445E+03  0.58164018308E+03 -0.39247122036E+03  0.71226894244E+03  0.50400001928E-02 0.  1.
</event>
<event>
 5   0  0.5447074E-04  0.1193144E+04  0.7818609E-02  0.9118879E-01
       -1   -1    0    0    0  501  0.00000000000E+00  0.00000000000E+00  0.24662227606E+03  0.24662227611E+03  0.50400001928E-02 0.  1.
        1   -1    0    0  501    0  0.00000000000E+00  0.00000000000E+00 -0.14430895399E+04  0.14430895399E+04  0.50400001928E-02 0. -1.
    10030    2    1    2    0    0  0.00000000000E+00  0.00000000000E+00 -0.11964672638E+04  0.16897118160E+04  0.11931437917E+04 0.  0.
        4    1    3    3  502    0  0.33216323413E+02 -0.79970850917E+01  0.24523373768E+03  0.24760548561E+03  0.12699999809E+01 0.  1.
       -4    1    3    3    0  502 -0.33216323413E+02  0.79970850917E+01 -0.14417010015E+04  0.14421063304E+04  0.12699999809E+01 0. -1.
</event>
<event>
 5   0  0.5001586E-04  0.1201272E+04  0.7818609E-02  0.9111744E-01
       -1   -1    0    0    0  501  0.00000000000E+00  0.00000000000E+00  0.25262306013E+03  0.25262306018E+03  0.50400001928E-02 0. -1.
        1   -1    0    0  501    0  0.00000000000E+00  0.00000000000E+00 -0.14280705220E+04  0.14280705220E+04  0.50400001928E-02 0.  1.
    10030    2    1    2    0    0  0.00000000000E+00  0.00000000000E+00 -0.11754474619E+04  0.16806935822E+04  0.12012719016E+04 0.  0.
        1    1    3    3  502    0  0.21578616191E+03  0.42194808838E+03 -0.71460140626E+02  0.47928113741E+03  0.50400001928E-02 0. -1.
       -1    1    3    3    0  502 -0.21578616191E+03 -0.42194808838E+03 -0.11039873213E+04  0.12014124448E+04  0.50400001928E-02 0.  1.
</event>
<event>
 5   0  0.3453625E-04  0.1200985E+04  0.7818609E-02  0.9111995E-01
       -3   -1    0    0    0  501  0.00000000000E+00  0.00000000000E+00  0.14941328774E+04  0.14941328808E+04  0.10100000352E+00 0.  1.
        3   -1    0    0  501    0  0.00000000000E+00  0.00000000000E+00 -0.24133802888E+03  0.24133805001E+03  0.10100000352E+00 0. -1.
    10030    2    1    2    0    0  0.00000000000E+00  0.00000000000E+00  0.12527948485E+04  0.17354709308E+04  0.12009847706E+04 0.  0.
        2    1    3    3  502    0 -0.10259134845E+03  0.30450008574E+02 -0.22744744597E+03  0.25136532872E+03  0.25500000920E-02 0. -1.
       -2    1    3    3    0  502  0.10259134845E+03 -0.30450008574E+02  0.14802422945E+04  0.14841056021E+04  0.25500000920E-02 0.  1.
</event>
<event>
 5   0  0.5003507E-04  0.1198531E+04  0.7818609E-02  0.9114144E-01
        1   -1    0    0  501    0  0.00000000000E+00  0.00000000000E+00  0.39873776527E+03  0.39873776530E+03  0.50400001928E-02 0.  1.
       -1   -1    0    0    0  501  0.00000000000E+00  0.00000000000E+00 -0.90063931658E+03  0.90063931659E+03  0.50400001928E-02 0. -1.
    10030    2    1    2    0    0  0.00000000000E+00  0.00000000000E+00 -0.50190155131E+03  0.12993770819E+04  0.11985306144E+04 0.  0.
        3    1    3    3  502    0  0.13853182193E+03 -0.24989844412E+03 -0.82203586101E+03  0.87027769421E+03  0.10100000352E+00 0. -1.
       -3    1    3    3    0  502 -0.13853182193E+03  0.24989844412E+03  0.32013430969E+03  0.42909938768E+03  0.10100000352E+00 0.  1.
</event>
<event>
 5   0  0.5447074E-04  0.1209316E+04  0.7818609E-02  0.9104741E-01
       -1   -1    0    0    0  501  0.00000000000E+00  0.00000000000E+00  0.94326185152E+03  0.94326185154E+03  0.50400001928E-02 0.  1.
        1   -1    0    0  501    0  0.00000000000E+00  0.00000000000E+00 -0.38760297534E+03  0.38760297537E+03  0.50400001928E-02 0. -1.
    10030    2    1    2    0    0  0.00000000000E+00  0.00000000000E+00  0.55565887619E+03  0.13308648269E+04  0.12093156746E+04 0.  0.
        4    1    3    3  502    0 -0.17114122413E+03 -0.32609468270E+02  0.91504013448E+03  0.93147880095E+03  0.12699999809E+01 0.  1.
       -4    1    3    3    0  502  0.17114122413E+03  0.32609468270E+02 -0.35938125829E+03  0.39938602595E+03  0.12699999809E+01 0. -1.
</event>
<event>
 5   0  0.5052959E-04  0.1197723E+04  0.7818609E-02  0.9114852E-01
       -1   -1    0    0    0  501  0.00000000000E+00  0.00000000000E+00  0.41992387047E+03  0.41992387050E+03  0.50400001928E-02 0. -1.
        1   -1    0    0  501    0  0.00000000000E+00  0.00000000000E+00 -0.85404755979E+03  0.85404755981E+03  0.50400001928E-02 0.  1.
    10030    2    1    2    0    0  0.00000000000E+00  0.00000000000E+00 -0.43412368932E+03  0.12739714303E+04  0.11977227674E+04 0.  0.
        2    1    3    3  502    0  0.56343926978E+03  0.12678935476E+03 -0.48560944772E+02  0.57956666275E+03  0.25500000920E-02 0.  1.
       -2    1    3    3    0  502 -0.56343926978E+03 -0.12678935476E+03 -0.38556274455E+03  0.69440476755E+03  0.25500000920E-02 0. -1.
</event>
<event>
 5   0  0.9410666E-04  0.1197751E+04  0.7818609E-02  0.9114827E-01
       -2   -1    0    0    0  501  0.00000000000E+00  0.00000000000E+00  0.25107569105E+03  0.25107569106E+03  0.25500000920E-02 0.  1.
        2   -1    0    0  501    0  0.00000000000E+00  0.00000000000E+00 -0.14284610009E+04  0.14284610009E+04  0.25500000920E-02 0. -1.
    10030    2    1    2    0    0  0.00000000000E+00  0.00000000000E+00 -0.11773853098E+04  0.16795366920E+04  0.11977509473E+04 0.  0.
        2    1    3    3  502    0  0.26858783561E+03  0.53253814881E+03 -0.66440758906E+03  0.89284587124E+03  0.25500000920E-02 0. -1.
       -2    1    3    3    0  502 -0.26858783561E+03 -0.53253814881E+03 -0.51297772078E+03  0.78669082071E+03  0.25500000920E-02 0.  1.
</event>
<event>
 5   0  0.5157631E-04  0.1209078E+04  0.7818609E-02  0.9104948E-01
       -1   -1    0    0    0  501  0.00000000000E+00  0.00000000000E+00  0.37906763967E+03  0.37906763970E+03  0.50400001928E-02 0.  1.
        1   -1    0    0  501    0  0.00000000000E+00  0.00000000000E+00 -0.96412158946E+03  0.96412158947E+03  0.50400001928E-02 0. -1.
    10030    2    1    2    0    0  0.00000000000E+00  0.00000000000E+00 -0.58505394979E+03  0.13431892292E+04  0.12090778226E+04 0.  0.
        5    1    3    3  502    0  0.33584516225E+03 -0.44421992635E+03 -0.31231765681E+02  0.55778206242E+03  0.46999998093E+01 0.  1.
       -5    1    3    3    0  502 -0.33584516225E+03  0.44421992635E+03 -0.55382218411E+03  0.78540716675E+03  0.46999998093E+01 0. -1.
</event>
<event>
 5   0  0.5003507E-04  0.1197427E+04  0.7818609E-02  0.9115111E-01
        1   -1    0    0  501    0  0.00000000000E+00  0.00000000000E+00  0.62714913619E+03  0.62714913621E+03  0.50400001928E-02 0.  1.
       -1   -1    0    0    0  501  0.00000000000E+00  0.00000000000E+00 -0.57156735894E+03  0.57156735896E+03  0.50400001928E-02 0. -1.
    10030    2    1    2    0    0  0.00000000000E+00  0.00000000000E+00  0.55581777253E+02  0.11987164952E+04  0.11974272011E+04 0.  0.
        3    1    3    3  502    0  0.30935923359E+03  0.34521785665E+03 -0.35153590660E+03  0.58176972059E+03  0.10100000352E+00 0. -1.
       -3    1    3    3    0  502 -0.30935923359E+03 -0.34521785665E+03  0.40711768386E+03  0.61694677458E+03  0.10100000352E+00 0.  1.
</event>
<event>
 5   0  0.9410666E-04  0.1199196E+04  0.7818609E-02  0.9113560E-01
       -2   -1    0    0    0  501  0.00000000000E+00  0.00000000000E+00  0.53414605067E+03  0.53414605068E+03  0.25500000920E-02 0. -1.
        2   -1    0    0  501    0  0.00000000000E+00  0.00000000000E+00 -0.67307045945E+03  0.67307045945E+03  0.25500000920E-02 0.  1.
    10030    2    1    2    0    0  0.00000000000E+00  0.00000000000E+00 -0.13892440878E+03  0.12072165101E+04  0.11991962771E+04 0.  0.
        2    1    3    3  502    0  0.91373934484E+02  0.14154284838E+03 -0.64875351546E+03  0.67027210718E+03  0.25500000920E-02 0.  1.
       -2    1    3    3    0  502 -0.91373934484E+02 -0.14154284838E+03  0.50982910669E+03  0.53694440295E+03  0.25500000920E-02 0. -1.
</event>
<event>
 5   0  0.5052959E-04  0.1199735E+04  0.7818609E-02  0.9113089E-01
       -1   -1    0    0    0  501  0.00000000000E+00  0.00000000000E+00  0.14842409662E+03  0.14842409670E+03  0.50400001928E-02 0. -1.
        1   -1    0    0  501    0  0.00000000000E+00  0.00000000000E+00 -0.24244093866E+04  0.24244093866E+04  0.50400001928E-02 0.  1.
    10030    2    1    2    0    0  0.00000000000E+00  0.00000000000E+00 -0.22759852900E+04  0.25728334833E+04  0.11997345926E+04 0.  0.
        2    1    3    3  502    0 -0.55343723617E+03  0.22948200299E+03 -0.12018256930E+04  0.13428848649E+04  0.25500000920E-02 0.  1.
       -2    1    3    3    0  502  0.55343723617E+03 -0.22948200299E+03 -0.10741595970E+04  0.12299486184E+04  0.25500000920E-02 0. -1.
</event>
<event>
 5   0  0.5157631E-04  0.1199863E+04  0.7818609E-02  0.9112976E-01
        1   -1    0    0  501    0  0.00000000000E+00  0.00000000000E+00  0.55034403326E+03  0.55034403328E+03  0.50400001928E-02 0. -1.
       -1   -1    0    0    0  501  0.00000000000E+00  0.00000000000E+00 -0.65398707000E+03  0.65398707002E+03  0.50400001928E-02 0.  1.
    10030    2    1    2    0    0  0.00000000000E+00  0.00000000000E+00 -0.10364303674E+03  0.12043311033E+04  0.11998631286E+04 0.  0.
        5    1    3    3  502    0  0.34843043835E+03  0.43684357850E+03 -0.27094548944E+03  0.62102305166E+03  0.46999998093E+01 0. -1.
       -5    1    3    3    0  502 -0.34843043835E+03 -0.43684357850E+03  0.16730245270E+03  0.58330805165E+03  0.46999998093E+01 0.  1.
</event>
<event>
 5   0  0.9298693E-04  0.1207735E+04  0.7818609E-02  0.9106113E-01
       -2   -1    0    0    0  501  0.00000000000E+00  0.00000000000E+00  0.54947673632E+03  0.54947673632E+03  0.25500000920E-02 0.  1.
        2   -1    0    0  501    0  0.00000000000E+00  0.00000000000E+00 -0.66364209503E+03  0.66364209503E+03  0.25500000920E-02 0. -1.
    10030    2    1    2    0    0  0.00000000000E+00  0.00000000000E+00 -0.11416535871E+03  0.12131188314E+04  0.12077348922E+04 0.  0.
        1    1    3    3  502    0 -0.31548456937E+02 -0.11777844773E+03 -0.65114867748E+03  0.66246635242E+03  0.50400001928E-02 0. -1.
       -1    1    3    3    0  502  0.31548456937E+02  0.11777844773E+03  0.53698331877E+03  0.55065247893E+03  0.50400001928E-02 0.  1.
</event>
<event>
 5   0  0.9410666E-04  0.1189304E+04  0.7818609E-02  0.9122271E-01
       -2   -1    0    0    0  501  0.00000000000E+00  0.00000000000E+00  0.39018419735E+03  0.39018419736E+03  0.25500000920E-02 0.  1.
        2   -1    0    0  501    0  0.00000000000E+00  0.00000000000E+00 -0.90626628780E+03  0.90626628780E+03  0.25500000920E-02 0. -1.
    10030    2    1    2    0    0  0.00000000000E+00  0.00000000000E+00 -0.51608209045E+03  0.12964504852E+04  0.11893036351E+04 0.  0.
        2    1    3    3  502    0 -0.35210923228E+03  0.41748361617E+03 -0.16090672851E+01  0.54614656488E+03  0.25500000920E-02 0.  1.
       -2    1    3    3    0  502  0.35210923228E+03 -0.41748361617E+03 -0.51447302316E+03  0.75030392028E+03  0.25500000920E-02 0. -1.
</event>
<event>
 5   0  0.9298693E-04  0.1201210E+04  0.7818609E-02  0.9111798E-01
        2   -1    0    0  501    0  0.00000000000E+00  0.00000000000E+00  0.21817113842E+04  0.21817113842E+04  0.25500000920E-02 0. -1.
       -2   -1    0    0    0  501  0.00000000000E+00  0.00000000000E+00 -0.16534095345E+03  0.16534095347E+03  0.25500000920E-02 0.  1.
    10030    2    1    2    0    0  0.00000000000E+00  0.00000000000E+00  0.20163704307E+04  0.23470523376E+04  0.12012097909E+04 0.  0.
        1    1    3    3  502    0 -0.13537086731E+03  0.42092063274E+03  0.18024112938E+04  0.18558518052E+04  0.50400001928E-02 0. -1.
       -1    1    3    3    0  502  0.13537086731E+03 -0.42092063274E+03  0.21395913690E+03  0.49120053244E+03  0.50400001928E-02 0.  1.
</event>
<event>
 5   0  0.9145224E-04  0.1199482E+04  0.7818609E-02  0.9113310E-01
        2   -1    0    0  501    0  0.00000000000E+00  0.00000000000E+00  0.73388460125E+03  0.73388460126E+03  0.25500000920E-02 0.  1.
       -2   -1    0    0    0  501  0.00000000000E+00  0.00000000000E+00 -0.49011657932E+03  0.49011657933E+03  0.25500000920E-02 0. -1.
    10030    2    1    2    0    0  0.00000000000E+00  0.00000000000E+00  0.24376802193E+03  0.12240011806E+04  0.11994815720E+04 0.  0.
        5    1    3    3  502    0 -0.26650788172E+03  0.87301784960E+02 -0.41906458303E+03  0.50426705962E+03  0.46999998093E+01 0. -1.
       -5    1    3    3    0  502  0.26650788172E+03 -0.87301784960E+02  0.66283260496E+03  0.71973412096E+03  0.46999998093E+01 0.  1.
</event>
<event>
 5   0  0.9070772E-04  0.1205550E+04  0.7818609E-02  0.9108013E-01
        2   -1    0    0  501    0  0.00000000000E+00  0.00000000000E+00  0.12129670748E+04  0.12129670748E+04  0.25500000920E-02 0.  1.
       -2   -1    0    0    0  501  0.00000000000E+00  0.00000000000E+00 -0.29954446278E+03  0.29954446279E+03  0.25500000920E-02 0. -1.
    10030    2    1    2    0    0  0.00000000000E+00  0.00000000000E+00  0.91342261201E+03  0.15125115376E+04  0.12055497846E+04 0.  0.
        4    1    3    3  502    0  0.38055708994E+01 -0.22210466966E+03  0.11597385257E+04  0.11808217595E+04  0.12699999809E+01 0.  1.
       -4    1    3    3    0  502 -0.38055708994E+01  0.22210466966E+03 -0.24631591372E+03  0.33168977812E+03  0.12699999809E+01 0. -1.
</event>
<event>
 5   0  0.9298693E-04  0.1204927E+04  0.7818609E-02  0.9108555E-01
       -2   -1    0    0    0  501  0.00000000000E+00  0.00000000000E+00  0.90355575761E+03  0.90355575761E+03  0.25500000920E-02 0.  1.
        2   -1    0    0  501    0  0.00000000000E+00  0.00000000000E+00 -0.40170451110E+03  0.40170451110E+03  0.25500000920E-02 0. -1.
    10030    2    1    2    0    0  0.00000000000E+00  0.00000000000E+00  0.50185124651E+03  0.13052602687E+04  0.12049272573E+04 0.  0.
        1    1    3    3  502    0 -0.39132414769E+03  0.20548916459E+03  0.69440756251E+03  0.82314169390E+03  0.50400001928E-02 0.  1.
       -1    1    3    3    0  502  0.39132414769E+03 -0.20548916459E+03 -0.19255631600E+03  0.48211857482E+03  0.50400001928E-02 0. -1.
</event>
<event>
 5   0  0.5052959E-04  0.1228610E+04  0.7818609E-02  0.9088177E-01
       -1   -1    0    0    0  501  0.00000000000E+00  0.00000000000E+00  0.11892845080E+04  0.11892845080E+04  0.50400001928E-02 0.  1.
        1   -1    0    0  501    0  0.00000000000E+00  0.00000000000E+00 -0.31730881669E+03  0.31730881673E+03  0.50400001928E-02 0. -1.
    10030    2    1    2    0    0  0.00000000000E+00  0.00000000000E+00  0.87197569127E+03  0.15065933247E+04  0.12286097183E+04 0.  0.
        2    1    3    3  502    0  0.49945166908E+03  0.34307546815E+02  0.87254537594E+03  0.10059644182E+04  0.25500000920E-02 0. -1.
       -2    1    3    3    0  502 -0.49945166908E+03 -0.34307546815E+02 -0.56968467433E+00  0.50062890654E+03  0.25500000920E-02 0.  1.
</event>
<event>
 5   0  0.9410666E-04  0.1202895E+04  0.7818609E-02  0.9110326E-01
       -2   -1    0    0    0  501  0.00000000000E+00  0.00000000000E+00  0.39055676554E+03  0.39055676554E+03  0.25500000920E-02 0. -1.
        2   -1    0    0  501    0  0.00000000000E+00  0.00000000000E+00 -0.92621372058E+03  0.92621372058E+03  0.25500000920E-02 0.  1.
    10030    2    1    2    0    0  0.00000000000E+00  0.00000000000E+00 -0.53565695504E+03  0.13167704861E+04  0.12028948997E+04 0.  0.
        2    1    3    3  502    0 -0.22217425417E+03 -0.38261710733E+03  0.17814868036E+03  0.47696352309E+03  0.25500000920E-02 0. -1.
       -2    1    3    3    0  502  0.22217425417E+03  0.38261710733E+03 -0.71380563540E+03  0.83980696304E+03  0.25500000920E-02 0.  1.
</event>
<event>
 5   0  0.9050363E-04  0.1189879E+04  0.7818609E-02  0.9121762E-01
        2   -1    0    0  501    0  0.00000000000E+00  0.00000000000E+00  0.15544229139E+04  0.15544229139E+04  0.25500000920E-02 0. -1.
       -2   -1    0    0    0  501  0.00000000000E+00  0.00000000000E+00 -0.22770689113E+03  0.22770689115E+03  0.25500000920E-02 0.  1.
    10030    2    1    2    0    0  0.00000000000E+00  0.00000000000E+00  0.13267160228E+04  0.17821298051E+04  0.11898786648E+04 0.  0.
        3    1    3    3  502    0  0.52530465671E+03 -0.22386849034E+03  0.91348841600E+03  0.10772758141E+04  0.10100000352E+00 0. -1.
       -3    1    3    3    0  502 -0.52530465671E+03  0.22386849034E+03  0.41322760677E+03  0.70485399093E+03  0.10100000352E+00 0.  1.
</event>
<event>
 5   0  0.3453625E-04  0.1197544E+04  0.7818609E-02  0.9115009E-01
       -4   -1    0    0    0  501  0.00000000000E+00  0.00000000000E+00  0.40312097960E+03  0.40312298011E+03  0.12699999809E+01 0.  1.
        4   -1    0    0  501    0  0.00000000000E+00  0.00000000000E+00 -0.88937532968E+03  0.88937623644E+03  0.12699999809E+01 0. -1.
    10030    2    1    2    0    0  0.00000000000E+00  0.00000000000E+00 -0.48625435008E+03  0.12924992165E+04  0.11975437077E+04 0.  0.
        4    1    3    3  502    0  0.18394232564E+03  0.56200080539E+03 -0.14161384462E+03  0.60805902535E+03  0.12699999809E+01 0.  1.
       -4    1    3    3    0  502 -0.18394232564E+03 -0.56200080539E+03 -0.34464050546E+03  0.68444019120E+03  0.12699999809E+01 0. -1.
</event>
<event>
 5   0  0.9298693E-04  0.1199642E+04  0.7818609E-02  0.9113170E-01
        2   -1    0    0  501    0  0.00000000000E+00  0.00000000000E+00  0.26191600615E+04  0.26191600615E+04  0.25500000920E-02 0.  1.
       -2   -1    0    0    0  501  0.00000000000E+00  0.00000000000E+00 -0.13736662437E+03  0.13736662439E+03  0.25500000920E-02 0. -1.
    10030    2    1    2    0    0  0.00000000000E+00  0.00000000000E+00  0.24817934371E+04  0.27565266859E+04  0.11996419072E+04 0.  0.
        1    1    3    3  502    0  0.51695002398E+03  0.21785262997E+03  0.75298477780E+03  0.93897985671E+03  0.50400001928E-02 0. -1.
       -1    1    3    3    0  502 -0.51695002398E+03 -0.21785262997E+03  0.17288086593E+04  0.18175468292E+04  0.50400001928E-02 0.  1.
</event>
<event>
 5   0  0.5001586E-04  0.1199933E+04  0.7818609E-02  0.9112915E-01
        1   -1    0    0  501    0  0.00000000000E+00  0.00000000000E+00  0.94576262361E+03  0.94576262362E+03  0.50400001928E-02 0. -1.
       -1   -1    0    0    0  501  0.00000000000E+00  0.00000000000E+00 -0.38060260391E+03  0.38060260395E+03  0.50400001928E-02 0.  1.
    10030    2    1    2    0    0  0.00000000000E+00  0.00000000000E+00  0.56516001970E+03  0.13263652276E+04  0.11999328602E+04 0.  0.
        1    1    3    3  502    0  0.15694813466E+03 -0.45439837991E+03 -0.11419736251E+03  0.49411703296E+03  0.50400001928E-02 0.  1.
       -1    1    3    3    0  502 -0.15694813466E+03  0.45439837991E+03  0.67935738221E+03  0.83224819460E+03  0.50400001928E-02 0. -1.
</event>
<event>
 5   0  0.9410666E-04  0.1200823E+04  0.7818609E-02  0.9112137E-01
       -2   -1    0    0    0  501  0.00000000000E+00  0.00000000000E+00  0.28257030284E+03  0.28257030285E+03  0.25500000920E-02 0. -1.
        2   -1    0    0  501    0  0.00000000000E+00  0.00000000000E+00 -0.12757665665E+04  0.12757665665E+04  0.25500000920E-02 0.  1.
    10030    2    1    2    0    0  0.00000000000E+00  0.00000000000E+00 -0.99319626367E+03  0.15583368694E+04  0.12008226265E+04 0.  0.
        2    1    3    3  502    0 -0.20008502894E+03  0.48229337924E+03 -0.11195290891E+03  0.53401720598E+03  0.25500000920E-02 0. -1.
       -2    1    3    3    0  502  0.20008502894E+03 -0.48229337924E+03 -0.88124335476E+03  0.10243196634E+04  0.25500000920E-02 0.  1.
</event>
<event>
 5   0  0.5157631E-04  0.1200249E+04  0.7818609E-02  0.9112638E-01
       -1   -1    0    0    0  501  0.00000000000E+00  0.00000000000E+00  0.47132523685E+03  0.47132523688E+03  0.50400001928E-02 0. -1.
        1   -1    0    0  501    0  0.00000000000E+00  0.00000000000E+00 -0.76412130576E+03  0.76412130578E+03  0.50400001928E-02 0.  1.
    10030    2    1    2    0    0  0.00000000000E+00  0.00000000000E+00 -0.29279606891E+03  0.12354465427E+04  0.12002493998E+04 0.  0.
        5    1    3    3  502    0 -0.61254355119E+01 -0.51265557119E+03 -0.46743241140E+03  0.69380718132E+03  0.46999998093E+01 0.  1.
       -5    1    3    3    0  502  0.61254355119E+01  0.51265557119E+03  0.17463634249E+03  0.54163936134E+03  0.46999998093E+01 0. -1.
</event>
<event>
 5   0  0.9145224E-04  0.1192573E+04  0.7818609E-02  0.9119382E-01
       -2   -1    0    0    0  501  0.00000000000E+00  0.00000000000E+00  0.77298085009E+03  0.77298085010E+03  0.25500000920E-02 0. -1.
        2   -1    0    0  501    0  0.00000000000E+00  0.00000000000E+00 -0.45998263814E+03  0.45998263814E+03  0.25500000920E-02 0.  1.
    10030    2    1    2    0    0  0.00000000000E+00  0.00000000000E+00  0.31299821196E+03  0.12329634882E+04  0.11925733028E+04 0.  0.
        5    1    3    3  502    0 -0.53300003102E+03  0.84424791688E+02 -0.10570236256E+03  0.54991968319E+03  0.46999998093E+01 0.  1.
       -5    1    3    3    0  502  0.53300003102E+03 -0.84424791688E+02  0.41870057451E+03  0.68304380505E+03  0.46999998093E+01 0. -1.
</event>
<event>
 5   0  0.5447074E-04  0.1190963E+04  0.7818609E-02  0.9120804E-01
        1   -1    0    0  501    0  0.00000000000E+00  0.00000000000E+00  0.23191688759E+04  0.23191688759E+04  0.50400001928E-02 0.  1.
       -1   -1    0    0    0  501  0.00000000000E+00  0.00000000000E+00 -0.15289878432E+03  0.15289878440E+03  0.50400001928E-02 0. -1.
    10030    2    1    2    0    0  0.00000000000E+00  0.00000000000E+00  0.21662700916E+04  0.24720676603E+04  0.11909628069E+04 0.  0.
        4    1    3    3  502    0  0.18581371629E+03 -0.56271172217E+03  0.12046163736E+04  0.13424877801E+04  0.12699999809E+01 0.  1.
       -4    1    3    3    0  502 -0.18581371629E+03  0.56271172217E+03  0.96165371804E+03  0.11295798802E+04  0.12699999809E+01 0. -1.
</event>
<event>
 5   0  0.9070772E-04  0.1199476E+04  0.7818609E-02  0.9113316E-01
       -2   -1    0    0    0  501  0.00000000000E+00  0.00000000000E+00  0.87003497916E+03  0.87003497916E+03  0.25500000920E-02 0. -1.
        2   -1    0    0  501    0  0.00000000000E+00  0.00000000000E+00 -0.41341486281E+03  0.41341486281E+03  0.25500000920E-02 0.  1.
    10030    2    1    2    0    0  0.00000000000E+00  0.00000000000E+00  0.45662011635E+03  0.12834498420E+04  0.11994755380E+04 0.  0.
        4    1    3    3  502    0  0.34410303387E+03 -0.48069770239E+03  0.12020947288E+03  0.60326537218E+03  0.12699999809E+01 0.  1.
       -4    1    3    3    0  502 -0.34410303387E+03  0.48069770239E+03  0.33641064347E+03  0.68018446979E+03  0.12699999809E+01 0. -1.
</event>
<event>
 5   0  0.5001586E-04  0.1200930E+04  0.7818609E-02  0.9112043E-01
       -1   -1    0    0    0  501  0.00000000000E+00  0.00000000000E+00  0.12865017005E+04  0.12865017006E+04  0.50400001928E-02 0.  1.
        1   -1    0    0  501    0  0.00000000000E+00  0.00000000000E+00 -0.28026233121E+03  0.28026233126E+03  0.50400001928E-02 0. -1.
    10030    2    1    2    0    0  0.00000000000E+00  0.00000000000E+00  0.10062393693E+04  0.15667640318E+04  0.12009295829E+04 0.  0.
        1    1    3    3  502    0  0.46236570540E+03  0.15280454320E+03  0.96146267532E+03  0.10777484632E+04  0.50400001928E-02 0.  1.
       -1    1    3    3    0  502 -0.46236570540E+03 -0.15280454320E+03  0.44776694010E+02  0.48901556857E+03  0.50400001928E-02 0. -1.
</event>
<event>
 5   0  0.9298693E-04  0.1200470E+04  0.7818609E-02  0.9112445E-01
       -2   -1    0    0    0  501  0.00000000000E+00  0.00000000000E+00  0.10311014637E+04  0.10311014637E+04  0.25500000920E-02 0. -1.
        2   -1    0    0  501    0  0.00000000000E+00  0.00000000000E+00 -0.34941487739E+03  0.34941487739E+03  0.25500000920E-02 0.  1.
    10030    2    1    2    0    0  0.00000000000E+00  0.00000000000E+00  0.68168658633E+03  0.13805163411E+04  0.12004702271E+04 0.  0.
        1    1    3    3  502    0  0.53247832211E+03  0.21991229816E+03  0.14708755806E+03  0.59458332650E+03  0.50400001928E-02 0. -1.
       -1    1    3    3    0  502 -0.53247832211E+03 -0.21991229816E+03  0.53459902827E+03  0.78593301461E+03  0.50400001928E-02 0.  1.
</event>
<event>
 5   0  0.5447074E-04  0.1193055E+04  0.7818609E-02  0.9118958E-01
       -1   -1    0    0    0  501  0.00000000000E+00  0.00000000000E+00  0.50538633708E+03  0.50538633710E+03  0.50400001928E-02 0. -1.
        1   -1    0    0  501    0  0.00000000000E+00  0.00000000000E+00 -0.70410461705E+03  0.70410461707E+03  0.50400001928E-02 0.  1.
    10030    2    1    2    0    0  0.00000000000E+00  0.00000000000E+00 -0.19871827997E+03  0.12094909542E+04  0.11930546565E+04 0.  0.
        4    1    3    3  502    0 -0.65002188585E+00 -0.10113199938E+03 -0.69534871313E+03  0.70266602990E+03  0.12699999809E+01 0.  1.
       -4    1    3    3    0  502  0.65002188585E+00  0.10113199938E+03  0.49663043316E+03  0.50682492427E+03  0.12699999809E+01 0. -1.
</event>
<event>
 5   0  0.3453625E-04  0.1194195E+04  0.7818609E-02  0.9117953E-01
        3   -1    0    0  501    0  0.00000000000E+00  0.00000000000E+00  0.11060640485E+04  0.11060640531E+04  0.10100000352E+00 0. -1.
       -3   -1    0    0    0  501  0.00000000000E+00  0.00000000000E+00 -0.32233712777E+03  0.32233714359E+03  0.10100000352E+00 0.  1.
    10030    2    1    2    0    0  0.00000000000E+00  0.00000000000E+00  0.78372692069E+03  0.14284011967E+04  0.11941951651E+04 0.  0.
        5    1    3    3  502    0  0.30852592148E+03 -0.50055020682E+03  0.26776241339E+03  0.64610955247E+03  0.46999998093E+01 0.  1.
       -5    1    3    3    0  502 -0.30852592148E+03  0.50055020682E+03  0.51596450730E+03  0.78229164419E+03  0.46999998093E+01 0. -1.
</event>
<event>
 5   0  0.9050363E-04  0.1202384E+04  0.7818609E-02  0.9110773E-01
       -2   -1    0    0    0  501  0.00000000000E+00  0.00000000000E+00  0.32037760629E+03  0.32037760630E+03  0.25500000920E-02 0.  1.
        2   -1    0    0  501    0  0.00000000000E+00  0.00000000000E+00 -0.11281425990E+04  0.11281425990E+04  0.25500000920E-02 0. -1.
    10030    2    1    2    0    0  0.00000000000E+00  0.00000000000E+00 -0.80776499274E+03  0.14485202053E+04  0.12023836749E+04 0.  0.
        3    1    3    3  502    0 -0.16181879262E+03 -0.20406960433E+03  0.24888859056E+03  0.36024334243E+03  0.10100000352E+00 0.  1.
       -3    1    3    3    0  502  0.16181879262E+03  0.20406960433E+03 -0.10566535833E+04  0.10882768629E+04  0.10100000352E+00 0. -1.
</event>
<event>
 5   0  0.5003507E-04  0.1202914E+04  0.7818609E-02  0.9110309E-01
        1   -1    0    0  501    0  0.00000000000E+00  0.00000000000E+00  0.14944053954E+04  0.14944053954E+04  0.50400001928E-02 0. -1.
       -1   -1    0    0    0  501  0.00000000000E+00  0.00000000000E+00 -0.24207005004E+03  0.24207005010E+03  0.50400001928E-02 0.  1.
    10030    2    1    2    0    0  0.00000000000E+00  0.00000000000E+00  0.12523353454E+04  0.17364754455E+04  0.12029144424E+04 0.  0.
        3    1    3    3  502    0 -0.16181537456E+03 -0.16730508665E+02  0.14620440281E+04  0.14710665776E+04  0.10100000352E+00 0. -1.
       -3    1    3    3    0  502  0.16181537456E+03  0.16730508665E+02 -0.20970868273E+03  0.26540886794E+03  0.10100000352E+00 0.  1.
</event>
<event>
 5   0  0.9298693E-04  0.1199285E+04  0.7818609E-02  0.9113483E-01
       -2   -1    0    0    0  501  0.00000000000E+00  0.00000000000E+00  0.11127039441E+04  0.11127039441E+04  0.25500000920E-02 0. -1.
        2   -1    0    0  501    0  0.00000000000E+00  0.00000000000E+00 -0.32315066399E+03  0.32315066400E+03  0.25500000920E-02 0.  1.
    10030    2    1    2    0    0  0.00000000000E+00  0.00000000000E+00  0.78955328007E+03  0.14358546081E+04  0.11992848175E+04 0.  0.
        1    1    3    3  502    0 -0.15570480937E+03 -0.52495802048E+03  0.68742287307E+03  0.87884874545E+03  0.50400001928E-02 0. -1.
       -1    1    3    3    0  502  0.15570480937E+03  0.52495802048E+03  0.10213040700E+03  0.55700586261E+03  0.50400001928E-02 0.  1.
</event>
<event>
 5   0  0.5447074E-04  0.1203571E+04  0.7818609E-02  0.9109737E-01
        1   -1    0    0  501    0  0.00000000000E+00  0.00000000000E+00  0.76047643617E+03  0.76047643619E+03  0.50400001928E-02 0.  1.
       -1   -1    0    0    0  501  0.00000000000E+00  0.00000000000E+00 -0.47620883691E+03  0.47620883693E+03  0.50400001928E-02 0. -1.
    10030    2    1    2    0    0  0.00000000000E+00  0.00000000000E+00  0.28426759927E+03  0.12366852731E+04  0.12035706862E+04 0.  0.
        4    1    3    3  502    0  0.72773017503E+02 -0.38358900145E+03  0.61267171371E+03  0.72650166951E+03  0.12699999809E+01 0.  1.
       -4    1    3    3    0  502 -0.72773017503E+02  0.38358900145E+03 -0.32840411445E+03  0.51018360362E+03  0.12699999809E+01 0. -1.
</event>
<event>
 5   0  0.9050363E-04  0.1198618E+04  0.7818609E-02  0.9114067E-01
       -2   -1    0    0    0  501  0.00000000000E+00  0.00000000000E+00  0.24722646943E+03  0.24722646944E+03  0.25500000920E-02 0. -1.
        2   -1    0    0  501    0  0.00000000000E+00  0.00000000000E+00 -0.14528029328E+04  0.14528029328E+04  0.25500000920E-02 0.  1.
    10030    2    1    2    0    0  0.00000000000E+00  0.00000000000E+00 -0.12055764634E+04  0.17000294023E+04  0.11986181041E+04 0.  0.
        3    1    3    3  502    0  0.30289137943E+03  0.36660317045E+03 -0.11200981620E+04  0.12168652247E+04  0.10100000352E+00 0.  1.
       -3    1    3    3    0  502 -0.30289137943E+03 -0.36660317045E+03 -0.85478301414E+02  0.48316417761E+03  0.10100000352E+00 0. -1.
</event>
<event>
 5   0  0.5447074E-04  0.1198551E+04  0.7818609E-02  0.9114126E-01
       -1   -1    0    0    0  501  0.00000000000E+00  0.00000000000E+00  0.56011256366E+03  0.56011256369E+03  0.50400001928E-02 0. -1.
        1   -1    0    0  501    0  0.00000000000E+00  0.00000000000E+00 -0.64117688959E+03  0.64117688961E+03  0.50400001928E-02 0.  1.
    10030    2    1    2    0    0  0.00000000000E+00  0.00000000000E+00 -0.81064325929E+02  0.12012894533E+04  0.11985511777E+04 0.  0.
        4    1    3    3  502    0 -0.21742525041E+03  0.29909262591E+03  0.43213775675E+03  0.56874844360E+03  0.12699999809E+01 0. -1.
       -4    1    3    3    0  502  0.21742525041E+03 -0.29909262591E+03 -0.51320208268E+03  0.63254100970E+03  0.12699999809E+01 0.  1.
</event>
<event>
 5   0  0.3453625E-04  0.1201769E+04  0.7818609E-02  0.9111310E-01
       -3   -1    0    0    0  501  0.00000000000E+00  0.00000000000E+00  0.65048907044E+03  0.65048907828E+03  0.10100000352E+00 0. -1.
        3   -1    0    0  501    0  0.00000000000E+00  0.00000000000E+00 -0.55506251325E+03  0.55506252244E+03  0.10100000352E+00 0.  1.
    10030    2    1    2    0    0  0.00000000000E+00  0.00000000000E+00  0.95426557184E+02  0.12055516007E+04  0.12017688772E+04 0.  0.
        2    1    3    3  502    0 -0.14776680327E+02 -0.14779001792E+03  0.63178462040E+03  0.64900851016E+03  0.25500000920E-02 0. -1.
       -2    1    3    3    0  502  0.14776680327E+02  0.14779001792E+03 -0.53635806321E+03  0.55654309057E+03  0.25500000920E-02 0.  1.
</event>
<event>
 5   0  0.5447074E-04  0.1201759E+04  0.7818609E-02  0.9111318E-01
       -1   -1    0    0    0  501  0.00000000000E+00  0.00000000000E+00  0.39107337058E+03  0.39107337061E+03  0.50400001928E-02 0.  1.
        1   -1    0    0  501    0  0.00000000000E+00  0.00000000000E+00 -0.92324401576E+03  0.92324401578E+03  0.50400001928E-02 0. -1.
    10030    2    1    2    0    0  0.00000000000E+00  0.00000000000E+00 -0.53217064518E+03  0.13143173864E+04  0.12017589594E+04 0.  0.
        4    1    3    3  502    0 -0.30147578455E+03  0.66145506287E+02 -0.82992230592E+03  0.88545780443E+03  0.12699999809E+01 0. -1.
       -4    1    3    3    0  502  0.30147578455E+03 -0.66145506287E+02  0.29775166073E+03  0.42885958196E+03  0.12699999809E+01 0.  1.
</event>
<event>
 5   0  0.5157631E-04  0.1199207E+04  0.7818609E-02  0.9113551E-01
       -1   -1    0    0    0  501  0.00000000000E+00  0.00000000000E+00  0.50276030451E+03  0.50276030453E+03  0.50400001928E-02 0.  1.
        1   -1    0    0  501    0  0.00000000000E+00  0.00000000000E+00 -0.71510137262E+03  0.71510137264E+03  0.50400001928E-02 0. -1.
    10030    2    1    2    0    0  0.00000000000E+00  0.00000000000E+00 -0.21234106811E+03  0.12178616772E+04  0.11992073780E+04 0.  0.
        5    1    3    3  502    0 -0.26852906719E+03 -0.43611653627E+03 -0.42278452693E+03  0.66413427810E+03  0.46999998093E+01 0. -1.
       -5    1    3    3    0  502  0.26852906719E+03  0.43611653627E+03  0.21044345882E+03  0.55372739908E+03  0.46999998093E+01 0.  1.
</event>
<event>
 5   0  0.9410666E-04  0.1199671E+04  0.7818609E-02  0.9113144E-01
        2   -1    0    0  501    0  0.00000000000E+00  0.00000000000E+00  0.72355324254E+03  0.72355324254E+03  0.25500000920E-02 0.  1.
       -2   -1    0    0    0  501  0.00000000000E+00  0.00000000000E+00 -0.49727188990E+03  0.49727188991E+03  0.25500000920E-02 0. -1.
    10030    2    1    2    0    0  0.00000000000E+00  0.00000000000E+00  0.22628135264E+03  0.12208251325E+04  0.11996711022E+04 0.  0.
        2    1    3    3  502    0 -0.91833690733E+02 -0.14519838963E+03  0.69798031415E+03  0.71881327064E+03  0.25500000920E-02 0.  1.
       -2    1    3    3    0  502  0.91833690733E+02  0.14519838963E+03 -0.47169896151E+03  0.50201186181E+03  0.25500000920E-02 0. -1.
</event>
<event>
 5   0  0.9070772E-04  0.1199119E+04  0.7818609E-02  0.9113628E-01
        2   -1    0    0  501    0  0.00000000000E+00  0.00000000000E+00  0.15682736675E+04  0.15682736675E+04  0.25500000920E-02 0. -1.
       -2   -1    0    0    0  501  0.00000000000E+00  0.00000000000E+00 -0.22921472537E+03  0.22921472539E+03  0.25500000920E-02 0.  1.
    10030    2    1    2    0    0  0.00000000000E+00  0.00000000000E+00  0.13390589421E+04  0.17974883929E+04  0.11991187064E+04 0.  0.
        4    1    3    3  502    0  0.30082368798E+03 -0.51346747989E+03  0.77892686669E+03  0.98024100134E+03  0.12699999809E+01 0. -1.
       -4    1    3    3    0  502 -0.30082368798E+03  0.51346747989E+03  0.56013207543E+03  0.81724739154E+03  0.12699999809E+01 0.  1.
</event>
<event>
 5   0  0.9145224E-04  0.1231006E+04  0.7818609E-02  0.9086142E-01
       -2   -1    0    0    0  501  0.00000000000E+00  0.00000000000E+00  0.40140423961E+03  0.40140423962E+03  0.25500000920E-02 0.  1.
        2   -1    0    0  501    0  0.00000000000E+00  0.00000000000E+00 -0.94379629853E+03  0.94379629853E+03  0.25500000920E-02 0. -1.
    10030    2    1    2    0    0  0.00000000000E+00  0.00000000000E+00 -0.54239205892E+03  0.13452005382E+04  0.12310058254E+04 0.  0.
        5    1    3    3  502    0  0.17625680483E+03 -0.58341691192E+03 -0.17731997107E+03  0.63474893974E+03  0.46999998093E+01 0.  1.
       -5    1    3    3    0  502 -0.17625680483E+03  0.58341691192E+03 -0.36507208785E+03  0.71045159841E+03  0.46999998093E+01 0. -1.
</event>
<event>
 5   0  0.3453625E-04  0.1201808E+04  0.7818609E-02  0.9111276E-01
       -4   -1    0    0    0  501  0.00000000000E+00  0.00000000000E+00  0.39904740951E+03  0.39904943044E+03  0.12699999809E+01 0. -1.
        4   -1    0    0  501    0  0.00000000000E+00  0.00000000000E+00 -0.90486354424E+03  0.90486443548E+03  0.12699999809E+01 0.  1.
    10030    2    1    2    0    0  0.00000000000E+00  0.00000000000E+00 -0.50581613473E+03  0.13039138659E+04  0.12018075585E+04 0.  0.
        4    1    3    3  502    0 -0.16877268805E+03 -0.15813460372E+03  0.34882263664E+03  0.41853269628E+03  0.12699999809E+01 0. -1.
       -4    1    3    3    0  502  0.16877268805E+03  0.15813460372E+03 -0.85463877137E+03  0.88538116964E+03  0.12699999809E+01 0.  1.
</event>
<event>
 5   0  0.5447074E-04  0.1201723E+04  0.7818609E-02  0.9111350E-01
        1   -1    0    0  501    0  0.00000000000E+00  0.00000000000E+00  0.49167797559E+03  0.49167797562E+03  0.50400001928E-02 0.  1.
       -1   -1    0    0    0  501  0.00000000000E+00  0.00000000000E+00 -0.73429033826E+03  0.73429033828E+03  0.50400001928E-02 0. -1.
    10030    2    1    2    0    0  0.00000000000E+00  0.00000000000E+00 -0.24261236267E+03  0.12259683139E+04  0.12017227418E+04 0.  0.
        4    1    3    3  502    0  0.58139683550E+03 -0.14743058958E+03 -0.15772966865E+03  0.62019216405E+03  0.12699999809E+01 0. -1.
       -4    1    3    3    0  502 -0.58139683550E+03  0.14743058958E+03 -0.84882694016E+02  0.60577614985E+03  0.12699999809E+01 0.  1.
</event>
<event>
 5   0  0.5001586E-04  0.1199029E+04  0.7818609E-02  0.9113707E-01
       -1   -1    0    0    0  501  0.00000000000E+00  0.00000000000E+00  0.28892303595E+03  0.28892303599E+03  0.50400001928E-02 0. -1.
        1   -1    0    0  501    0  0.00000000000E+00  0.00000000000E+00 -0.12439907531E+04  0.12439907531E+04  0.50400001928E-02 0.  1.
    10030    2    1    2    0    0  0.00000000000E+00  0.00000000000E+00 -0.95506771710E+03  0.15329137891E+04  0.11990289156E+04 0.  0.
        1    1    3    3  502    0  0.50801726136E+03 -0.19454505201E+03 -0.15540115259E+03  0.56575510016E+03  0.50400001928E-02 0. -1.
       -1    1    3    3    0  502 -0.50801726136E+03  0.19454505201E+03 -0.79966656451E+03  0.96715868890E+03  0.50400001928E-02 0.  1.
</event>
<event>
 5   0  0.9050363E-04  0.1187401E+04  0.7818609E-02  0.9123956E-01
        2   -1    0    0  501    0  0.00000000000E+00  0.00000000000E+00  0.52126583458E+03  0.52126583458E+03  0.25500000920E-02 0.  1.
       -2   -1    0    0    0  501  0.00000000000E+00  0.00000000000E+00 -0.67620086999E+03  0.67620086999E+03  0.25500000920E-02 0. -1.
    10030    2    1    2    0    0  0.00000000000E+00  0.00000000000E+00 -0.15493503541E+03  0.11974667046E+04  0.11874012141E+04 0.  0.
        3    1    3    3  502    0  0.56128396525E+03  0.48517856683E+01  0.11760740047E+03  0.57349345272E+03  0.10100000352E+00 0.  1.
       -3    1    3    3    0  502 -0.56128396525E+03 -0.48517856683E+01 -0.27254243588E+03  0.62397325185E+03  0.10100000352E+00 0. -1.
</event>
<event>
 5   0  0.9298693E-04  0.1199968E+04  0.7818609E-02  0.9112885E-01
        2   -1    0    0  501    0  0.00000000000E+00  0.00000000000E+00  0.55636224991E+03  0.55636224992E+03  0.25500000920E-02 0. -1.
       -2   -1    0    0    0  501  0.00000000000E+00  0.00000000000E+00 -0.64702564693E+03  0.64702564693E+03  0.25500000920E-02 0.  1.
    10030    2    1    2    0    0  0.00000000000E+00  0.00000000000E+00 -0.90663397015E+02  0.12033878968E+04  0.11999677407E+04 0.  0.
        1    1    3    3  502    0  0.28244585410E+03  0.13873719505E+03 -0.55762717717E+03  0.64029035486E+03  0.50400001928E-02 0.  1.
       -1    1    3    3    0  502 -0.28244585410E+03 -0.13873719505E+03  0.46696378015E+03  0.56309754199E+03  0.50400001928E-02 0. -1.
</event>
<event>
 5   0  0.3453625E-04  0.1198519E+04  0.7818609E-02  0.9114154E-01
        3   -1    0    0  501    0  0.00000000000E+00  0.00000000000E+00  0.68587747790E+03  0.68587748534E+03  0.10100000352E+00 0.  1.
       -3   -1    0    0    0  501  0.00000000000E+00  0.00000000000E+00 -0.52357998803E+03  0.52357999777E+03  0.10100000352E+00 0. -1.
    10030    2    1    2    0    0  0.00000000000E+00  0.00000000000E+00  0.16229748988E+03  0.12094574831E+04  0.11985186391E+04 0.  0.
        3    1    3    3  502    0 -0.24451805363E+01  0.25164154522E+02 -0.52304154419E+03  0.52365225172E+03  0.10100000352E+00 0. -1.
       -3    1    3    3    0  502  0.24451805363E+01 -0.25164154522E+02  0.68533903407E+03  0.68580523139E+03  0.10100000352E+00 0.  1.
</event>
<event>
 5   0  0.9145224E-04  0.1200012E+04  0.7818609E-02  0.9112846E-01
       -2   -1    0    0    0  501  0.00000000000E+00  0.00000000000E+00  0.12602621704E+03  0.12602621707E+03  0.25500000920E-02 0.  1.
        2   -1    0    0  501    0  0.00000000000E+00  0.00000000000E+00 -0.28566037022E+04  0.28566037022E+04  0.25500000920E-02 0. -1.
    10030    2    1    2    0    0  0.00000000000E+00  0.00000000000E+00 -0.27305774852E+04  0.29826299193E+04  0.12000115970E+04 0.  0.
        5    1    3    3  502    0 -0.11259409357E+03  0.61823095906E+02  0.91404252865E+02  0.15772239072E+03  0.46999998093E+01 0.  1.
       -5    1    3    3    0  502  0.11259409357E+03 -0.61823095906E+02 -0.28219817381E+04  0.28249075286E+04  0.46999998093E+01 0. -1.
</event>
<event>
 5   0  0.5003507E-04  0.1213578E+04  0.7818609E-02  0.9101054E-01
       -1   -1    0    0    0  501  0.00000000000E+00  0.00000000000E+00  0.80550603492E+03  0.80550603493E+03  0.50400001928E-02 0. -1.
        1   -1    0    0  501    0  0.00000000000E+00  0.00000000000E+00 -0.45709501968E+03  0.45709501971E+03  0.50400001928E-02 0.  1.
    10030    2    1    2    0    0  0.00000000000E+00  0.00000000000E+00  0.34841101524E+03  0.12626010546E+04  0.12135778457E+04 0.  0.
        3    1    3    3  502    0 -0.24062358556E+03 -0.10333436246E+03  0.74368796022E+03  0.78844752062E+03  0.10100000352E+00 0. -1.
       -3    1    3    3    0  502  0.24062358556E+03  0.10333436246E+03 -0.39527694498E+03  0.47415353402E+03  0.10100000352E+00 0.  1.
</event>
<event>
 5   0  0.9410666E-04  0.1205149E+04  0.7818609E-02  0.9108361E-01
        2   -1    0    0  501    0  0.00000000000E+00  0.00000000000E+00  0.61210415333E+03  0.61210415333E+03  0.25500000920E-02 0. -1.
       -2   -1    0    0    0  501  0.00000000000E+00  0.00000000000E+00 -0.59319328844E+03  0.59319328845E+03  0.25500000920E-02 0.  1.
    10030    2    1    2    0    0  0.00000000000E+00  0.00000000000E+00  0.18910864886E+02  0.12052974418E+04  0.12051490789E+04 0.  0.
        2    1    3    3  502    0 -0.10036304559E+03  0.55365071626E+03 -0.20619629448E+03  0.59926519038E+03  0.25500000920E-02 0. -1.
       -2    1    3    3    0  502  0.10036304559E+03 -0.55365071626E+03  0.22510715937E+03  0.60603225140E+03  0.25500000920E-02 0.  1.
</event>
<event>
 5   0  0.5001586E-04  0.1196276E+04  0.7818609E-02  0.9116123E-01
        1   -1    0    0  501    0  0.00000000000E+00  0.00000000000E+00  0.16529187120E+04  0.16529187120E+04  0.50400001928E-02 0. -1.
       -1   -1    0    0    0  501  0.00000000000E+00  0.00000000000E+00 -0.21644669033E+03  0.21644669039E+03  0.50400001928E-02 0.  1.
    10030    2    1    2    0    0  0.00000000000E+00  0.00000000000E+00  0.14364720216E+04  0.18693654024E+04  0.11962755279E+04 0.  0.
        1    1    3    3  502    0  0.25609478296E+03  0.46330618605E+02 -0.12333394709E+03  0.28799709479E+03  0.50400001928E-02 0.  1.
       -1    1    3    3    0  502 -0.25609478296E+03 -0.46330618605E+02  0.15598059687E+04  0.15813683076E+04  0.50400001928E-02 0. -1.
</event>
<event>
 5   0  0.9050363E-04  0.1172722E+04  0.7818609E-02  0.9137074E-01
        2   -1    0    0  501    0  0.00000000000E+00  0.00000000000E+00  0.16739803289E+04  0.16739803289E+04  0.25500000920E-02 0.  1.
       -2   -1    0    0    0  501  0.00000000000E+00  0.00000000000E+00 -0.20539014453E+03  0.20539014454E+03  0.25500000920E-02 0. -1.
    10030    2    1    2    0    0  0.00000000000E+00  0.00000000000E+00  0.14685901843E+04  0.18793704734E+04  0.11727217261E+04 0.  0.
        3    1    3    3  502    0  0.24619588062E+03 -0.39993657229E+03  0.17166378969E+03  0.50003013947E+03  0.10100000352E+00 0. -1.
       -3    1    3    3    0  502 -0.24619588062E+03  0.39993657229E+03  0.12969263947E+04  0.13793403339E+04  0.10100000352E+00 0.  1.
</event>
<event>
 5   0  0.9410666E-04  0.1215430E+04  0.7818609E-02  0.9099457E-01
       -2   -1    0    0    0  501  0.00000000000E+00  0.00000000000E+00  0.38626191227E+03  0.38626191228E+03  0.25500000920E-02 0. -1.
        2   -1    0    0  501    0  0.00000000000E+00  0.00000000000E+00 -0.95613214145E+03  0.95613214146E+03  0.25500000920E-02 0.  1.
    10030    2    1    2    0    0  0.00000000000E+00  0.00000000000E+00 -0.56987022918E+03  0.13423940537E+04  0.12154298488E+04 0.  0.
        2    1    3    3  502    0  0.29025441561E+02  0.12586106552E+03 -0.94079667827E+03  0.94962196369E+03  0.25500000920E-02 0.  1.
       -2    1    3    3    0  502 -0.29025441561E+02 -0.12586106552E+03  0.37092644909E+03  0.39277209004E+03  0.25500000920E-02 0. -1.
</event>
<event>
 5   0  0.5001586E-04  0.1185883E+04  0.7818609E-02  0.9125304E-01
       -1   -1    0    0    0  501  0.00000000000E+00  0.00000000000E+00  0.35517385120E+03  0.35517385123E+03  0.50400001928E-02 0.  1.
        1   -1    0    0  501    0  0.00000000000E+00  0.00000000000E+00 -0.98988012753E+03  0.98988012755E+03  0.50400001928E-02 0. -1.
    10030    2    1    2    0    0  0.00000000000E+00  0.00000000000E+00 -0.63470627634E+03  0.13450539788E+04  0.11858828562E+04 0.  0.
        1    1    3    3  502    0 -0.19920733599E+03 -0.19319099627E+03  0.27697597680E+03  0.39207399238E+03  0.50400001928E-02 0.  1.
       -1    1    3    3    0  502  0.19920733599E+03  0.19319099627E+03 -0.91168225314E+03  0.95297998639E+03  0.50400001928E-02 0. -1.
</event>
<event>
 5   0  0.9145224E-04  0.1197665E+04  0.7818609E-02  0.9114902E-01
       -2   -1    0    0    0  501  0.00000000000E+00  0.00000000000E+00  0.24980363688E+03  0.24980363689E+03  0.25500000920E-02 0.  1.
        2   -1    0    0  501    0  0.00000000000E+00  0.00000000000E+00 -0.14355300748E+04  0.14355300748E+04  0.25500000920E-02 0. -1.
    10030    2    1    2    0    0  0.00000000000E+00  0.00000000000E+00 -0.11857264380E+04  0.16853337117E+04  0.11976654517E+04 0.  0.
        5    1    3    3  502    0  0.50720612141E+03 -0.14405494471E+03 -0.99228659210E+03  0.11236835175E+04  0.46999998093E+01 0. -1.
       -5    1    3    3    0  502 -0.50720612141E+03  0.14405494471E+03 -0.19343984587E+03  0.56165019421E+03  0.46999998093E+01 0.  1.
</event>
<event>
 5   0  0.9410666E-04  0.1200554E+04  0.7818609E-02  0.9112372E-01
        2   -1    0    0  501    0  0.00000000000E+00  0.00000000000E+00  0.14451833005E+04  0.14451833005E+04  0.25500000920E-02 0.  1.
       -2   -1    0    0    0  501  0.00000000000E+00  0.00000000000E+00 -0.24933320021E+03  0.24933320023E+03  0.25500000920E-02 0. -1.
    10030    2    1    2    0    0  0.00000000000E+00  0.00000000000E+00  0.11958501003E+04  0.16945165007E+04  0.12005535010E+04 0.  0.
        2    1    3    3  502    0 -0.51625822823E+03 -0.23509511767E+03  0.87501425188E+03  0.10428049739E+04  0.25500000920E-02 0.  1.
       -2    1    3    3    0  502  0.51625822823E+03  0.23509511767E+03  0.32083584838E+03  0.65171152682E+03  0.25500000920E-02 0. -1.
</event>
<event>
 5   0  0.3453625E-04  0.1192837E+04  0.7818609E-02  0.9119149E-01
        4   -1    0    0  501    0  0.00000000000E+00  0.00000000000E+00  0.10795764946E+04  0.10795772416E+04  0.12699999809E+01 0. -1.
       -4   -1    0    0    0  501  0.00000000000E+00  0.00000000000E+00 -0.32949303183E+03  0.32949547937E+03  0.12699999809E+01 0.  1.
    10030    2    1    2    0    0  0.00000000000E+00  0.00000000000E+00  0.75008346275E+03  0.14090727209E+04  0.11928372613E+04 0.  0.
        2    1    3    3  502    0 -0.28570617929E+03 -0.17796145998E+03 -0.20657064534E+03  0.39493003639E+03  0.25500000920E-02 0.  1.
       -2    1    3    3    0  502  0.28570617929E+03  0.17796145998E+03  0.95665410808E+03  0.10141426846E+04  0.25500000920E-02 0. -1.
</event>
<event>
 5   0  0.5001586E-04  0.1199822E+04  0.7818609E-02  0.9113012E-01
        1   -1    0    0  501    0  0.00000000000E+00  0.00000000000E+00  0.85355112405E+03  0.85355112407E+03  0.50400001928E-02 0.  1.
       -1   -1    0    0    0  501  0.00000000000E+00  0.00000000000E+00 -0.42164216981E+03  0.42164216984E+03  0.50400001928E-02 0. -1.
    10030    2    1    2    0    0  0.00000000000E+00  0.00000000000E+00  0.43190895425E+03  0.12751932939E+04  0.11998219001E+04 0.  0.
        1    1    3    3  502    0  0.43991147161E+02 -0.20950524107E+03 -0.37966561322E+03  0.43585966199E+03  0.50400001928E-02 0. -1.
       -1    1    3    3    0  502 -0.43991147161E+02  0.20950524107E+03  0.81157456747E+03  0.83933363191E+03  0.50400001928E-02 0.  1.
</event>
<event>
 5   0  0.9070772E-04  0.1200145E+04  0.7818609E-02  0.9112729E-01
        2   -1    0    0  501    0  0.00000000000E+00  0.00000000000E+00  0.14272054210E+04  0.14272054210E+04  0.25500000920E-02 0. -1.
       -2   -1    0    0    0  501  0.00000000000E+00  0.00000000000E+00 -0.25230222097E+03  0.25230222098E+03  0.25500000920E-02 0.  1.
    10030    2    1    2    0    0  0.00000000000E+00  0.00000000000E+00  0.11749032001E+04  0.16795076420E+04  0.12001451538E+04 0.  0.
        4    1    3    3  502    0 -0.34355425101E+03 -0.47047749197E+03  0.38607655300E+03  0.69888147173E+03  0.12699999809E+01 0.  1.
       -4    1    3    3    0  502  0.34355425101E+03  0.47047749197E+03  0.78882664707E+03  0.98062617029E+03  0.12699999809E+01 0. -1.
</event>
<event>
 5   0  0.9050363E-04  0.1181139E+04  0.7818609E-02  0.9129528E-01
        2   -1    0    0  501    0  0.00000000000E+00  0.00000000000E+00  0.99751874377E+03  0.99751874378E+03  0.25500000920E-02 0. -1.
       -2   -1    0    0    0  501  0.00000000000E+00  0.00000000000E+00 -0.34963993291E+03  0.34963993292E+03  0.25500000920E-02 0.  1.
    10030    2    1    2    0    0  0.00000000000E+00  0.00000000000E+00  0.64787881086E+03  0.13471586767E+04  0.11811390886E+04 0.  0.
        3    1    3    3  502    0  0.28542027582E+03 -0.51658400410E+03  0.34809689791E+03  0.68519721809E+03  0.10100000352E+00 0. -1.
       -3    1    3    3    0  502 -0.28542027582E+03  0.51658400410E+03  0.29978191296E+03  0.66196145861E+03  0.10100000352E+00 0.  1.
</event>
<event>
 5   0  0.3453625E-04  0.1192401E+04  0.7818609E-02  0.9119534E-01
       -4   -1    0    0    0  501  0.00000000000E+00  0.00000000000E+00  0.34470132933E+03  0.34470366888E+03  0.12699999809E+01 0. -1.
        4   -1    0    0  501    0  0.00000000000E+00  0.00000000000E+00 -0.10311905027E+04  0.10311912848E+04  0.12699999809E+01 0.  1.
    10030    2    1    2    0    0  0.00000000000E+00  0.00000000000E+00 -0.68648917341E+03  0.13758949537E+04  0.11924007457E+04 0.  0.
        4    1    3    3  502    0 -0.36762705022E+03 -0.38631282567E+03 -0.65085005316E+03  0.84142418074E+03  0.12699999809E+01 0. -1.
       -4    1    3    3    0  502  0.36762705022E+03  0.38631282567E+03 -0.35639120249E+02  0.53447077294E+03  0.12699999809E+01 0.  1.
</event>
<event>
 5   0  0.9050363E-04  0.1202099E+04  0.7818609E-02  0.9111021E-01
       -2   -1    0    0    0  501  0.00000000000E+00  0.00000000000E+00  0.28636671492E+03  0.28636671493E+03  0.25500000920E-02 0.  1.
        2   -1    0    0  501    0  0.00000000000E+00  0.00000000000E+00 -0.12615308824E+04  0.12615308824E+04  0.25500000920E-02 0. -1.
    10030    2    1    2    0    0  0.00000000000E+00  0.00000000000E+00 -0.97516416748E+03  0.15478975973E+04  0.12020989220E+04 0.  0.
        3    1    3    3  502    0  0.55990204689E+03 -0.18830395829E+03 -0.34470515168E+03  0.68393737624E+03  0.10100000352E+00 0.  1.
       -3    1    3    3    0  502 -0.55990204689E+03  0.18830395829E+03 -0.63045901579E+03  0.86396022108E+03  0.10100000352E+00 0. -1.
</event>
<event>
 5   0  0.5003507E-04  0.1205427E+04  0.7818609E-02  0.9108119E-01
        1   -1    0    0  501    0  0.00000000000E+00  0.00000000000E+00  0.34359251234E+03  0.34359251237E+03  0.50400001928E-02 0. -1.
       -1   -1    0    0    0  501  0.00000000000E+00  0.00000000000E+00 -0.10572512797E+04  0.10572512797E+04  0.50400001928E-02 0.  1.
    10030    2    1    2    0    0  0.00000000000E+00  0.00000000000E+00 -0.71365876739E+03  0.14008437921E+04  0.12054271001E+04 0.  0.
        3    1    3    3  502    0 -0.50256132752E+03  0.21211841467E+03 -0.65470600058E+03  0.85217490409E+03  0.10100000352E+00 0.  1.
       -3    1    3    3    0  502  0.50256132752E+03 -0.21211841467E+03 -0.58952766809E+02  0.54866888802E+03  0.10100000352E+00 0. -1.
</event>
<event>
 5   0  0.5003507E-04  0.1200631E+04  0.7818609E-02  0.9112305E-01
       -1   -1    0    0    0  501  0.00000000000E+00  0.00000000000E+00  0.39608495366E+03  0.39608495369E+03  0.50400001928E-02 0.  1.
        1   -1    0    0  501    0  0.00000000000E+00  0.00000000000E+00 -0.90985150505E+03  0.90985150506E+03  0.50400001928E-02 0. -1.
    10030    2    1    2    0    0  0.00000000000E+00  0.00000000000E+00 -0.51376655139E+03  0.13059364587E+04  0.12006306530E+04 0.  0.
        3    1    3    3  502    0  0.12376627768E+03  0.17236401793E+03 -0.86769835467E+03  0.89326809585E+03  0.10100000352E+00 0. -1.
       -3    1    3    3    0  502 -0.12376627768E+03 -0.17236401793E+03  0.35393180328E+03  0.41266836290E+03  0.10100000352E+00 0.  1.
</event>
<event>
 5   0  0.9070772E-04  0.1197906E+04  0.7818609E-02  0.9114691E-01
       -2   -1    0    0    0  501  0.00000000000E+00  0.00000000000E+00  0.44594609891E+03  0.44594609892E+03  0.25500000920E-02 0.  1.
        2   -1    0    0  501    0  0.00000000000E+00  0.00000000000E+00 -0.80445759448E+03  0.80445759449E+03  0.25500000920E-02 0. -1.
    10030    2    1    2    0    0  0.00000000000E+00  0.00000000000E+00 -0.35851149557E+03  0.12504036934E+04  0.11979060497E+04 0.  0.
        4    1    3    3  502    0 -0.15343574192E+03 -0.41109239560E+03  0.24629145489E+03  0.50319039962E+03  0.12699999809E+01 0.  1.
       -4    1    3    3    0  502  0.15343574192E+03  0.41109239560E+03 -0.60480295047E+03  0.74721329379E+03  0.12699999809E+01 0. -1.
</event>
<event>
 5   0  0.5157631E-04  0.1196299E+04  0.7818609E-02  0.9116102E-01
       -1   -1    0    0    0  501  0.00000000000E+00  0.00000000000E+00  0.21671501262E+03  0.21671501267E+03  0.50400001928E-02 0. -1.
        1   -1    0    0  501    0  0.00000000000E+00  0.00000000000E+00 -0.16509371701E+04  0.16509371701E+04  0.50400001928E-02 0.  1.
    10030    2    1    2    0    0  0.00000000000E+00  0.00000000000E+00 -0.14342221575E+04  0.18676521828E+04  0.11962990758E+04 0.  0.
        5    1    3    3  502    0  0.20687948106E+03 -0.17745189255E+03 -0.15483228572E+04  0.15721367796E+04  0.46999998093E+01 0.  1.
       -5    1    3    3    0  502 -0.20687948106E+03  0.17745189255E+03  0.11410069966E+03  0.29551540318E+03  0.46999998093E+01 0. -1.
</event>
<event>
 5   0  0.3453625E-04  0.1201666E+04  0.7818609E-02  0.9111399E-01
       -3   -1    0    0    0  501  0.00000000000E+00  0.00000000000E+00  0.56499282291E+03  0.56499283194E+03  0.10100000352E+00 0.  1.
        3   -1    0    0  501    0  0.00000000000E+00  0.00000000000E+00 -0.63894717806E+03  0.63894718604E+03  0.10100000352E+00 0. -1.
    10030    2    1    2    0    0  0.00000000000E+00  0.00000000000E+00 -0.73954355146E+02  0.12039400180E+04  0.12016664763E+04 0.  0.
        1    1    3    3  502    0  0.29149427533E+03  0.43485613286E+03  0.25842267132E+03  0.58382449924E+03  0.50400001928E-02 0.  1.
       -1    1    3    3    0  502 -0.29149427533E+03 -0.43485613286E+03 -0.33237702647E+03  0.62011551874E+03  0.50400001928E-02 0. -1.
</event>
<event>
 5   0  0.5003507E-04  0.1197901E+04  0.7818609E-02  0.9114696E-01
       -1   -1    0    0    0  501  0.00000000000E+00  0.00000000000E+00  0.42421025504E+03  0.42421025507E+03  0.50400001928E-02 0.  1.
        1   -1    0    0  501    0  0.00000000000E+00  0.00000000000E+00 -0.84566899708E+03  0.84566899710E+03  0.50400001928E-02 0. -1.
    10030    2    1    2    0    0  0.00000000000E+00  0.00000000000E+00 -0.42145874204E+03  0.12698792522E+04  0.11979005985E+04 0.  0.
        3    1    3    3  502    0 -0.33599905612E+03 -0.19072717191E+02  0.31450332352E+03  0.46062076045E+03  0.10100000352E+00 0.  1.
       -3    1    3    3    0  502  0.33599905612E+03  0.19072717191E+02 -0.73596206557E+03  0.80925849171E+03  0.10100000352E+00 0. -1.
</event>
<event>
 5   0  0.3453625E-04  0.1216356E+04  0.7818609E-02  0.9098660E-01
       -3   -1    0    0    0  501  0.00000000000E+00  0.00000000000E+00  0.39537744138E+03  0.39537745428E+03  0.10100000352E+00 0. -1.
        3   -1    0    0  501    0  0.00000000000E+00  0.00000000000E+00 -0.93551218096E+03  0.93551218641E+03  0.10100000352E+00 0.  1.
    10030    2    1    2    0    0  0.00000000000E+00  0.00000000000E+00 -0.54013473958E+03  0.13308896407E+04  0.12163559096E+04 0.  0.
        4    1    3    3  502    0  0.25008771681E+03 -0.55113774950E+03 -0.20458085894E+03  0.63886745555E+03  0.12699999809E+01 0. -1.
       -4    1    3    3    0  502 -0.25008771681E+03  0.55113774950E+03 -0.33555388064E+03  0.69202218515E+03  0.12699999809E+01 0.  1.
</event>
<event>
 5   0  0.5003507E-04  0.1203907E+04  0.7818609E-02  0.9109444E-01
       -1   -1    0    0    0  501  0.00000000000E+00  0.00000000000E+00  0.11689619385E+03  0.11689619396E+03  0.50400001928E-02 0.  1.
        1   -1    0    0  501    0  0.00000000000E+00  0.00000000000E+00 -0.30997409134E+04  0.30997409134E+04  0.50400001928E-02 0. -1.
    10030    2    1    2    0    0  0.00000000000E+00  0.00000000000E+00 -0.29828447196E+04  0.32166371074E+04  0.12039068317E+04 0.  0.
        3    1    3    3  502    0 -0.54729794709E+03 -0.18775689755E+03 -0.10478643320E+04  0.11969993166E+04  0.10100000352E+00 0.  1.
       -3    1    3    3    0  502  0.54729794709E+03  0.18775689755E+03 -0.19349803876E+04  0.20196377908E+04  0.10100000352E+00 0. -1.
</event>
<event>
 5   0  0.9050363E-04  0.1198142E+04  0.7818609E-02  0.9114484E-01
        2   -1    0    0  501    0  0.00000000000E+00  0.00000000000E+00  0.50199729815E+03  0.50199729816E+03  0.25500000920E-02 0.  1.
       -2   -1    0    0    0  501  0.00000000000E+00  0.00000000000E+00 -0.71491644101E+03  0.71491644102E+03  0.25500000920E-02 0. -1.
    10030    2    1    2    0    0  0.00000000000E+00  0.00000000000E+00 -0.21291914286E+03  0.12169137392E+04  0.11981420981E+04 0.  0.
        3    1    3    3  502    0  0.45574407322E+03  0.35420772742E+03 -0.26934783558E+03  0.63695685974E+03  0.10100000352E+00 0. -1.
       -3    1    3    3    0  502 -0.45574407322E+03 -0.35420772742E+03  0.56428692719E+02  0.57995687943E+03  0.10100000352E+00 0.  1.
</event>
<event>
 5   0  0.5052959E-04  0.1202667E+04  0.7818609E-02  0.9110525E-01
        1   -1    0    0  501    0  0.00000000000E+00  0.00000000000E+00  0.28227378180E+03  0.28227378185E+03  0.50400001928E-02 0. -1.
       -1   -1    0    0    0  501  0.00000000000E+00  0.00000000000E+00 -0.12810330916E+04  0.12810330916E+04  0.50400001928E-02 0.  1.
    10030    2    1    2    0    0  0.00000000000E+00  0.00000000000E+00 -0.99875930980E+03  0.15633068735E+04  0.12026671284E+04 0.  0.
        2    1    3    3  502    0  0.34033573660E+03 -0.10992225266E+03 -0.11277555958E+04  0.11831077716E+04  0.25500000920E-02 0.  1.
       -2    1    3    3    0  502 -0.34033573660E+03  0.10992225266E+03  0.12899628605E+03  0.38019910187E+03  0.25500000920E-02 0. -1.
</event>
<event>
 5   0  0.5003507E-04  0.1199426E+04  0.7818609E-02  0.9113359E-01
       -1   -1    0    0    0  501  0.00000000000E+00  0.00000000000E+00  0.68441533924E+03  0.68441533926E+03  0.50400001928E-02 0. -1.
        1   -1    0    0  501    0  0.00000000000E+00  0.00000000000E+00 -0.52549355761E+03  0.52549355764E+03  0.50400001928E-02 0.  1.
    10030    2    1    2    0    0  0.00000000000E+00  0.00000000000E+00  0.15892178163E+03  0.12099088969E+04  0.11994262821E+04 0.  0.
        3    1    3    3  502    0 -0.62574913212E+02 -0.47927343951E+03  0.43758080216E+03  0.65199357221E+03  0.10100000352E+00 0. -1.
       -3    1    3    3    0  502  0.62574913212E+02  0.47927343951E+03 -0.27865902054E+03  0.55791532468E+03  0.10100000352E+00 0.  1.
</event>
<event>
 5   0  0.5052959E-04  0.1202025E+04  0.7818609E-02  0.9111086E-01
        1   -1    0    0  501    0  0.00000000000E+00  0.00000000000E+00  0.62632521266E+03  0.62632521268E+03  0.50400001928E-02 0. -1.
       -1   -1    0    0    0  501  0.00000000000E+00  0.00000000000E+00 -0.57672263390E+03  0.57672263392E+03  0.50400001928E-02 0.  1.
    10030    2    1    2    0    0  0.00000000000E+00  0.00000000000E+00  0.49602578757E+02  0.12030478466E+04  0.12020248356E+04 0.  0.
        2    1    3    3  502    0 -0.49593898342E+03  0.33903209483E+03  0.69622666209E+01  0.60078840681E+03  0.25500000920E-02 0. -1.
       -2    1    3    3    0  502  0.49593898342E+03 -0.33903209483E+03  0.42640312136E+02  0.60225943979E+03  0.25500000920E-02 0.  1.
</event>
<event>
 5   0  0.5003507E-04  0.1201840E+04  0.7818609E-02  0.9111248E-01
       -1   -1    0    0    0  501  0.00000000000E+00  0.00000000000E+00  0.46133834533E+03  0.46133834535E+03  0.50400001928E-02 0. -1.
        1   -1    0    0  501    0  0.00000000000E+00  0.00000000000E+00 -0.78273276715E+03  0.78273276716E+03  0.50400001928E-02 0.  1.
    10030    2    1    2    0    0  0.00000000000E+00  0.00000000000E+00 -0.32139442182E+03  0.12440711125E+04  0.12018396560E+04 0.  0.
        3    1    3    3  502    0  0.30914316334E+02  0.46961176003E+03  0.22608165882E+03  0.52211476398E+03  0.10100000352E+00 0. -1.
       -3    1    3    3    0  502 -0.30914316334E+02 -0.46961176003E+03 -0.54747608064E+03  0.72195634854E+03  0.10100000352E+00 0.  1.
</event>
<event>
 5   0  0.9145224E-04  0.1200390E+04  0.7818609E-02  0.9112515E-01
       -2   -1    0    0    0  501  0.00000000000E+00  0.00000000000E+00  0.36965074407E+03  0.36965074408E+03  0.25500000920E-02 0. -1.
        2   -1    0    0  501    0  0.00000000000E+00  0.00000000000E+00 -0.97452501422E+03  0.97452501423E+03  0.25500000920E-02 0.  1.
    10030    2    1    2    0    0  0.00000000000E+00  0.00000000000E+00 -0.60487427015E+03  0.13441757583E+04  0.12003897644E+04 0.  0.
        5    1    3    3  502    0  0.89897271970E+01  0.25456029974E+03  0.30610070848E+03  0.39824803217E+03  0.46999998093E+01 0. -1.
       -5    1    3    3    0  502 -0.89897271970E+01 -0.25456029974E+03 -0.91097497863E+03  0.94592772614E+03  0.46999998093E+01 0.  1.
</event>
<event>
 5   0  0.9298693E-04  0.1192968E+04  0.7818609E-02  0.9119034E-01
       -2   -1    0    0    0  501  0.00000000000E+00  0.00000000000E+00  0.99104868756E+03  0.99104868756E+03  0.25500000920E-02 0. -1.
        2   -1    0    0  501    0  0.00000000000E+00  0.00000000000E+00 -0.35900657820E+03  0.35900657821E+03  0.25500000920E-02 0.  1.
    10030    2    1    2    0    0  0.00000000000E+00  0.00000000000E+00  0.63204210935E+03  0.13500552658E+04  0.11929677249E+04 0.  0.
        1    1    3    3  502    0 -0.12902764156E+03  0.22441264633E+03  0.92416906313E+03  0.95973831089E+03  0.50400001928E-02 0. -1.
       -1    1    3    3    0  502  0.12902764156E+03 -0.22441264633E+03 -0.29212695378E+03  0.39031695488E+03  0.50400001928E-02 0.  1.
</event>
<event>
 5   0  0.5001586E-04  0.1205992E+04  0.7818609E-02  0.9107628E-01
        1   -1    0    0  501    0  0.00000000000E+00  0.00000000000E+00  0.63073966012E+03  0.63073966014E+03  0.50400001928E-02 0. -1.
       -1   -1    0    0    0  501  0.00000000000E+00  0.00000000000E+00 -0.57647235673E+03  0.57647235675E+03  0.50400001928E-02 0.  1.
    10030    2    1    2    0    0  0.00000000000E+00  0.00000000000E+00  0.54267303389E+02  0.12072120169E+04  0.12059916722E+04 0.  0.
        1    1    3    3  502    0 -0.28360865015E+03  0.42866397086E+03 -0.28849051536E+03  0.58941788557E+03  0.50400001928E-02 0.  1.
       -1    1    3    3    0  502  0.28360865015E+03 -0.42866397086E+03  0.34275781875E+03  0.61779413132E+03  0.50400001928E-02 0. -1.
</event>
<event>
 5   0  0.9410666E-04  0.1201846E+04  0.7818609E-02  0.9111242E-01
       -2   -1    0    0    0  501  0.00000000000E+00  0.00000000000E+00  0.38017391944E+03  0.38017391945E+03  0.25500000920E-02 0.  1.
        2   -1    0    0  501    0  0.00000000000E+00  0.00000000000E+00 -0.94985119580E+03  0.94985119581E+03  0.25500000920E-02 0. -1.
    10030    2    1    2    0    0  0.00000000000E+00  0.00000000000E+00 -0.56967727636E+03  0.13300251153E+04  0.12018463329E+04 0.  0.
        2    1    3    3  502    0  0.37579133073E+02 -0.22319118946E+03 -0.90087902105E+03  0.92887540008E+03  0.25500000920E-02 0. -1.
       -2    1    3    3    0  502 -0.37579133073E+02  0.22319118946E+03  0.33120174469E+03  0.40114971518E+03  0.25500000920E-02 0.  1.
</event>
<event>
 5   0  0.9145224E-04  0.1204104E+04  0.7818609E-02  0.9109272E-01
       -2   -1    0    0    0  501  0.00000000000E+00  0.00000000000E+00  0.15045034953E+03  0.15045034956E+03  0.25500000920E-02 0. -1.
        2   -1    0    0  501    0  0.00000000000E+00  0.00000000000E+00 -0.24092105759E+04  0.24092105759E+04  0.25500000920E-02 0.  1.
    10030    2    1    2    0    0  0.00000000000E+00  0.00000000000E+00 -0.22587602264E+04  0.25596609255E+04  0.12041039378E+04 0.  0.
        5    1    3    3  502    0  0.26079784748E+03  0.39529852765E+03 -0.33920697718E+03  0.58254605533E+03  0.46999998093E+01 0. -1.
       -5    1    3    3    0  502 -0.26079784748E+03 -0.39529852765E+03 -0.19195532492E+04  0.19771148702E+04  0.46999998093E+01 0.  1.
</event>
<event>
 5   0  0.5052959E-04  0.1194702E+04  0.7818609E-02  0.9117507E-01
        1   -1    0    0  501    0  0.00000000000E+00  0.00000000000E+00  0.17427647558E+04  0.17427647558E+04  0.50400001928E-02 0. -1.
       -1   -1    0    0    0  501  0.00000000000E+00  0.00000000000E+00 -0.20474822967E+03  0.20474822974E+03  0.50400001928E-02 0.  1.
    10030    2    1    2    0    0  0.00000000000E+00  0.00000000000E+00  0.15380165261E+04  0.19475129855E+04  0.11947016340E+04 0.  0.
        2    1    3    3  502    0 -0.21331100234E+02 -0.14466354654E+03  0.17131383798E+04  0.17193678099E+04  0.25500000920E-02 0. -1.
       -2    1    3    3    0  502  0.21331100234E+02  0.14466354654E+03 -0.17512185364E+03  0.22814517563E+03  0.25500000920E-02 0.  1.
</event>
<event>
 5   0  0.9410666E-04  0.1198193E+04  0.7818609E-02  0.9114440E-01
        2   -1    0    0  501    0  0.00000000000E+00  0.00000000000E+00  0.50408159954E+03  0.50408159955E+03  0.25500000920E-02 0.  1.
       -2   -1    0    0    0  501  0.00000000000E+00  0.00000000000E+00 -0.71202059078E+03  0.71202059079E+03  0.25500000920E-02 0. -1.
    10030    2    1    2    0    0  0.00000000000E+00  0.00000000000E+00 -0.20793899124E+03  0.12161021903E+04  0.11981927697E+04 0.  0.
        2    1    3    3  502    0  0.57993170908E+03  0.14223756312E+03 -0.54620032849E+02  0.59961292477E+03  0.25500000920E-02 0. -1.
       -2    1    3    3    0  502 -0.57993170908E+03 -0.14223756312E+03 -0.15331895839E+03  0.61648926557E+03  0.25500000920E-02 0.  1.
</event>
<event>
 5   0  0.9050363E-04  0.1265672E+04  0.7818609E-02  0.9057239E-01
        2   -1    0    0  501    0  0.00000000000E+00  0.00000000000E+00  0.47472929653E+03  0.47472929654E+03  0.25500000920E-02 0.  1.
       -2   -1    0    0    0  501  0.00000000000E+00  0.00000000000E+00 -0.84359945586E+03  0.84359945586E+03  0.25500000920E-02 0. -1.
    10030    2    1    2    0    0  0.00000000000E+00  0.00000000000E+00 -0.36887015932E+03  0.13183287524E+04  0.12656719579E+04 0.  0.
        3    1    3    3  502    0 -0.37181598224E+03  0.42733341063E+03  0.10947517352E+03  0.57692789177E+03  0.10100000352E+00 0.  1.
       -3    1    3    3    0  502  0.37181598224E+03 -0.42733341063E+03 -0.47834533284E+03  0.74140086063E+03  0.10100000352E+00 0. -1.
</event>
<event>
 5   0  0.3453625E-04  0.1198544E+04  0.7818609E-02  0.9114132E-01
       -3   -1    0    0    0  501  0.00000000000E+00  0.00000000000E+00  0.93056940237E+03  0.93056940785E+03  0.10100000352E+00 0.  1.
        3   -1    0    0  501    0  0.00000000000E+00  0.00000000000E+00 -0.38592173915E+03  0.38592175236E+03  0.10100000352E+00 0. -1.
    10030    2    1    2    0    0  0.00000000000E+00  0.00000000000E+00  0.54464766322E+03  0.13164911602E+04  0.11985440742E+04 0.  0.
        2    1    3    3  502    0  0.18899295169E+03 -0.56779238770E+03  0.23723585353E+03  0.64372927658E+03  0.25500000920E-02 0. -1.
       -2    1    3    3    0  502 -0.18899295169E+03  0.56779238770E+03  0.30741180968E+03  0.67276188363E+03  0.25500000920E-02 0.  1.
</event>
<event>
 5   0  0.5157631E-04  0.1198627E+04  0.7818609E-02  0.9114059E-01
        1   -1    0    0  501    0  0.00000000000E+00  0.00000000000E+00  0.59936695417E+03  0.59936695420E+03  0.50400001928E-02 0. -1.
       -1   -1    0    0    0  501  0.00000000000E+00  0.00000000000E+00 -0.59926012236E+03  0.59926012238E+03  0.50400001928E-02 0.  1.
    10030    2    1    2    0    0  0.00000000000E+00  0.00000000000E+00  0.10683181534E+00  0.11986270766E+04  0.11986270718E+04 0.  0.
        5    1    3    3  502    0 -0.21533492258E+03  0.55797050080E+03 -0.38083386452E+02  0.59931013921E+03  0.46999998093E+01 0.  1.
       -5    1    3    3    0  502  0.21533492258E+03 -0.55797050080E+03  0.38190218267E+02  0.59931693736E+03  0.46999998093E+01 0. -1.
</event>
<event>
 5   0  0.9298693E-04  0.1243610E+04  0.7818609E-02  0.9075519E-01
       -2   -1    0    0    0  501  0.00000000000E+00  0.00000000000E+00  0.28032912195E+03  0.28032912196E+03  0.25500000920E-02 0.  1.
        2   -1    0    0  501    0  0.00000000000E+00  0.00000000000E+00 -0.13792400974E+04  0.13792400974E+04  0.25500000920E-02 0. -1.
    10030    2    1    2    0    0  0.00000000000E+00  0.00000000000E+00 -0.10989109754E+04  0.16595692193E+04  0.12436095295E+04 0.  0.
        1    1    3    3  502    0 -0.58263512103E+03  0.14150486471E+03 -0.32955455431E+03  0.68417360025E+03  0.50400001928E-02 0.  1.
       -1    1    3    3    0  502  0.58263512103E+03 -0.14150486471E+03 -0.76935642111E+03  0.97539561908E+03  0.50400001928E-02 0. -1.
</event>
<event>
 5   0  0.5447074E-04  0.1201762E+04  0.7818609E-02  0.9111316E-01
        1   -1    0    0  501    0  0.00000000000E+00  0.00000000000E+00  0.86921772348E+03  0.86921772350E+03  0.50400001928E-02 0.  1.
       -1   -1    0    0    0  501  0.00000000000E+00  0.00000000000E+00 -0.41538235448E+03  0.41538235452E+03  0.50400001928E-02 0. -1.
    10030    2    1    2    0    0  0.00000000000E+00  0.00000000000E+00  0.45383536900E+03  0.12846000780E+04  0.12017615480E+04 0.  0.
        4    1    3    3  502    0 -0.55791042147E+03 -0.37863294230E+02 -0.81460926691E+01  0.55925453880E+03  0.12699999809E+01 0.  1.
       -4    1    3    3    0  502  0.55791042147E+03  0.37863294230E+02  0.46198146166E+03  0.72534553922E+03  0.12699999809E+01 0. -1.
</event>
<event>
 5   0  0.5052959E-04  0.1204057E+04  0.7818609E-02  0.9109313E-01
       -1   -1    0    0    0  501  0.00000000000E+00  0.00000000000E+00  0.31855769957E+03  0.31855769961E+03  0.50400001928E-02 0. -1.
        1   -1    0    0  501    0  0.00000000000E+00  0.00000000000E+00 -0.11377475091E+04  0.11377475091E+04  0.50400001928E-02 0.  1.
    10030    2    1    2    0    0  0.00000000000E+00  0.00000000000E+00 -0.81918980953E+03  0.14563052087E+04  0.12040568578E+04 0.  0.
        2    1    3    3  502    0 -0.63446064345E+02  0.21362483810E+03  0.26683529525E+03  0.34765219593E+03  0.25500000920E-02 0. -1.
       -2    1    3    3    0  502  0.63446064345E+02 -0.21362483810E+03 -0.10860251048E+04  0.11086530128E+04  0.25500000920E-02 0.  1.
</event>
<event>
 5   0  0.9070772E-04  0.1193901E+04  0.7818609E-02  0.9118212E-01
        2   -1    0    0  501    0  0.00000000000E+00  0.00000000000E+00  0.13539911972E+04  0.13539911972E+04  0.25500000920E-02 0. -1.
       -2   -1    0    0    0  501  0.00000000000E+00  0.00000000000E+00 -0.26318491579E+03  0.26318491580E+03  0.25500000920E-02 0.  1.
    10030    2    1    2    0    0  0.00000000000E+00  0.00000000000E+00  0.10908062814E+04  0.16171761130E+04  0.11939012676E+04 0.  0.
        4    1    3    3  502    0  0.25199153302E+03 -0.45381844838E+03  0.94469698901E+03  0.10779169406E+04  0.12699999809E+01 0. -1.
       -4    1    3    3    0  502 -0.25199153302E+03  0.45381844838E+03  0.14610929236E+03  0.53925917240E+03  0.12699999809E+01 0.  1.
</event>
<event>
 5   0  0.9410666E-04  0.1200202E+04  0.7818609E-02  0.9112680E-01
        2   -1    0    0  501    0  0.00000000000E+00  0.00000000000E+00  0.52469141518E+03  0.52469141519E+03  0.25500000920E-02 0. -1.
       -2   -1    0    0    0  501  0.00000000000E+00  0.00000000000E+00 -0.68634836744E+03  0.68634836744E+03  0.25500000920E-02 0.  1.
    10030    2    1    2    0    0  0.00000000000E+00  0.00000000000E+00 -0.16165695225E+03  0.12110397826E+04  0.12002018101E+04 0.  0.
        2    1    3    3  502    0 -0.14780641375E+03 -0.22231781076E+03 -0.62312857104E+03  0.67790940470E+03  0.25500000920E-02 0.  1.
       -2    1    3    3    0  502  0.14780641375E+03  0.22231781076E+03  0.46147161879E+03  0.53313037793E+03  0.25500000920E-02 0. -1.
</event>
<event>
 5   0  0.9145224E-04  0.1205314E+04  0.7818609E-02  0.9108218E-01
       -2   -1    0    0    0  501  0.00000000000E+00  0.00000000000E+00  0.61470599623E+03  0.61470599624E+03  0.25500000920E-02 0.  1.
        2   -1    0    0  501    0  0.00000000000E+00  0.00000000000E+00 -0.59084418288E+03  0.59084418288E+03  0.25500000920E-02 0. -1.
    10030    2    1    2    0    0  0.00000000000E+00  0.00000000000E+00  0.23861813352E+02  0.12055501791E+04  0.12053140040E+04 0.  0.
        5    1    3    3  502    0  0.37250110905E+03 -0.23295402316E+03 -0.40064079011E+03  0.59460893522E+03  0.46999998093E+01 0. -1.
       -5    1    3    3    0  502 -0.37250110905E+03  0.23295402316E+03  0.42450260347E+03  0.61094124390E+03  0.46999998093E+01 0.  1.
</event>
<event>
 5   0  0.3453625E-04  0.1201075E+04  0.7818609E-02  0.9111916E-01
        4   -1    0    0  501    0  0.00000000000E+00  0.00000000000E+00  0.30068534569E+03  0.30068802772E+03  0.12699999809E+01 0.  1.
       -4   -1    0    0    0  501  0.00000000000E+00  0.00000000000E+00 -0.11994026686E+04  0.11994033409E+04  0.12699999809E+01 0. -1.
    10030    2    1    2    0    0  0.00000000000E+00  0.00000000000E+00 -0.89871732288E+03  0.15000913687E+04  0.12010750551E+04 0.  0.
        5    1    3    3  502    0  0.48517193916E+03 -0.31092080255E+03 -0.23828978280E+03  0.62359254854E+03  0.46999998093E+01 0.  1.
       -5    1    3    3    0  502 -0.48517193916E+03  0.31092080255E+03 -0.66042754007E+03  0.87649882013E+03  0.46999998093E+01 0. -1.
</event>
<event>
 5   0  0.9070772E-04  0.1149761E+04  0.7818609E-02  0.9158004E-01
       -2   -1    0    0    0  501  0.00000000000E+00  0.00000000000E+00  0.14140494215E+04  0.14140494215E+04  0.25500000920E-02 0. -1.
        2   -1    0    0  501    0  0.00000000000E+00  0.00000000000E+00 -0.23371700134E+03  0.23371700135E+03  0.25500000920E-02 0.  1.
    10030    2    1    2    0    0  0.00000000000E+00  0.00000000000E+00  0.11803324201E+04  0.16477664228E+04  0.11497606543E+04 0.  0.
        4    1    3    3  502    0  0.46328959004E+03  0.18830923620E+03  0.18383118066E+03  0.53281622401E+03  0.12699999809E+01 0.  1.
       -4    1    3    3    0  502 -0.46328959004E+03 -0.18830923620E+03  0.99650123948E+03  0.11149501988E+04  0.12699999809E+01 0. -1.
</event>
<event>
 5   0  0.9050363E-04  0.1199284E+04  0.7818609E-02  0.9113483E-01
       -2   -1    0    0    0  501  0.00000000000E+00  0.00000000000E+00  0.55903864729E+03  0.55903864729E+03  0.25500000920E-02 0. -1.
        2   -1    0    0  501    0  0.00000000000E+00  0.00000000000E+00 -0.64319447145E+03  0.64319447146E+03  0.25500000920E-02 0.  1.
    10030    2    1    2    0    0  0.00000000000E+00  0.00000000000E+00 -0.84155824165E+02  0.12022331188E+04  0.11992840652E+04 0.  0.
        3    1    3    3  502    0 -0.51134823479E+03  0.22110203696E+03 -0.26445086443E+03  0.61668257464E+03  0.10100000352E+00 0.  1.
       -3    1    3    3    0  502  0.51134823479E+03 -0.22110203696E+03  0.18029504026E+03  0.58555054411E+03  0.10100000352E+00 0. -1.
</event>
<event>
 5   0  0.5003507E-04  0.1197392E+04  0.7818609E-02  0.9115142E-01
        1   -1    0    0  501    0  0.00000000000E+00  0.00000000000E+00  0.35758112985E+03  0.35758112988E+03  0.50400001928E-02 0. -1.
       -1   -1    0    0    0  501  0.00000000000E+00  0.00000000000E+00 -0.10023937370E+04  0.10023937370E+04  0.50400001928E-02 0.  1.
    10030    2    1    2    0    0  0.00000000000E+00  0.00000000000E+00 -0.64481260718E+03  0.13599748669E+04  0.11973923084E+04 0.  0.
        3    1    3    3  502    0  0.51625949606E+03  0.19989707825E+03 -0.58129044166E+03  0.80273364009E+03  0.10100000352E+00 0. -1.
       -3    1    3    3    0  502 -0.51625949606E+03 -0.19989707825E+03 -0.63522165524E+02  0.55724122683E+03  0.10100000352E+00 0.  1.
</event>
<event>
 5   0  0.9050363E-04  0.1183255E+04  0.7818609E-02  0.9127641E-01
       -2   -1    0    0    0  501  0.00000000000E+00  0.00000000000E+00  0.91379880348E+03  0.91379880349E+03  0.25500000920E-02 0.  1.
        2   -1    0    0  501    0  0.00000000000E+00  0.00000000000E+00 -0.38304202912E+03  0.38304202912E+03  0.25500000920E-02 0. -1.
    10030    2    1    2    0    0  0.00000000000E+00  0.00000000000E+00  0.53075677437E+03  0.12968408326E+04  0.11832554211E+04 0.  0.
        3    1    3    3  502    0  0.22802721091E+03  0.33084010501E+03  0.74131212660E+03  0.84320535058E+03  0.10100000352E+00 0.  1.
       -3    1    3    3    0  502 -0.22802721091E+03 -0.33084010501E+03 -0.21055535224E+03  0.45363548203E+03  0.10100000352E+00 0. -1.
</event>
<event>
 5   0  0.5052959E-04  0.1200064E+04  0.7818609E-02  0.9112800E-01
       -1   -1    0    0    0  501  0.00000000000E+00  0.00000000000E+00  0.17755351121E+03  0.17755351128E+03  0.50400001928E-02 0.  1.
        1   -1    0    0  501    0  0.00000000000E+00  0.00000000000E+00 -0.20277744287E+04  0.20277744287E+04  0.50400001928E-02 0. -1.
    10030    2    1    2    0    0  0.00000000000E+00  0.00000000000E+00 -0.18502209175E+04  0.22053279400E+04  0.12000641147E+04 0.  0.
        2    1    3    3  502    0 -0.16848729607E+03 -0.36270199191E+03 -0.10307632690E+03  0.41299568163E+03  0.25500000920E-02 0.  1.
       -2    1    3    3    0  502  0.16848729607E+03  0.36270199191E+03 -0.17471445906E+04  0.17923322584E+04  0.25500000920E-02 0. -1.
</event>
<event>
 5   0  0.5001586E-04  0.1177223E+04  0.7818609E-02  0.9133030E-01
        1   -1    0    0  501    0  0.00000000000E+00  0.00000000000E+00  0.18336060677E+04  0.18336060677E+04  0.50400001928E-02 0.  1.
       -1   -1    0    0    0  501  0.00000000000E+00  0.00000000000E+00 -0.18895212471E+03  0.18895212477E+03  0.50400001928E-02 0. -1.
    10030    2    1    2    0    0  0.00000000000E+00  0.00000000000E+00  0.16446539430E+04  0.20225581925E+04  0.11772234494E+04 0.  0.
        1    1    3    3  502    0 -0.48928619602E+03 -0.59061254017E+02  0.13752550533E+04  0.14608955044E+04  0.50400001928E-02 0.  1.
       -1    1    3    3    0  502  0.48928619602E+03  0.59061254017E+02  0.26939888975E+03  0.56166268806E+03  0.50400001928E-02 0. -1.
</event>
<event>
 5   0  0.9070772E-04  0.1204044E+04  0.7818609E-02  0.9109324E-01
        2   -1    0    0  501    0  0.00000000000E+00  0.00000000000E+00  0.10895923025E+04  0.10895923025E+04  0.25500000920E-02 0. -1.
       -2   -1    0    0    0  501  0.00000000000E+00  0.00000000000E+00 -0.33262955084E+03  0.33262955085E+03  0.25500000920E-02 0.  1.
    10030    2    1    2    0    0  0.00000000000E+00  0.00000000000E+00  0.75696275165E+03  0.14222218533E+04  0.12040441822E+04 0.  0.
        4    1    3    3  502    0  0.36966772526E+03 -0.21905262381E+03 -0.11957608650E+03  0.44602503569E+03  0.12699999809E+01 0.  1.
       -4    1    3    3    0  502 -0.36966772526E+03  0.21905262381E+03  0.87653883815E+03  0.97619681765E+03  0.12699999809E+01 0. -1.
</event>
<event>
 5   0  0.9070772E-04  0.1173755E+04  0.7818609E-02  0.9136144E-01
       -2   -1    0    0    0  501  0.00000000000E+00  0.00000000000E+00  0.45132751069E+03  0.45132751070E+03  0.25500000920E-02 0.  1.
        2   -1    0    0  501    0  0.00000000000E+00  0.00000000000E+00 -0.76313787447E+03  0.76313787447E+03  0.25500000920E-02 0. -1.
    10030    2    1    2    0    0  0.00000000000E+00  0.00000000000E+00 -0.31181036378E+03  0.12144653852E+04  0.11737548589E+04 0.  0.
        4    1    3    3  502    0  0.58365918781E+02  0.36060727318E+03 -0.63116126057E+03  0.72925327266E+03  0.12699999809E+01 0. -1.
       -4    1    3    3    0  502 -0.58365918781E+02 -0.36060727318E+03  0.31935089679E+03  0.48521211251E+03  0.12699999809E+01 0.  1.
</event>
<event>
 5   0  0.9070772E-04  0.1200123E+04  0.7818609E-02  0.9112749E-01
        2   -1    0    0  501    0  0.00000000000E+00  0.00000000000E+00  0.86734470566E+03  0.86734470567E+03  0.25500000920E-02 0. -1.
       -2   -1    0    0    0  501  0.00000000000E+00  0.00000000000E+00 -0.41514473074E+03  0.41514473075E+03  0.25500000920E-02 0.  1.
    10030    2    1    2    0    0  0.00000000000E+00  0.00000000000E+00  0.45219997493E+03  0.12824894364E+04  0.12001226342E+04 0.  0.
        4    1    3    3  502    0 -0.32453848067E+03  0.27811106551E+02 -0.31244525174E+03  0.45135610256E+03  0.12699999809E+01 0.  1.
       -4    1    3    3    0  502  0.32453848067E+03 -0.27811106551E+02  0.76464522666E+03  0.83113333385E+03  0.12699999809E+01 0. -1.
</event>
<event>
 5   0  0.3453625E-04  0.1197400E+04  0.7818609E-02  0.9115136E-01
        3   -1    0    0  501    0  0.00000000000E+00  0.00000000000E+00  0.57487158410E+03  0.57487159298E+03  0.10100000352E+00 0.  1.
       -3   -1    0    0    0  501  0.00000000000E+00  0.00000000000E+00 -0.62351565149E+03  0.62351565967E+03  0.10100000352E+00 0. -1.
    10030    2    1    2    0    0  0.00000000000E+00  0.00000000000E+00 -0.48644067387E+02  0.11983872526E+04  0.11973995833E+04 0.  0.
        3    1    3    3  502    0  0.33588893579E+03 -0.49556955916E+03 -0.18761810171E+02  0.59896792976E+03  0.10100000352E+00 0.  1.
       -3    1    3    3    0  502 -0.33588893579E+03  0.49556955916E+03 -0.29882257217E+02  0.59941932289E+03  0.10100000352E+00 0. -1.
</event>
<event>
 5   0  0.5001586E-04  0.1200565E+04  0.7818609E-02  0.9112362E-01
       -1   -1    0    0    0  501  0.00000000000E+00  0.00000000000E+00  0.65885191306E+03  0.65885191308E+03  0.50400001928E-02 0. -1.
        1   -1    0    0  501    0  0.00000000000E+00  0.00000000000E+00 -0.54691998445E+03  0.54691998447E+03  0.50400001928E-02 0.  1.
    10030    2    1    2    0    0  0.00000000000E+00  0.00000000000E+00  0.11193192862E+03  0.12057718976E+04  0.12005653303E+04 0.  0.
        1    1    3    3  502    0  0.78397309415E+02 -0.10375022817E+03 -0.53260368299E+03  0.54824896820E+03  0.50400001928E-02 0.  1.
       -1    1    3    3    0  502 -0.78397309415E+02  0.10375022817E+03  0.64453561161E+03  0.65752292935E+03  0.50400001928E-02 0. -1.
</event>
<event>
 5   0  0.3453625E-04  0.1176226E+04  0.7818609E-02  0.9133924E-01
        3   -1    0    0  501    0  0.00000000000E+00  0.00000000000E+00  0.22553955919E+03  0.22553958180E+03  0.10100000352E+00 0. -1.
       -3   -1    0    0    0  501  0.00000000000E+00  0.00000000000E+00 -0.15335526317E+04  0.15335526350E+04  0.10100000352E+00 0.  1.
    10030    2    1    2    0    0  0.00000000000E+00  0.00000000000E+00 -0.13080130725E+04  0.17590922168E+04  0.11762258412E+04 0.  0.
        3    1    3    3  502    0 -0.27167915594E+03 -0.22970903736E+03  0.46348390762E+02  0.35878125528E+03  0.10100000352E+00 0. -1.
       -3    1    3    3    0  502  0.27167915594E+03  0.22970903736E+03 -0.13543614633E+04  0.14003109615E+04  0.10100000352E+00 0.  1.
</event>
<event>
 5   0  0.9145224E-04  0.1198595E+04  0.7818609E-02  0.9114087E-01
        2   -1    0    0  501    0  0.00000000000E+00  0.00000000000E+00  0.10571314963E+04  0.10571314963E+04  0.25500000920E-02 0. -1.
       -2   -1    0    0    0  501  0.00000000000E+00  0.00000000000E+00 -0.33974719006E+03  0.33974719007E+03  0.25500000920E-02 0.  1.
    10030    2    1    2    0    0  0.00000000000E+00  0.00000000000E+00  0.71738430625E+03  0.13968786864E+04  0.11985949364E+04 0.  0.
        5    1    3    3  502    0 -0.57201901637E+03  0.16794091546E+03  0.42982597772E+03  0.73497099759E+03  0.46999998093E+01 0.  1.
       -5    1    3    3    0  502  0.57201901637E+03 -0.16794091546E+03  0.28755832853E+03  0.66190768879E+03  0.46999998093E+01 0. -1.
</event>
<event>
 5   0  0.9050363E-04  0.1204539E+04  0.7818609E-02  0.9108893E-01
        2   -1    0    0  501    0  0.00000000000E+00  0.00000000000E+00  0.15150159281E+04  0.15150159281E+04  0.25500000920E-02 0.  1.
       -2   -1    0    0    0  501  0.00000000000E+00  0.00000000000E+00 -0.23942234017E+03  0.23942234018E+03  0.25500000920E-02 0. -1.
    10030    2    1    2    0    0  0.00000000000E+00  0.00000000000E+00  0.12755935879E+04  0.17544382683E+04  0.12045391798E+04 0.  0.
        3    1    3    3  502    0 -0.31549756985E+03  0.94874267139E+02 -0.96540138741E+02  0.34330722645E+03  0.10100000352E+00 0. -1.
       -3    1    3    3    0  502  0.31549756985E+03 -0.94874267139E+02  0.13721337267E+04  0.14111310418E+04  0.10100000352E+00 0.  1.
</event>
<event>
 5   0  0.5052959E-04  0.1200281E+04  0.7818609E-02  0.9112611E-01
       -1   -1    0    0    0  501  0.00000000000E+00  0.00000000000E+00  0.30974069554E+03  0.30974069558E+03  0.50400001928E-02 0. -1.
        1   -1    0    0  501    0  0.00000000000E+00  0.00000000000E+00 -0.11628066669E+04  0.11628066669E+04  0.50400001928E-02 0.  1.
    10030    2    1    2    0    0  0.00000000000E+00  0.00000000000E+00 -0.85306597136E+03  0.14725473625E+04  0.12002808768E+04 0.  0.
        2    1    3    3  502    0  0.29469873018E+03  0.48162217659E+03 -0.17702561041E+03  0.59173079124E+03  0.25500000920E-02 0.  1.
       -2    1    3    3    0  502 -0.29469873018E+03 -0.48162217659E+03 -0.67604036095E+03  0.88081657125E+03  0.25500000920E-02 0. -1.
</event>
<event>
 5   0  0.5001586E-04  0.1199318E+04  0.7818609E-02  0.9113454E-01
        1   -1    0    0  501    0  0.00000000000E+00  0.00000000000E+00  0.20300370417E+04  0.20300370418E+04  0.50400001928E-02 0. -1.
       -1   -1    0    0    0  501  0.00000000000E+00  0.00000000000E+00 -0.17713503210E+03  0.17713503217E+03  0.50400001928E-02 0.  1.
    10030    2    1    2    0    0  0.00000000000E+00  0.00000000000E+00  0.18529020096E+04  0.22071720739E+04  0.11993176004E+04 0.  0.
        1    1    3    3  502    0 -0.21631696539E+03  0.28375414021E+03  0.39480764262E+02  0.35898213378E+03  0.50400001928E-02 0.  1.
       -1    1    3    3    0  502  0.21631696539E+03 -0.28375414021E+03  0.18134212454E+04  0.18481899401E+04  0.50400001928E-02 0. -1.
</event>
<event>
 5   0  0.5052959E-04  0.1200854E+04  0.7818609E-02  0.9112109E-01
       -1   -1    0    0    0  501  0.00000000000E+00  0.00000000000E+00  0.37445237093E+03  0.37445237096E+03  0.50400001928E-02 0.  1.
        1   -1    0    0  501    0  0.00000000000E+00  0.00000000000E+00 -0.96277267206E+03  0.96277267207E+03  0.50400001928E-02 0. -1.
    10030    2    1    2    0    0  0.00000000000E+00  0.00000000000E+00 -0.58832030113E+03  0.13372250430E+04  0.12008538791E+04 0.  0.
        2    1    3    3  502    0  0.69768560384E+01  0.59710184726E+03 -0.36399758903E+03  0.69933792787E+03  0.25500000920E-02 0. -1.
       -2    1    3    3    0  502 -0.69768560384E+01 -0.59710184726E+03 -0.22432271210E+03  0.63788711516E+03  0.25500000920E-02 0.  1.
</event>
<event>
 5   0  0.9050363E-04  0.1200738E+04  0.7818609E-02  0.9112211E-01
        2   -1    0    0  501    0  0.00000000000E+00  0.00000000000E+00  0.64113259105E+03  0.64113259105E+03  0.25500000920E-02 0.  1.
       -2   -1    0    0    0  501  0.00000000000E+00  0.00000000000E+00 -0.56219704507E+03  0.56219704508E+03  0.25500000920E-02 0. -1.
    10030    2    1    2    0    0  0.00000000000E+00  0.00000000000E+00  0.78935545977E+02  0.12033296361E+04  0.12007378535E+04 0.  0.
        3    1    3    3  502    0  0.26884454272E+03  0.44114768926E+03 -0.26705869203E+03  0.58155741512E+03  0.10100000352E+00 0. -1.
       -3    1    3    3    0  502 -0.26884454272E+03 -0.44114768926E+03  0.34599423800E+03  0.62177222101E+03  0.10100000352E+00 0.  1.
</event>
<event>
 5   0  0.5052959E-04  0.1198185E+04  0.7818609E-02  0.9114447E-01
        1   -1    0    0  501    0  0.00000000000E+00  0.00000000000E+00  0.11519583384E+04  0.11519583384E+04  0.50400001928E-02 0.  1.
       -1   -1    0    0    0  501  0.00000000000E+00  0.00000000000E+00 -0.31156668087E+03  0.31156668092E+03  0.50400001928E-02 0. -1.
    10030    2    1    2    0    0  0.00000000000E+00  0.00000000000E+00  0.84039165755E+03  0.14635250194E+04  0.11981850209E+04 0.  0.
        2    1    3    3  502    0 -0.52575390970E+03 -0.28714170985E+03  0.42832568254E+03  0.73643086942E+03  0.25500000920E-02 0. -1.
       -2    1    3    3    0  502  0.52575390970E+03  0.28714170985E+03  0.41206597501E+03  0.72709414993E+03  0.25500000920E-02 0.  1.
</event>
<event>
 5   0  0.9070772E-04  0.1204381E+04  0.7818609E-02  0.9109030E-01
        2   -1    0    0  501    0  0.00000000000E+00  0.00000000000E+00  0.42275372555E+03  0.42275372556E+03  0.25500000920E-02 0. -1.
       -2   -1    0    0    0  501  0.00000000000E+00  0.00000000000E+00 -0.85778878556E+03  0.85778878556E+03  0.25500000920E-02 0.  1.
    10030    2    1    2    0    0  0.00000000000E+00  0.00000000000E+00 -0.43503506000E+03  0.12805425111E+04  0.12043810109E+04 0.  0.
        4    1    3    3  502    0  0.48871116772E+03  0.16603197823E+03 -0.54733799604E+03  0.75232022308E+03  0.12699999809E+01 0.  1.
       -4    1    3    3    0  502 -0.48871116772E+03 -0.16603197823E+03  0.11230293604E+03  0.52822228804E+03  0.12699999809E+01 0. -1.
</event>
<event>
 5   0  0.5003507E-04  0.1199112E+04  0.7818609E-02  0.9113634E-01
       -1   -1    0    0    0  501  0.00000000000E+00  0.00000000000E+00  0.17744123052E+03  0.17744123059E+03  0.50400001928E-02 0.  1.
        1   -1    0    0  501    0  0.00000000000E+00  0.00000000000E+00 -0.20258407094E+04  0.20258407094E+04  0.50400001928E-02 0. -1.
    10030    2    1    2    0    0  0.00000000000E+00  0.00000000000E+00 -0.18483994789E+04  0.22032819400E+04  0.11991124524E+04 0.  0.
        3    1    3    3  502    0  0.46542553624E+03  0.11247803162E+03 -0.26120815408E+03  0.54543739086E+03  0.10100000352E+00 0.  1.
       -3    1    3    3    0  502 -0.46542553624E+03 -0.11247803162E+03 -0.15871913248E+04  0.16578445491E+04  0.10100000352E+00 0. -1.
</event>
<event>
 5   0  0.5001586E-04  0.1204359E+04  0.7818609E-02  0.9109050E-01
        1   -1    0    0  501    0  0.00000000000E+00  0.00000000000E+00  0.77287874059E+03  0.77287874061E+03  0.50400001928E-02 0.  1.
       -1   -1    0    0    0  501  0.00000000000E+00  0.00000000000E+00 -0.46918100637E+03  0.46918100639E+03  0.50400001928E-02 0. -1.
    10030    2    1    2    0    0  0.00000000000E+00  0.00000000000E+00  0.30369773423E+03  0.12420597470E+04  0.12043587926E+04 0.  0.
        1    1    3    3  502    0  0.14338911414E+02  0.57221277451E+03  0.34475219234E+03  0.66819693043E+03  0.50400001928E-02 0. -1.
       -1    1    3    3    0  502 -0.14338911414E+02 -0.57221277451E+03 -0.41054458115E+02  0.57386281657E+03  0.50400001928E-02 0.  1.
</event>
<event>
 5   0  0.9070772E-04  0.1199412E+04  0.7818609E-02  0.9113371E-01
       -2   -1    0    0    0  501  0.00000000000E+00  0.00000000000E+00  0.15694729064E+03  0.15694729066E+03  0.25500000920E-02 0. -1.
        2   -1    0    0  501    0  0.00000000000E+00  0.00000000000E+00 -0.22915175280E+04  0.22915175280E+04  0.25500000920E-02 0.  1.
    10030    2    1    2    0    0  0.00000000000E+00  0.00000000000E+00 -0.21345702373E+04  0.24484648186E+04  0.11994123019E+04 0.  0.
        4    1    3    3  502    0 -0.52765893076E+03  0.28328374441E+03 -0.10036335181E+04  0.11687409802E+04  0.12699999809E+01 0.  1.
       -4    1    3    3    0  502  0.52765893076E+03 -0.28328374441E+03 -0.11309367192E+04  0.12797238385E+04  0.12699999809E+01 0. -1.
</event>
<event>
 5   0  0.9145224E-04  0.1206670E+04  0.7818609E-02  0.9107038E-01
        2   -1    0    0  501    0  0.00000000000E+00  0.00000000000E+00  0.48515352107E+03  0.48515352107E+03  0.25500000920E-02 0. -1.
       -2   -1    0    0    0  501  0.00000000000E+00  0.00000000000E+00 -0.75030507982E+03  0.75030507983E+03  0.25500000920E-02 0.  1.
    10030    2    1    2    0    0  0.00000000000E+00  0.00000000000E+00 -0.26515155876E+03  0.12354586009E+04  0.12066700483E+04 0.  0.
        5    1    3    3  502    0  0.28296656059E+03 -0.68325312658E+02 -0.67362690756E+03  0.73384856976E+03  0.46999998093E+01 0.  1.
       -5    1    3    3    0  502 -0.28296656059E+03  0.68325312658E+02  0.40847534880E+03  0.50161003114E+03  0.46999998093E+01 0. -1.
</event>
<event>
 5   0  0.5052959E-04  0.1192740E+04  0.7818609E-02  0.9119235E-01
       -1   -1    0    0    0  501  0.00000000000E+00  0.00000000000E+00  0.45605686168E+03  0.45605686171E+03  0.50400001928E-02 0. -1.
        1   -1    0    0  501    0  0.00000000000E+00  0.00000000000E+00 -0.77985286838E+03  0.77985286840E+03  0.50400001928E-02 0.  1.
    10030    2    1    2    0    0  0.00000000000E+00  0.00000000000E+00 -0.32379600670E+03  0.12359097301E+04  0.11927401255E+04 0.  0.
        2    1    3    3  502    0 -0.51159800022E+03 -0.19100261370E+03  0.86448753731E+02  0.55289049485E+03  0.25500000920E-02 0. -1.
       -2    1    3    3    0  502  0.51159800022E+03  0.19100261370E+03 -0.41024476043E+03  0.68301923526E+03  0.25500000920E-02 0.  1.
</event>
<event>
 5   0  0.5052959E-04  0.1200064E+04  0.7818609E-02  0.9112801E-01
        1   -1    0    0  501    0  0.00000000000E+00  0.00000000000E+00  0.41358032961E+03  0.41358032964E+03  0.50400001928E-02 0. -1.
       -1   -1    0    0    0  501  0.00000000000E+00  0.00000000000E+00 -0.87053974860E+03  0.87053974862E+03  0.50400001928E-02 0.  1.
    10030    2    1    2    0    0  0.00000000000E+00  0.00000000000E+00 -0.45695941899E+03  0.12841200783E+04  0.12000635253E+04 0.  0.
        2    1    3    3  502    0  0.27653101376E+03 -0.51965768717E+03 -0.35292075751E+03  0.68634289862E+03  0.25500000920E-02 0.  1.
       -2    1    3    3    0  502 -0.27653101376E+03  0.51965768717E+03 -0.10403866148E+03  0.59777717964E+03  0.25500000920E-02 0. -1.
</event>
<event>
 5   0  0.5001586E-04  0.1201072E+04  0.7818609E-02  0.9111919E-01
       -1   -1    0    0    0  501  0.00000000000E+00  0.00000000000E+00  0.49251532463E+03  0.49251532466E+03  0.50400001928E-02 0. -1.
        1   -1    0    0  501    0  0.00000000000E+00  0.00000000000E+00 -0.73224841390E+03  0.73224841391E+03  0.50400001928E-02 0.  1.
    10030    2    1    2    0    0  0.00000000000E+00  0.00000000000E+00 -0.23973308927E+03  0.12247637386E+04  0.12010721299E+04 0.  0.
        1    1    3    3  502    0 -0.35454677108E+03 -0.43083676114E+03 -0.34632787244E+03  0.65670900929E+03  0.50400001928E-02 0.  1.
       -1    1    3    3    0  502  0.35454677108E+03  0.43083676114E+03  0.10659478317E+03  0.56805472928E+03  0.50400001928E-02 0. -1.
</event>
<event>
 5   0  0.5157631E-04  0.1201079E+04  0.7818609E-02  0.9111913E-01
        1   -1    0    0  501    0  0.00000000000E+00  0.00000000000E+00  0.90347437878E+03  0.90347437879E+03  0.50400001928E-02 0.  1.
       -1   -1    0    0    0  501  0.00000000000E+00  0.00000000000E+00 -0.39917851642E+03  0.39917851646E+03  0.50400001928E-02 0. -1.
    10030    2    1    2    0    0  0.00000000000E+00  0.00000000000E+00  0.50429586235E+03  0.13026528952E+04  0.12010787854E+04 0.  0.
        5    1    3    3  502    0 -0.13778661533E+03 -0.69182597500E+02 -0.37732654446E+03  0.40763806779E+03  0.46999998093E+01 0. -1.
       -5    1    3    3    0  502  0.13778661533E+03  0.69182597500E+02  0.88162240682E+03  0.89501482745E+03  0.46999998093E+01 0.  1.
</event>
<event>
 5   0  0.5003507E-04  0.1202150E+04  0.7818609E-02  0.9110977E-01
       -1   -1    0    0    0  501  0.00000000000E+00  0.00000000000E+00  0.52198465693E+03  0.52198465695E+03  0.50400001928E-02 0. -1.
        1   -1    0    0  501    0  0.00000000000E+00  0.00000000000E+00 -0.69214850142E+03  0.69214850144E+03  0.50400001928E-02 0.  1.
    10030    2    1    2    0    0  0.00000000000E+00  0.00000000000E+00 -0.17016384450E+03  0.12141331584E+04  0.12021495715E+04 0.  0.
        3    1    3    3  502    0 -0.53308094143E+03 -0.21402651387E+03  0.93623283760E+02  0.58202059089E+03  0.10100000352E+00 0. -1.
       -3    1    3    3    0  502  0.53308094143E+03  0.21402651387E+03 -0.26378712826E+03  0.63211256750E+03  0.10100000352E+00 0.  1.
</event>
<event>
 5   0  0.9298693E-04  0.1199081E+04  0.7818609E-02  0.9113661E-01
       -2   -1    0    0    0  501  0.00000000000E+00  0.00000000000E+00  0.21239904546E+03  0.21239904548E+03  0.25500000920E-02 0.  1.
        2   -1    0    0  501    0  0.00000000000E+00  0.00000000000E+00 -0.16923287377E+04  0.16923287377E+04  0.25500000920E-02 0. -1.
    10030    2    1    2    0    0  0.00000000000E+00  0.00000000000E+00 -0.14799296922E+04  0.19047277832E+04  0.11990813292E+04 0.  0.
        1    1    3    3  502    0 -0.75061908175E+02  0.53411760863E+02 -0.16810182364E+04  0.16835407382E+04  0.50400001928E-02 0. -1.
       -1    1    3    3    0  502  0.75061908175E+02 -0.53411760863E+02  0.20108854412E+03  0.22118704496E+03  0.50400001928E-02 0.  1.
</event>
<event>
 5   0  0.5157631E-04  0.1200803E+04  0.7818609E-02  0.9112154E-01
       -1   -1    0    0    0  501  0.00000000000E+00  0.00000000000E+00  0.94090009305E+03  0.94090009306E+03  0.50400001928E-02 0. -1.
        1   -1    0    0  501    0  0.00000000000E+00  0.00000000000E+00 -0.38312450569E+03  0.38312450572E+03  0.50400001928E-02 0.  1.
    10030    2    1    2    0    0  0.00000000000E+00  0.00000000000E+00  0.55777558736E+03  0.13240245988E+04  0.12008028699E+04 0.  0.
        5    1    3    3  502    0 -0.22771938410E+03 -0.26513526466E+03 -0.25937294860E+03  0.43525767417E+03  0.46999998093E+01 0.  1.
       -5    1    3    3    0  502  0.22771938410E+03  0.26513526466E+03  0.81714853596E+03  0.88876692461E+03  0.46999998093E+01 0. -1.
</event>
<event>
 5   0  0.5001586E-04  0.1201776E+04  0.7818609E-02  0.9111303E-01
       -1   -1    0    0    0  501  0.00000000000E+00  0.00000000000E+00  0.28955221636E+03  0.28955221640E+03  0.50400001928E-02 0.  1.
        1   -1    0    0  501    0  0.00000000000E+00  0.00000000000E+00 -0.12469829097E+04  0.12469829097E+04  0.50400001928E-02 0. -1.
    10030    2    1    2    0    0  0.00000000000E+00  0.00000000000E+00 -0.95743069329E+03  0.15365351261E+04  0.12017764606E+04 0.  0.
        1    1    3    3  502    0  0.40449291334E+03  0.43595992211E+03 -0.58863445117E+03  0.83675927706E+03  0.50400001928E-02 0. -1.
       -1    1    3    3    0  502 -0.40449291334E+03 -0.43595992211E+03 -0.36879624213E+03  0.69977584901E+03  0.50400001928E-02 0.  1.
</event>
<event>
 5   0  0.5001586E-04  0.1203941E+04  0.7818609E-02  0.9109414E-01
        1   -1    0    0  501    0  0.00000000000E+00  0.00000000000E+00  0.10750593094E+04  0.10750593095E+04  0.50400001928E-02 0. -1.
       -1   -1    0    0    0  501  0.00000000000E+00  0.00000000000E+00 -0.33706841166E+03  0.33706841170E+03  0.50400001928E-02 0.  1.
    10030    2    1    2    0    0  0.00000000000E+00  0.00000000000E+00  0.73799089778E+03  0.14121277212E+04  0.12039410848E+04 0.  0.
        1    1    3    3  502    0  0.45940718470E+03 -0.28361179143E+03  0.68126111715E+03  0.86925676262E+03  0.50400001928E-02 0. -1.
       -1    1    3    3    0  502 -0.45940718470E+03  0.28361179143E+03  0.56729780623E+02  0.54287095854E+03  0.50400001928E-02 0.  1.
</event>
<event>
 5   0  0.5447074E-04  0.1175568E+04  0.7818609E-02  0.9134515E-01
       -1   -1    0    0    0  501  0.00000000000E+00  0.00000000000E+00  0.46063184203E+03  0.46063184206E+03  0.50400001928E-02 0. -1.
        1   -1    0    0  501    0  0.00000000000E+00  0.00000000000E+00 -0.75003454167E+03  0.75003454169E+03  0.50400001928E-02 0.  1.
    10030    2    1    2    0    0  0.00000000000E+00  0.00000000000E+00 -0.28940269964E+03  0.12106663837E+04  0.11755675949E+04 0.  0.
        4    1    3    3  502    0  0.56682342605E+03 -0.14422399999E+03 -0.20474139823E+03  0.61968541337E+03  0.12699999809E+01 0. -1.
       -4    1    3    3    0  502 -0.56682342605E+03  0.14422399999E+03 -0.84661301413E+02  0.59098097038E+03  0.12699999809E+01 0.  1.
</event>
<event>
 5   0  0.5003507E-04  0.1203728E+04  0.7818609E-02  0.9109600E-01
        1   -1    0    0  501    0  0.00000000000E+00  0.00000000000E+00  0.14697489703E+04  0.14697489703E+04  0.50400001928E-02 0.  1.
       -1   -1    0    0    0  501  0.00000000000E+00  0.00000000000E+00 -0.24646384524E+03  0.24646384530E+03  0.50400001928E-02 0. -1.
    10030    2    1    2    0    0  0.00000000000E+00  0.00000000000E+00  0.12232851250E+04  0.17162128156E+04  0.12037275154E+04 0.  0.
        3    1    3    3  502    0  0.30223480465E+02  0.90956959701E+02 -0.23551290521E+03  0.25426947518E+03  0.10100000352E+00 0. -1.
       -3    1    3    3    0  502 -0.30223480465E+02 -0.90956959701E+02  0.14587980302E+04  0.14619433404E+04  0.10100000352E+00 0.  1.
</event>
<event>
 5   0  0.9298693E-04  0.1202894E+04  0.7818609E-02  0.9110328E-01
        2   -1    0    0  501    0  0.00000000000E+00  0.00000000000E+00  0.21269369675E+04  0.21269369675E+04  0.25500000920E-02 0. -1.
       -2   -1    0    0    0  501  0.00000000000E+00  0.00000000000E+00 -0.17007473639E+03  0.17007473641E+03  0.25500000920E-02 0.  1.
    10030    2    1    2    0    0  0.00000000000E+00  0.00000000000E+00  0.19568622311E+04  0.22970117039E+04  0.12028935848E+04 0.  0.
        1    1    3    3  502    0  0.12672733522E+03 -0.53548816751E+03  0.51486962747E+03  0.75359015941E+03  0.50400001928E-02 0.  1.
       -1    1    3    3    0  502 -0.12672733522E+03  0.53548816751E+03  0.14419926036E+04  0.15434215445E+04  0.50400001928E-02 0. -1.
</event>
<event>
 5   0  0.9145224E-04  0.1192017E+04  0.7818609E-02  0.9119873E-01
        2   -1    0    0  501    0  0.00000000000E+00  0.00000000000E+00  0.10514081043E+04  0.10514081043E+04  0.25500000920E-02 0.  1.
       -2   -1    0    0    0  501  0.00000000000E+00  0.00000000000E+00 -0.33785755909E+03  0.33785755910E+03  0.25500000920E-02 0. -1.
    10030    2    1    2    0    0  0.00000000000E+00  0.00000000000E+00  0.71355054525E+03  0.13892656634E+04  0.11920170733E+04 0.  0.
        5    1    3    3  502    0  0.26901292029E+02  0.53820443084E+03  0.65349421245E+03  0.84703274116E+03  0.46999998093E+01 0.  1.
       -5    1    3    3    0  502 -0.26901292029E+02 -0.53820443084E+03  0.60056332797E+02  0.54223292227E+03  0.46999998093E+01 0. -1.
</event>
<event>
 5   0  0.5003507E-04  0.1204245E+04  0.7818609E-02  0.9109149E-01
       -1   -1    0    0    0  501  0.00000000000E+00  0.00000000000E+00  0.77098758340E+03  0.77098758341E+03  0.50400001928E-02 0.  1.
        1   -1    0    0  501    0  0.00000000000E+00  0.00000000000E+00 -0.47024313408E+03  0.47024313411E+03  0.50400001928E-02 0. -1.
    10030    2    1    2    0    0  0.00000000000E+00  0.00000000000E+00  0.30074444931E+03  0.12412307175E+04  0.12042451870E+04 0.  0.
        3    1    3    3  502    0  0.18656811395E+03  0.16036132387E+03  0.71682190630E+03  0.75786349093E+03  0.10100000352E+00 0.  1.
       -3    1    3    3    0  502 -0.18656811395E+03 -0.16036132387E+03 -0.41607745698E+03  0.48336722660E+03  0.10100000352E+00 0. -1.
</event>
<event>
 5   0  0.3453625E-04  0.1204570E+04  0.7818609E-02  0.9108866E-01
        4   -1    0    0  501    0  0.00000000000E+00  0.00000000000E+00  0.36782195856E+03  0.36782415106E+03  0.12699999809E+01 0.  1.
       -4   -1    0    0    0  501  0.00000000000E+00  0.00000000000E+00 -0.98619741550E+03  0.98619823324E+03  0.12699999809E+01 0. -1.
    10030    2    1    2    0    0  0.00000000000E+00  0.00000000000E+00 -0.61837545694E+03  0.13540223843E+04  0.12045698035E+04 0.  0.
        1    1    3    3  502    0  0.31253681079E+03 -0.42025961576E+03 -0.64349209905E+03  0.82968637708E+03  0.50400001928E-02 0. -1.
       -1    1    3    3    0  502 -0.31253681079E+03  0.42025961576E+03  0.25116642114E+02  0.52433600722E+03  0.50400001928E-02 0.  1.
</event>
<event>
 5   0  0.5447074E-04  0.1202171E+04  0.7818609E-02  0.9110959E-01
        1   -1    0    0  501    0  0.00000000000E+00  0.00000000000E+00  0.71909411672E+03  0.71909411674E+03  0.50400001928E-02 0.  1.
       -1   -1    0    0    0  501  0.00000000000E+00  0.00000000000E+00 -0.50244284190E+03  0.50244284192E+03  0.50400001928E-02 0. -1.
    10030    2    1    2    0    0  0.00000000000E+00  0.00000000000E+00  0.21665127483E+03  0.12215369587E+04  0.12021708558E+04 0.  0.
        4    1    3    3  502    0  0.36317609830E+03  0.46156989618E+03 -0.21634823631E+02  0.58771874730E+03  0.12699999809E+01 0. -1.
       -4    1    3    3    0  502 -0.36317609830E+03 -0.46156989618E+03  0.23828609846E+03  0.63381821136E+03  0.12699999809E+01 0.  1.
</event>
<event>
 5   0  0.5052959E-04  0.1198409E+04  0.7818609E-02  0.9114250E-01
       -1   -1    0    0    0  501  0.00000000000E+00  0.00000000000E+00  0.52581620814E+03  0.52581620817E+03  0.50400001928E-02 0.  1.
        1   -1    0    0  501    0  0.00000000000E+00  0.00000000000E+00 -0.68283540987E+03  0.68283540989E+03  0.50400001928E-02 0. -1.
    10030    2    1    2    0    0  0.00000000000E+00  0.00000000000E+00 -0.15701920173E+03  0.12086516181E+04  0.11984088218E+04 0.  0.
        2    1    3    3  502    0  0.38969562042E+03 -0.33944322222E+03  0.22733391524E+03  0.56459285039E+03  0.25500000920E-02 0.  1.
       -2    1    3    3    0  502 -0.38969562042E+03  0.33944322222E+03 -0.38435311696E+03  0.64405876767E+03  0.25500000920E-02 0. -1.
</event>
<event>
 5   0  0.5001586E-04  0.1197792E+04  0.7818609E-02  0.9114791E-01
       -1   -1    0    0    0  501  0.00000000000E+00  0.00000000000E+00  0.69288266579E+03  0.69288266581E+03  0.50400001928E-02 0. -1.
        1   -1    0    0  501    0  0.00000000000E+00  0.00000000000E+00 -0.51765839406E+03  0.51765839409E+03  0.50400001928E-02 0.  1.
    10030    2    1    2    0    0  0.00000000000E+00  0.00000000000E+00  0.17522427173E+03  0.12105410599E+04  0.11977921824E+04 0.  0.
        1    1    3    3  502    0 -0.47789155996E+03 -0.11456765900E+03 -0.25833287707E+03  0.55519543133E+03  0.50400001928E-02 0. -1.
       -1    1    3    3    0  502  0.47789155996E+03  0.11456765900E+03  0.43355714881E+03  0.65534562856E+03  0.50400001928E-02 0.  1.
</event>
<event>
 5   0  0.5157631E-04  0.1199899E+04  0.7818609E-02  0.9112945E-01
        1   -1    0    0  501    0  0.00000000000E+00  0.00000000000E+00  0.57619874182E+03  0.57619874184E+03  0.50400001928E-02 0. -1.
       -1   -1    0    0    0  501  0.00000000000E+00  0.00000000000E+00 -0.62467922400E+03  0.62467922402E+03  0.50400001928E-02 0.  1.
    10030    2    1    2    0    0  0.00000000000E+00  0.00000000000E+00 -0.48480482177E+02  0.12008779659E+04  0.11998989673E+04 0.  0.
        5    1    3    3  502    0 -0.52320287836E+02 -0.41460974157E+03 -0.45503149442E+03  0.61783039844E+03  0.46999998093E+01 0.  1.
       -5    1    3    3    0  502  0.52320287836E+02  0.41460974157E+03  0.40655101224E+03  0.58304756742E+03  0.46999998093E+01 0. -1.
</event>
<event>
 5   0  0.9145224E-04  0.1202149E+04  0.7818609E-02  0.9110977E-01
       -2   -1    0    0    0  501  0.00000000000E+00  0.00000000000E+00  0.49103731697E+03  0.49103731697E+03  0.25500000920E-02 0. -1.
        2   -1    0    0  501    0  0.00000000000E+00  0.00000000000E+00 -0.73577056956E+03  0.73577056957E+03  0.25500000920E-02 0.  1.
    10030    2    1    2    0    0  0.00000000000E+00  0.00000000000E+00 -0.24473325260E+03  0.12268078865E+04  0.12021494190E+04 0.  0.
        5    1    3    3  502    0 -0.41123528040E+03 -0.18966916192E+03 -0.52566886821E+03  0.69385783546E+03  0.46999998093E+01 0.  1.
       -5    1    3    3    0  502  0.41123528040E+03  0.18966916192E+03  0.28093561562E+03  0.53295005108E+03  0.46999998093E+01 0. -1.
</event>
<event>
 5   0  0.9070772E-04  0.1199885E+04  0.7818609E-02  0.9112957E-01
       -2   -1    0    0    0  501  0.00000000000E+00  0.00000000000E+00  0.60079802560E+03  0.60079802560E+03  0.25500000920E-02 0. -1.
        2   -1    0    0  501    0  0.00000000000E+00  0.00000000000E+00 -0.59908791491E+03  0.59908791492E+03  0.25500000920E-02 0.  1.
    10030    2    1    2    0    0  0.00000000000E+00  0.00000000000E+00  0.17101106888E+01  0.11998859405E+04  0.11998847219E+04 0.  0.
        4    1    3    3  502    0 -0.10931885995E+03  0.72711977544E+02  0.58625429930E+03  0.60077729748E+03  0.12699999809E+01 0. -1.
       -4    1    3    3    0  502  0.10931885995E+03 -0.72711977544E+02 -0.58454418861E+03  0.59910864304E+03  0.12699999809E+01 0.  1.
</event>
<event>
 5   0  0.5157631E-04  0.1192558E+04  0.7818609E-02  0.9119395E-01
       -1   -1    0    0    0  501  0.00000000000E+00  0.00000000000E+00  0.39995651473E+03  0.39995651476E+03  0.50400001928E-02 0. -1.
        1   -1    0    0  501    0  0.00000000000E+00  0.00000000000E+00 -0.88896852827E+03  0.88896852829E+03  0.50400001928E-02 0.  1.
    10030    2    1    2    0    0  0.00000000000E+00  0.00000000000E+00 -0.48901201354E+03  0.12889250431E+04  0.11925581819E+04 0.  0.
        5    1    3    3  502    0 -0.24125515362E+03 -0.19206296989E+02  0.34446305252E+03  0.42101046964E+03  0.46999998093E+01 0. -1.
       -5    1    3    3    0  502  0.24125515362E+03  0.19206296989E+02 -0.83347506607E+03  0.86791457341E+03  0.46999998093E+01 0.  1.
</event>
<event>
 5   0  0.3453625E-04  0.1204295E+04  0.7818609E-02  0.9109105E-01
        3   -1    0    0  501    0  0.00000000000E+00  0.00000000000E+00  0.52675483810E+03  0.52675484778E+03  0.10100000352E+00 0.  1.
       -3   -1    0    0    0  501  0.00000000000E+00  0.00000000000E+00 -0.68833075506E+03  0.68833076247E+03  0.10100000352E+00 0. -1.
    10030    2    1    2    0    0  0.00000000000E+00  0.00000000000E+00 -0.16157591696E+03  0.12150856103E+04  0.12042949237E+04 0.  0.
        4    1    3    3  502    0  0.54849371377E+03  0.13804434288E+03  0.12765051046E+03  0.57982571551E+03  0.12699999809E+01 0.  1.
       -4    1    3    3    0  502 -0.54849371377E+03 -0.13804434288E+03 -0.28922642742E+03  0.63525989474E+03  0.12699999809E+01 0. -1.
</event>
<event>
 5   0  0.9050363E-04  0.1207832E+04  0.7818609E-02  0.9106029E-01
        2   -1    0    0  501    0  0.00000000000E+00  0.00000000000E+00  0.36966709337E+03  0.36966709338E+03  0.25500000920E-02 0. -1.
       -2   -1    0    0    0  501  0.00000000000E+00  0.00000000000E+00 -0.98660287299E+03  0.98660287299E+03  0.25500000920E-02 0.  1.
    10030    2    1    2    0    0  0.00000000000E+00  0.00000000000E+00 -0.61693577962E+03  0.13562699664E+04  0.12078321347E+04 0.  0.
        3    1    3    3  502    0 -0.25627424334E+03 -0.46495723274E+02 -0.92029301022E+03  0.95644005298E+03  0.10100000352E+00 0.  1.
       -3    1    3    3    0  502  0.25627424334E+03  0.46495723274E+02  0.30335723061E+03  0.39982991339E+03  0.10100000352E+00 0. -1.
</event>
<event>
 5   0  0.9070772E-04  0.1202829E+04  0.7818609E-02  0.9110384E-01
        2   -1    0    0  501    0  0.00000000000E+00  0.00000000000E+00  0.11417378566E+04  0.11417378566E+04  0.25500000920E-02 0.  1.
       -2   -1    0    0    0  501  0.00000000000E+00  0.00000000000E+00 -0.31679729388E+03  0.31679729389E+03  0.25500000920E-02 0. -1.
    10030    2    1    2    0    0  0.00000000000E+00  0.00000000000E+00  0.82494056273E+03  0.14585351505E+04  0.12028291039E+04 0.  0.
        4    1    3    3  502    0 -0.11105320350E+03 -0.36644706687E+03  0.97483049194E+03  0.10473358429E+04  0.12699999809E+01 0.  1.
       -4    1    3    3    0  502  0.11105320350E+03  0.36644706687E+03 -0.14988992921E+03  0.41119930764E+03  0.12699999809E+01 0. -1.
</event>
<event>
 5   0  0.9070772E-04  0.1197562E+04  0.7818609E-02  0.9114993E-01
        2   -1    0    0  501    0  0.00000000000E+00  0.00000000000E+00  0.52446572720E+03  0.52446572720E+03  0.25500000920E-02 0.  1.
       -2   -1    0    0    0  501  0.00000000000E+00  0.00000000000E+00 -0.68362669708E+03  0.68362669709E+03  0.25500000920E-02 0. -1.
    10030    2    1    2    0    0  0.00000000000E+00  0.00000000000E+00 -0.15916096989E+03  0.12080924243E+04  0.11975621451E+04 0.  0.
        4    1    3    3  502    0  0.42947235600E+03  0.41689959116E+03 -0.62538560986E+02  0.60180101212E+03  0.12699999809E+01 0.  1.
       -4    1    3    3    0  502 -0.42947235600E+03 -0.41689959116E+03 -0.96622408903E+02  0.60629141217E+03  0.12699999809E+01 0. -1.
</event>
<event>
 5   0  0.5001586E-04  0.1202131E+04  0.7818609E-02  0.9110993E-01
       -1   -1    0    0    0  501  0.00000000000E+00  0.00000000000E+00  0.40919503088E+03  0.40919503091E+03  0.50400001928E-02 0. -1.
        1   -1    0    0  501    0  0.00000000000E+00  0.00000000000E+00 -0.88290323590E+03  0.88290323591E+03  0.50400001928E-02 0.  1.
    10030    2    1    2    0    0  0.00000000000E+00  0.00000000000E+00 -0.47370820502E+03  0.12920982668E+04  0.12021308030E+04 0.  0.
        1    1    3    3  502    0 -0.45864726788E+03  0.33229936520E+03 -0.20548241642E+02  0.56674722293E+03  0.50400001928E-02 0.  1.
       -1    1    3    3    0  502  0.45864726788E+03 -0.33229936520E+03 -0.45315996338E+03  0.72535104389E+03  0.50400001928E-02 0. -1.
</event>
<event>
 5   0  0.5003507E-04  0.1200565E+04  0.7818609E-02  0.9112362E-01
       -1   -1    0    0    0  501  0.00000000000E+00  0.00000000000E+00  0.86675458359E+03  0.86675458361E+03  0.50400001928E-02 0.  1.
        1   -1    0    0  501    0  0.00000000000E+00  0.00000000000E+00 -0.41573385400E+03  0.41573385403E+03  0.50400001928E-02 0. -1.
    10030    2    1    2    0    0  0.00000000000E+00  0.00000000000E+00  0.45102072959E+03  0.12824884376E+04  0.12005652394E+04 0.  0.
        3    1    3    3  502    0  0.40772214189E+03  0.42701256382E+03  0.34136431376E+03  0.68198730161E+03  0.10100000352E+00 0.  1.
       -3    1    3    3    0  502 -0.40772214189E+03 -0.42701256382E+03  0.10965641583E+03  0.60050113603E+03  0.10100000352E+00 0. -1.
</event>
<event>
 5   0  0.5003507E-04  0.1198429E+04  0.7818609E-02  0.9114232E-01
       -1   -1    0    0    0  501  0.00000000000E+00  0.00000000000E+00  0.35510825845E+03  0.35510825849E+03  0.50400001928E-02 0.  1.
        1   -1    0    0  501    0  0.00000000000E+00  0.00000000000E+00 -0.10111231635E+04  0.10111231635E+04  0.50400001928E-02 0. -1.
    10030    2    1    2    0    0  0.00000000000E+00  0.00000000000E+00 -0.65601490501E+03  0.13662314220E+04  0.11984292815E+04 0.  0.
        3    1    3    3  502    0 -0.34209417500E+03 -0.34781258500E+02  0.23143851435E+03  0.41448999582E+03  0.10100000352E+00 0.  1.
       -3    1    3    3    0  502  0.34209417500E+03  0.34781258500E+02 -0.88745341935E+03  0.95174142614E+03  0.10100000352E+00 0. -1.
</event>
<event>
 5   0  0.9298693E-04  0.1193799E+04  0.7818609E-02  0.9118302E-01
       -2   -1    0    0    0  501  0.00000000000E+00  0.00000000000E+00  0.26312332476E+03  0.26312332477E+03  0.25500000920E-02 0.  1.
        2   -1    0    0  501    0  0.00000000000E+00  0.00000000000E+00 -0.13540754049E+04  0.13540754049E+04  0.25500000920E-02 0. -1.
    10030    2    1    2    0    0  0.00000000000E+00  0.00000000000E+00 -0.10909520801E+04  0.16171987297E+04  0.11937986807E+04 0.  0.
        1    1    3    3  502    0 -0.24376669740E+03  0.28253338065E+03 -0.11765840564E+04  0.12343408588E+04  0.50400001928E-02 0. -1.
       -1    1    3    3    0  502  0.24376669740E+03 -0.28253338065E+03  0.85631976214E+02  0.38285787091E+03  0.50400001928E-02 0.  1.
</event>
<event>
 5   0  0.5447074E-04  0.1200847E+04  0.7818609E-02  0.9112115E-01
        1   -1    0    0  501    0  0.00000000000E+00  0.00000000000E+00  0.98332281524E+03  0.98332281525E+03  0.50400001928E-02 0.  1.
       -1   -1    0    0    0  501  0.00000000000E+00  0.00000000000E+00 -0.36662270986E+03  0.36662270989E+03  0.50400001928E-02 0. -1.
    10030    2    1    2    0    0  0.00000000000E+00  0.00000000000E+00  0.61670010538E+03  0.13499455251E+04  0.12008471597E+04 0.  0.
        4    1    3    3  502    0  0.49592967185E+01 -0.90105550702E+02 -0.35895408310E+03  0.37012599417E+03  0.12699999809E+01 0. -1.
       -4    1    3    3    0  502 -0.49592967185E+01  0.90105550702E+02  0.97565418847E+03  0.97981953097E+03  0.12699999809E+01 0.  1.
</event>
<event>
 5   0  0.9050363E-04  0.1209801E+04  0.7818609E-02  0.9104321E-01
        2   -1    0    0  501    0  0.00000000000E+00  0.00000000000E+00  0.74518530131E+03  0.74518530131E+03  0.25500000920E-02 0. -1.
       -2   -1    0    0    0  501  0.00000000000E+00  0.00000000000E+00 -0.49102490533E+03  0.49102490534E+03  0.25500000920E-02 0.  1.
    10030    2    1    2    0    0  0.00000000000E+00  0.00000000000E+00  0.25416039598E+03  0.12362102067E+04  0.12098008795E+04 0.  0.
        3    1    3    3  502    0  0.24786880151E+03 -0.63635116577E+02  0.68714731527E+03  0.73325289901E+03  0.10100000352E+00 0. -1.
       -3    1    3    3    0  502 -0.24786880151E+03  0.63635116577E+02 -0.43298691929E+03  0.50295730764E+03  0.10100000352E+00 0.  1.
</event>
<event>
 5   0  0.5157631E-04  0.1201882E+04  0.7818609E-02  0.9111211E-01
        1   -1    0    0  501    0  0.00000000000E+00  0.00000000000E+00  0.18299270348E+04  0.18299270348E+04  0.50400001928E-02 0.  1.
       -1   -1    0    0    0  501  0.00000000000E+00  0.00000000000E+00 -0.19734658183E+03  0.19734658190E+03  0.50400001928E-02 0. -1.
    10030    2    1    2    0    0  0.00000000000E+00  0.00000000000E+00  0.16325804530E+04  0.20272736167E+04  0.12018816005E+04 0.  0.
        5    1    3    3  502    0 -0.16666050821E+03  0.89561744279E+02  0.17783451624E+04  0.17883877202E+04  0.46999998093E+01 0.  1.
       -5    1    3    3    0  502  0.16666050821E+03 -0.89561744279E+02 -0.14576470945E+03  0.23888589651E+03  0.46999998093E+01 0. -1.
</event>
<event>
 5   0  0.9050363E-04  0.1204585E+04  0.7818609E-02  0.9108853E-01
        2   -1    0    0  501    0  0.00000000000E+00  0.00000000000E+00  0.20753665046E+04  0.20753665046E+04  0.25500000920E-02 0. -1.
       -2   -1    0    0    0  501  0.00000000000E+00  0.00000000000E+00 -0.17479135542E+03  0.17479135543E+03  0.25500000920E-02 0.  1.
    10030    2    1    2    0    0  0.00000000000E+00  0.00000000000E+00  0.19005751491E+04  0.22501578600E+04  0.12045847821E+04 0.  0.
        3    1    3    3  502    0 -0.14830456852E+03 -0.46937541995E+03  0.15985882360E+04  0.16726601233E+04  0.10100000352E+00 0. -1.
       -3    1    3    3    0  502  0.14830456852E+03  0.46937541995E+03  0.30198691318E+03  0.57749773665E+03  0.10100000352E+00 0.  1.
</event>
<event>
 5   0  0.9298693E-04  0.1210110E+04  0.7818609E-02  0.9104053E-01
        2   -1    0    0  501    0  0.00000000000E+00  0.00000000000E+00  0.54796332722E+03  0.54796332723E+03  0.25500000920E-02 0.  1.
       -2   -1    0    0    0  501  0.00000000000E+00  0.00000000000E+00 -0.66809545668E+03  0.66809545669E+03  0.25500000920E-02 0. -1.
    10030    2    1    2    0    0  0.00000000000E+00  0.00000000000E+00 -0.12013212946E+03  0.12160587839E+04  0.12101104236E+04 0.  0.
        1    1    3    3  502    0  0.11452165033E+03 -0.80960816591E+02  0.53140331530E+03  0.54959925924E+03  0.50400001928E-02 0.  1.
       -1    1    3    3    0  502 -0.11452165033E+03  0.80960816591E+02 -0.65153544476E+03  0.66645952467E+03  0.50400001928E-02 0. -1.
</event>
<event>
 5   0  0.5157631E-04  0.1224752E+04  0.7818609E-02  0.9091463E-01
       -1   -1    0    0    0  501  0.00000000000E+00  0.00000000000E+00  0.12509897755E+04  0.12509897755E+04  0.50400001928E-02 0.  1.
        1   -1    0    0  501    0  0.00000000000E+00  0.00000000000E+00 -0.29976629259E+03  0.29976629264E+03  0.50400001928E-02 0. -1.
    10030    2    1    2    0    0  0.00000000000E+00  0.00000000000E+00  0.95122348292E+03  0.15507560682E+04  0.12247523294E+04 0.  0.
        5    1    3    3  502    0  0.33417898242E+03 -0.26961257662E+03  0.10284203870E+04  0.11144671894E+04  0.46999998093E+01 0.  1.
       -5    1    3    3    0  502 -0.33417898242E+03  0.26961257662E+03 -0.77196904080E+02  0.43628887880E+03  0.46999998093E+01 0. -1.
</event>
<event>
 5   0  0.5052959E-04  0.1198117E+04  0.7818609E-02  0.9114506E-01
        1   -1    0    0  501    0  0.00000000000E+00  0.00000000000E+00  0.25485155671E+03  0.25485155676E+03  0.50400001928E-02 0.  1.
       -1   -1    0    0    0  501  0.00000000000E+00  0.00000000000E+00 -0.14081573653E+04  0.14081573653E+04  0.50400001928E-02 0. -1.
    10030    2    1    2    0    0  0.00000000000E+00  0.00000000000E+00 -0.11533058086E+04  0.16630089221E+04  0.11981170171E+04 0.  0.
        2    1    3    3  502    0  0.86246806232E+02  0.54232296120E+03 -0.90896208324E+03  0.10619626993E+04  0.25500000920E-02 0. -1.
       -2    1    3    3    0  502 -0.86246806232E+02 -0.54232296120E+03 -0.24434372532E+03  0.60104622280E+03  0.25500000920E-02 0.  1.
</event>
<event>
 5   0  0.9410666E-04  0.1218134E+04  0.7818609E-02  0.9097131E-01
       -2   -1    0    0    0  501  0.00000000000E+00  0.00000000000E+00  0.42863165299E+03  0.42863165299E+03  0.25500000920E-02 0. -1.
        2   -1    0    0  501    0  0.00000000000E+00  0.00000000000E+00 -0.86545731639E+03  0.86545731639E+03  0.25500000920E-02 0.  1.
    10030    2    1    2    0    0  0.00000000000E+00  0.00000000000E+00 -0.43682566340E+03  0.12940889694E+04  0.12181336546E+04 0.  0.
        2    1    3    3  502    0  0.24346112707E+03 -0.55749801318E+03 -0.18680811703E+03  0.63637616839E+03  0.25500000920E-02 0. -1.
       -2    1    3    3    0  502 -0.24346112707E+03  0.55749801318E+03 -0.25001754637E+03  0.65771280100E+03  0.25500000920E-02 0.  1.
</event>
<event>
 5   0  0.9410666E-04  0.1203486E+04  0.7818609E-02  0.9109811E-01
       -2   -1    0    0    0  501  0.00000000000E+00  0.00000000000E+00  0.38003324110E+03  0.38003324111E+03  0.25500000920E-02 0. -1.
        2   -1    0    0  501    0  0.00000000000E+00  0.00000000000E+00 -0.95279743453E+03  0.95279743453E+03  0.25500000920E-02 0.  1.
    10030    2    1    2    0    0  0.00000000000E+00  0.00000000000E+00 -0.57276419343E+03  0.13328306756E+04  0.12034860982E+04 0.  0.
        2    1    3    3  502    0 -0.44219382201E+02  0.55813313369E+03 -0.53059663649E+03  0.77136291027E+03  0.25500000920E-02 0. -1.
       -2    1    3    3    0  502  0.44219382201E+02 -0.55813313369E+03 -0.42167556945E+02  0.56146776537E+03  0.25500000920E-02 0.  1.
</event>
<event>
 5   0  0.5003507E-04  0.1200141E+04  0.7818609E-02  0.9112733E-01
       -1   -1    0    0    0  501  0.00000000000E+00  0.00000000000E+00  0.72736541862E+03  0.72736541864E+03  0.50400001928E-02 0.  1.
        1   -1    0    0  501    0  0.00000000000E+00  0.00000000000E+00 -0.49505348111E+03  0.49505348114E+03  0.50400001928E-02 0. -1.
    10030    2    1    2    0    0  0.00000000000E+00  0.00000000000E+00  0.23231193751E+03  0.12224188998E+04  0.12001412959E+04 0.  0.
        3    1    3    3  502    0 -0.39488127986E+03  0.38264709058E+03  0.36089674075E+03  0.65772067688E+03  0.10100000352E+00 0.  1.
       -3    1    3    3    0  502  0.39488127986E+03 -0.38264709058E+03 -0.12858480324E+03  0.56469822289E+03  0.10100000352E+00 0. -1.
</event>
<event>
 5   0  0.5052959E-04  0.1204726E+04  0.7818609E-02  0.9108730E-01
        1   -1    0    0  501    0  0.00000000000E+00  0.00000000000E+00  0.66936291754E+03  0.66936291756E+03  0.50400001928E-02 0.  1.
       -1   -1    0    0    0  501  0.00000000000E+00  0.00000000000E+00 -0.54206922196E+03  0.54206922199E+03  0.50400001928E-02 0. -1.
    10030    2    1    2    0    0  0.00000000000E+00  0.00000000000E+00  0.12729369558E+03  0.12114321395E+04  0.12047257546E+04 0.  0.
        2    1    3    3  502    0 -0.44958390480E+03  0.34363616668E+03  0.27126541344E+03  0.62753201276E+03  0.25500000920E-02 0.  1.
       -2    1    3    3    0  502  0.44958390480E+03 -0.34363616668E+03 -0.14397171786E+03  0.58390012678E+03  0.25500000920E-02 0. -1.
</event>
<event>
 5   0  0.9298693E-04  0.1200958E+04  0.7818609E-02  0.9112019E-01
       -2   -1    0    0    0  501  0.00000000000E+00  0.00000000000E+00  0.28079421623E+03  0.28079421624E+03  0.25500000920E-02 0.  1.
        2   -1    0    0  501    0  0.00000000000E+00  0.00000000000E+00 -0.12841248947E+04  0.12841248947E+04  0.25500000920E-02 0. -1.
    10030    2    1    2    0    0  0.00000000000E+00  0.00000000000E+00 -0.10033306784E+04  0.15649191109E+04  0.12009576901E+04 0.  0.
        1    1    3    3  502    0 -0.58441041647E+03  0.13786421468E+03 -0.50912434395E+03  0.78724181431E+03  0.50400001928E-02 0. -1.
       -1    1    3    3    0  502  0.58441041647E+03 -0.13786421468E+03 -0.49420633448E+03  0.77767729659E+03  0.50400001928E-02 0.  1.
</event>
<event>
 5   0  0.5447074E-04  0.1196640E+04  0.7818609E-02  0.9115802E-01
        1   -1    0    0  501    0  0.00000000000E+00  0.00000000000E+00  0.70857989763E+03  0.70857989764E+03  0.50400001928E-02 0.  1.
       -1   -1    0    0    0  501  0.00000000000E+00  0.00000000000E+00 -0.50521760132E+03  0.50521760135E+03  0.50400001928E-02 0. -1.
    10030    2    1    2    0    0  0.00000000000E+00  0.00000000000E+00  0.20336229630E+03  0.12137974990E+04  0.11966403574E+04 0.  0.
        4    1    3    3  502    0  0.41203739867E+02  0.58107729700E+03  0.24015534299E+03  0.63009901994E+03  0.12699999809E+01 0.  1.
       -4    1    3    3    0  502 -0.41203739867E+02 -0.58107729700E+03 -0.36793046683E+02  0.58369847905E+03  0.12699999809E+01 0. -1.
</event>
<event>
 5   0  0.9298693E-04  0.1198440E+04  0.7818609E-02  0.9114223E-01
       -2   -1    0    0    0  501  0.00000000000E+00  0.00000000000E+00  0.59838148696E+03  0.59838148697E+03  0.25500000920E-02 0.  1.
        2   -1    0    0  501    0  0.00000000000E+00  0.00000000000E+00 -0.60005985024E+03  0.60005985025E+03  0.25500000920E-02 0. -1.
    10030    2    1    2    0    0  0.00000000000E+00  0.00000000000E+00 -0.16783632831E+01  0.11984413372E+04  0.11984401620E+04 0.  0.
        1    1    3    3  502    0  0.32833211869E+03  0.36601697269E+03 -0.34332207322E+03  0.59970030052E+03  0.50400001928E-02 0. -1.
       -1    1    3    3    0  502 -0.32833211869E+03 -0.36601697269E+03  0.34164370994E+03  0.59874103670E+03  0.50400001928E-02 0.  1.
</event>
<event>
 5   0  0.5001586E-04  0.1197619E+04  0.7818609E-02  0.9114943E-01
        1   -1    0    0  501    0  0.00000000000E+00  0.00000000000E+00  0.50675013707E+03  0.50675013709E+03  0.50400001928E-02 0. -1.
       -1   -1    0    0    0  501  0.00000000000E+00  0.00000000000E+00 -0.70759342959E+03  0.70759342960E+03  0.50400001928E-02 0.  1.
    10030    2    1    2    0    0  0.00000000000E+00  0.00000000000E+00 -0.20084329252E+03  0.12143435667E+04  0.11976194178E+04 0.  0.
        1    1    3    3  502    0  0.33903999659E+03 -0.41894121399E+03 -0.36505124183E+03  0.65093952810E+03  0.50400001928E-02 0. -1.
       -1    1    3    3    0  502 -0.33903999659E+03  0.41894121399E+03  0.16420794931E+03  0.56340403860E+03  0.50400001928E-02 0.  1.
</event>
<event>
 5   0  0.9070772E-04  0.1195917E+04  0.7818609E-02  0.9116438E-01
       -2   -1    0    0    0  501  0.00000000000E+00  0.00000000000E+00  0.25834137682E+03  0.25834137683E+03  0.25500000920E-02 0. -1.
        2   -1    0    0  501    0  0.00000000000E+00  0.00000000000E+00 -0.13840382691E+04  0.13840382691E+04  0.25500000920E-02 0.  1.
    10030    2    1    2    0    0  0.00000000000E+00  0.00000000000E+00 -0.11256968923E+04  0.16423796459E+04  0.11959169738E+04 0.  0.
        4    1    3    3  502    0  0.19972032138E+03 -0.15863564836E+03 -0.13055851956E+04  0.13302660604E+04  0.12699999809E+01 0.  1.
       -4    1    3    3    0  502 -0.19972032138E+03  0.15863564836E+03  0.17988830329E+03  0.31211358552E+03  0.12699999809E+01 0. -1.
</event>
<event>
 5   0  0.3453625E-04  0.1249421E+04  0.7818609E-02  0.9070665E-01
        3   -1    0    0  501    0  0.00000000000E+00  0.00000000000E+00  0.21482154962E+03  0.21482157337E+03  0.10100000352E+00 0. -1.
       -3   -1    0    0    0  501  0.00000000000E+00  0.00000000000E+00 -0.18166862789E+04  0.18166862817E+04  0.10100000352E+00 0.  1.
    10030    2    1    2    0    0  0.00000000000E+00  0.00000000000E+00 -0.16018647293E+04  0.20315078551E+04  0.12494212878E+04 0.  0.
        2    1    3    3  502    0  0.32508290016E+03  0.11549518510E+03 -0.16477516941E+04  0.16834796331E+04  0.25500000920E-02 0.  1.
       -2    1    3    3    0  502 -0.32508290016E+03 -0.11549518510E+03  0.45886964778E+02  0.34802822199E+03  0.25500000920E-02 0. -1.
</event>
<event>
 5   0  0.9050363E-04  0.1201294E+04  0.7818609E-02  0.9111725E-01
       -2   -1    0    0    0  501  0.00000000000E+00  0.00000000000E+00  0.69245135523E+03  0.69245135524E+03  0.25500000920E-02 0.  1.
        2   -1    0    0  501    0  0.00000000000E+00  0.00000000000E+00 -0.52101396963E+03  0.52101396964E+03  0.25500000920E-02 0. -1.
    10030    2    1    2    0    0  0.00000000000E+00  0.00000000000E+00  0.17143738560E+03  0.12134653249E+04  0.12012940179E+04 0.  0.
        3    1    3    3  502    0 -0.22392806102E+03 -0.25523469602E+03  0.58620643923E+03  0.67744116067E+03  0.10100000352E+00 0.  1.
       -3    1    3    3    0  502  0.22392806102E+03  0.25523469602E+03 -0.41476905363E+03  0.53602416421E+03  0.10100000352E+00 0. -1.
</event>
<event>
 5   0  0.9410666E-04  0.1200633E+04  0.7818609E-02  0.9112303E-01
        2   -1    0    0  501    0  0.00000000000E+00  0.00000000000E+00  0.13364177316E+04  0.13364177316E+04  0.25500000920E-02 0. -1.
       -2   -1    0    0    0  501  0.00000000000E+00  0.00000000000E+00 -0.26966101249E+03  0.26966101250E+03  0.25500000920E-02 0.  1.
    10030    2    1    2    0    0  0.00000000000E+00  0.00000000000E+00  0.10667567191E+04  0.16060787441E+04  0.12006327642E+04 0.  0.
        2    1    3    3  502    0 -0.23363926132E+03 -0.48893492831E+03  0.87894655816E+03  0.10325656011E+04  0.25500000920E-02 0. -1.
       -2    1    3    3    0  502  0.23363926132E+03  0.48893492831E+03  0.18781016090E+03  0.57351314291E+03  0.25500000920E-02 0.  1.
</event>
<event>
 5   0  0.9298693E-04  0.1197898E+04  0.7818609E-02  0.9114699E-01
        2   -1    0    0  501    0  0.00000000000E+00  0.00000000000E+00  0.30236443284E+03  0.30236443285E+03  0.25500000920E-02 0. -1.
       -2   -1    0    0    0  501  0.00000000000E+00  0.00000000000E+00 -0.11864484675E+04  0.11864484675E+04  0.25500000920E-02 0.  1.
    10030    2    1    2    0    0  0.00000000000E+00  0.00000000000E+00 -0.88408403466E+03  0.14888129004E+04  0.11978978554E+04 0.  0.
        1    1    3    3  502    0  0.54924116393E+03 -0.19582132737E+03 -0.27195714706E+03  0.64340697717E+03  0.50400001928E-02 0. -1.
       -1    1    3    3    0  502 -0.54924116393E+03  0.19582132737E+03 -0.61212688760E+03  0.84540592319E+03  0.50400001928E-02 0.  1.
</event>
<event>
 5   0  0.5052959E-04  0.1201546E+04  0.7818609E-02  0.9111505E-01
       -1   -1    0    0    0  501  0.00000000000E+00  0.00000000000E+00  0.54335838620E+03  0.54335838622E+03  0.50400001928E-02 0. -1.
        1   -1    0    0  501    0  0.00000000000E+00  0.00000000000E+00 -0.66425414333E+03  0.66425414335E+03  0.50400001928E-02 0.  1.
    10030    2    1    2    0    0  0.00000000000E+00  0.00000000000E+00 -0.12089575713E+03  0.12076125296E+04  0.12015457700E+04 0.  0.
        2    1    3    3  502    0  0.41329932687E+02  0.23139066840E+02  0.54147878823E+03  0.54354655537E+03  0.25500000920E-02 0. -1.
       -2    1    3    3    0  502 -0.41329932687E+02 -0.23139066840E+02 -0.66237454536E+03  0.66406597420E+03  0.25500000920E-02 0.  1.
</event>
<event>
 5   0  0.9410666E-04  0.1203992E+04  0.7818609E-02  0.9109369E-01
        2   -1    0    0  501    0  0.00000000000E+00  0.00000000000E+00  0.24161971564E+04  0.24161971564E+04  0.25500000920E-02 0. -1.
       -2   -1    0    0    0  501  0.00000000000E+00  0.00000000000E+00 -0.14998752808E+03  0.14998752810E+03  0.25500000920E-02 0.  1.
    10030    2    1    2    0    0  0.00000000000E+00  0.00000000000E+00  0.22662096283E+04  0.25661846845E+04  0.12039924233E+04 0.  0.
        2    1    3    3  502    0 -0.53226653179E+03  0.40316086682E+02  0.53987794012E+03  0.75921093113E+03  0.25500000920E-02 0.  1.
       -2    1    3    3    0  502  0.53226653179E+03 -0.40316086682E+02  0.17263316882E+04  0.18069737533E+04  0.25500000920E-02 0. -1.
</event>
<event>
 5   0  0.5003507E-04  0.1204863E+04  0.7818609E-02  0.9108611E-01
       -1   -1    0    0    0  501  0.00000000000E+00  0.00000000000E+00  0.36952072414E+03  0.36952072417E+03  0.50400001928E-02 0.  1.
        1   -1    0    0  501    0  0.00000000000E+00  0.00000000000E+00 -0.98214694040E+03  0.98214694041E+03  0.50400001928E-02 0. -1.
    10030    2    1    2    0    0  0.00000000000E+00  0.00000000000E+00 -0.61262621626E+03  0.13516676646E+04  0.12048628945E+04 0.  0.
        3    1    3    3  502    0  0.79746475515E+02 -0.54677929806E+03 -0.57554746665E+03  0.79786088870E+03  0.10100000352E+00 0. -1.
       -3    1    3    3    0  502 -0.79746475515E+02  0.54677929806E+03 -0.37078749614E+02  0.55380677589E+03  0.10100000352E+00 0.  1.
</event>
<event>
 5   0  0.5447074E-04  0.1187116E+04  0.7818609E-02  0.9124210E-01
       -1   -1    0    0    0  501  0.00000000000E+00  0.00000000000E+00  0.18412514460E+03  0.18412514467E+03  0.50400001928E-02 0. -1.
        1   -1    0    0  501    0  0.00000000000E+00  0.00000000000E+00 -0.19134315056E+04  0.19134315056E+04  0.50400001928E-02 0.  1.
    10030    2    1    2    0    0  0.00000000000E+00  0.00000000000E+00 -0.17293063610E+04  0.20975566503E+04  0.11871155845E+04 0.  0.
        4    1    3    3  502    0  0.30260233141E+03 -0.48398316319E+03 -0.11522968546E+04  0.12859228310E+04  0.12699999809E+01 0.  1.
       -4    1    3    3    0  502 -0.30260233141E+03  0.48398316319E+03 -0.57700950637E+03  0.81163381926E+03  0.12699999809E+01 0. -1.
</event>
<event>
 5   0  0.5052959E-04  0.1197828E+04  0.7818609E-02  0.9114760E-01
       -1   -1    0    0    0  501  0.00000000000E+00  0.00000000000E+00  0.26814671464E+03  0.26814671468E+03  0.50400001928E-02 0.  1.
        1   -1    0    0  501    0  0.00000000000E+00  0.00000000000E+00 -0.13376920035E+04  0.13376920035E+04  0.50400001928E-02 0. -1.
    10030    2    1    2    0    0  0.00000000000E+00  0.00000000000E+00 -0.10695452889E+04  0.16058387182E+04  0.11978275602E+04 0.  0.
        2    1    3    3  502    0  0.14661088856E+03 -0.12823710144E+03 -0.12940431219E+04  0.13086203071E+04  0.25500000920E-02 0. -1.
       -2    1    3    3    0  502 -0.14661088856E+03  0.12823710144E+03  0.22449783305E+03  0.29721841107E+03  0.25500000920E-02 0.  1.
</event>
<event>
 5   0  0.5157631E-04  0.1194421E+04  0.7818609E-02  0.9117754E-01
       -1   -1    0    0    0  501  0.00000000000E+00  0.00000000000E+00  0.20810009766E+03  0.20810009772E+03  0.50400001928E-02 0.  1.
        1   -1    0    0  501    0  0.00000000000E+00  0.00000000000E+00 -0.17138878856E+04  0.17138878856E+04  0.50400001928E-02 0. -1.
    10030    2    1    2    0    0  0.00000000000E+00  0.00000000000E+00 -0.15057877879E+04  0.19219879833E+04  0.11944207574E+04 0.  0.
        5    1    3    3  502    0  0.12161344478E+03 -0.25015916585E+03  0.97469318444E+02  0.29477414447E+03  0.46999998093E+01 0.  1.
       -5    1    3    3    0  502 -0.12161344478E+03  0.25015916585E+03 -0.16032571064E+04  0.16272138388E+04  0.46999998093E+01 0. -1.
</event>
<event>
 5   0  0.9050363E-04  0.1204501E+04  0.7818609E-02  0.9108926E-01
        2   -1    0    0  501    0  0.00000000000E+00  0.00000000000E+00  0.80701116753E+03  0.80701116753E+03  0.25500000920E-02 0.  1.
       -2   -1    0    0    0  501  0.00000000000E+00  0.00000000000E+00 -0.44944290383E+03  0.44944290384E+03  0.25500000920E-02 0. -1.
    10030    2    1    2    0    0  0.00000000000E+00  0.00000000000E+00  0.35756826370E+03  0.12564540714E+04  0.12045006311E+04 0.  0.
        3    1    3    3  502    0  0.72326898765E+02 -0.27348936739E+03 -0.37582300159E+03  0.47039404023E+03  0.10100000352E+00 0. -1.
       -3    1    3    3    0  502 -0.72326898765E+02  0.27348936739E+03  0.73339126529E+03  0.78606003114E+03  0.10100000352E+00 0.  1.
</event>
<event>
 5   0  0.9070772E-04  0.1197941E+04  0.7818609E-02  0.9114661E-01
        2   -1    0    0  501    0  0.00000000000E+00  0.00000000000E+00  0.97600359551E+03  0.97600359551E+03  0.25500000920E-02 0. -1.
       -2   -1    0    0    0  501  0.00000000000E+00  0.00000000000E+00 -0.36758624318E+03  0.36758624319E+03  0.25500000920E-02 0.  1.
    10030    2    1    2    0    0  0.00000000000E+00  0.00000000000E+00  0.60841735233E+03  0.13435898387E+04  0.11979407248E+04 0.  0.
        4    1    3    3  502    0  0.84804011079E+02 -0.59280877370E+03  0.29047582680E+03  0.66557627761E+03  0.12699999809E+01 0. -1.
       -4    1    3    3    0  502 -0.84804011079E+02  0.59280877370E+03  0.31794152553E+03  0.67801356109E+03  0.12699999809E+01 0.  1.
</event>
<event>
 5   0  0.9145224E-04  0.1194913E+04  0.7818609E-02  0.9117321E-01
        2   -1    0    0  501    0  0.00000000000E+00  0.00000000000E+00  0.96981412935E+03  0.96981412935E+03  0.25500000920E-02 0.  1.
       -2   -1    0    0    0  501  0.00000000000E+00  0.00000000000E+00 -0.36806474010E+03  0.36806474010E+03  0.25500000920E-02 0. -1.
    10030    2    1    2    0    0  0.00000000000E+00  0.00000000000E+00  0.60174938925E+03  0.13378788695E+04  0.11949131943E+04 0.  0.
        5    1    3    3  502    0 -0.43332702878E+03 -0.78445047473E+02 -0.15117138532E+03  0.46561874649E+03  0.46999998093E+01 0. -1.
       -5    1    3    3    0  502  0.43332702878E+03  0.78445047473E+02  0.75292077457E+03  0.87226012297E+03  0.46999998093E+01 0.  1.
</event>
<event>
 5   0  0.5052959E-04  0.1218372E+04  0.7818609E-02  0.9096926E-01
        1   -1    0    0  501    0  0.00000000000E+00  0.00000000000E+00  0.85502575511E+03  0.85502575512E+03  0.50400001928E-02 0. -1.
       -1   -1    0    0    0  501  0.00000000000E+00  0.00000000000E+00 -0.43403071227E+03  0.43403071230E+03  0.50400001928E-02 0.  1.
    10030    2    1    2    0    0  0.00000000000E+00  0.00000000000E+00  0.42099504284E+03  0.12890564674E+04  0.12183717619E+04 0.  0.
        2    1    3    3  502    0  0.57671338719E+03  0.21198790868E+02  0.41690474844E+03  0.71193910482E+03  0.25500000920E-02 0. -1.
       -2    1    3    3    0  502 -0.57671338719E+03 -0.21198790868E+02  0.40902943991E+01  0.57711736260E+03  0.25500000920E-02 0.  1.
</event>
<event>
 5   0  0.5052959E-04  0.1191090E+04  0.7818609E-02  0.9120691E-01
       -1   -1    0    0    0  501  0.00000000000E+00  0.00000000000E+00  0.19998413826E+03  0.19998413832E+03  0.50400001928E-02 0.  1.
        1   -1    0    0  501    0  0.00000000000E+00  0.00000000000E+00 -0.17735111620E+04  0.17735111620E+04  0.50400001928E-02 0. -1.
    10030    2    1    2    0    0  0.00000000000E+00  0.00000000000E+00 -0.15735270238E+04  0.19734953004E+04  0.11910904273E+04 0.  0.
        2    1    3    3  502    0 -0.16338642928E+03  0.34995949542E+03 -0.15378760616E+04  0.15856322255E+04  0.25500000920E-02 0. -1.
       -2    1    3    3    0  502  0.16338642928E+03 -0.34995949542E+03 -0.35650962140E+02  0.38786307483E+03  0.25500000920E-02 0.  1.
</event>
<event>
 5   0  0.3453625E-04  0.1199443E+04  0.7818609E-02  0.9113345E-01
        3   -1    0    0  501    0  0.00000000000E+00  0.00000000000E+00  0.77356960642E+03  0.77356961301E+03  0.10100000352E+00 0. -1.
       -3   -1    0    0    0  501  0.00000000000E+00  0.00000000000E+00 -0.46494278684E+03  0.46494279781E+03  0.10100000352E+00 0.  1.
    10030    2    1    2    0    0  0.00000000000E+00  0.00000000000E+00  0.30862681958E+03  0.12385124108E+04  0.11994425697E+04 0.  0.
        4    1    3    3  502    0  0.38340590912E+03 -0.23560123616E+03  0.56365545051E+03  0.72126078045E+03  0.12699999809E+01 0. -1.
       -4    1    3    3    0  502 -0.38340590912E+03  0.23560123616E+03 -0.25502863093E+03  0.51725163037E+03  0.12699999809E+01 0.  1.
</event>
<event>
 5   0  0.3453625E-04  0.1198329E+04  0.7818609E-02  0.9114321E-01
        3   -1    0    0  501    0  0.00000000000E+00  0.00000000000E+00  0.33656789139E+03  0.33656790655E+03  0.10100000352E+00 0. -1.
       -3   -1    0    0    0  501  0.00000000000E+00  0.00000000000E+00 -0.10666436572E+04  0.10666436620E+04  0.10100000352E+00 0.  1.
    10030    2    1    2    0    0  0.00000000000E+00  0.00000000000E+00 -0.73007576583E+03  0.14032115686E+04  0.11983288707E+04 0.  0.
        2    1    3    3  502    0 -0.27483700087E+03 -0.36183947811E+03 -0.82236994875E+03  0.93955069984E+03  0.25500000920E-02 0.  1.
       -2    1    3    3    0  502  0.27483700087E+03  0.36183947811E+03  0.92294182916E+02  0.46366086871E+03  0.25500000920E-02 0. -1.
</event>
<event>
 5   0  0.5447074E-04  0.1207587E+04  0.7818609E-02  0.9106241E-01
        1   -1    0    0  501    0  0.00000000000E+00  0.00000000000E+00  0.11052329890E+04  0.11052329890E+04  0.50400001928E-02 0. -1.
       -1   -1    0    0    0  501  0.00000000000E+00  0.00000000000E+00 -0.32985515555E+03  0.32985515559E+03  0.50400001928E-02 0.  1.
    10030    2    1    2    0    0  0.00000000000E+00  0.00000000000E+00  0.77537783345E+03  0.14350881446E+04  0.12075873460E+04 0.  0.
        4    1    3    3  502    0 -0.23677880805E+03 -0.54444344417E+03  0.25706125024E+03  0.64696597060E+03  0.12699999809E+01 0.  1.
       -4    1    3    3    0  502  0.23677880805E+03  0.54444344417E+03  0.51831658321E+03  0.78812217401E+03  0.12699999809E+01 0. -1.
</event>
<event>
 5   0  0.5001586E-04  0.1185160E+04  0.7818609E-02  0.9125946E-01
        1   -1    0    0  501    0  0.00000000000E+00  0.00000000000E+00  0.87979029919E+03  0.87979029921E+03  0.50400001928E-02 0. -1.
       -1   -1    0    0    0  501  0.00000000000E+00  0.00000000000E+00 -0.39913046438E+03  0.39913046441E+03  0.50400001928E-02 0.  1.
    10030    2    1    2    0    0  0.00000000000E+00  0.00000000000E+00  0.48065983482E+03  0.12789207636E+04  0.11851600916E+04 0.  0.
        1    1    3    3  502    0  0.12984128619E+03  0.24021261877E+03  0.80785498876E+03  0.85275468026E+03  0.50400001928E-02 0. -1.
       -1    1    3    3    0  502 -0.12984128619E+03 -0.24021261877E+03 -0.32719515394E+03  0.42616608336E+03  0.50400001928E-02 0.  1.
</event>
<event>
 5   0  0.9070772E-04  0.1209310E+04  0.7818609E-02  0.9104746E-01
        2   -1    0    0  501    0  0.00000000000E+00  0.00000000000E+00  0.14175474402E+04  0.14175474402E+04  0.25500000920E-02 0. -1.
       -2   -1    0    0    0  501  0.00000000000E+00  0.00000000000E+00 -0.25791557070E+03  0.25791557071E+03  0.25500000920E-02 0.  1.
    10030    2    1    2    0    0  0.00000000000E+00  0.00000000000E+00  0.11596318695E+04  0.16754630109E+04  0.12093098148E+04 0.  0.
        4    1    3    3  502    0  0.53815930797E+03 -0.41980643671E+02  0.20234673230E+03  0.57647517568E+03  0.12699999809E+01 0.  1.
       -4    1    3    3    0  502 -0.53815930797E+03  0.41980643671E+02  0.95728513724E+03  0.10989878353E+04  0.12699999809E+01 0. -1.
</event>
<event>
 5   0  0.9145224E-04  0.1200859E+04  0.7818609E-02  0.9112105E-01
        2   -1    0    0  501    0  0.00000000000E+00  0.00000000000E+00  0.11788642572E+04  0.11788642572E+04  0.25500000920E-02 0. -1.
       -2   -1    0    0    0  501  0.00000000000E+00  0.00000000000E+00 -0.30581599166E+03  0.30581599167E+03  0.25500000920E-02 0.  1.
    10030    2    1    2    0    0  0.00000000000E+00  0.00000000000E+00  0.87304826552E+03  0.14846802488E+04  0.12008589290E+04 0.  0.
        5    1    3    3  502    0  0.59262891989E+03  0.93379285423E+02  0.40714363520E+03  0.72506327814E+03  0.46999998093E+01 0.  1.
       -5    1    3    3    0  502 -0.59262891989E+03 -0.93379285423E+02  0.46590463032E+03  0.75961697071E+03  0.46999998093E+01 0. -1.
</event>
<event>
 5   0  0.5157631E-04  0.1227223E+04  0.7818609E-02  0.9089357E-01
        1   -1    0    0  501    0  0.00000000000E+00  0.00000000000E+00  0.67230154767E+03  0.67230154769E+03  0.50400001928E-02 0.  1.
       -1   -1    0    0    0  501  0.00000000000E+00  0.00000000000E+00 -0.56004453042E+03  0.56004453045E+03  0.50400001928E-02 0. -1.
    10030    2    1    2    0    0  0.00000000000E+00  0.00000000000E+00  0.11225701724E+03  0.12323460781E+04  0.12272225627E+04 0.  0.
        5    1    3    3  502    0 -0.47828037813E+03 -0.38431180081E+03  0.49096828007E+02  0.61553250837E+03  0.46999998093E+01 0. -1.
       -5    1    3    3    0  502  0.47828037813E+03  0.38431180081E+03  0.63160189237E+02  0.61681356976E+03  0.46999998093E+01 0.  1.
</event>
<event>
 5   0  0.9298693E-04  0.1201590E+04  0.7818609E-02  0.9111466E-01
        2   -1    0    0  501    0  0.00000000000E+00  0.00000000000E+00  0.43936658302E+03  0.43936658302E+03  0.25500000920E-02 0. -1.
       -2   -1    0    0    0  501  0.00000000000E+00  0.00000000000E+00 -0.82153371433E+03  0.82153371434E+03  0.25500000920E-02 0.  1.
    10030    2    1    2    0    0  0.00000000000E+00  0.00000000000E+00 -0.38216713132E+03  0.12609002974E+04  0.12015897152E+04 0.  0.
        1    1    3    3  502    0 -0.57737145639E+03  0.16338829602E+03 -0.15958655520E+03  0.62090369829E+03  0.50400001928E-02 0.  1.
       -1    1    3    3    0  502  0.57737145639E+03 -0.16338829602E+03 -0.22258057611E+03  0.63999659907E+03  0.50400001928E-02 0. -1.
</event>
<event>
 5   0  0.9410666E-04  0.1200559E+04  0.7818609E-02  0.9112367E-01
        2   -1    0    0  501    0  0.00000000000E+00  0.00000000000E+00  0.45191728534E+03  0.45191728535E+03  0.25500000920E-02 0.  1.
       -2   -1    0    0    0  501  0.00000000000E+00  0.00000000000E+00 -0.79734815578E+03  0.79734815578E+03  0.25500000920E-02 0. -1.
    10030    2    1    2    0    0  0.00000000000E+00  0.00000000000E+00 -0.34543087044E+03  0.12492654411E+04  0.12005588932E+04 0.  0.
        2    1    3    3  502    0 -0.98676462609E+02 -0.59078056206E+03 -0.13139685294E+03  0.61320783569E+03  0.25500000920E-02 0. -1.
       -2    1    3    3    0  502  0.98676462609E+02  0.59078056206E+03 -0.21403401750E+03  0.63605760544E+03  0.25500000920E-02 0.  1.
</event>
<event>
 5   0  0.9410666E-04  0.1203282E+04  0.7818609E-02  0.9109988E-01
       -2   -1    0    0    0  501  0.00000000000E+00  0.00000000000E+00  0.34292331210E+03  0.34292331211E+03  0.25500000920E-02 0. -1.
        2   -1    0    0  501    0  0.00000000000E+00  0.00000000000E+00 -0.10555479508E+04  0.10555479508E+04  0.25500000920E-02 0.  1.
    10030    2    1    2    0    0  0.00000000000E+00  0.00000000000E+00 -0.71262463866E+03  0.13984712629E+04  0.12032821770E+04 0.  0.
        2    1    3    3  502    0  0.59151837496E+03  0.10728116102E+03 -0.38402969370E+03  0.71335968562E+03  0.25500000920E-02 0.  1.
       -2    1    3    3    0  502 -0.59151837496E+03 -0.10728116102E+03 -0.32859494496E+03  0.68511157725E+03  0.25500000920E-02 0. -1.
</event>
<event>
 5   0  0.5447074E-04  0.1185892E+04  0.7818609E-02  0.9125296E-01
       -1   -1    0    0    0  501  0.00000000000E+00  0.00000000000E+00  0.53633266358E+03  0.53633266360E+03  0.50400001928E-02 0. -1.
        1   -1    0    0  501    0  0.00000000000E+00  0.00000000000E+00 -0.65553515023E+03  0.65553515025E+03  0.50400001928E-02 0.  1.
    10030    2    1    2    0    0  0.00000000000E+00  0.00000000000E+00 -0.11920248665E+03  0.11918678139E+04  0.11858919229E+04 0.  0.
        4    1    3    3  502    0 -0.21992463954E+03 -0.24959427457E+03  0.43370730716E+03  0.54659655154E+03  0.12699999809E+01 0. -1.
       -4    1    3    3    0  502  0.21992463954E+03  0.24959427457E+03 -0.55290979381E+03  0.64527126231E+03  0.12699999809E+01 0.  1.
</event>
<event>
 5   0  0.5001586E-04  0.1200257E+04  0.7818609E-02  0.9112632E-01
        1   -1    0    0  501    0  0.00000000000E+00  0.00000000000E+00  0.57455119505E+03  0.57455119507E+03  0.50400001928E-02 0. -1.
       -1   -1    0    0    0  501  0.00000000000E+00  0.00000000000E+00 -0.62684410144E+03  0.62684410146E+03  0.50400001928E-02 0.  1.
    10030    2    1    2    0    0  0.00000000000E+00  0.00000000000E+00 -0.52292906389E+02  0.12013952965E+04  0.12002566852E+04 0.  0.
        1    1    3    3  502    0  0.56018550168E+03  0.92562884302E+02  0.16840444972E+03  0.59222946782E+03  0.50400001928E-02 0. -1.
       -1    1    3    3    0  502 -0.56018550168E+03 -0.92562884302E+02 -0.22069735611E+03  0.60916582870E+03  0.50400001928E-02 0.  1.
</event>
<event>
 5   0  0.9145224E-04  0.1200478E+04  0.7818609E-02  0.9112438E-01
        2   -1    0    0  501    0  0.00000000000E+00  0.00000000000E+00  0.14528264494E+04  0.14528264494E+04  0.25500000920E-02 0.  1.
       -2   -1    0    0    0  501  0.00000000000E+00  0.00000000000E+00 -0.24799019016E+03  0.24799019017E+03  0.25500000920E-02 0. -1.
    10030    2    1    2    0    0  0.00000000000E+00  0.00000000000E+00  0.12048362592E+04  0.17008166396E+04  0.12004777507E+04 0.  0.
        5    1    3    3  502    0 -0.86168202190E+02 -0.46517653962E+03  0.11257664798E+04  0.12211414452E+04  0.46999998093E+01 0.  1.
       -5    1    3    3    0  502  0.86168202190E+02  0.46517653962E+03  0.79069779410E+02  0.47967519437E+03  0.46999998093E+01 0. -1.
</event>
<event>
 5   0  0.5157631E-04  0.1202115E+04  0.7818609E-02  0.9111007E-01
       -1   -1    0    0    0  501  0.00000000000E+00  0.00000000000E+00  0.66434305565E+03  0.66434305567E+03  0.50400001928E-02 0. -1.
        1   -1    0    0  501    0  0.00000000000E+00  0.00000000000E+00 -0.54380075894E+03  0.54380075896E+03  0.50400001928E-02 0.  1.
    10030    2    1    2    0    0  0.00000000000E+00  0.00000000000E+00  0.12054229671E+03  0.12081438146E+04  0.12021152322E+04 0.  0.
        5    1    3    3  502    0 -0.17271281325E+03 -0.45771838548E+03  0.41118164014E+03  0.63908392833E+03  0.46999998093E+01 0. -1.
       -5    1    3    3    0  502  0.17271281325E+03  0.45771838548E+03 -0.29063934342E+03  0.56905988631E+03  0.46999998093E+01 0.  1.
</event>
<event>
 5   0  0.9410666E-04  0.1199705E+04  0.7818609E-02  0.9113115E-01
       -2   -1    0    0    0  501  0.00000000000E+00  0.00000000000E+00  0.60302131652E+03  0.60302131653E+03  0.25500000920E-02 0.  1.
        2   -1    0    0  501    0  0.00000000000E+00  0.00000000000E+00 -0.59669988301E+03  0.59669988302E+03  0.25500000920E-02 0. -1.
    10030    2    1    2    0    0  0.00000000000E+00  0.00000000000E+00  0.63214335108E+01  0.11997211995E+04  0.11997045453E+04 0.  0.
        2    1    3    3  502    0  0.54813222786E+03  0.71215682688E+02  0.23619213951E+03  0.60108846225E+03  0.25500000920E-02 0.  1.
       -2    1    3    3    0  502 -0.54813222786E+03 -0.71215682688E+02 -0.22987070600E+03  0.59863273730E+03  0.25500000920E-02 0. -1.
</event>
<event>
 5   0  0.9070772E-04  0.1198679E+04  0.7818609E-02  0.9114014E-01
       -2   -1    0    0    0  501  0.00000000000E+00  0.00000000000E+00  0.48724526179E+03  0.48724526180E+03  0.25500000920E-02 0. -1.
        2   -1    0    0  501    0  0.00000000000E+00  0.00000000000E+00 -0.73722187256E+03  0.73722187257E+03  0.25500000920E-02 0.  1.
    10030    2    1    2    0    0  0.00000000000E+00  0.00000000000E+00 -0.24997661077E+03  0.12244671344E+04  0.11986790468E+04 0.  0.
        4    1    3    3  502    0  0.31328060721E+03 -0.12895587324E+03 -0.63002525897E+03  0.71533753986E+03  0.12699999809E+01 0.  1.
       -4    1    3    3    0  502 -0.31328060721E+03  0.12895587324E+03  0.38004864820E+03  0.50912959450E+03  0.12699999809E+01 0. -1.
</event>
<event>
 5   0  0.5447074E-04  0.1201806E+04  0.7818609E-02  0.9111277E-01
        1   -1    0    0  501    0  0.00000000000E+00  0.00000000000E+00  0.11345145330E+04  0.11345145330E+04  0.50400001928E-02 0. -1.
       -1   -1    0    0    0  501  0.00000000000E+00  0.00000000000E+00 -0.31827244018E+03  0.31827244022E+03  0.50400001928E-02 0.  1.
    10030    2    1    2    0    0  0.00000000000E+00  0.00000000000E+00  0.81624209281E+03  0.14527869732E+04  0.12018064884E+04 0.  0.
        4    1    3    3  502    0  0.30321990277E+03  0.14389146394E+03 -0.19440341845E+03  0.38786771564E+03  0.12699999809E+01 0.  1.
       -4    1    3    3    0  502 -0.30321990277E+03 -0.14389146394E+03  0.10106455113E+04  0.10649192576E+04  0.12699999809E+01 0. -1.
</event>
<event>
 5   0  0.9145224E-04  0.1126598E+04  0.7818609E-02  0.9179648E-01
       -2   -1    0    0    0  501  0.00000000000E+00  0.00000000000E+00  0.29456401245E+03  0.29456401246E+03  0.25500000920E-02 0.  1.
        2   -1    0    0  501    0  0.00000000000E+00  0.00000000000E+00 -0.10772051636E+04  0.10772051636E+04  0.25500000920E-02 0. -1.
    10030    2    1    2    0    0  0.00000000000E+00  0.00000000000E+00 -0.78264115118E+03  0.13717691761E+04  0.11265981985E+04 0.  0.
        5    1    3    3  502    0  0.46339592872E+03 -0.31197644464E+03 -0.30335899858E+03  0.63569950510E+03  0.46999998093E+01 0. -1.
       -5    1    3    3    0  502 -0.46339592872E+03  0.31197644464E+03 -0.47928215261E+03  0.73606967100E+03  0.46999998093E+01 0.  1.
</event>
<event>
 5   0  0.9050363E-04  0.1203004E+04  0.7818609E-02  0.9110231E-01
       -2   -1    0    0    0  501  0.00000000000E+00  0.00000000000E+00  0.24556205003E+03  0.24556205004E+03  0.25500000920E-02 0.  1.
        2   -1    0    0  501    0  0.00000000000E+00  0.00000000000E+00 -0.14733729314E+04  0.14733729314E+04  0.25500000920E-02 0. -1.
    10030    2    1    2    0    0  0.00000000000E+00  0.00000000000E+00 -0.12278108813E+04  0.17189349814E+04  0.12030037032E+04 0.  0.
        3    1    3    3  502    0  0.19472477196E+02 -0.52354125947E+02  0.24184807266E+03  0.24821489142E+03  0.10100000352E+00 0.  1.
       -3    1    3    3    0  502 -0.19472477196E+02  0.52354125947E+02 -0.14696589540E+04  0.14707200900E+04  0.10100000352E+00 0. -1.
</event>
<event>
 5   0  0.9070772E-04  0.1197170E+04  0.7818609E-02  0.9115337E-01
       -2   -1    0    0    0  501  0.00000000000E+00  0.00000000000E+00  0.58717490181E+03  0.58717490181E+03  0.25500000920E-02 0.  1.
        2   -1    0    0  501    0  0.00000000000E+00  0.00000000000E+00 -0.61021725328E+03  0.61021725329E+03  0.25500000920E-02 0. -1.
    10030    2    1    2    0    0  0.00000000000E+00  0.00000000000E+00 -0.23042351472E+02  0.11973921551E+04  0.11971704236E+04 0.  0.
        4    1    3    3  502    0  0.93837468574E+02  0.23525799716E+03 -0.55397837990E+03  0.60913500477E+03  0.12699999809E+01 0. -1.
       -4    1    3    3    0  502 -0.93837468574E+02 -0.23525799716E+03  0.53093602842E+03  0.58825715033E+03  0.12699999809E+01 0.  1.
</event>
<event>
 5   0  0.5052959E-04  0.1201912E+04  0.7818609E-02  0.9111185E-01
        1   -1    0    0  501    0  0.00000000000E+00  0.00000000000E+00  0.45147459712E+03  0.45147459714E+03  0.50400001928E-02 0. -1.
       -1   -1    0    0    0  501  0.00000000000E+00  0.00000000000E+00 -0.79992992016E+03  0.79992992018E+03  0.50400001928E-02 0.  1.
    10030    2    1    2    0    0  0.00000000000E+00  0.00000000000E+00 -0.34845532305E+03  0.12514045173E+04  0.12019118744E+04 0.  0.
        2    1    3    3  502    0  0.55894819388E+02 -0.17930937523E+03  0.42013098620E+03  0.46020226907E+03  0.25500000920E-02 0. -1.
       -2    1    3    3    0  502 -0.55894819388E+02  0.17930937523E+03 -0.76858630925E+03  0.79120224826E+03  0.25500000920E-02 0.  1.
</event>
<event>
 5   0  0.9145224E-04  0.1200436E+04  0.7818609E-02  0.9112475E-01
       -2   -1    0    0    0  501  0.00000000000E+00  0.00000000000E+00  0.31027821985E+03  0.31027821986E+03  0.25500000920E-02 0. -1.
        2   -1    0    0  501    0  0.00000000000E+00  0.00000000000E+00 -0.11610914682E+04  0.11610914682E+04  0.25500000920E-02 0.  1.
    10030    2    1    2    0    0  0.00000000000E+00  0.00000000000E+00 -0.85081324833E+03  0.14713696880E+04  0.12004355773E+04 0.  0.
        5    1    3    3  502    0  0.73853669005E+02 -0.45475255119E+03 -0.89691767756E+03  0.10083341002E+04  0.46999998093E+01 0.  1.
       -5    1    3    3    0  502 -0.73853669005E+02  0.45475255119E+03  0.46104429231E+02  0.46303558787E+03  0.46999998093E+01 0. -1.
</event>
<event>
 5   0  0.5157631E-04  0.1200352E+04  0.7818609E-02  0.9112549E-01
        1   -1    0    0  501    0  0.00000000000E+00  0.00000000000E+00  0.10932034558E+04  0.10932034558E+04  0.50400001928E-02 0.  1.
       -1   -1    0    0    0  501  0.00000000000E+00  0.00000000000E+00 -0.32950037674E+03  0.32950037677E+03  0.50400001928E-02 0. -1.
    10030    2    1    2    0    0  0.00000000000E+00  0.00000000000E+00  0.76370307907E+03  0.14227038326E+04  0.12003515328E+04 0.  0.
        5    1    3    3  502    0  0.28845341509E+03 -0.21241702927E+01  0.10056286763E+04  0.10461935812E+04  0.46999998093E+01 0.  1.
       -5    1    3    3    0  502 -0.28845341509E+03  0.21241702927E+01 -0.24192559725E+03  0.37651025136E+03  0.46999998093E+01 0. -1.
</event>
<event>
 5   0  0.9070772E-04  0.1203727E+04  0.7818609E-02  0.9109601E-01
       -2   -1    0    0    0  501  0.00000000000E+00  0.00000000000E+00  0.17212666782E+03  0.17212666784E+03  0.25500000920E-02 0.  1.
        2   -1    0    0  501    0  0.00000000000E+00  0.00000000000E+00 -0.21044943807E+04  0.21044943807E+04  0.25500000920E-02 0. -1.
    10030    2    1    2    0    0  0.00000000000E+00  0.00000000000E+00 -0.19323677129E+04  0.22766210485E+04  0.12037268880E+04 0.  0.
        4    1    3    3  502    0 -0.18670964983E+03 -0.33166314727E+03 -0.18479829261E+04  0.18867706391E+04  0.12699999809E+01 0. -1.
       -4    1    3    3    0  502  0.18670964983E+03  0.33166314727E+03 -0.84384786789E+02  0.38985040944E+03  0.12699999809E+01 0.  1.
</event>
<event>
 5   0  0.5001586E-04  0.1194805E+04  0.7818609E-02  0.9117416E-01
       -1   -1    0    0    0  501  0.00000000000E+00  0.00000000000E+00  0.39281626263E+03  0.39281626266E+03  0.50400001928E-02 0. -1.
        1   -1    0    0  501    0  0.00000000000E+00  0.00000000000E+00 -0.90854145561E+03  0.90854145562E+03  0.50400001928E-02 0.  1.
    10030    2    1    2    0    0  0.00000000000E+00  0.00000000000E+00 -0.51572519298E+03  0.13013577183E+04  0.11948051876E+04 0.  0.
        1    1    3    3  502    0 -0.50528547903E+03  0.31384314184E+03 -0.31829908470E+03  0.67462970610E+03  0.50400001928E-02 0.  1.
       -1    1    3    3    0  502  0.50528547903E+03 -0.31384314184E+03 -0.19742610828E+03  0.62672801218E+03  0.50400001928E-02 0. -1.
</event>
<event>
 5   0  0.9145224E-04  0.1203522E+04  0.7818609E-02  0.9109779E-01
        2   -1    0    0  501    0  0.00000000000E+00  0.00000000000E+00  0.61197591700E+03  0.61197591700E+03  0.25500000920E-02 0.  1.
       -2   -1    0    0    0  501  0.00000000000E+00  0.00000000000E+00 -0.59171699671E+03  0.59171699671E+03  0.25500000920E-02 0. -1.
    10030    2    1    2    0    0  0.00000000000E+00  0.00000000000E+00  0.20258920291E+02  0.12036929137E+04  0.12035224164E+04 0.  0.
        5    1    3    3  502    0 -0.37310920871E+03  0.11773928238E+03  0.46738285575E+03  0.60954232346E+03  0.46999998093E+01 0.  1.
       -5    1    3    3    0  502  0.37310920871E+03 -0.11773928238E+03 -0.44712393546E+03  0.59415059026E+03  0.46999998093E+01 0. -1.
</event>
<event>
 5   0  0.5157631E-04  0.1199284E+04  0.7818609E-02  0.9113483E-01
        1   -1    0    0  501    0  0.00000000000E+00  0.00000000000E+00  0.83340934805E+03  0.83340934807E+03  0.50400001928E-02 0. -1.
       -1   -1    0    0    0  501  0.00000000000E+00  0.00000000000E+00 -0.43144527154E+03  0.43144527157E+03  0.50400001928E-02 0.  1.
    10030    2    1    2    0    0  0.00000000000E+00  0.00000000000E+00  0.40196407651E+03  0.12648546196E+04  0.11992839906E+04 0.  0.
        5    1    3    3  502    0 -0.46003132810E+03 -0.31751058313E+03 -0.27925258035E+02  0.55968178751E+03  0.46999998093E+01 0.  1.
       -5    1    3    3    0  502  0.46003132810E+03  0.31751058313E+03  0.42988933455E+03  0.70517283214E+03  0.46999998093E+01 0. -1.
</event>
<event>
 5   0  0.5157631E-04  0.1213370E+04  0.7818609E-02  0.9101234E-01
        1   -1    0    0  501    0  0.00000000000E+00  0.00000000000E+00  0.20602282447E+04  0.20602282447E+04  0.50400001928E-02 0.  1.
       -1   -1    0    0    0  501  0.00000000000E+00  0.00000000000E+00 -0.17865339993E+03  0.17865340000E+03  0.50400001928E-02 0. -1.
    10030    2    1    2    0    0  0.00000000000E+00  0.00000000000E+00  0.18815748447E+04  0.22388816447E+04  0.12133701507E+04 0.  0.
        5    1    3    3  502    0  0.14134647480E+03 -0.41988307140E+03  0.17055101389E+04  0.17621201841E+04  0.46999998093E+01 0.  1.
       -5    1    3    3    0  502 -0.14134647480E+03  0.41988307140E+03  0.17606470586E+03  0.47676146052E+03  0.46999998093E+01 0. -1.
</event>
<event>
 5   0  0.9145224E-04  0.1201620E+04  0.7818609E-02  0.9111440E-01
        2   -1    0    0  501    0  0.00000000000E+00  0.00000000000E+00  0.21208678908E+04  0.21208678908E+04  0.25500000920E-02 0. -1.
       -2   -1    0    0    0  501  0.00000000000E+00  0.00000000000E+00 -0.17020041214E+03  0.17020041216E+03  0.25500000920E-02 0.  1.
    10030    2    1    2    0    0  0.00000000000E+00  0.00000000000E+00  0.19506674786E+04  0.22910683029E+04  0.12016198885E+04 0.  0.
        5    1    3    3  502    0  0.11593496078E+03  0.55400073713E+03  0.59118867436E+03  0.81846433677E+03  0.46999998093E+01 0.  1.
       -5    1    3    3    0  502 -0.11593496078E+03 -0.55400073713E+03  0.13594788043E+04  0.14726039661E+04  0.46999998093E+01 0. -1.
</event>
<event>
 5   0  0.5447074E-04  0.1194300E+04  0.7818609E-02  0.9117861E-01
        1   -1    0    0  501    0  0.00000000000E+00  0.00000000000E+00  0.15094058111E+04  0.15094058111E+04  0.50400001928E-02 0. -1.
       -1   -1    0    0    0  501  0.00000000000E+00  0.00000000000E+00 -0.23624398893E+03  0.23624398899E+03  0.50400001928E-02 0.  1.
    10030    2    1    2    0    0  0.00000000000E+00  0.00000000000E+00  0.12731618222E+04  0.17456498001E+04  0.11942998782E+04 0.  0.
        4    1    3    3  502    0  0.36696369826E+03  0.46046738486E+03  0.78196832201E+03  0.97886088792E+03  0.12699999809E+01 0. -1.
       -4    1    3    3    0  502 -0.36696369826E+03 -0.46046738486E+03  0.49119350019E+03  0.76678891221E+03  0.12699999809E+01 0.  1.
</event>
<event>
 5   0  0.5447074E-04  0.1189654E+04  0.7818609E-02  0.9121961E-01
       -1   -1    0    0    0  501  0.00000000000E+00  0.00000000000E+00  0.13528602336E+04  0.13528602336E+04  0.50400001928E-02 0. -1.
        1   -1    0    0  501    0  0.00000000000E+00  0.00000000000E+00 -0.26153407329E+03  0.26153407334E+03  0.50400001928E-02 0.  1.
    10030    2    1    2    0    0  0.00000000000E+00  0.00000000000E+00  0.10913261603E+04  0.16143943069E+04  0.11896538110E+04 0.  0.
        4    1    3    3  502    0 -0.36897967146E+03  0.17957182960E+03  0.11300138536E+04  0.12022166869E+04  0.12699999809E+01 0. -1.
       -4    1    3    3    0  502  0.36897967146E+03 -0.17957182960E+03 -0.38687693346E+02  0.41217762003E+03  0.12699999809E+01 0.  1.
</event>
<event>
 5   0  0.5157631E-04  0.1198419E+04  0.7818609E-02  0.9114242E-01
       -1   -1    0    0    0  501  0.00000000000E+00  0.00000000000E+00  0.86008919261E+03  0.86008919263E+03  0.50400001928E-02 0.  1.
        1   -1    0    0  501    0  0.00000000000E+00  0.00000000000E+00 -0.41745897047E+03  0.41745897050E+03  0.50400001928E-02 0. -1.
    10030    2    1    2    0    0  0.00000000000E+00  0.00000000000E+00  0.44263022214E+03  0.12775481631E+04  0.11984188732E+04 0.  0.
        5    1    3    3  502    0 -0.13787814942E+02 -0.14325842829E+03 -0.39874016879E+03  0.42394444603E+03  0.46999998093E+01 0. -1.
       -5    1    3    3    0  502  0.13787814942E+02  0.14325842829E+03  0.84137039093E+03  0.85360371710E+03  0.46999998093E+01 0.  1.
</event>
<event>
 5   0  0.5447074E-04  0.1199307E+04  0.7818609E-02  0.9113463E-01
        1   -1    0    0  501    0  0.00000000000E+00  0.00000000000E+00  0.11349851282E+04  0.11349851283E+04  0.50400001928E-02 0. -1.
       -1   -1    0    0    0  501  0.00000000000E+00  0.00000000000E+00 -0.31681864289E+03  0.31681864293E+03  0.50400001928E-02 0.  1.
    10030    2    1    2    0    0  0.00000000000E+00  0.00000000000E+00  0.81816648535E+03  0.14518037712E+04  0.11993072135E+04 0.  0.
        4    1    3    3  502    0  0.10480986455E+03  0.58367293880E+03  0.30132772625E+03  0.66517608097E+03  0.12699999809E+01 0. -1.
       -4    1    3    3    0  502 -0.10480986455E+03 -0.58367293880E+03  0.51683875910E+03  0.78662769021E+03  0.12699999809E+01 0.  1.
</event>
<event>
 5   0  0.5447074E-04  0.1207725E+04  0.7818609E-02  0.9106122E-01
        1   -1    0    0  501    0  0.00000000000E+00  0.00000000000E+00  0.56240305642E+03  0.56240305644E+03  0.50400001928E-02 0.  1.
       -1   -1    0    0    0  501  0.00000000000E+00  0.00000000000E+00 -0.64837806830E+03  0.64837806832E+03  0.50400001928E-02 0. -1.
    10030    2    1    2    0    0  0.00000000000E+00  0.00000000000E+00 -0.85975011881E+02  0.12107811248E+04  0.12077248153E+04 0.  0.
        4    1    3    3  502    0  0.87939405232E+02 -0.54855738168E+03 -0.28022882265E+03  0.62223656750E+03  0.12699999809E+01 0. -1.
       -4    1    3    3    0  502 -0.87939405232E+02  0.54855738168E+03  0.19425381076E+03  0.58854455727E+03  0.12699999809E+01 0.  1.
</event>
<event>
 5   0  0.5447074E-04  0.1201879E+04  0.7818609E-02  0.9111213E-01
       -1   -1    0    0    0  501  0.00000000000E+00  0.00000000000E+00  0.53832056075E+03  0.53832056077E+03  0.50400001928E-02 0. -1.
        1   -1    0    0  501    0  0.00000000000E+00  0.00000000000E+00 -0.67084288581E+03  0.67084288583E+03  0.50400001928E-02 0.  1.
    10030    2    1    2    0    0  0.00000000000E+00  0.00000000000E+00 -0.13252232506E+03  0.12091634466E+04  0.12018793924E+04 0.  0.
        4    1    3    3  502    0  0.41721571883E+03 -0.11279629319E+03  0.35380369156E+03  0.55854330616E+03  0.12699999809E+01 0. -1.
       -4    1    3    3    0  502 -0.41721571883E+03  0.11279629319E+03 -0.48632601662E+03  0.65062014044E+03  0.12699999809E+01 0.  1.
</event>
<event>
 5   0  0.5001586E-04  0.1200307E+04  0.7818609E-02  0.9112588E-01
        1   -1    0    0  501    0  0.00000000000E+00  0.00000000000E+00  0.73004297478E+03  0.73004297480E+03  0.50400001928E-02 0. -1.
       -1   -1    0    0    0  501  0.00000000000E+00  0.00000000000E+00 -0.49337431595E+03  0.49337431598E+03  0.50400001928E-02 0.  1.
    10030    2    1    2    0    0  0.00000000000E+00  0.00000000000E+00  0.23666865883E+03  0.12234172908E+04  0.12003073828E+04 0.  0.
        1    1    3    3  502    0 -0.48423788821E+03 -0.78463526158E+02  0.47073900485E+03  0.67988092195E+03  0.50400001928E-02 0. -1.
       -1    1    3    3    0  502  0.48423788821E+03  0.78463526158E+02 -0.23407034603E+03  0.54353636882E+03  0.50400001928E-02 0.  1.
</event>
<event>
 5   0  0.9410666E-04  0.1197710E+04  0.7818609E-02  0.9114864E-01
        2   -1    0    0  501    0  0.00000000000E+00  0.00000000000E+00  0.45198183541E+03  0.45198183542E+03  0.25500000920E-02 0.  1.
       -2   -1    0    0    0  501  0.00000000000E+00  0.00000000000E+00 -0.79345476786E+03  0.79345476786E+03  0.25500000920E-02 0. -1.
    10030    2    1    2    0    0  0.00000000000E+00  0.00000000000E+00 -0.34147293244E+03  0.12454366033E+04  0.11977097183E+04 0.  0.
        2    1    3    3  502    0  0.58493842901E+03 -0.63793336745E+02 -0.54922428706E+02  0.59096449024E+03  0.25500000920E-02 0.  1.
       -2    1    3    3    0  502 -0.58493842901E+03  0.63793336745E+02 -0.28655050374E+03  0.65447211304E+03  0.25500000920E-02 0. -1.
</event>
<event>
 5   0  0.5001586E-04  0.1190951E+04  0.7818609E-02  0.9120815E-01
        1   -1    0    0  501    0  0.00000000000E+00  0.00000000000E+00  0.18483616335E+04  0.18483616335E+04  0.50400001928E-02 0. -1.
       -1   -1    0    0    0  501  0.00000000000E+00  0.00000000000E+00 -0.19184058708E+03  0.19184058714E+03  0.50400001928E-02 0.  1.
    10030    2    1    2    0    0  0.00000000000E+00  0.00000000000E+00  0.16565210464E+04  0.20402022206E+04  0.11909505128E+04 0.  0.
        1    1    3    3  502    0 -0.22620374502E+03  0.28607935004E+03  0.21868902522E+02  0.36535979213E+03  0.50400001928E-02 0.  1.
       -1    1    3    3    0  502  0.22620374502E+03 -0.28607935004E+03  0.16346521439E+04  0.16748424285E+04  0.50400001928E-02 0. -1.
</event>
<event>
 5   0  0.5001586E-04  0.1130060E+04  0.7818609E-02  0.9176379E-01
       -1   -1    0    0    0  501  0.00000000000E+00  0.00000000000E+00  0.30291951288E+03  0.30291951292E+03  0.50400001928E-02 0. -1.
        1   -1    0    0  501    0  0.00000000000E+00  0.00000000000E+00 -0.10539394658E+04  0.10539394658E+04  0.50400001928E-02 0.  1.
    10030    2    1    2    0    0  0.00000000000E+00  0.00000000000E+00 -0.75101995295E+03  0.13568589788E+04  0.11300598739E+04 0.  0.
        1    1    3    3  502    0 -0.13617600029E+03 -0.69302015587E+02 -0.10286625804E+04  0.10399487375E+04  0.50400001928E-02 0.  1.
       -1    1    3    3    0  502  0.13617600029E+03  0.69302015587E+02  0.27764262741E+03  0.31691024124E+03  0.50400001928E-02 0. -1.
</event>
<event>
 5   0  0.9145224E-04  0.1188638E+04  0.7818609E-02  0.9122860E-01
        2   -1    0    0  501    0  0.00000000000E+00  0.00000000000E+00  0.97639625151E+03  0.97639625152E+03  0.25500000920E-02 0. -1.
       -2   -1    0    0    0  501  0.00000000000E+00  0.00000000000E+00 -0.36175390764E+03  0.36175390765E+03  0.25500000920E-02 0.  1.
    10030    2    1    2    0    0  0.00000000000E+00  0.00000000000E+00  0.61464234387E+03  0.13381501592E+04  0.11886381441E+04 0.  0.
        5    1    3    3  502    0 -0.53910040824E+03  0.23912312938E+03  0.22471630710E+03  0.63113281474E+03  0.46999998093E+01 0. -1.
       -5    1    3    3    0  502  0.53910040824E+03 -0.23912312938E+03  0.38992603677E+03  0.70701734443E+03  0.46999998093E+01 0.  1.
</event>
<event>
 5   0  0.3453625E-04  0.1197364E+04  0.7818609E-02  0.9115167E-01
       -4   -1    0    0    0  501  0.00000000000E+00  0.00000000000E+00  0.33078713898E+03  0.33078957695E+03  0.12699999809E+01 0. -1.
        4   -1    0    0  501    0  0.00000000000E+00  0.00000000000E+00 -0.10835310859E+04  0.10835318302E+04  0.12699999809E+01 0.  1.
    10030    2    1    2    0    0  0.00000000000E+00  0.00000000000E+00 -0.75274394690E+03  0.14143214071E+04  0.11973644362E+04 0.  0.
        3    1    3    3  502    0 -0.32645403798E+03 -0.44256341217E+03 -0.65585832779E+03  0.85591165961E+03  0.10100000352E+00 0.  1.
       -3    1    3    3    0  502  0.32645403798E+03  0.44256341217E+03 -0.96885619105E+02  0.55840974750E+03  0.10100000352E+00 0. -1.
</event>
<event>
 5   0  0.5003507E-04  0.1195331E+04  0.7818609E-02  0.9116953E-01
        1   -1    0    0  501    0  0.00000000000E+00  0.00000000000E+00  0.16652130363E+04  0.16652130363E+04  0.50400001928E-02 0.  1.
       -1   -1    0    0    0  501  0.00000000000E+00  0.00000000000E+00 -0.21450940032E+03  0.21450940038E+03  0.50400001928E-02 0. -1.
    10030    2    1    2    0    0  0.00000000000E+00  0.00000000000E+00  0.14507036360E+04  0.18797224367E+04  0.11953306653E+04 0.  0.
        3    1    3    3  502    0 -0.24023432266E+03 -0.32436489094E+03  0.14184875520E+04  0.14747989889E+04  0.10100000352E+00 0.  1.
       -3    1    3    3    0  502  0.24023432266E+03  0.32436489094E+03  0.32216083916E+02  0.40492344773E+03  0.10100000352E+00 0. -1.
</event>
<event>
 5   0  0.5447074E-04  0.1198921E+04  0.7818609E-02  0.9113801E-01
       -1   -1    0    0    0  501  0.00000000000E+00  0.00000000000E+00  0.52025812405E+03  0.52025812407E+03  0.50400001928E-02 0. -1.
        1   -1    0    0  501    0  0.00000000000E+00  0.00000000000E+00 -0.69072051258E+03  0.69072051260E+03  0.50400001928E-02 0.  1.
    10030    2    1    2    0    0  0.00000000000E+00  0.00000000000E+00 -0.17046238853E+03  0.12109786367E+04  0.11989211119E+04 0.  0.
        4    1    3    3  502    0  0.19040055961E+03  0.50859655936E+03 -0.34161165541E+03  0.64157849816E+03  0.12699999809E+01 0.  1.
       -4    1    3    3    0  502 -0.19040055961E+03 -0.50859655936E+03  0.17114926688E+03  0.56940013852E+03  0.12699999809E+01 0. -1.
</event>
<event>
 5   0  0.5447074E-04  0.1212767E+04  0.7818609E-02  0.9101755E-01
        1   -1    0    0  501    0  0.00000000000E+00  0.00000000000E+00  0.21383971114E+03  0.21383971120E+03  0.50400001928E-02 0.  1.
       -1   -1    0    0    0  501  0.00000000000E+00  0.00000000000E+00 -0.17195162980E+04  0.17195162980E+04  0.50400001928E-02 0. -1.
    10030    2    1    2    0    0  0.00000000000E+00  0.00000000000E+00 -0.15056765869E+04  0.19333560092E+04  0.12127668672E+04 0.  0.
        4    1    3    3  502    0 -0.26252619423E+03  0.47078112140E+03 -0.31005963496E+03  0.62184681157E+03  0.12699999809E+01 0.  1.
       -4    1    3    3    0  502  0.26252619423E+03 -0.47078112140E+03 -0.11956169519E+04  0.13115091976E+04  0.12699999809E+01 0. -1.
</event>
<event>
 5   0  0.9070772E-04  0.1196574E+04  0.7818609E-02  0.9115861E-01
        2   -1    0    0  501    0  0.00000000000E+00  0.00000000000E+00  0.18491718658E+04  0.18491718658E+04  0.25500000920E-02 0. -1.
       -2   -1    0    0    0  501  0.00000000000E+00  0.00000000000E+00 -0.19357160468E+03  0.19357160470E+03  0.25500000920E-02 0.  1.
    10030    2    1    2    0    0  0.00000000000E+00  0.00000000000E+00  0.16556002611E+04  0.20427434705E+04  0.11965737176E+04 0.  0.
        4    1    3    3  502    0  0.90366493914E+01  0.33640008672E+03  0.16722820511E+04  0.17058064224E+04  0.12699999809E+01 0. -1.
       -4    1    3    3    0  502 -0.90366493914E+01 -0.33640008672E+03 -0.16681789961E+02  0.33693704811E+03  0.12699999809E+01 0.  1.
</event>
<event>
 5   0  0.3453625E-04  0.1213139E+04  0.7818609E-02  0.9101433E-01
       -3   -1    0    0    0  501  0.00000000000E+00  0.00000000000E+00  0.10740580543E+04  0.10740580591E+04  0.10100000352E+00 0.  1.
        3   -1    0    0  501    0  0.00000000000E+00  0.00000000000E+00 -0.34255744636E+03  0.34255746125E+03  0.10100000352E+00 0. -1.
    10030    2    1    2    0    0  0.00000000000E+00  0.00000000000E+00  0.73150060794E+03  0.14166155203E+04  0.12131390658E+04 0.  0.
        4    1    3    3  502    0  0.18851392844E+03 -0.52039649685E+03  0.75986914920E+02  0.55868205564E+03  0.12699999809E+01 0. -1.
       -4    1    3    3    0  502 -0.18851392844E+03  0.52039649685E+03  0.65551369302E+03  0.85793346467E+03  0.12699999809E+01 0.  1.
</event>
<event>
 5   0  0.5003507E-04  0.1214023E+04  0.7818609E-02  0.9100670E-01
        1   -1    0    0  501    0  0.00000000000E+00  0.00000000000E+00  0.11939195061E+04  0.11939195061E+04  0.50400001928E-02 0.  1.
       -1   -1    0    0    0  501  0.00000000000E+00  0.00000000000E+00 -0.30861610176E+03  0.30861610180E+03  0.50400001928E-02 0. -1.
    10030    2    1    2    0    0  0.00000000000E+00  0.00000000000E+00  0.88530340434E+03  0.15025356079E+04  0.12140227079E+04 0.  0.
        3    1    3    3  502    0  0.31461984524E+03  0.14525269285E+03  0.10594671036E+04  0.11146993072E+04  0.10100000352E+00 0.  1.
       -3    1    3    3    0  502 -0.31461984524E+03 -0.14525269285E+03 -0.17416369922E+03  0.38783630068E+03  0.10100000352E+00 0. -1.
</event>
<event>
 5   0  0.9410666E-04  0.1200583E+04  0.7818609E-02  0.9112347E-01
        2   -1    0    0  501    0  0.00000000000E+00  0.00000000000E+00  0.69866911275E+03  0.69866911275E+03  0.25500000920E-02 0. -1.
       -2   -1    0    0    0  501  0.00000000000E+00  0.00000000000E+00 -0.51576573432E+03  0.51576573432E+03  0.25500000920E-02 0.  1.
    10030    2    1    2    0    0  0.00000000000E+00  0.00000000000E+00  0.18290337843E+03  0.12144348471E+04  0.12005825053E+04 0.  0.
        2    1    3    3  502    0 -0.47166651136E+03 -0.95731986361E+02  0.45436085091E+03  0.66187437932E+03  0.25500000920E-02 0. -1.
       -2    1    3    3    0  502  0.47166651136E+03  0.95731986361E+02 -0.27145747248E+03  0.55256046776E+03  0.25500000920E-02 0.  1.
</event>
<event>
 5   0  0.9145224E-04  0.1197701E+04  0.7818609E-02  0.9114871E-01
       -2   -1    0    0    0  501  0.00000000000E+00  0.00000000000E+00  0.56298871662E+03  0.56298871662E+03  0.25500000920E-02 0.  1.
        2   -1    0    0  501    0  0.00000000000E+00  0.00000000000E+00 -0.63699687241E+03  0.63699687242E+03  0.25500000920E-02 0. -1.
    10030    2    1    2    0    0  0.00000000000E+00  0.00000000000E+00 -0.74008155796E+02  0.11999855890E+04  0.11977012177E+04 0.  0.
        5    1    3    3  502    0  0.63875358897E+02 -0.14660069685E+03 -0.61519065177E+03  0.63565199112E+03  0.46999998093E+01 0. -1.
       -5    1    3    3    0  502 -0.63875358897E+02  0.14660069685E+03  0.54118249597E+03  0.56433359792E+03  0.46999998093E+01 0.  1.
</event>
<event>
 5   0  0.9050363E-04  0.1196826E+04  0.7818609E-02  0.9115640E-01
       -2   -1    0    0    0  501  0.00000000000E+00  0.00000000000E+00  0.51320448921E+03  0.51320448922E+03  0.25500000920E-02 0. -1.
        2   -1    0    0  501    0  0.00000000000E+00  0.00000000000E+00 -0.69776838461E+03  0.69776838461E+03  0.25500000920E-02 0.  1.
    10030    2    1    2    0    0  0.00000000000E+00  0.00000000000E+00 -0.18456389540E+03  0.12109728738E+04  0.11968255803E+04 0.  0.
        3    1    3    3  502    0 -0.48590771709E+03  0.20498390472E+03 -0.37842001777E+03  0.64909662668E+03  0.10100000352E+00 0.  1.
       -3    1    3    3    0  502  0.48590771709E+03 -0.20498390472E+03  0.19385612237E+03  0.56187624714E+03  0.10100000352E+00 0. -1.
</event>
<event>
 5   0  0.5052959E-04  0.1190198E+04  0.7818609E-02  0.9121480E-01
       -1   -1    0    0    0  501  0.00000000000E+00  0.00000000000E+00  0.14068703544E+03  0.14068703553E+03  0.50400001928E-02 0. -1.
        1   -1    0    0  501    0  0.00000000000E+00  0.00000000000E+00 -0.25172382623E+04  0.25172382623E+04  0.50400001928E-02 0.  1.
    10030    2    1    2    0    0  0.00000000000E+00  0.00000000000E+00 -0.23765512269E+04  0.26579252979E+04  0.11901979478E+04 0.  0.
        2    1    3    3  502    0 -0.19322949317E+03  0.39464042378E+03 -0.29203848380E+03  0.52760323837E+03  0.25500000920E-02 0. -1.
       -2    1    3    3    0  502  0.19322949317E+03 -0.39464042378E+03 -0.20845127431E+04  0.21303220595E+04  0.25500000920E-02 0.  1.
</event>
<event>
 5   0  0.9050363E-04  0.1200745E+04  0.7818609E-02  0.9112204E-01
       -2   -1    0    0    0  501  0.00000000000E+00  0.00000000000E+00  0.37886415573E+03  0.37886415574E+03  0.25500000920E-02 0.  1.
        2   -1    0    0  501    0  0.00000000000E+00  0.00000000000E+00 -0.95138924949E+03  0.95138924949E+03  0.25500000920E-02 0. -1.
    10030    2    1    2    0    0  0.00000000000E+00  0.00000000000E+00 -0.57252509376E+03  0.13302534052E+04  0.12007452432E+04 0.  0.
        3    1    3    3  502    0 -0.42197576758E+02  0.49069971707E+03  0.94105786980E+02  0.50142073866E+03  0.10100000352E+00 0.  1.
       -3    1    3    3    0  502  0.42197576758E+02 -0.49069971707E+03 -0.66663088074E+03  0.82883266657E+03  0.10100000352E+00 0. -1.
</event>
<event>
 5   0  0.5157631E-04  0.1200502E+04  0.7818609E-02  0.9112418E-01
        1   -1    0    0  501    0  0.00000000000E+00  0.00000000000E+00  0.42079126028E+03  0.42079126031E+03  0.50400001928E-02 0. -1.
       -1   -1    0    0    0  501  0.00000000000E+00  0.00000000000E+00 -0.85624652104E+03  0.85624652106E+03  0.50400001928E-02 0.  1.
    10030    2    1    2    0    0  0.00000000000E+00  0.00000000000E+00 -0.43545526076E+03  0.12770377814E+04  0.12005016497E+04 0.  0.
        5    1    3    3  502    0 -0.18254235503E+03 -0.38805812626E+03  0.22900847609E+03  0.48618699371E+03  0.46999998093E+01 0. -1.
       -5    1    3    3    0  502  0.18254235503E+03  0.38805812626E+03 -0.66446373685E+03  0.79085078765E+03  0.46999998093E+01 0.  1.
</event>
<event>
 5   0  0.5003507E-04  0.1206485E+04  0.7818609E-02  0.9107199E-01
        1   -1    0    0  501    0  0.00000000000E+00  0.00000000000E+00  0.33384746637E+03  0.33384746640E+03  0.50400001928E-02 0. -1.
       -1   -1    0    0    0  501  0.00000000000E+00  0.00000000000E+00 -0.10900235464E+04  0.10900235464E+04  0.50400001928E-02 0.  1.
    10030    2    1    2    0    0  0.00000000000E+00  0.00000000000E+00 -0.75617608003E+03  0.14238710128E+04  0.12064851417E+04 0.  0.
        3    1    3    3  502    0 -0.18587768058E+03 -0.76934244158E+02 -0.10492700351E+04  0.10683805534E+04  0.10100000352E+00 0.  1.
       -3    1    3    3    0  502  0.18587768058E+03  0.76934244158E+02  0.29309395506E+03  0.35549045945E+03  0.10100000352E+00 0. -1.
</event>
<event>
 5   0  0.5447074E-04  0.1198418E+04  0.7818609E-02  0.9114243E-01
       -1   -1    0    0    0  501  0.00000000000E+00  0.00000000000E+00  0.80888572624E+03  0.80888572626E+03  0.50400001928E-02 0.  1.
        1   -1    0    0  501    0  0.00000000000E+00  0.00000000000E+00 -0.44388380233E+03  0.44388380236E+03  0.50400001928E-02 0. -1.
    10030    2    1    2    0    0  0.00000000000E+00  0.00000000000E+00  0.36500192391E+03  0.12527695286E+04  0.11984177433E+04 0.  0.
        4    1    3    3  502    0 -0.56404125291E+03 -0.39313919693E+02  0.38989630010E+03  0.68681064130E+03  0.12699999809E+01 0.  1.
       -4    1    3    3    0  502  0.56404125291E+03  0.39313919693E+02 -0.24894376185E+02  0.56595888732E+03  0.12699999809E+01 0. -1.
</event>
<event>
 5   0  0.9070772E-04  0.1197819E+04  0.7818609E-02  0.9114768E-01
       -2   -1    0    0    0  501  0.00000000000E+00  0.00000000000E+00  0.38589715342E+03  0.38589715343E+03  0.25500000920E-02 0. -1.
        2   -1    0    0  501    0  0.00000000000E+00  0.00000000000E+00 -0.92950329305E+03  0.92950329305E+03  0.25500000920E-02 0.  1.
    10030    2    1    2    0    0  0.00000000000E+00  0.00000000000E+00 -0.54360613962E+03  0.13154004465E+04  0.11978191431E+04 0.  0.
        4    1    3    3  502    0  0.32762714809E+03  0.18385932056E+03  0.24040161732E+03  0.44602505359E+03  0.12699999809E+01 0. -1.
       -4    1    3    3    0  502 -0.32762714809E+03 -0.18385932056E+03 -0.78400775694E+03  0.86937539289E+03  0.12699999809E+01 0.  1.
</event>
<event>
 5   0  0.5447074E-04  0.1196825E+04  0.7818609E-02  0.9115640E-01
       -1   -1    0    0    0  501  0.00000000000E+00  0.00000000000E+00  0.35592009379E+03  0.35592009383E+03  0.50400001928E-02 0. -1.
        1   -1    0    0  501    0  0.00000000000E+00  0.00000000000E+00 -0.10061171873E+04  0.10061171873E+04  0.50400001928E-02 0.  1.
    10030    2    1    2    0    0  0.00000000000E+00  0.00000000000E+00 -0.65019709349E+03  0.13620372811E+04  0.11968246717E+04 0.  0.
        4    1    3    3  502    0  0.36817033621E+03 -0.80476704458E+02 -0.85409835083E+03  0.93354780393E+03  0.12699999809E+01 0.  1.
       -4    1    3    3    0  502 -0.36817033621E+03  0.80476704458E+02  0.20390125734E+03  0.42848947720E+03  0.12699999809E+01 0. -1.
</event>
<event>
 5   0  0.3453625E-04  0.1204304E+04  0.7818609E-02  0.9109098E-01
       -4   -1    0    0    0  501  0.00000000000E+00  0.00000000000E+00  0.12629495933E+04  0.12629502318E+04  0.12699999809E+01 0. -1.
        4   -1    0    0  501    0  0.00000000000E+00  0.00000000000E+00 -0.28709309478E+03  0.28709590378E+03  0.12699999809E+01 0.  1.
    10030    2    1    2    0    0  0.00000000000E+00  0.00000000000E+00  0.97585649849E+03  0.15500461356E+04  0.12043035817E+04 0.  0.
        4    1    3    3  502    0  0.26547913418E+03  0.11584886767E+03 -0.19153421721E+03  0.34725653354E+03  0.12699999809E+01 0.  1.
       -4    1    3    3    0  502 -0.26547913418E+03 -0.11584886767E+03  0.11673907157E+04  0.12027896021E+04  0.12699999809E+01 0. -1.
</event>
<event>
 5   0  0.5003507E-04  0.1199739E+04  0.7818609E-02  0.9113085E-01
       -1   -1    0    0    0  501  0.00000000000E+00  0.00000000000E+00  0.77734787736E+03  0.77734787738E+03  0.50400001928E-02 0.  1.
        1   -1    0    0  501    0  0.00000000000E+00  0.00000000000E+00 -0.46291205504E+03  0.46291205507E+03  0.50400001928E-02 0. -1.
    10030    2    1    2    0    0  0.00000000000E+00  0.00000000000E+00  0.31443582232E+03  0.12402599324E+04  0.11997394774E+04 0.  0.
        3    1    3    3  502    0  0.20356497500E+03 -0.53091376772E+03  0.35481642801E+03  0.67022595861E+03  0.10100000352E+00 0. -1.
       -3    1    3    3    0  502 -0.20356497500E+03  0.53091376772E+03 -0.40380605694E+02  0.57003397383E+03  0.10100000352E+00 0.  1.
</event>
<event>
 5   0  0.9410666E-04  0.1201206E+04  0.7818609E-02  0.9111802E-01
        2   -1    0    0  501    0  0.00000000000E+00  0.00000000000E+00  0.84218616854E+03  0.84218616855E+03  0.25500000920E-02 0. -1.
       -2   -1    0    0    0  501  0.00000000000E+00  0.00000000000E+00 -0.42831821840E+03  0.42831821840E+03  0.25500000920E-02 0.  1.
    10030    2    1    2    0    0  0.00000000000E+00  0.00000000000E+00  0.41386795015E+03  0.12705043870E+04  0.12012055266E+04 0.  0.
        2    1    3    3  502    0 -0.41036954692E+03  0.25852420848E+03 -0.16774217491E+03  0.51320109963E+03  0.25500000920E-02 0.  1.
       -2    1    3    3    0  502  0.41036954692E+03 -0.25852420848E+03  0.58161012506E+03  0.75730328732E+03  0.25500000920E-02 0. -1.
</event>
<event>
 5   0  0.9070772E-04  0.1203708E+04  0.7818609E-02  0.9109617E-01
        2   -1    0    0  501    0  0.00000000000E+00  0.00000000000E+00  0.61851051940E+03  0.61851051940E+03  0.25500000920E-02 0. -1.
       -2   -1    0    0    0  501  0.00000000000E+00  0.00000000000E+00 -0.58564621452E+03  0.58564621453E+03  0.25500000920E-02 0.  1.
    10030    2    1    2    0    0  0.00000000000E+00  0.00000000000E+00  0.32864304878E+02  0.12041567339E+04  0.12037081778E+04 0.  0.
        4    1    3    3  502    0  0.48471193938E+03  0.29375966635E+03  0.21895839293E+03  0.60760579037E+03  0.12699999809E+01 0. -1.
       -4    1    3    3    0  502 -0.48471193938E+03 -0.29375966635E+03 -0.18609408805E+03  0.59655094356E+03  0.12699999809E+01 0.  1.
</event>
<event>
 5   0  0.9410666E-04  0.1214261E+04  0.7818609E-02  0.9100464E-01
       -2   -1    0    0    0  501  0.00000000000E+00  0.00000000000E+00  0.42145626137E+03  0.42145626137E+03  0.25500000920E-02 0.  1.
        2   -1    0    0  501    0  0.00000000000E+00  0.00000000000E+00 -0.87460475390E+03  0.87460475390E+03  0.25500000920E-02 0. -1.
    10030    2    1    2    0    0  0.00000000000E+00  0.00000000000E+00 -0.45314849253E+03  0.12960610153E+04  0.12142613389E+04 0.  0.
        2    1    3    3  502    0 -0.64042019006E+01  0.60548417358E+03 -0.27377488859E+03  0.66453351148E+03  0.25500000920E-02 0. -1.
       -2    1    3    3    0  502  0.64042019006E+01 -0.60548417358E+03 -0.17937360394E+03  0.63152750379E+03  0.25500000920E-02 0.  1.
</event>
<event>
 5   0  0.5447074E-04  0.1186334E+04  0.7818609E-02  0.9124903E-01
        1   -1    0    0  501    0  0.00000000000E+00  0.00000000000E+00  0.14950562663E+04  0.14950562664E+04  0.50400001928E-02 0. -1.
       -1   -1    0    0    0  501  0.00000000000E+00  0.00000000000E+00 -0.23534056122E+03  0.23534056127E+03  0.50400001928E-02 0.  1.
    10030    2    1    2    0    0  0.00000000000E+00  0.00000000000E+00  0.12597157051E+04  0.17303968276E+04  0.11863344905E+04 0.  0.
        4    1    3    3  502    0  0.21943005745E+03 -0.19946236795E+03  0.13791777834E+04  0.14106976137E+04  0.12699999809E+01 0. -1.
       -4    1    3    3    0  502 -0.21943005745E+03  0.19946236795E+03 -0.11946207823E+03  0.31969921391E+03  0.12699999809E+01 0.  1.
</event>
<event>
 5   0  0.9145224E-04  0.1198439E+04  0.7818609E-02  0.9114224E-01
        2   -1    0    0  501    0  0.00000000000E+00  0.00000000000E+00  0.70405889848E+03  0.70405889849E+03  0.25500000920E-02 0. -1.
       -2   -1    0    0    0  501  0.00000000000E+00  0.00000000000E+00 -0.50999146211E+03  0.50999146212E+03  0.25500000920E-02 0.  1.
    10030    2    1    2    0    0  0.00000000000E+00  0.00000000000E+00  0.19406743637E+03  0.12140503606E+04  0.11984390298E+04 0.  0.
        5    1    3    3  502    0  0.45044206727E+02  0.37766101061E+03 -0.37201513104E+03  0.53204714755E+03  0.46999998093E+01 0.  1.
       -5    1    3    3    0  502 -0.45044206727E+02 -0.37766101061E+03  0.56608256741E+03  0.68200321306E+03  0.46999998093E+01 0. -1.
</event>
<event>
 5   0  0.5052959E-04  0.1195847E+04  0.7818609E-02  0.9116499E-01
        1   -1    0    0  501    0  0.00000000000E+00  0.00000000000E+00  0.13864621551E+04  0.13864621551E+04  0.50400001928E-02 0. -1.
       -1   -1    0    0    0  501  0.00000000000E+00  0.00000000000E+00 -0.25785970299E+03  0.25785970304E+03  0.50400001928E-02 0.  1.
    10030    2    1    2    0    0  0.00000000000E+00  0.00000000000E+00  0.11286024521E+04  0.16443218581E+04  0.11958473474E+04 0.  0.
        2    1    3    3  502    0  0.93970225957E+02 -0.29987264890E+03  0.12637542863E+04  0.13022399568E+04  0.25500000920E-02 0. -1.
       -2    1    3    3    0  502 -0.93970225957E+02  0.29987264890E+03 -0.13515183421E+03  0.34208190134E+03  0.25500000920E-02 0.  1.
</event>
<event>
 5   0  0.5001586E-04  0.1192414E+04  0.7818609E-02  0.9119522E-01
       -1   -1    0    0    0  501  0.00000000000E+00  0.00000000000E+00  0.17101836912E+04  0.17101836912E+04  0.50400001928E-02 0.  1.
        1   -1    0    0  501    0  0.00000000000E+00  0.00000000000E+00 -0.20785071614E+03  0.20785071620E+03  0.50400001928E-02 0. -1.
    10030    2    1    2    0    0  0.00000000000E+00  0.00000000000E+00  0.15023329751E+04  0.19180344074E+04  0.11924141982E+04 0.  0.
        1    1    3    3  502    0 -0.35779292329E+03 -0.39039736201E+03  0.31054358237E+03  0.61389184128E+03  0.50400001928E-02 0. -1.
       -1    1    3    3    0  502  0.35779292329E+03  0.39039736201E+03  0.11917893927E+04  0.13041425661E+04  0.50400001928E-02 0.  1.
</event>
<event>
 5   0  0.5157631E-04  0.1193873E+04  0.7818609E-02  0.9118237E-01
       -1   -1    0    0    0  501  0.00000000000E+00  0.00000000000E+00  0.47459651385E+03  0.47459651387E+03  0.50400001928E-02 0. -1.
        1   -1    0    0  501    0  0.00000000000E+00  0.00000000000E+00 -0.75081259162E+03  0.75081259164E+03  0.50400001928E-02 0.  1.
    10030    2    1    2    0    0  0.00000000000E+00  0.00000000000E+00 -0.27621607778E+03  0.12254091055E+04  0.11938727546E+04 0.  0.
        5    1    3    3  502    0 -0.46694265705E+03 -0.30674122826E+03  0.77647560875E+02  0.56407167965E+03  0.46999998093E+01 0. -1.
       -5    1    3    3    0  502  0.46694265705E+03  0.30674122826E+03 -0.35386363865E+03  0.66133742586E+03  0.46999998093E+01 0.  1.
</event>
<event>
 5   0  0.5447074E-04  0.1198371E+04  0.7818609E-02  0.9114283E-01
        1   -1    0    0  501    0  0.00000000000E+00  0.00000000000E+00  0.45492149764E+03  0.45492149767E+03  0.50400001928E-02 0. -1.
       -1   -1    0    0    0  501  0.00000000000E+00  0.00000000000E+00 -0.78919876926E+03  0.78919876927E+03  0.50400001928E-02 0.  1.
    10030    2    1    2    0    0  0.00000000000E+00  0.00000000000E+00 -0.33427727162E+03  0.12441202669E+04  0.11983713716E+04 0.  0.
        4    1    3    3  502    0  0.42156484665E+03  0.33098102059E+03 -0.44523903696E+03  0.69678172253E+03  0.12699999809E+01 0.  1.
       -4    1    3    3    0  502 -0.42156484665E+03 -0.33098102059E+03  0.11096176534E+03  0.54733854441E+03  0.12699999809E+01 0. -1.
</event>
<event>
 5   0  0.9298693E-04  0.1199017E+04  0.7818609E-02  0.9113717E-01
       -2   -1    0    0    0  501  0.00000000000E+00  0.00000000000E+00  0.32796116627E+03  0.32796116628E+03  0.25500000920E-02 0. -1.
        2   -1    0    0  501    0  0.00000000000E+00  0.00000000000E+00 -0.10958939312E+04  0.10958939312E+04  0.25500000920E-02 0.  1.
    10030    2    1    2    0    0  0.00000000000E+00  0.00000000000E+00 -0.76793276492E+03  0.14238550975E+04  0.11990173506E+04 0.  0.
        1    1    3    3  502    0  0.51895825814E+03  0.27985235660E+03 -0.51283065413E+03  0.78142836846E+03  0.50400001928E-02 0.  1.
       -1    1    3    3    0  502 -0.51895825814E+03 -0.27985235660E+03 -0.25510211079E+03  0.64242672901E+03  0.50400001928E-02 0. -1.
</event>
<event>
 5   0  0.5001586E-04  0.1202000E+04  0.7818609E-02  0.9111108E-01
        1   -1    0    0  501    0  0.00000000000E+00  0.00000000000E+00  0.10144613663E+04  0.10144613663E+04  0.50400001928E-02 0. -1.
       -1   -1    0    0    0  501  0.00000000000E+00  0.00000000000E+00 -0.35605183106E+03  0.35605183110E+03  0.50400001928E-02 0.  1.
    10030    2    1    2    0    0  0.00000000000E+00  0.00000000000E+00  0.65840953520E+03  0.13705131974E+04  0.12019997122E+04 0.  0.
        1    1    3    3  502    0  0.49919285262E+03  0.26256176838E+03  0.92580413908E+02  0.57157967020E+03  0.50400001928E-02 0. -1.
       -1    1    3    3    0  502 -0.49919285262E+03 -0.26256176838E+03  0.56582912130E+03  0.79893352718E+03  0.50400001928E-02 0.  1.
</event>
<event>
 5   0  0.9050363E-04  0.1197087E+04  0.7818609E-02  0.9115410E-01
        2   -1    0    0  501    0  0.00000000000E+00  0.00000000000E+00  0.75722425468E+03  0.75722425468E+03  0.25500000920E-02 0. -1.
       -2   -1    0    0    0  501  0.00000000000E+00  0.00000000000E+00 -0.47311523749E+03  0.47311523750E+03  0.25500000920E-02 0.  1.
    10030    2    1    2    0    0  0.00000000000E+00  0.00000000000E+00  0.28410901719E+03  0.12303394922E+04  0.11970870196E+04 0.  0.
        3    1    3    3  502    0 -0.58498863410E+02  0.47048228482E+03  0.51755032776E+03  0.70187894206E+03  0.10100000352E+00 0.  1.
       -3    1    3    3    0  502  0.58498863410E+02 -0.47048228482E+03 -0.23344131057E+03  0.52846055012E+03  0.10100000352E+00 0. -1.
</event>
<event>
 5   0  0.9050363E-04  0.1203549E+04  0.7818609E-02  0.9109756E-01
       -2   -1    0    0    0  501  0.00000000000E+00  0.00000000000E+00  0.55376383627E+03  0.55376383628E+03  0.25500000920E-02 0. -1.
        2   -1    0    0  501    0  0.00000000000E+00  0.00000000000E+00 -0.65394728773E+03  0.65394728773E+03  0.25500000920E-02 0.  1.
    10030    2    1    2    0    0  0.00000000000E+00  0.00000000000E+00 -0.10018345146E+03  0.12077111240E+04  0.12035486841E+04 0.  0.
        3    1    3    3  502    0 -0.57112861678E+02  0.39111579464E+03 -0.50542189044E+03  0.64162663701E+03  0.10100000352E+00 0.  1.
       -3    1    3    3    0  502  0.57112861678E+02 -0.39111579464E+03  0.40523843899E+03  0.56608448700E+03  0.10100000352E+00 0. -1.
</event>
<event>
 5   0  0.9298693E-04  0.1203797E+04  0.7818609E-02  0.9109539E-01
        2   -1    0    0  501    0  0.00000000000E+00  0.00000000000E+00  0.32666469158E+03  0.32666469159E+03  0.25500000920E-02 0. -1.
       -2   -1    0    0    0  501  0.00000000000E+00  0.00000000000E+00 -0.11090330010E+04  0.11090330010E+04  0.25500000920E-02 0.  1.
    10030    2    1    2    0    0  0.00000000000E+00  0.00000000000E+00 -0.78236830941E+03  0.14356976926E+04  0.12037971976E+04 0.  0.
        1    1    3    3  502    0  0.45070408169E+03  0.29941910934E+03 -0.76779168257E+02  0.54651716624E+03  0.50400001928E-02 0. -1.
       -1    1    3    3    0  502 -0.45070408169E+03 -0.29941910934E+03 -0.70558914115E+03  0.88918052634E+03  0.50400001928E-02 0.  1.
</event>
<event>
 5   0  0.9145224E-04  0.1205027E+04  0.7818609E-02  0.9108468E-01
        2   -1    0    0  501    0  0.00000000000E+00  0.00000000000E+00  0.95922088430E+03  0.95922088430E+03  0.25500000920E-02 0. -1.
       -2   -1    0    0    0  501  0.00000000000E+00  0.00000000000E+00 -0.37845550725E+03  0.37845550726E+03  0.25500000920E-02 0.  1.
    10030    2    1    2    0    0  0.00000000000E+00  0.00000000000E+00  0.58076537705E+03  0.13376763916E+04  0.12050268484E+04 0.  0.
        5    1    3    3  502    0  0.13360466914E+03 -0.56478787847E+03  0.11082132625E+03  0.59087986227E+03  0.46999998093E+01 0.  1.
       -5    1    3    3    0  502 -0.13360466914E+03  0.56478787847E+03  0.46994405080E+03  0.74679652929E+03  0.46999998093E+01 0. -1.
</event>
<event>
 5   0  0.5157631E-04  0.1173325E+04  0.7818609E-02  0.9136530E-01
       -1   -1    0    0    0  501  0.00000000000E+00  0.00000000000E+00  0.32831382758E+03  0.32831382762E+03  0.50400001928E-02 0. -1.
        1   -1    0    0  501    0  0.00000000000E+00  0.00000000000E+00 -0.10483054198E+04  0.10483054198E+04  0.50400001928E-02 0.  1.
    10030    2    1    2    0    0  0.00000000000E+00  0.00000000000E+00 -0.71999159219E+03  0.13766192474E+04  0.11733254704E+04 0.  0.
        5    1    3    3  502    0  0.26430198927E+03 -0.16595906045E+03  0.22281376594E+03  0.38349187159E+03  0.46999998093E+01 0. -1.
       -5    1    3    3    0  502 -0.26430198927E+03  0.16595906045E+03 -0.94280535813E+03  0.99312737582E+03  0.46999998093E+01 0.  1.
</event>
<event>
 5   0  0.9050363E-04  0.1196749E+04  0.7818609E-02  0.9115707E-01
        2   -1    0    0  501    0  0.00000000000E+00  0.00000000000E+00  0.65064401305E+03  0.65064401306E+03  0.25500000920E-02 0.  1.
       -2   -1    0    0    0  501  0.00000000000E+00  0.00000000000E+00 -0.55030430940E+03  0.55030430941E+03  0.25500000920E-02 0. -1.
    10030    2    1    2    0    0  0.00000000000E+00  0.00000000000E+00  0.10033970365E+03  0.12009483225E+04  0.11967492708E+04 0.  0.
        3    1    3    3  502    0  0.53703725113E+03 -0.23930216360E+03 -0.61475440041E+02  0.59114615328E+03  0.10100000352E+00 0.  1.
       -3    1    3    3    0  502 -0.53703725113E+03  0.23930216360E+03  0.16181514369E+03  0.60980216918E+03  0.10100000352E+00 0. -1.
</event>
<event>
 5   0  0.5052959E-04  0.1200077E+04  0.7818609E-02  0.9112789E-01
        1   -1    0    0  501    0  0.00000000000E+00  0.00000000000E+00  0.40843995200E+03  0.40843995203E+03  0.50400001928E-02 0. -1.
       -1   -1    0    0    0  501  0.00000000000E+00  0.00000000000E+00 -0.88151557830E+03  0.88151557831E+03  0.50400001928E-02 0.  1.
    10030    2    1    2    0    0  0.00000000000E+00  0.00000000000E+00 -0.47307562630E+03  0.12899555303E+04  0.12000769651E+04 0.  0.
        2    1    3    3  502    0  0.75338016060E+02  0.21703346753E+03  0.35929372124E+03  0.42646373917E+03  0.25500000920E-02 0. -1.
       -2    1    3    3    0  502 -0.75338016060E+02 -0.21703346753E+03 -0.83236934754E+03  0.86349179118E+03  0.25500000920E-02 0.  1.
</event>
<event>
 5   0  0.5001586E-04  0.1198976E+04  0.7818609E-02  0.9113754E-01
       -1   -1    0    0    0  501  0.00000000000E+00  0.00000000000E+00  0.15580950304E+03  0.15580950312E+03  0.50400001928E-02 0.  1.
        1   -1    0    0  501    0  0.00000000000E+00  0.00000000000E+00 -0.23065708079E+04  0.23065708079E+04  0.50400001928E-02 0. -1.
    10030    2    1    2    0    0  0.00000000000E+00  0.00000000000E+00 -0.21507613048E+04  0.24623803110E+04  0.11989756485E+04 0.  0.
        1    1    3    3  502    0  0.52437323205E+03 -0.28679175331E+03 -0.11710251609E+04  0.13147306658E+04  0.50400001928E-02 0. -1.
       -1    1    3    3    0  502 -0.52437323205E+03  0.28679175331E+03 -0.97973614396E+03  0.11476496452E+04  0.50400001928E-02 0.  1.
</event>
<event>
 5   0  0.5003507E-04  0.1210493E+04  0.7818609E-02  0.9103721E-01
       -1   -1    0    0    0  501  0.00000000000E+00  0.00000000000E+00  0.92626862053E+03  0.92626862055E+03  0.50400001928E-02 0.  1.
        1   -1    0    0  501    0  0.00000000000E+00  0.00000000000E+00 -0.39548274549E+03  0.39548274552E+03  0.50400001928E-02 0. -1.
    10030    2    1    2    0    0  0.00000000000E+00  0.00000000000E+00  0.53078587505E+03  0.13217513661E+04  0.12104928866E+04 0.  0.
        3    1    3    3  502    0  0.40161464874E+03 -0.39610530804E+03  0.50494131156E+03  0.75707296839E+03  0.10100000352E+00 0.  1.
       -3    1    3    3    0  502 -0.40161464874E+03  0.39610530804E+03  0.25844563485E+02  0.56467839768E+03  0.10100000352E+00 0. -1.
</event>
<event>
 5   0  0.5003507E-04  0.1219246E+04  0.7818609E-02  0.9096176E-01
       -1   -1    0    0    0  501  0.00000000000E+00  0.00000000000E+00  0.41210002804E+03  0.41210002807E+03  0.50400001928E-02 0.  1.
        1   -1    0    0  501    0  0.00000000000E+00  0.00000000000E+00 -0.90181968342E+03  0.90181968344E+03  0.50400001928E-02 0. -1.
    10030    2    1    2    0    0  0.00000000000E+00  0.00000000000E+00 -0.48971965538E+03  0.13139197115E+04  0.12192455321E+04 0.  0.
        3    1    3    3  502    0  0.54422848855E+03 -0.25636726530E+02 -0.53958871045E+03  0.76681019564E+03  0.10100000352E+00 0. -1.
       -3    1    3    3    0  502 -0.54422848855E+03  0.25636726530E+02  0.49869055071E+02  0.54710951587E+03  0.10100000352E+00 0.  1.
</event>
<event>
 5   0  0.9410666E-04  0.1200092E+04  0.7818609E-02  0.9112776E-01
        2   -1    0    0  501    0  0.00000000000E+00  0.00000000000E+00  0.99473774305E+03  0.99473774305E+03  0.25500000920E-02 0.  1.
       -2   -1    0    0    0  501  0.00000000000E+00  0.00000000000E+00 -0.36196021783E+03  0.36196021784E+03  0.25500000920E-02 0. -1.
    10030    2    1    2    0    0  0.00000000000E+00  0.00000000000E+00  0.63277752522E+03  0.13566979609E+04  0.12000924800E+04 0.  0.
        2    1    3    3  502    0  0.34641453866E+03 -0.29828778852E+03  0.75579621911E+03  0.88329302171E+03  0.25500000920E-02 0.  1.
       -2    1    3    3    0  502 -0.34641453866E+03  0.29828778852E+03 -0.12301869390E+03  0.47340493917E+03  0.25500000920E-02 0. -1.
</event>
<event>
 5   0  0.5157631E-04  0.1231851E+04  0.7818609E-02  0.9085425E-01
       -1   -1    0    0    0  501  0.00000000000E+00  0.00000000000E+00  0.17001759743E+03  0.17001759750E+03  0.50400001928E-02 0. -1.
        1   -1    0    0  501    0  0.00000000000E+00  0.00000000000E+00 -0.22313238910E+04  0.22313238910E+04  0.50400001928E-02 0.  1.
    10030    2    1    2    0    0  0.00000000000E+00  0.00000000000E+00 -0.20613062936E+04  0.24013414885E+04  0.12318511714E+04 0.  0.
        5    1    3    3  502    0 -0.21919452149E+03  0.40986054563E+02 -0.21498330926E+04  0.21613723675E+04  0.46999998093E+01 0.  1.
       -5    1    3    3    0  502  0.21919452149E+03 -0.40986054563E+02  0.88526798990E+02  0.23996912105E+03  0.46999998093E+01 0. -1.
</event>
<event>
 5   0  0.9145224E-04  0.1197942E+04  0.7818609E-02  0.9114660E-01
        2   -1    0    0  501    0  0.00000000000E+00  0.00000000000E+00  0.25004756005E+04  0.25004756005E+04  0.25500000920E-02 0.  1.
       -2   -1    0    0    0  501  0.00000000000E+00  0.00000000000E+00 -0.14347922297E+03  0.14347922299E+03  0.25500000920E-02 0. -1.
    10030    2    1    2    0    0  0.00000000000E+00  0.00000000000E+00  0.23569963775E+04  0.26439548235E+04  0.11979420625E+04 0.  0.
        5    1    3    3  502    0  0.40760871219E+03 -0.15924144695E+03  0.20810876332E+04  0.21266054001E+04  0.46999998093E+01 0. -1.
       -5    1    3    3    0  502 -0.40760871219E+03  0.15924144695E+03  0.27590874430E+03  0.51734942337E+03  0.46999998093E+01 0.  1.
</event>
<event>
 5   0  0.5052959E-04  0.1196877E+04  0.7818609E-02  0.9115594E-01
        1   -1    0    0  501    0  0.00000000000E+00  0.00000000000E+00  0.15795897644E+04  0.15795897644E+04  0.50400001928E-02 0.  1.
       -1   -1    0    0    0  501  0.00000000000E+00  0.00000000000E+00 -0.22672260584E+03  0.22672260590E+03  0.50400001928E-02 0. -1.
    10030    2    1    2    0    0  0.00000000000E+00  0.00000000000E+00  0.13528671586E+04  0.18063123703E+04  0.11968771158E+04 0.  0.
        2    1    3    3  502    0  0.70432029955E+02  0.39757350807E+03  0.98177109019E+01  0.40388334036E+03  0.25500000920E-02 0. -1.
       -2    1    3    3    0  502 -0.70432029955E+02 -0.39757350807E+03  0.13430494477E+04  0.14024290300E+04  0.25500000920E-02 0.  1.
</event>
<event>
 5   0  0.3453625E-04  0.1203218E+04  0.7818609E-02  0.9110044E-01
        4   -1    0    0  501    0  0.00000000000E+00  0.00000000000E+00  0.44542590672E+03  0.44542771723E+03  0.12699999809E+01 0.  1.
       -4   -1    0    0    0  501  0.00000000000E+00  0.00000000000E+00 -0.81255213193E+03  0.81255312441E+03  0.12699999809E+01 0. -1.
    10030    2    1    2    0    0  0.00000000000E+00  0.00000000000E+00 -0.36712622520E+03  0.12579808416E+04  0.12032182399E+04 0.  0.
        5    1    3    3  502    0 -0.32825430347E+03  0.37326733820E+02  0.34207886372E+03  0.47558827972E+03  0.46999998093E+01 0.  1.
       -5    1    3    3    0  502  0.32825430347E+03 -0.37326733820E+02 -0.70920508892E+03  0.78239256193E+03  0.46999998093E+01 0. -1.
</event>
<event>
 5   0  0.5001586E-04  0.1197823E+04  0.7818609E-02  0.9114764E-01
        1   -1    0    0  501    0  0.00000000000E+00  0.00000000000E+00  0.81034228990E+03  0.81034228992E+03  0.50400001928E-02 0.  1.
       -1   -1    0    0    0  501  0.00000000000E+00  0.00000000000E+00 -0.44264642744E+03  0.44264642747E+03  0.50400001928E-02 0. -1.
    10030    2    1    2    0    0  0.00000000000E+00  0.00000000000E+00  0.36769586247E+03  0.12529887174E+04  0.11978232251E+04 0.  0.
        1    1    3    3  502    0  0.88371311400E+02 -0.40762125565E+03 -0.26574946156E+03  0.49455773483E+03  0.50400001928E-02 0. -1.
       -1    1    3    3    0  502 -0.88371311400E+02  0.40762125565E+03  0.63344532403E+03  0.75843098255E+03  0.50400001928E-02 0.  1.
</event>
<event>
 5   0  0.5052959E-04  0.1196038E+04  0.7818609E-02  0.9116331E-01
        1   -1    0    0  501    0  0.00000000000E+00  0.00000000000E+00  0.17426342597E+03  0.17426342605E+03  0.50400001928E-02 0. -1.
       -1   -1    0    0    0  501  0.00000000000E+00  0.00000000000E+00 -0.20522206901E+04  0.20522206901E+04  0.50400001928E-02 0.  1.
    10030    2    1    2    0    0  0.00000000000E+00  0.00000000000E+00 -0.18779572641E+04  0.22264841161E+04  0.11960384750E+04 0.  0.
        2    1    3    3  502    0 -0.15728890675E+03 -0.25085272333E+03  0.28239114596E+02  0.29742954895E+03  0.25500000920E-02 0. -1.
       -2    1    3    3    0  502  0.15728890675E+03  0.25085272333E+03 -0.19061963787E+04  0.19290545672E+04  0.25500000920E-02 0.  1.
</event>
<event>
 5   0  0.9298693E-04  0.1199311E+04  0.7818609E-02  0.9113460E-01
        2   -1    0    0  501    0  0.00000000000E+00  0.00000000000E+00  0.43073715754E+03  0.43073715755E+03  0.25500000920E-02 0. -1.
       -2   -1    0    0    0  501  0.00000000000E+00  0.00000000000E+00 -0.83481725596E+03  0.83481725597E+03  0.25500000920E-02 0.  1.
    10030    2    1    2    0    0  0.00000000000E+00  0.00000000000E+00 -0.40408009842E+03  0.12655544135E+04  0.11993111555E+04 0.  0.
        1    1    3    3  502    0  0.30500368860E+03 -0.35035388059E+03  0.19813139068E+03  0.50500607887E+03  0.50400001928E-02 0. -1.
       -1    1    3    3    0  502 -0.30500368860E+03  0.35035388059E+03 -0.60221148910E+03  0.76054833464E+03  0.50400001928E-02 0.  1.
</event>
<event>
 5   0  0.9298693E-04  0.1202011E+04  0.7818609E-02  0.9111098E-01
        2   -1    0    0  501    0  0.00000000000E+00  0.00000000000E+00  0.74316643761E+03  0.74316643761E+03  0.25500000920E-02 0. -1.
       -2   -1    0    0    0  501  0.00000000000E+00  0.00000000000E+00 -0.48603897233E+03  0.48603897234E+03  0.25500000920E-02 0.  1.
    10030    2    1    2    0    0  0.00000000000E+00  0.00000000000E+00  0.25712746528E+03  0.12292054099E+04  0.12020114003E+04 0.  0.
        1    1    3    3  502    0  0.46793143945E+03  0.86745348504E+02 -0.24678691928E+03  0.53608616011E+03  0.50400001928E-02 0.  1.
       -1    1    3    3    0  502 -0.46793143945E+03 -0.86745348504E+02  0.50391438456E+03  0.69311924984E+03  0.50400001928E-02 0. -1.
</event>
<event>
 5   0  0.3453625E-04  0.1198757E+04  0.7818609E-02  0.9113946E-01
        3   -1    0    0  501    0  0.00000000000E+00  0.00000000000E+00  0.67979908833E+03  0.67979909584E+03  0.10100000352E+00 0.  1.
       -3   -1    0    0    0  501  0.00000000000E+00  0.00000000000E+00 -0.52847133996E+03  0.52847134961E+03  0.10100000352E+00 0. -1.
    10030    2    1    2    0    0  0.00000000000E+00  0.00000000000E+00  0.15132774838E+03  0.12082704454E+04  0.11987565983E+04 0.  0.
        4    1    3    3  502    0  0.53814388182E+03  0.24150716398E+03 -0.31614776951E+02  0.59069929305E+03  0.12699999809E+01 0. -1.
       -4    1    3    3    0  502 -0.53814388182E+03 -0.24150716398E+03  0.18294252533E+03  0.61757115239E+03  0.12699999809E+01 0.  1.
</event>
<event>
 5   0  0.5447074E-04  0.1210271E+04  0.7818609E-02  0.9103914E-01
       -1   -1    0    0    0  501  0.00000000000E+00  0.00000000000E+00  0.68440878236E+03  0.68440878238E+03  0.50400001928E-02 0.  1.
        1   -1    0    0  501    0  0.00000000000E+00  0.00000000000E+00 -0.53504413647E+03  0.53504413649E+03  0.50400001928E-02 0. -1.
    10030    2    1    2    0    0  0.00000000000E+00  0.00000000000E+00  0.14936464589E+03  0.12194529189E+04  0.12102708886E+04 0.  0.
        4    1    3    3  502    0  0.13782954680E+03 -0.57181676287E+02 -0.51621432087E+03  0.53735050576E+03  0.12699999809E+01 0. -1.
       -4    1    3    3    0  502 -0.13782954680E+03  0.57181676287E+02  0.66557896676E+03  0.68210241311E+03  0.12699999809E+01 0.  1.
</event>
<event>
 5   0  0.9145224E-04  0.1200972E+04  0.7818609E-02  0.9112006E-01
        2   -1    0    0  501    0  0.00000000000E+00  0.00000000000E+00  0.53687341683E+03  0.53687341684E+03  0.25500000920E-02 0.  1.
       -2   -1    0    0    0  501  0.00000000000E+00  0.00000000000E+00 -0.67163589233E+03  0.67163589233E+03  0.25500000920E-02 0. -1.
    10030    2    1    2    0    0  0.00000000000E+00  0.00000000000E+00 -0.13476247550E+03  0.12085093092E+04  0.12009720336E+04 0.  0.
        5    1    3    3  502    0  0.17317767339E+03 -0.19165254526E+03 -0.61285351476E+03  0.66508099147E+03  0.46999998093E+01 0. -1.
       -5    1    3    3    0  502 -0.17317767339E+03  0.19165254526E+03  0.47809103926E+03  0.54342831771E+03  0.46999998093E+01 0.  1.
</event>
<event>
 5   0  0.5157631E-04  0.1198084E+04  0.7818609E-02  0.9114536E-01
        1   -1    0    0  501    0  0.00000000000E+00  0.00000000000E+00  0.56101751250E+03  0.56101751252E+03  0.50400001928E-02 0.  1.
       -1   -1    0    0    0  501  0.00000000000E+00  0.00000000000E+00 -0.63964320387E+03  0.63964320389E+03  0.50400001928E-02 0. -1.
    10030    2    1    2    0    0  0.00000000000E+00  0.00000000000E+00 -0.78625691372E+02  0.12006607164E+04  0.11980835349E+04 0.  0.
        5    1    3    3  502    0  0.31879635508E+03  0.13975855086E+03 -0.52787088520E+03  0.63232375410E+03  0.46999998093E+01 0. -1.
       -5    1    3    3    0  502 -0.31879635508E+03 -0.13975855086E+03  0.44924519383E+03  0.56833696231E+03  0.46999998093E+01 0.  1.
</event>
<event>
 5   0  0.5052959E-04  0.1200053E+04  0.7818609E-02  0.9112810E-01
        1   -1    0    0  501    0  0.00000000000E+00  0.00000000000E+00  0.51419579198E+03  0.51419579201E+03  0.50400001928E-02 0. -1.
       -1   -1    0    0    0  501  0.00000000000E+00  0.00000000000E+00 -0.70018419638E+03  0.70018419639E+03  0.50400001928E-02 0.  1.
    10030    2    1    2    0    0  0.00000000000E+00  0.00000000000E+00 -0.18598840439E+03  0.12143799884E+04  0.12000529445E+04 0.  0.
        2    1    3    3  502    0 -0.24552932360E+03 -0.39924775630E+02 -0.64554712714E+03  0.69181625438E+03  0.25500000920E-02 0.  1.
       -2    1    3    3    0  502  0.24552932360E+03  0.39924775630E+02  0.45955872275E+03  0.52256373402E+03  0.25500000920E-02 0. -1.
</event>
<event>
 5   0  0.9145224E-04  0.1197576E+04  0.7818609E-02  0.9114981E-01
        2   -1    0    0  501    0  0.00000000000E+00  0.00000000000E+00  0.18192033626E+04  0.18192033627E+04  0.25500000920E-02 0.  1.
       -2   -1    0    0    0  501  0.00000000000E+00  0.00000000000E+00 -0.19709024792E+03  0.19709024794E+03  0.25500000920E-02 0. -1.
    10030    2    1    2    0    0  0.00000000000E+00  0.00000000000E+00  0.16221131147E+04  0.20162936106E+04  0.11975762887E+04 0.  0.
        5    1    3    3  502    0 -0.12338237573E+03  0.20357994045E+03  0.17360769736E+04  0.17523279804E+04  0.46999998093E+01 0.  1.
       -5    1    3    3    0  502  0.12338237573E+03 -0.20357994045E+03 -0.11396385884E+03  0.26396563018E+03  0.46999998093E+01 0. -1.
</event>
<event>
 5   0  0.9298693E-04  0.1203157E+04  0.7818609E-02  0.9110098E-01
       -2   -1    0    0    0  501  0.00000000000E+00  0.00000000000E+00  0.18417335812E+03  0.18417335814E+03  0.25500000920E-02 0.  1.
        2   -1    0    0  501    0  0.00000000000E+00  0.00000000000E+00 -0.19649770138E+04  0.19649770138E+04  0.25500000920E-02 0. -1.
    10030    2    1    2    0    0  0.00000000000E+00  0.00000000000E+00 -0.17808036556E+04  0.21491503719E+04  0.12031565406E+04 0.  0.
        1    1    3    3  502    0 -0.52507202854E+03 -0.82781635710E+02 -0.38725015220E+03  0.65765957362E+03  0.50400001928E-02 0. -1.
       -1    1    3    3    0  502  0.52507202854E+03  0.82781635710E+02 -0.13935535034E+04  0.14914907983E+04  0.50400001928E-02 0.  1.
</event>
<event>
 5   0  0.5052959E-04  0.1191250E+04  0.7818609E-02  0.9120550E-01
       -1   -1    0    0    0  501  0.00000000000E+00  0.00000000000E+00  0.30506336001E+03  0.30506336005E+03  0.50400001928E-02 0.  1.
        1   -1    0    0  501    0  0.00000000000E+00  0.00000000000E+00 -0.11629361406E+04  0.11629361406E+04  0.50400001928E-02 0. -1.
    10030    2    1    2    0    0  0.00000000000E+00  0.00000000000E+00 -0.85787278054E+03  0.14679995006E+04  0.11912501107E+04 0.  0.
        2    1    3    3  502    0  0.14564579761E+02  0.10924930400E+03 -0.11502603649E+04  0.11555286429E+04  0.25500000920E-02 0. -1.
       -2    1    3    3    0  502 -0.14564579761E+02 -0.10924930400E+03  0.29238758439E+03  0.31247085771E+03  0.25500000920E-02 0.  1.
</event>
<event>
 5   0  0.5157631E-04  0.1187212E+04  0.7818609E-02  0.9124124E-01
       -1   -1    0    0    0  501  0.00000000000E+00  0.00000000000E+00  0.10498298707E+04  0.10498298707E+04  0.50400001928E-02 0. -1.
        1   -1    0    0  501    0  0.00000000000E+00  0.00000000000E+00 -0.33564309720E+03  0.33564309723E+03  0.50400001928E-02 0.  1.
    10030    2    1    2    0    0  0.00000000000E+00  0.00000000000E+00  0.71418677352E+03  0.13854729680E+04  0.11872121114E+04 0.  0.
        5    1    3    3  502    0 -0.30590340829E+03  0.50764831421E+03  0.31905656558E+03  0.67312917642E+03  0.46999998093E+01 0. -1.
       -5    1    3    3    0  502  0.30590340829E+03 -0.50764831421E+03  0.39513020794E+03  0.71234379154E+03  0.46999998093E+01 0.  1.
</event>
<event>
 5   0  0.5003507E-04  0.1202868E+04  0.7818609E-02  0.9110350E-01
        1   -1    0    0  501    0  0.00000000000E+00  0.00000000000E+00  0.16448236369E+04  0.16448236369E+04  0.50400001928E-02 0. -1.
       -1   -1    0    0    0  501  0.00000000000E+00  0.00000000000E+00 -0.21991577394E+03  0.21991577400E+03  0.50400001928E-02 0.  1.
    10030    2    1    2    0    0  0.00000000000E+00  0.00000000000E+00  0.14249078629E+04  0.18647394109E+04  0.12028676788E+04 0.  0.
        3    1    3    3  502    0 -0.18837072407E+03 -0.33452101212E+03  0.14301600606E+04  0.14807922361E+04  0.10100000352E+00 0. -1.
       -3    1    3    3    0  502  0.18837072407E+03  0.33452101212E+03 -0.52521977203E+01  0.38394717478E+03  0.10100000352E+00 0.  1.
</event>
<event>
 5   0  0.5003507E-04  0.1200086E+04  0.7818609E-02  0.9112781E-01
       -1   -1    0    0    0  501  0.00000000000E+00  0.00000000000E+00  0.96466116180E+03  0.96466116181E+03  0.50400001928E-02 0. -1.
        1   -1    0    0  501    0  0.00000000000E+00  0.00000000000E+00 -0.37324159727E+03  0.37324159731E+03  0.50400001928E-02 0.  1.
    10030    2    1    2    0    0  0.00000000000E+00  0.00000000000E+00  0.59141956453E+03  0.13379027591E+04  0.12000861184E+04 0.  0.
        3    1    3    3  502    0 -0.46138720156E+01  0.59704618173E+03  0.22913390185E+03  0.63952152905E+03  0.10100000352E+00 0. -1.
       -3    1    3    3    0  502  0.46138720156E+01 -0.59704618173E+03  0.36228566267E+03  0.69838123007E+03  0.10100000352E+00 0.  1.
</event>
<event>
 5   0  0.5157631E-04  0.1202308E+04  0.7818609E-02  0.9110839E-01
        1   -1    0    0  501    0  0.00000000000E+00  0.00000000000E+00  0.97308926697E+03  0.97308926698E+03  0.50400001928E-02 0. -1.
       -1   -1    0    0    0  501  0.00000000000E+00  0.00000000000E+00 -0.37138020434E+03  0.37138020437E+03  0.50400001928E-02 0.  1.
    10030    2    1    2    0    0  0.00000000000E+00  0.00000000000E+00  0.60170906263E+03  0.13444694714E+04  0.12023079320E+04 0.  0.
        5    1    3    3  502    0  0.33888320918E+03 -0.46557456250E+03  0.10793778729E+03  0.58589603057E+03  0.46999998093E+01 0.  1.
       -5    1    3    3    0  502 -0.33888320918E+03  0.46557456250E+03  0.49377127534E+03  0.75857344078E+03  0.46999998093E+01 0. -1.
</event>
<event>
 5   0  0.5447074E-04  0.1203974E+04  0.7818609E-02  0.9109385E-01
        1   -1    0    0  501    0  0.00000000000E+00  0.00000000000E+00  0.14186640936E+04  0.14186640936E+04  0.50400001928E-02 0.  1.
       -1   -1    0    0    0  501  0.00000000000E+00  0.00000000000E+00 -0.25544347914E+03  0.25544347918E+03  0.50400001928E-02 0. -1.
    10030    2    1    2    0    0  0.00000000000E+00  0.00000000000E+00  0.11632206145E+04  0.16741075728E+04  0.12039742387E+04 0.  0.
        4    1    3    3  502    0  0.41827419174E+03 -0.30899354228E+03  0.10032655931E+04  0.11300326419E+04  0.12699999809E+01 0. -1.
       -4    1    3    3    0  502 -0.41827419174E+03  0.30899354228E+03  0.15995502139E+03  0.54407493088E+03  0.12699999809E+01 0.  1.
</event>
<event>
 5   0  0.5157631E-04  0.1146604E+04  0.7818609E-02  0.9160922E-01
        1   -1    0    0  501    0  0.00000000000E+00  0.00000000000E+00  0.76447591876E+03  0.76447591878E+03  0.50400001928E-02 0.  1.
       -1   -1    0    0    0  501  0.00000000000E+00  0.00000000000E+00 -0.42993551564E+03  0.42993551567E+03  0.50400001928E-02 0. -1.
    10030    2    1    2    0    0  0.00000000000E+00  0.00000000000E+00  0.33454040312E+03  0.11944114344E+04  0.11466042881E+04 0.  0.
        5    1    3    3  502    0 -0.69002487187E+02 -0.25667801760E+03  0.69639393037E+03  0.74540696549E+03  0.46999998093E+01 0.  1.
       -5    1    3    3    0  502  0.69002487187E+02  0.25667801760E+03 -0.36185352724E+03  0.44900446895E+03  0.46999998093E+01 0. -1.
</event>
<event>
 5   0  0.9070772E-04  0.1197628E+04  0.7818609E-02  0.9114935E-01
       -2   -1    0    0    0  501  0.00000000000E+00  0.00000000000E+00  0.33124124115E+03  0.33124124116E+03  0.25500000920E-02 0.  1.
        2   -1    0    0  501    0  0.00000000000E+00  0.00000000000E+00 -0.10825288338E+04  0.10825288338E+04  0.25500000920E-02 0. -1.
    10030    2    1    2    0    0  0.00000000000E+00  0.00000000000E+00 -0.75128759269E+03  0.14137700750E+04  0.11976279798E+04 0.  0.
        4    1    3    3  502    0 -0.33443981519E+03 -0.33424798064E+03  0.58098308953E+02  0.47639136112E+03  0.12699999809E+01 0.  1.
       -4    1    3    3    0  502  0.33443981519E+03  0.33424798064E+03 -0.80938590164E+03  0.93737871387E+03  0.12699999809E+01 0. -1.
</event>
<event>
 5   0  0.5157631E-04  0.1201243E+04  0.7818609E-02  0.9111769E-01
       -1   -1    0    0    0  501  0.00000000000E+00  0.00000000000E+00  0.42545227938E+03  0.42545227941E+03  0.50400001928E-02 0. -1.
        1   -1    0    0  501    0  0.00000000000E+00  0.00000000000E+00 -0.84791214126E+03  0.84791214127E+03  0.50400001928E-02 0.  1.
    10030    2    1    2    0    0  0.00000000000E+00  0.00000000000E+00 -0.42245986188E+03  0.12733644207E+04  0.12012429450E+04 0.  0.
        5    1    3    3  502    0 -0.41508859753E+03  0.42343186577E+03 -0.10993669962E+03  0.60307649322E+03  0.46999998093E+01 0.  1.
       -5    1    3    3    0  502  0.41508859753E+03 -0.42343186577E+03 -0.31252316226E+03  0.67028792746E+03  0.46999998093E+01 0. -1.
</event>
<event>
 5   0  0.9050363E-04  0.1204372E+04  0.7818609E-02  0.9109038E-01
        2   -1    0    0  501    0  0.00000000000E+00  0.00000000000E+00  0.11993663726E+04  0.11993663726E+04  0.25500000920E-02 0. -1.
       -2   -1    0    0    0  501  0.00000000000E+00  0.00000000000E+00 -0.30234970405E+03  0.30234970406E+03  0.25500000920E-02 0.  1.
    10030    2    1    2    0    0  0.00000000000E+00  0.00000000000E+00  0.89701666857E+03  0.15017160767E+04  0.12043721482E+04 0.  0.
        3    1    3    3  502    0 -0.56462160933E+03 -0.14496629849E+03  0.26016948370E+03  0.63835801857E+03  0.10100000352E+00 0.  1.
       -3    1    3    3    0  502  0.56462160933E+03  0.14496629849E+03  0.63684718487E+03  0.86335805811E+03  0.10100000352E+00 0. -1.
</event>
<event>
 5   0  0.9050363E-04  0.1198003E+04  0.7818609E-02  0.9114606E-01
       -2   -1    0    0    0  501  0.00000000000E+00  0.00000000000E+00  0.26963167900E+03  0.26963167901E+03  0.25500000920E-02 0. -1.
        2   -1    0    0  501    0  0.00000000000E+00  0.00000000000E+00 -0.13307142570E+04  0.13307142570E+04  0.25500000920E-02 0.  1.
    10030    2    1    2    0    0  0.00000000000E+00  0.00000000000E+00 -0.10610825780E+04  0.16003459360E+04  0.11980028704E+04 0.  0.
        3    1    3    3  502    0 -0.27591543984E+03 -0.51405510464E+03 -0.71184613612E+03  0.92038411126E+03  0.10100000352E+00 0.  1.
       -3    1    3    3    0  502  0.27591543984E+03  0.51405510464E+03 -0.34923644184E+03  0.67996182471E+03  0.10100000352E+00 0. -1.
</event>
<event>
 5   0  0.3453625E-04  0.1205851E+04  0.7818609E-02  0.9107751E-01
        4   -1    0    0  501    0  0.00000000000E+00  0.00000000000E+00  0.13482276409E+04  0.13482282391E+04  0.12699999809E+01 0. -1.
       -4   -1    0    0    0  501  0.00000000000E+00  0.00000000000E+00 -0.26962505839E+03  0.26962804938E+03  0.12699999809E+01 0.  1.
    10030    2    1    2    0    0  0.00000000000E+00  0.00000000000E+00  0.10786025825E+04  0.16178562884E+04  0.12058505044E+04 0.  0.
        5    1    3    3  502    0 -0.30855972164E+03  0.33337895199E+03  0.10711625218E+04  0.11635127269E+04  0.46999998093E+01 0. -1.
       -5    1    3    3    0  502  0.30855972164E+03 -0.33337895199E+03  0.74400607187E+01  0.45434356158E+03  0.46999998093E+01 0.  1.
</event>
<event>
 5   0  0.9145224E-04  0.1198664E+04  0.7818609E-02  0.9114026E-01
       -2   -1    0    0    0  501  0.00000000000E+00  0.00000000000E+00  0.61666071940E+03  0.61666071940E+03  0.25500000920E-02 0.  1.
        2   -1    0    0  501    0  0.00000000000E+00  0.00000000000E+00 -0.58249067740E+03  0.58249067741E+03  0.25500000920E-02 0. -1.
    10030    2    1    2    0    0  0.00000000000E+00  0.00000000000E+00  0.34170041998E+02  0.11991513968E+04  0.11986644571E+04 0.  0.
        5    1    3    3  502    0  0.36355523179E+03  0.18449159032E+03  0.45654410775E+03  0.61209816679E+03  0.46999998093E+01 0. -1.
       -5    1    3    3    0  502 -0.36355523179E+03 -0.18449159032E+03 -0.42237406576E+03  0.58705323002E+03  0.46999998093E+01 0.  1.
</event>
<event>
 5   0  0.5157631E-04  0.1192479E+04  0.7818609E-02  0.9119465E-01
        1   -1    0    0  501    0  0.00000000000E+00  0.00000000000E+00  0.54177765532E+03  0.54177765534E+03  0.50400001928E-02 0. -1.
       -1   -1    0    0    0  501  0.00000000000E+00  0.00000000000E+00 -0.65617633871E+03  0.65617633873E+03  0.50400001928E-02 0.  1.
    10030    2    1    2    0    0  0.00000000000E+00  0.00000000000E+00 -0.11439868339E+03  0.11979539941E+04  0.11924792297E+04 0.  0.
        5    1    3    3  502    0  0.15681355072E+03  0.51746789722E+03 -0.30958188044E+03  0.62307828163E+03  0.46999998093E+01 0. -1.
       -5    1    3    3    0  502 -0.15681355072E+03 -0.51746789722E+03  0.19518319705E+03  0.57487571244E+03  0.46999998093E+01 0.  1.
</event>
<event>
 5   0  0.5052959E-04  0.1198721E+04  0.7818609E-02  0.9113977E-01
        1   -1    0    0  501    0  0.00000000000E+00  0.00000000000E+00  0.19471390364E+04  0.19471390364E+04  0.50400001928E-02 0.  1.
       -1   -1    0    0    0  501  0.00000000000E+00  0.00000000000E+00 -0.18449258442E+03  0.18449258449E+03  0.50400001928E-02 0. -1.
    10030    2    1    2    0    0  0.00000000000E+00  0.00000000000E+00  0.17626464520E+04  0.21316316209E+04  0.11987205064E+04 0.  0.
        2    1    3    3  502    0 -0.61793201149E+02 -0.55756703945E+03  0.12565870561E+04  0.13761215181E+04  0.25500000920E-02 0.  1.
       -2    1    3    3    0  502  0.61793201149E+02  0.55756703945E+03  0.50605939593E+03  0.75551010278E+03  0.25500000920E-02 0. -1.
</event>
<event>
 5   0  0.9145224E-04  0.1210394E+04  0.7818609E-02  0.9103807E-01
        2   -1    0    0  501    0  0.00000000000E+00  0.00000000000E+00  0.12927825869E+04  0.12927825869E+04  0.25500000920E-02 0.  1.
       -2   -1    0    0    0  501  0.00000000000E+00  0.00000000000E+00 -0.28331404276E+03  0.28331404277E+03  0.25500000920E-02 0. -1.
    10030    2    1    2    0    0  0.00000000000E+00  0.00000000000E+00  0.10094685441E+04  0.15760966296E+04  0.12103940864E+04 0.  0.
        5    1    3    3  502    0 -0.42919616018E+03  0.11109912192E+03 -0.31658488862E+02  0.44449601654E+03  0.46999998093E+01 0. -1.
       -5    1    3    3    0  502  0.42919616018E+03 -0.11109912192E+03  0.10411270330E+04  0.11316006131E+04  0.46999998093E+01 0.  1.
</event>
<event>
 5   0  0.9298693E-04  0.1196629E+04  0.7818609E-02  0.9115812E-01
        2   -1    0    0  501    0  0.00000000000E+00  0.00000000000E+00  0.13616723495E+04  0.13616723495E+04  0.25500000920E-02 0.  1.
       -2   -1    0    0    0  501  0.00000000000E+00  0.00000000000E+00 -0.26289749994E+03  0.26289749995E+03  0.25500000920E-02 0. -1.
    10030    2    1    2    0    0  0.00000000000E+00  0.00000000000E+00  0.10987748496E+04  0.16245698495E+04  0.11966290259E+04 0.  0.
        1    1    3    3  502    0 -0.57016434082E+03  0.16261447828E+03  0.44035920349E+03  0.73854388645E+03  0.50400001928E-02 0. -1.
       -1    1    3    3    0  502  0.57016434082E+03 -0.16261447828E+03  0.65841564609E+03  0.88602596301E+03  0.50400001928E-02 0.  1.
</event>
<event>
 5   0  0.5052959E-04  0.1202581E+04  0.7818609E-02  0.9110600E-01
       -1   -1    0    0    0  501  0.00000000000E+00  0.00000000000E+00  0.86694162671E+03  0.86694162673E+03  0.50400001928E-02 0. -1.
        1   -1    0    0  501    0  0.00000000000E+00  0.00000000000E+00 -0.41704101833E+03  0.41704101836E+03  0.50400001928E-02 0.  1.
    10030    2    1    2    0    0  0.00000000000E+00  0.00000000000E+00  0.44990060839E+03  0.12839826451E+04  0.12025809226E+04 0.  0.
        2    1    3    3  502    0  0.30268784469E+03  0.48323222599E+03  0.21200898768E+02  0.57059862747E+03  0.25500000920E-02 0.  1.
       -2    1    3    3    0  502 -0.30268784469E+03 -0.48323222599E+03  0.42869970962E+03  0.71338401762E+03  0.25500000920E-02 0. -1.
</event>
<event>
 5   0  0.9298693E-04  0.1199355E+04  0.7818609E-02  0.9113421E-01
        2   -1    0    0  501    0  0.00000000000E+00  0.00000000000E+00  0.37438951933E+03  0.37438951934E+03  0.25500000920E-02 0.  1.
       -2   -1    0    0    0  501  0.00000000000E+00  0.00000000000E+00 -0.96053256288E+03  0.96053256288E+03  0.25500000920E-02 0. -1.
    10030    2    1    2    0    0  0.00000000000E+00  0.00000000000E+00 -0.58614304355E+03  0.13349220822E+04  0.11993553677E+04 0.  0.
        1    1    3    3  502    0 -0.76471614389E+02  0.59289939052E+03 -0.34569961735E+03  0.69056920040E+03  0.50400001928E-02 0.  1.
       -1    1    3    3    0  502  0.76471614389E+02 -0.59289939052E+03 -0.24044342619E+03  0.64435288182E+03  0.50400001928E-02 0. -1.
</event>
<event>
 5   0  0.5447074E-04  0.1205595E+04  0.7818609E-02  0.9107973E-01
        1   -1    0    0  501    0  0.00000000000E+00  0.00000000000E+00  0.12412980846E+04  0.12412980846E+04  0.50400001928E-02 0.  1.
       -1   -1    0    0    0  501  0.00000000000E+00  0.00000000000E+00 -0.29272969989E+03  0.29272969994E+03  0.50400001928E-02 0. -1.
    10030    2    1    2    0    0  0.00000000000E+00  0.00000000000E+00  0.94856838471E+03  0.15340277846E+04  0.12055949831E+04 0.  0.
        4    1    3    3  502    0  0.43153803907E+03  0.29840469445E+03  0.85194499102E+03  0.10005410144E+04  0.12699999809E+01 0.  1.
       -4    1    3    3    0  502 -0.43153803907E+03 -0.29840469445E+03  0.96623393685E+02  0.53348677017E+03  0.12699999809E+01 0. -1.
</event>
<event>
 5   0  0.9050363E-04  0.1203201E+04  0.7818609E-02  0.9110060E-01
        2   -1    0    0  501    0  0.00000000000E+00  0.00000000000E+00  0.28475385997E+03  0.28475385998E+03  0.25500000920E-02 0. -1.
       -2   -1    0    0    0  501  0.00000000000E+00  0.00000000000E+00 -0.12710030392E+04  0.12710030392E+04  0.25500000920E-02 0.  1.
    10030    2    1    2    0    0  0.00000000000E+00  0.00000000000E+00 -0.98624917919E+03  0.15557568991E+04  0.12032007670E+04 0.  0.
        3    1    3    3  502    0 -0.57638252363E+03 -0.10716263565E+03 -0.66766903502E+03  0.88852833075E+03  0.10100000352E+00 0.  1.
       -3    1    3    3    0  502  0.57638252363E+03  0.10716263565E+03 -0.31858014417E+03  0.66722856840E+03  0.10100000352E+00 0. -1.
</event>
<event>
 5   0  0.5447074E-04  0.1198138E+04  0.7818609E-02  0.9114488E-01
        1   -1    0    0  501    0  0.00000000000E+00  0.00000000000E+00  0.16863615085E+04  0.16863615085E+04  0.50400001928E-02 0. -1.
       -1   -1    0    0    0  501  0.00000000000E+00  0.00000000000E+00 -0.21281540198E+03  0.21281540204E+03  0.50400001928E-02 0.  1.
    10030    2    1    2    0    0  0.00000000000E+00  0.00000000000E+00  0.14735461065E+04  0.18991769105E+04  0.11981380595E+04 0.  0.
        4    1    3    3  502    0  0.28772599512E+03  0.39511093360E+03  0.18771437236E+03  0.52358112705E+03  0.12699999809E+01 0.  1.
       -4    1    3    3    0  502 -0.28772599512E+03 -0.39511093360E+03  0.12858317341E+04  0.13755957835E+04  0.12699999809E+01 0. -1.
</event>
<event>
 5   0  0.9050363E-04  0.1194632E+04  0.7818609E-02  0.9117568E-01
       -2   -1    0    0    0  501  0.00000000000E+00  0.00000000000E+00  0.26074927898E+03  0.26074927899E+03  0.25500000920E-02 0. -1.
        2   -1    0    0  501    0  0.00000000000E+00  0.00000000000E+00 -0.13683122004E+04  0.13683122004E+04  0.25500000920E-02 0.  1.
    10030    2    1    2    0    0  0.00000000000E+00  0.00000000000E+00 -0.11075629214E+04  0.16290614794E+04  0.11946320265E+04 0.  0.
        3    1    3    3  502    0 -0.51616752790E+03  0.30034212859E+03 -0.53696379672E+03  0.80309678137E+03  0.10100000352E+00 0.  1.
       -3    1    3    3    0  502  0.51616752790E+03 -0.30034212859E+03 -0.57059912469E+03  0.82596469801E+03  0.10100000352E+00 0. -1.
</event>
<event>
 5   0  0.9070772E-04  0.1200827E+04  0.7818609E-02  0.9112133E-01
       -2   -1    0    0    0  501  0.00000000000E+00  0.00000000000E+00  0.30456939494E+03  0.30456939495E+03  0.25500000920E-02 0. -1.
        2   -1    0    0  501    0  0.00000000000E+00  0.00000000000E+00 -0.11836258395E+04  0.11836258395E+04  0.25500000920E-02 0.  1.
    10030    2    1    2    0    0  0.00000000000E+00  0.00000000000E+00 -0.87905644459E+03  0.14881952345E+04  0.12008267249E+04 0.  0.
        4    1    3    3  502    0  0.33487242432E+03 -0.45175505565E+03 -0.70029136443E+03  0.89812681670E+03  0.12699999809E+01 0.  1.
       -4    1    3    3    0  502 -0.33487242432E+03  0.45175505565E+03 -0.17876508016E+03  0.59006841778E+03  0.12699999809E+01 0. -1.
</event>
<event>
 5   0  0.9410666E-04  0.1201177E+04  0.7818609E-02  0.9111827E-01
       -2   -1    0    0    0  501  0.00000000000E+00  0.00000000000E+00  0.44300984083E+03  0.44300984083E+03  0.25500000920E-02 0. -1.
        2   -1    0    0  501    0  0.00000000000E+00  0.00000000000E+00 -0.81421761334E+03  0.81421761335E+03  0.25500000920E-02 0.  1.
    10030    2    1    2    0    0  0.00000000000E+00  0.00000000000E+00 -0.37120777252E+03  0.12572274542E+04  0.12011767818E+04 0.  0.
        2    1    3    3  502    0  0.54448843364E+03 -0.37342195773E+02  0.76781683990E+02  0.55114201523E+03  0.25500000920E-02 0. -1.
       -2    1    3    3    0  502 -0.54448843364E+03  0.37342195773E+02 -0.44798945651E+03  0.70608543895E+03  0.25500000920E-02 0.  1.
</event>
<event>
 5   0  0.9410666E-04  0.1197031E+04  0.7818609E-02  0.9115459E-01
        2   -1    0    0  501    0  0.00000000000E+00  0.00000000000E+00  0.11451200289E+04  0.11451200289E+04  0.25500000920E-02 0. -1.
       -2   -1    0    0    0  501  0.00000000000E+00  0.00000000000E+00 -0.31282398268E+03  0.31282398269E+03  0.25500000920E-02 0.  1.
    10030    2    1    2    0    0  0.00000000000E+00  0.00000000000E+00  0.83229604626E+03  0.14579440116E+04  0.11970313414E+04 0.  0.
        2    1    3    3  502    0  0.56289706577E+03 -0.12289828527E+03  0.61353342935E+03  0.84165335151E+03  0.25500000920E-02 0. -1.
       -2    1    3    3    0  502 -0.56289706577E+03  0.12289828527E+03  0.21876261691E+03  0.61629066011E+03  0.25500000920E-02 0.  1.
</event>
<event>
 5   0  0.5447074E-04  0.1200204E+04  0.7818609E-02  0.9112678E-01
       -1   -1    0    0    0  501  0.00000000000E+00  0.00000000000E+00  0.10187197971E+04  0.10187197971E+04  0.50400001928E-02 0. -1.
        1   -1    0    0  501    0  0.00000000000E+00  0.00000000000E+00 -0.35350467332E+03  0.35350467336E+03  0.50400001928E-02 0.  1.
    10030    2    1    2    0    0  0.00000000000E+00  0.00000000000E+00  0.66521512374E+03  0.13722244704E+04  0.12002036646E+04 0.  0.
        4    1    3    3  502    0  0.48918928977E+03 -0.90891094901E+02  0.71618161294E+03  0.87205794989E+03  0.12699999809E+01 0. -1.
       -4    1    3    3    0  502 -0.48918928977E+03  0.90891094901E+02 -0.50966489199E+02  0.50016652055E+03  0.12699999809E+01 0.  1.
</event>
<event>
 5   0  0.9410666E-04  0.1185497E+04  0.7818609E-02  0.9125646E-01
        2   -1    0    0  501    0  0.00000000000E+00  0.00000000000E+00  0.12184209041E+04  0.12184209041E+04  0.25500000920E-02 0.  1.
       -2   -1    0    0    0  501  0.00000000000E+00  0.00000000000E+00 -0.28836581919E+03  0.28836581920E+03  0.25500000920E-02 0. -1.
    10030    2    1    2    0    0  0.00000000000E+00  0.00000000000E+00  0.93005508496E+03  0.15067867233E+04  0.11854972664E+04 0.  0.
        2    1    3    3  502    0 -0.11221147036E+03  0.26185324174E+03 -0.19564734406E+03  0.34559574293E+03  0.25500000920E-02 0. -1.
       -2    1    3    3    0  502  0.11221147036E+03 -0.26185324174E+03  0.11257024290E+04  0.11611909804E+04  0.25500000920E-02 0.  1.
</event>
<event>
 5   0  0.3453625E-04  0.1202951E+04  0.7818609E-02  0.9110278E-01
       -4   -1    0    0    0  501  0.00000000000E+00  0.00000000000E+00  0.81485974355E+03  0.81486073323E+03  0.12699999809E+01 0. -1.
        4   -1    0    0  501    0  0.00000000000E+00  0.00000000000E+00 -0.44396697093E+03  0.44396878739E+03  0.12699999809E+01 0.  1.
    10030    2    1    2    0    0  0.00000000000E+00  0.00000000000E+00  0.37089277262E+03  0.12588295206E+04  0.12029506695E+04 0.  0.
        2    1    3    3  502    0 -0.31217098923E+03  0.51000097730E+03  0.25343235868E+03  0.64944567425E+03  0.25500000920E-02 0.  1.
       -2    1    3    3    0  502  0.31217098923E+03 -0.51000097730E+03  0.11746041394E+03  0.60938384637E+03  0.25500000920E-02 0. -1.
</event>
<event>
 5   0  0.9145224E-04  0.1199085E+04  0.7818609E-02  0.9113658E-01
        2   -1    0    0  501    0  0.00000000000E+00  0.00000000000E+00  0.90965817992E+03  0.90965817992E+03  0.25500000920E-02 0.  1.
       -2   -1    0    0    0  501  0.00000000000E+00  0.00000000000E+00 -0.39514985929E+03  0.39514985929E+03  0.25500000920E-02 0. -1.
    10030    2    1    2    0    0  0.00000000000E+00  0.00000000000E+00  0.51450832064E+03  0.13048080392E+04  0.11990851543E+04 0.  0.
        5    1    3    3  502    0 -0.43383883113E+02  0.55867613272E+02 -0.39057321910E+03  0.39695450747E+03  0.46999998093E+01 0. -1.
       -5    1    3    3    0  502  0.43383883113E+02 -0.55867613272E+02  0.90508153974E+03  0.90785353174E+03  0.46999998093E+01 0.  1.
</event>
<event>
 5   0  0.9050363E-04  0.1198308E+04  0.7818609E-02  0.9114339E-01
        2   -1    0    0  501    0  0.00000000000E+00  0.00000000000E+00  0.14941715260E+04  0.14941715260E+04  0.25500000920E-02 0.  1.
       -2   -1    0    0    0  501  0.00000000000E+00  0.00000000000E+00 -0.24025714451E+03  0.24025714452E+03  0.25500000920E-02 0. -1.
    10030    2    1    2    0    0  0.00000000000E+00  0.00000000000E+00  0.12539143815E+04  0.17344286705E+04  0.11983077806E+04 0.  0.
        3    1    3    3  502    0  0.29668162162E+03  0.51309800851E+03  0.75393142527E+03  0.95901102974E+03  0.10100000352E+00 0.  1.
       -3    1    3    3    0  502 -0.29668162162E+03 -0.51309800851E+03  0.49998295623E+03  0.77541764080E+03  0.10100000352E+00 0. -1.
</event>
<event>
 5   0  0.5157631E-04  0.1215404E+04  0.7818609E-02  0.9099480E-01
       -1   -1    0    0    0  501  0.00000000000E+00  0.00000000000E+00  0.20607805316E+03  0.20607805322E+03  0.50400001928E-02 0.  1.
        1   -1    0    0  501    0  0.00000000000E+00  0.00000000000E+00 -0.17920467823E+04  0.17920467823E+04  0.50400001928E-02 0. -1.
    10030    2    1    2    0    0  0.00000000000E+00  0.00000000000E+00 -0.15859687291E+04  0.19981248355E+04  0.12154036566E+04 0.  0.
        5    1    3    3  502    0  0.20971624942E+03 -0.42900842824E+03 -0.14108538483E+04  0.14894830674E+04  0.46999998093E+01 0. -1.
       -5    1    3    3    0  502 -0.20971624942E+03  0.42900842824E+03 -0.17511488079E+03  0.50864176809E+03  0.46999998093E+01 0.  1.
</event>
<event>
 5   0  0.5001586E-04  0.1196872E+04  0.7818609E-02  0.9115599E-01
        1   -1    0    0  501    0  0.00000000000E+00  0.00000000000E+00  0.59168551363E+03  0.59168551365E+03  0.50400001928E-02 0. -1.
       -1   -1    0    0    0  501  0.00000000000E+00  0.00000000000E+00 -0.60526330870E+03  0.60526330872E+03  0.50400001928E-02 0.  1.
    10030    2    1    2    0    0  0.00000000000E+00  0.00000000000E+00 -0.13577795066E+02  0.11969488224E+04  0.11968718089E+04 0.  0.
        1    1    3    3  502    0 -0.49618929547E+01 -0.52169772707E+03  0.28637223901E+03  0.59514888736E+03  0.50400001928E-02 0. -1.
       -1    1    3    3    0  502  0.49618929547E+01  0.52169772707E+03 -0.29995003408E+03  0.60179993502E+03  0.50400001928E-02 0.  1.
</event>
<event>
 5   0  0.9050363E-04  0.1197343E+04  0.7818609E-02  0.9115185E-01
        2   -1    0    0  501    0  0.00000000000E+00  0.00000000000E+00  0.52908016669E+03  0.52908016670E+03  0.25500000920E-02 0. -1.
       -2   -1    0    0    0  501  0.00000000000E+00  0.00000000000E+00 -0.67741625777E+03  0.67741625778E+03  0.25500000920E-02 0.  1.
    10030    2    1    2    0    0  0.00000000000E+00  0.00000000000E+00 -0.14833609108E+03  0.12064964245E+04  0.11973429026E+04 0.  0.
        3    1    3    3  502    0 -0.38182879112E+03 -0.24922541849E+03  0.31674227106E+03  0.55518664558E+03  0.10100000352E+00 0. -1.
       -3    1    3    3    0  502  0.38182879112E+03  0.24922541849E+03 -0.46507836215E+03  0.65130977890E+03  0.10100000352E+00 0.  1.
</event>
<event>
 5   0  0.5052959E-04  0.1198413E+04  0.7818609E-02  0.9114247E-01
        1   -1    0    0  501    0  0.00000000000E+00  0.00000000000E+00  0.85539311482E+03  0.85539311483E+03  0.50400001928E-02 0. -1.
       -1   -1    0    0    0  501  0.00000000000E+00  0.00000000000E+00 -0.41974637251E+03  0.41974637254E+03  0.50400001928E-02 0.  1.
    10030    2    1    2    0    0  0.00000000000E+00  0.00000000000E+00  0.43564674231E+03  0.12751394874E+04  0.11984125451E+04 0.  0.
        2    1    3    3  502    0 -0.41543751624E+02  0.27622081259E+03  0.78188078738E+03  0.83027789702E+03  0.25500000920E-02 0. -1.
       -2    1    3    3    0  502  0.41543751624E+02 -0.27622081259E+03 -0.34623404506E+03  0.44486159035E+03  0.25500000920E-02 0.  1.
</event>
<event>
 5   0  0.9070772E-04  0.1200197E+04  0.7818609E-02  0.9112684E-01
        2   -1    0    0  501    0  0.00000000000E+00  0.00000000000E+00  0.15543528728E+04  0.15543528728E+04  0.25500000920E-02 0. -1.
       -2   -1    0    0    0  501  0.00000000000E+00  0.00000000000E+00 -0.23168387390E+03  0.23168387391E+03  0.25500000920E-02 0.  1.
    10030    2    1    2    0    0  0.00000000000E+00  0.00000000000E+00  0.13226689989E+04  0.17860367468E+04  0.12001974754E+04 0.  0.
        4    1    3    3  502    0 -0.60004377030E+02 -0.30269543349E+03 -0.10456531457E+03  0.32582290992E+03  0.12699999809E+01 0.  1.
       -4    1    3    3    0  502  0.60004377030E+02  0.30269543349E+03  0.14272343135E+04  0.14602138368E+04  0.12699999809E+01 0. -1.
</event>
<event>
 5   0  0.3453625E-04  0.1199955E+04  0.7818609E-02  0.9112896E-01
        3   -1    0    0  501    0  0.00000000000E+00  0.00000000000E+00  0.88661666103E+03  0.88661666679E+03  0.10100000352E+00 0.  1.
       -3   -1    0    0    0  501  0.00000000000E+00  0.00000000000E+00 -0.40600721350E+03  0.40600722606E+03  0.10100000352E+00 0. -1.
    10030    2    1    2    0    0  0.00000000000E+00  0.00000000000E+00  0.48060944753E+03  0.12926238928E+04  0.11999546188E+04 0.  0.
        5    1    3    3  502    0  0.57277638137E+02  0.14463044154E+02 -0.40284669276E+03  0.40718233673E+03  0.46999998093E+01 0. -1.
       -5    1    3    3    0  502 -0.57277638137E+02 -0.14463044154E+02  0.88345614030E+03  0.88544155612E+03  0.46999998093E+01 0.  1.
</event>
<event>
 5   0  0.5447074E-04  0.1196997E+04  0.7818609E-02  0.9115489E-01
       -1   -1    0    0    0  501  0.00000000000E+00  0.00000000000E+00  0.34458860346E+03  0.34458860350E+03  0.50400001928E-02 0. -1.
        1   -1    0    0  501    0  0.00000000000E+00  0.00000000000E+00 -0.10395017555E+04  0.10395017555E+04  0.50400001928E-02 0.  1.
    10030    2    1    2    0    0  0.00000000000E+00  0.00000000000E+00 -0.69491315201E+03  0.13840903590E+04  0.11969970063E+04 0.  0.
        4    1    3    3  502    0  0.62574349558E+02 -0.33905412086E+03  0.21821708411E+03  0.40803621750E+03  0.12699999809E+01 0. -1.
       -4    1    3    3    0  502 -0.62574349558E+02  0.33905412086E+03 -0.91313023612E+03  0.97605414148E+03  0.12699999809E+01 0.  1.
</event>
<event>
 5   0  0.9070772E-04  0.1178526E+04  0.7818609E-02  0.9131863E-01
        2   -1    0    0  501    0  0.00000000000E+00  0.00000000000E+00  0.11982802370E+04  0.11982802370E+04  0.25500000920E-02 0. -1.
       -2   -1    0    0    0  501  0.00000000000E+00  0.00000000000E+00 -0.28977446233E+03  0.28977446235E+03  0.25500000920E-02 0.  1.
    10030    2    1    2    0    0  0.00000000000E+00  0.00000000000E+00  0.90850577470E+03  0.14880546994E+04  0.11785262176E+04 0.  0.
        4    1    3    3  502    0 -0.47637643098E+03  0.21054188885E+03  0.80226323479E+03  0.95649898157E+03  0.12699999809E+01 0. -1.
       -4    1    3    3    0  502  0.47637643098E+03 -0.21054188885E+03  0.10624253991E+03  0.53155571781E+03  0.12699999809E+01 0.  1.
</event>
<event>
 5   0  0.9298693E-04  0.1204738E+04  0.7818609E-02  0.9108719E-01
       -2   -1    0    0    0  501  0.00000000000E+00  0.00000000000E+00  0.13300506081E+03  0.13300506083E+03  0.25500000920E-02 0.  1.
        2   -1    0    0  501    0  0.00000000000E+00  0.00000000000E+00 -0.27280813026E+04  0.27280813026E+04  0.25500000920E-02 0. -1.
    10030    2    1    2    0    0  0.00000000000E+00  0.00000000000E+00 -0.25950762418E+04  0.28610863634E+04  0.12047383443E+04 0.  0.
        1    1    3    3  502    0 -0.43876157669E+03  0.55738949457E+02 -0.22687084761E+04  0.23114187637E+04  0.50400001928E-02 0. -1.
       -1    1    3    3    0  502  0.43876157669E+03 -0.55738949457E+02 -0.32636776565E+03  0.54966759969E+03  0.50400001928E-02 0.  1.
</event>
<event>
 5   0  0.9410666E-04  0.1228367E+04  0.7818609E-02  0.9088383E-01
        2   -1    0    0  501    0  0.00000000000E+00  0.00000000000E+00  0.46720247562E+03  0.46720247562E+03  0.25500000920E-02 0.  1.
       -2   -1    0    0    0  501  0.00000000000E+00  0.00000000000E+00 -0.80740467904E+03  0.80740467904E+03  0.25500000920E-02 0. -1.
    10030    2    1    2    0    0  0.00000000000E+00  0.00000000000E+00 -0.34020220342E+03  0.12746071547E+04  0.12283671518E+04 0.  0.
        2    1    3    3  502    0  0.28664260064E+03 -0.40293942858E+03  0.20788793436E+03  0.53641547038E+03  0.25500000920E-02 0.  1.
       -2    1    3    3    0  502 -0.28664260064E+03  0.40293942858E+03 -0.54809013778E+03  0.73819168428E+03  0.25500000920E-02 0. -1.
</event>
<event>
 5   0  0.5003507E-04  0.1202799E+04  0.7818609E-02  0.9110410E-01
        1   -1    0    0  501    0  0.00000000000E+00  0.00000000000E+00  0.33217497109E+03  0.33217497113E+03  0.50400001928E-02 0. -1.
       -1   -1    0    0    0  501  0.00000000000E+00  0.00000000000E+00 -0.10888284733E+04  0.10888284733E+04  0.50400001928E-02 0.  1.
    10030    2    1    2    0    0  0.00000000000E+00  0.00000000000E+00 -0.75665350217E+03  0.14210034444E+04  0.12027993460E+04 0.  0.
        3    1    3    3  502    0 -0.28770810400E+03 -0.51277791225E+03 -0.52759879047E+03  0.78998584437E+03  0.10100000352E+00 0.  1.
       -3    1    3    3    0  502  0.28770810400E+03  0.51277791225E+03 -0.22905471170E+03  0.63101760003E+03  0.10100000352E+00 0. -1.
</event>
<event>
 5   0  0.3453625E-04  0.1203513E+04  0.7818609E-02  0.9109787E-01
       -3   -1    0    0    0  501  0.00000000000E+00  0.00000000000E+00  0.10019142397E+04  0.10019142448E+04  0.10100000352E+00 0. -1.
        3   -1    0    0  501    0  0.00000000000E+00  0.00000000000E+00 -0.36141895772E+03  0.36141897183E+03  0.10100000352E+00 0.  1.
    10030    2    1    2    0    0  0.00000000000E+00  0.00000000000E+00  0.64049528202E+03  0.13633332167E+04  0.12035128804E+04 0.  0.
        3    1    3    3  502    0 -0.29188729548E+02  0.30466320480E+03 -0.26666599976E+03  0.40593400439E+03  0.10100000352E+00 0.  1.
       -3    1    3    3    0  502  0.29188729548E+02 -0.30466320480E+03  0.90716128178E+03  0.95739921227E+03  0.10100000352E+00 0. -1.
</event>
<event>
 5   0  0.5001586E-04  0.1195980E+04  0.7818609E-02  0.9116383E-01
        1   -1    0    0  501    0  0.00000000000E+00  0.00000000000E+00  0.95709450761E+03  0.95709450762E+03  0.50400001928E-02 0. -1.
       -1   -1    0    0    0  501  0.00000000000E+00  0.00000000000E+00 -0.37362249776E+03  0.37362249779E+03  0.50400001928E-02 0.  1.
    10030    2    1    2    0    0  0.00000000000E+00  0.00000000000E+00  0.58347200985E+03  0.13307170054E+04  0.11959800008E+04 0.  0.
        1    1    3    3  502    0 -0.11453932251E+03 -0.56354833724E+02 -0.35828586984E+03  0.38034706288E+03  0.50400001928E-02 0.  1.
       -1    1    3    3    0  502  0.11453932251E+03  0.56354833724E+02  0.94175787969E+03  0.95036994253E+03  0.50400001928E-02 0. -1.
</event>
<event>
 5   0  0.5052959E-04  0.1201045E+04  0.7818609E-02  0.9111942E-01
       -1   -1    0    0    0  501  0.00000000000E+00  0.00000000000E+00  0.64196661908E+03  0.64196661910E+03  0.50400001928E-02 0. -1.
        1   -1    0    0  501    0  0.00000000000E+00  0.00000000000E+00 -0.56175435826E+03  0.56175435829E+03  0.50400001928E-02 0.  1.
    10030    2    1    2    0    0  0.00000000000E+00  0.00000000000E+00  0.80212260812E+02  0.12037209774E+04  0.12010454548E+04 0.  0.
        2    1    3    3  502    0 -0.38468756197E+03 -0.12567194985E+03 -0.40455957788E+03  0.57222933460E+03  0.25500000920E-02 0.  1.
       -2    1    3    3    0  502  0.38468756197E+03  0.12567194985E+03  0.48477183869E+03  0.63149164278E+03  0.25500000920E-02 0. -1.
</event>
<event>
 5   0  0.9410666E-04  0.1202040E+04  0.7818609E-02  0.9111073E-01
        2   -1    0    0  501    0  0.00000000000E+00  0.00000000000E+00  0.12116323181E+04  0.12116323181E+04  0.25500000920E-02 0.  1.
       -2   -1    0    0    0  501  0.00000000000E+00  0.00000000000E+00 -0.29813091794E+03  0.29813091795E+03  0.25500000920E-02 0. -1.
    10030    2    1    2    0    0  0.00000000000E+00  0.00000000000E+00  0.91350140019E+03  0.15097632361E+04  0.12020400246E+04 0.  0.
        2    1    3    3  502    0  0.34717986936E+03 -0.13387322688E+03  0.10495633242E+04  0.11135704172E+04  0.25500000920E-02 0.  1.
       -2    1    3    3    0  502 -0.34717986936E+03  0.13387322688E+03 -0.13606192400E+03  0.39619281888E+03  0.25500000920E-02 0. -1.
</event>
<event>
 5   0  0.9145224E-04  0.1201015E+04  0.7818609E-02  0.9111968E-01
       -2   -1    0    0    0  501  0.00000000000E+00  0.00000000000E+00  0.25897315529E+03  0.25897315530E+03  0.25500000920E-02 0. -1.
        2   -1    0    0  501    0  0.00000000000E+00  0.00000000000E+00 -0.13924585662E+04  0.13924585662E+04  0.25500000920E-02 0.  1.
    10030    2    1    2    0    0  0.00000000000E+00  0.00000000000E+00 -0.11334854109E+04  0.16514317215E+04  0.12010152181E+04 0.  0.
        5    1    3    3  502    0 -0.50189374505E+03  0.18898113687E+03 -0.19529093860E+03  0.57076426142E+03  0.46999998093E+01 0. -1.
       -5    1    3    3    0  502  0.50189374505E+03 -0.18898113687E+03 -0.93819447234E+03  0.10806674601E+04  0.46999998093E+01 0.  1.
</event>
<event>
 5   0  0.5001586E-04  0.1201507E+04  0.7818609E-02  0.9111539E-01
       -1   -1    0    0    0  501  0.00000000000E+00  0.00000000000E+00  0.56165281207E+03  0.56165281209E+03  0.50400001928E-02 0. -1.
        1   -1    0    0  501    0  0.00000000000E+00  0.00000000000E+00 -0.64257590232E+03  0.64257590234E+03  0.50400001928E-02 0.  1.
    10030    2    1    2    0    0  0.00000000000E+00  0.00000000000E+00 -0.80923090255E+02  0.12042287144E+04  0.12015066584E+04 0.  0.
        1    1    3    3  502    0 -0.51444121183E+03 -0.27640523255E+03  0.10076527808E+03  0.59262404128E+03  0.50400001928E-02 0.  1.
       -1    1    3    3    0  502  0.51444121183E+03  0.27640523255E+03 -0.18168836834E+03  0.61160467315E+03  0.50400001928E-02 0. -1.
</event>
<event>
 5   0  0.9298693E-04  0.1196993E+04  0.7818609E-02  0.9115492E-01
       -2   -1    0    0    0  501  0.00000000000E+00  0.00000000000E+00  0.23107190016E+03  0.23107190017E+03  0.25500000920E-02 0.  1.
        2   -1    0    0  501    0  0.00000000000E+00  0.00000000000E+00 -0.15501594689E+04  0.15501594689E+04  0.25500000920E-02 0. -1.
    10030    2    1    2    0    0  0.00000000000E+00  0.00000000000E+00 -0.13190875688E+04  0.17812313691E+04  0.11969933902E+04 0.  0.
        1    1    3    3  502    0  0.97380041099E+02 -0.31854377001E+03  0.80389552748E+02  0.34265943155E+03  0.50400001928E-02 0.  1.
       -1    1    3    3    0  502 -0.97380041099E+02  0.31854377001E+03 -0.13994771215E+04  0.14385719376E+04  0.50400001928E-02 0. -1.
</event>
<event>
 5   0  0.5001586E-04  0.1195303E+04  0.7818609E-02  0.9116978E-01
       -1   -1    0    0    0  501  0.00000000000E+00  0.00000000000E+00  0.34960849733E+03  0.34960849737E+03  0.50400001928E-02 0. -1.
        1   -1    0    0  501    0  0.00000000000E+00  0.00000000000E+00 -0.10216772480E+04  0.10216772480E+04  0.50400001928E-02 0.  1.
    10030    2    1    2    0    0  0.00000000000E+00  0.00000000000E+00 -0.67206875065E+03  0.13712857454E+04  0.11953025516E+04 0.  0.
        1    1    3    3  502    0 -0.43933003229E+03  0.13161971852E+03  0.10359901370E+03  0.47017803356E+03  0.50400001928E-02 0. -1.
       -1    1    3    3    0  502  0.43933003229E+03 -0.13161971852E+03 -0.77566776435E+03  0.90110771180E+03  0.50400001928E-02 0.  1.
</event>
<event>
 5   0  0.9145224E-04  0.1198255E+04  0.7818609E-02  0.9114385E-01
        2   -1    0    0  501    0  0.00000000000E+00  0.00000000000E+00  0.10226399036E+04  0.10226399036E+04  0.25500000920E-02 0. -1.
       -2   -1    0    0    0  501  0.00000000000E+00  0.00000000000E+00 -0.35100726467E+03  0.35100726468E+03  0.25500000920E-02 0.  1.
    10030    2    1    2    0    0  0.00000000000E+00  0.00000000000E+00  0.67163263896E+03  0.13736471683E+04  0.11982554574E+04 0.  0.
        5    1    3    3  502    0  0.21907691414E+03  0.29131259898E+03  0.88088509095E+03  0.95333014118E+03  0.46999998093E+01 0. -1.
       -5    1    3    3    0  502 -0.21907691414E+03 -0.29131259898E+03 -0.20925245199E+03  0.42031702712E+03  0.46999998093E+01 0.  1.
</event>
<event>
 5   0  0.9298693E-04  0.1212331E+04  0.7818609E-02  0.9102131E-01
        2   -1    0    0  501    0  0.00000000000E+00  0.00000000000E+00  0.14764146700E+04  0.14764146700E+04  0.25500000920E-02 0. -1.
       -2   -1    0    0    0  501  0.00000000000E+00  0.00000000000E+00 -0.24887090691E+03  0.24887090692E+03  0.25500000920E-02 0.  1.
    10030    2    1    2    0    0  0.00000000000E+00  0.00000000000E+00  0.12275437631E+04  0.17252855769E+04  0.12123310734E+04 0.  0.
        1    1    3    3  502    0 -0.17403483054E+03  0.50073842955E+03  0.10321034644E+04  0.11602864553E+04  0.50400001928E-02 0. -1.
       -1    1    3    3    0  502  0.17403483054E+03 -0.50073842955E+03  0.19544029869E+03  0.56499912163E+03  0.50400001928E-02 0.  1.
</event>
<event>
 5   0  0.9145224E-04  0.1198678E+04  0.7818609E-02  0.9114014E-01
        2   -1    0    0  501    0  0.00000000000E+00  0.00000000000E+00  0.60943185028E+03  0.60943185029E+03  0.25500000920E-02 0.  1.
       -2   -1    0    0    0  501  0.00000000000E+00  0.00000000000E+00 -0.58941328617E+03  0.58941328617E+03  0.25500000920E-02 0. -1.
    10030    2    1    2    0    0  0.00000000000E+00  0.00000000000E+00  0.20018564115E+02  0.11988451365E+04  0.11986779877E+04 0.  0.
        5    1    3    3  502    0 -0.28984112062E+02 -0.57364532849E+03 -0.16111717195E+03  0.59656506330E+03  0.46999998093E+01 0.  1.
       -5    1    3    3    0  502  0.28984112062E+02  0.57364532849E+03  0.18113573606E+03  0.60228007316E+03  0.46999998093E+01 0. -1.
</event>
<event>
 5   0  0.9145224E-04  0.1199730E+04  0.7818609E-02  0.9113093E-01
        2   -1    0    0  501    0  0.00000000000E+00  0.00000000000E+00  0.76384829984E+03  0.76384829984E+03  0.25500000920E-02 0. -1.
       -2   -1    0    0    0  501  0.00000000000E+00  0.00000000000E+00 -0.47108578692E+03  0.47108578693E+03  0.25500000920E-02 0.  1.
    10030    2    1    2    0    0  0.00000000000E+00  0.00000000000E+00  0.29276251292E+03  0.12349340868E+04  0.11997300987E+04 0.  0.
        5    1    3    3  502    0  0.48029217743E+03  0.26964421217E+03  0.39089613134E+03  0.67543352919E+03  0.46999998093E+01 0. -1.
       -5    1    3    3    0  502 -0.48029217743E+03 -0.26964421217E+03 -0.98133618426E+02  0.55950055757E+03  0.46999998093E+01 0.  1.
</event>
<event>
 5   0  0.3453625E-04  0.1201960E+04  0.7818609E-02  0.9111142E-01
       -4   -1    0    0    0  501  0.00000000000E+00  0.00000000000E+00  0.12749366113E+04  0.12749372438E+04  0.12699999809E+01 0. -1.
        4   -1    0    0  501    0  0.00000000000E+00  0.00000000000E+00 -0.28328819203E+03  0.28329103876E+03  0.12699999809E+01 0.  1.
    10030    2    1    2    0    0  0.00000000000E+00  0.00000000000E+00  0.99164841924E+03  0.15582282826E+04  0.12019603959E+04 0.  0.
        5    1    3    3  502    0  0.23591202095E+02  0.55291965164E+03  0.79952207083E+03  0.97238588931E+03  0.46999998093E+01 0.  1.
       -5    1    3    3    0  502 -0.23591202095E+02 -0.55291965164E+03  0.19212634841E+03  0.58584239326E+03  0.46999998093E+01 0. -1.
</event>
<event>
 5   0  0.9050363E-04  0.1199119E+04  0.7818609E-02  0.9113628E-01
        2   -1    0    0  501    0  0.00000000000E+00  0.00000000000E+00  0.86417224631E+03  0.86417224631E+03  0.25500000920E-02 0. -1.
       -2   -1    0    0    0  501  0.00000000000E+00  0.00000000000E+00 -0.41597196788E+03  0.41597196789E+03  0.25500000920E-02 0.  1.
    10030    2    1    2    0    0  0.00000000000E+00  0.00000000000E+00  0.44820027843E+03  0.12801442142E+04  0.11991187262E+04 0.  0.
        3    1    3    3  502    0  0.46688522385E+03  0.18142370297E+03  0.57587251050E+03  0.76323360172E+03  0.10100000352E+00 0. -1.
       -3    1    3    3    0  502 -0.46688522385E+03 -0.18142370297E+03 -0.12767223206E+03  0.51691061248E+03  0.10100000352E+00 0.  1.
</event>
<event>
 5   0  0.5052959E-04  0.1187678E+04  0.7818609E-02  0.9123711E-01
        1   -1    0    0  501    0  0.00000000000E+00  0.00000000000E+00  0.39799962897E+03  0.39799962900E+03  0.50400001928E-02 0. -1.
       -1   -1    0    0    0  501  0.00000000000E+00  0.00000000000E+00 -0.88604308518E+03  0.88604308519E+03  0.50400001928E-02 0.  1.
    10030    2    1    2    0    0  0.00000000000E+00  0.00000000000E+00 -0.48804345621E+03  0.12840427142E+04  0.11876781032E+04 0.  0.
        2    1    3    3  502    0 -0.43088378835E+03  0.40110375523E+03 -0.15958390822E+03  0.60992793451E+03  0.25500000920E-02 0. -1.
       -2    1    3    3    0  502  0.43088378835E+03 -0.40110375523E+03 -0.32845954799E+03  0.67411477969E+03  0.25500000920E-02 0.  1.
</event>
<event>
 5   0  0.9070772E-04  0.1193232E+04  0.7818609E-02  0.9118801E-01
       -2   -1    0    0    0  501  0.00000000000E+00  0.00000000000E+00  0.20612681514E+03  0.20612681515E+03  0.25500000920E-02 0.  1.
        2   -1    0    0  501    0  0.00000000000E+00  0.00000000000E+00 -0.17268523538E+04  0.17268523538E+04  0.25500000920E-02 0. -1.
    10030    2    1    2    0    0  0.00000000000E+00  0.00000000000E+00 -0.15207255387E+04  0.19329791690E+04  0.11932318734E+04 0.  0.
        4    1    3    3  502    0  0.34537611519E+03 -0.48427155113E+03 -0.68532963116E+03  0.90745904173E+03  0.12699999809E+01 0. -1.
       -4    1    3    3    0  502 -0.34537611519E+03  0.48427155113E+03 -0.83539590752E+03  0.10255201272E+04  0.12699999809E+01 0.  1.
</event>
<event>
 5   0  0.5003507E-04  0.1200730E+04  0.7818609E-02  0.9112218E-01
       -1   -1    0    0    0  501  0.00000000000E+00  0.00000000000E+00  0.74565828281E+03  0.74565828282E+03  0.50400001928E-02 0.  1.
        1   -1    0    0  501    0  0.00000000000E+00  0.00000000000E+00 -0.48338247876E+03  0.48338247879E+03  0.50400001928E-02 0. -1.
    10030    2    1    2    0    0  0.00000000000E+00  0.00000000000E+00  0.26227580404E+03  0.12290407616E+04  0.12007300264E+04 0.  0.
        3    1    3    3  502    0  0.56836351026E+03  0.81543722463E+02  0.31063413635E+03  0.65282465895E+03  0.10100000352E+00 0.  1.
       -3    1    3    3    0  502 -0.56836351026E+03 -0.81543722463E+02 -0.48358332304E+02  0.57621610267E+03  0.10100000352E+00 0. -1.
</event>
<event>
 5   0  0.9050363E-04  0.1197812E+04  0.7818609E-02  0.9114774E-01
        2   -1    0    0  501    0  0.00000000000E+00  0.00000000000E+00  0.12516993852E+04  0.12516993852E+04  0.25500000920E-02 0.  1.
       -2   -1    0    0    0  501  0.00000000000E+00  0.00000000000E+00 -0.28656100158E+03  0.28656100159E+03  0.25500000920E-02 0. -1.
    10030    2    1    2    0    0  0.00000000000E+00  0.00000000000E+00  0.96513838358E+03  0.15382603868E+04  0.11978117206E+04 0.  0.
        3    1    3    3  502    0  0.54320170708E+03 -0.18746777860E+03  0.26585843940E+03  0.63316110318E+03  0.10100000352E+00 0. -1.
       -3    1    3    3    0  502 -0.54320170708E+03  0.18746777860E+03  0.69927994418E+03  0.90509928357E+03  0.10100000352E+00 0.  1.
</event>
<event>
 5   0  0.5447074E-04  0.1196749E+04  0.7818609E-02  0.9115707E-01
       -1   -1    0    0    0  501  0.00000000000E+00  0.00000000000E+00  0.37333146298E+03  0.37333146301E+03  0.50400001928E-02 0. -1.
        1   -1    0    0  501    0  0.00000000000E+00  0.00000000000E+00 -0.95907273397E+03  0.95907273398E+03  0.50400001928E-02 0.  1.
    10030    2    1    2    0    0  0.00000000000E+00  0.00000000000E+00 -0.58574127099E+03  0.13324041970E+04  0.11967489744E+04 0.  0.
        4    1    3    3  502    0  0.47630427207E+03 -0.31393684403E+03 -0.91762224832E+02  0.57779236793E+03  0.12699999809E+01 0. -1.
       -4    1    3    3    0  502 -0.47630427207E+03  0.31393684403E+03 -0.49397904616E+03  0.75461182907E+03  0.12699999809E+01 0.  1.
</event>
<event>
 5   0  0.9298693E-04  0.1202431E+04  0.7818609E-02  0.9110732E-01
        2   -1    0    0  501    0  0.00000000000E+00  0.00000000000E+00  0.15735218990E+04  0.15735218990E+04  0.25500000920E-02 0.  1.
       -2   -1    0    0    0  501  0.00000000000E+00  0.00000000000E+00 -0.22971388304E+03  0.22971388305E+03  0.25500000920E-02 0. -1.
    10030    2    1    2    0    0  0.00000000000E+00  0.00000000000E+00  0.13438080159E+04  0.18032357820E+04  0.12024305809E+04 0.  0.
        1    1    3    3  502    0  0.11072214970E+03 -0.55076865710E+03  0.35077272092E+03  0.66230431815E+03  0.50400001928E-02 0. -1.
       -1    1    3    3    0  502 -0.11072214970E+03  0.55076865710E+03  0.99303529500E+03  0.11409314639E+04  0.50400001928E-02 0.  1.
</event>
<event>
 5   0  0.5157631E-04  0.1198344E+04  0.7818609E-02  0.9114307E-01
        1   -1    0    0  501    0  0.00000000000E+00  0.00000000000E+00  0.64709152168E+03  0.64709152170E+03  0.50400001928E-02 0. -1.
       -1   -1    0    0    0  501  0.00000000000E+00  0.00000000000E+00 -0.55480089791E+03  0.55480089793E+03  0.50400001928E-02 0.  1.
    10030    2    1    2    0    0  0.00000000000E+00  0.00000000000E+00  0.92290623776E+02  0.12018924196E+04  0.11983437859E+04 0.  0.
        5    1    3    3  502    0  0.15304644612E+03 -0.36250079780E+03 -0.40702765118E+03  0.56614807418E+03  0.46999998093E+01 0.  1.
       -5    1    3    3    0  502 -0.15304644612E+03  0.36250079780E+03  0.49931827496E+03  0.63574434545E+03  0.46999998093E+01 0. -1.
</event>
<event>
 5   0  0.5447074E-04  0.1221579E+04  0.7818609E-02  0.9094175E-01
       -1   -1    0    0    0  501  0.00000000000E+00  0.00000000000E+00  0.29926904626E+03  0.29926904630E+03  0.50400001928E-02 0.  1.
        1   -1    0    0  501    0  0.00000000000E+00  0.00000000000E+00 -0.12465839500E+04  0.12465839500E+04  0.50400001928E-02 0. -1.
    10030    2    1    2    0    0  0.00000000000E+00  0.00000000000E+00 -0.94731490375E+03  0.15458529963E+04  0.12215792890E+04 0.  0.
        4    1    3    3  502    0  0.14527692616E+03  0.11224487218E+03 -0.12108409897E+04  0.12246802897E+04  0.12699999809E+01 0. -1.
       -4    1    3    3    0  502 -0.14527692616E+03 -0.11224487218E+03  0.26352608598E+03  0.32117270665E+03  0.12699999809E+01 0.  1.
</event>
<event>
 5   0  0.9050363E-04  0.1195397E+04  0.7818609E-02  0.9116895E-01
       -2   -1    0    0    0  501  0.00000000000E+00  0.00000000000E+00  0.45482409991E+03  0.45482409992E+03  0.25500000920E-02 0. -1.
        2   -1    0    0  501    0  0.00000000000E+00  0.00000000000E+00 -0.78545457291E+03  0.78545457291E+03  0.25500000920E-02 0.  1.
    10030    2    1    2    0    0  0.00000000000E+00  0.00000000000E+00 -0.33063047299E+03  0.12402786728E+04  0.11953972882E+04 0.  0.
        3    1    3    3  502    0  0.16886992028E+03 -0.39725728898E+03  0.26362311923E+03  0.50579399247E+03  0.10100000352E+00 0. -1.
       -3    1    3    3    0  502 -0.16886992028E+03  0.39725728898E+03 -0.59425359222E+03  0.73448468036E+03  0.10100000352E+00 0.  1.
</event>
<event>
 5   0  0.5157631E-04  0.1132492E+04  0.7818609E-02  0.9174089E-01
       -1   -1    0    0    0  501  0.00000000000E+00  0.00000000000E+00  0.46270519687E+03  0.46270519690E+03  0.50400001928E-02 0.  1.
        1   -1    0    0  501    0  0.00000000000E+00  0.00000000000E+00 -0.69295691657E+03  0.69295691659E+03  0.50400001928E-02 0. -1.
    10030    2    1    2    0    0  0.00000000000E+00  0.00000000000E+00 -0.23025171971E+03  0.11556621135E+04  0.11324924133E+04 0.  0.
        5    1    3    3  502    0  0.12570259633E+03 -0.11121795014E+03 -0.66696884020E+03  0.68777910622E+03  0.46999998093E+01 0. -1.
       -5    1    3    3    0  502 -0.12570259633E+03  0.11121795014E+03  0.43671712050E+03  0.46788300727E+03  0.46999998093E+01 0.  1.
</event>
<event>
 5   0  0.5003507E-04  0.1202894E+04  0.7818609E-02  0.9110327E-01
        1   -1    0    0  501    0  0.00000000000E+00  0.00000000000E+00  0.47619849308E+03  0.47619849311E+03  0.50400001928E-02 0. -1.
       -1   -1    0    0    0  501  0.00000000000E+00  0.00000000000E+00 -0.75963834653E+03  0.75963834655E+03  0.50400001928E-02 0.  1.
    10030    2    1    2    0    0  0.00000000000E+00  0.00000000000E+00 -0.28343985345E+03  0.12358368397E+04  0.12028942363E+04 0.  0.
        3    1    3    3  502    0  0.62327376413E+02  0.45247022490E+03  0.26030798351E+03  0.52571309927E+03  0.10100000352E+00 0. -1.
       -3    1    3    3    0  502 -0.62327376413E+02 -0.45247022490E+03 -0.54374783695E+03  0.71012374039E+03  0.10100000352E+00 0.  1.
</event>
<event>
 5   0  0.5052959E-04  0.1198257E+04  0.7818609E-02  0.9114383E-01
       -1   -1    0    0    0  501  0.00000000000E+00  0.00000000000E+00  0.69218769956E+03  0.69218769957E+03  0.50400001928E-02 0.  1.
        1   -1    0    0  501    0  0.00000000000E+00  0.00000000000E+00 -0.51858051475E+03  0.51858051477E+03  0.50400001928E-02 0. -1.
    10030    2    1    2    0    0  0.00000000000E+00  0.00000000000E+00  0.17360718481E+03  0.12107682143E+04  0.11982571570E+04 0.  0.
        2    1    3    3  502    0  0.56120889079E+03 -0.37757852220E+02 -0.12168538564E+03  0.57548971111E+03  0.25500000920E-02 0. -1.
       -2    1    3    3    0  502 -0.56120889079E+03  0.37757852220E+02  0.29529257045E+03  0.63527850324E+03  0.25500000920E-02 0.  1.
</event>
<event>
 5   0  0.9410666E-04  0.1202751E+04  0.7818609E-02  0.9110452E-01
        2   -1    0    0  501    0  0.00000000000E+00  0.00000000000E+00  0.40053111172E+03  0.40053111173E+03  0.25500000920E-02 0.  1.
       -2   -1    0    0    0  501  0.00000000000E+00  0.00000000000E+00 -0.90293241998E+03  0.90293241999E+03  0.25500000920E-02 0. -1.
    10030    2    1    2    0    0  0.00000000000E+00  0.00000000000E+00 -0.50240130826E+03  0.13034635317E+04  0.12027510565E+04 0.  0.
        2    1    3    3  502    0 -0.18806833280E+03 -0.40576157448E+03  0.18450987975E+03  0.48379339481E+03  0.25500000920E-02 0.  1.
       -2    1    3    3    0  502  0.18806833280E+03  0.40576157448E+03 -0.68691118801E+03  0.81967013691E+03  0.25500000920E-02 0. -1.
</event>
<event>
 5   0  0.5052959E-04  0.1202926E+04  0.7818609E-02  0.9110299E-01
        1   -1    0    0  501    0  0.00000000000E+00  0.00000000000E+00  0.13112503160E+04  0.13112503160E+04  0.50400001928E-02 0.  1.
       -1   -1    0    0    0  501  0.00000000000E+00  0.00000000000E+00 -0.27588766208E+03  0.27588766212E+03  0.50400001928E-02 0. -1.
    10030    2    1    2    0    0  0.00000000000E+00  0.00000000000E+00  0.10353626539E+04  0.15871379781E+04  0.12029260727E+04 0.  0.
        2    1    3    3  502    0  0.92962229203E+02 -0.22796077894E+03 -0.20636600404E+03  0.32123981762E+03  0.25500000920E-02 0. -1.
       -2    1    3    3    0  502 -0.92962229203E+02  0.22796077894E+03  0.12417286579E+04  0.12658981605E+04  0.25500000920E-02 0.  1.
</event>
<event>
 5   0  0.5052959E-04  0.1199880E+04  0.7818609E-02  0.9112962E-01
       -1   -1    0    0    0  501  0.00000000000E+00  0.00000000000E+00  0.69323154824E+03  0.69323154826E+03  0.50400001928E-02 0.  1.
        1   -1    0    0  501    0  0.00000000000E+00  0.00000000000E+00 -0.51920284642E+03  0.51920284644E+03  0.50400001928E-02 0. -1.
    10030    2    1    2    0    0  0.00000000000E+00  0.00000000000E+00  0.17402870182E+03  0.12124343947E+04  0.11998796491E+04 0.  0.
        2    1    3    3  502    0  0.41814713440E+03 -0.11329095333E+03 -0.33235341037E+03  0.54602257783E+03  0.25500000920E-02 0. -1.
       -2    1    3    3    0  502 -0.41814713440E+03  0.11329095333E+03  0.50638211220E+03  0.66641181687E+03  0.25500000920E-02 0.  1.
</event>
<event>
 5   0  0.5003507E-04  0.1196400E+04  0.7818609E-02  0.9116014E-01
        1   -1    0    0  501    0  0.00000000000E+00  0.00000000000E+00  0.91693483458E+03  0.91693483459E+03  0.50400001928E-02 0. -1.
       -1   -1    0    0    0  501  0.00000000000E+00  0.00000000000E+00 -0.39026004192E+03  0.39026004195E+03  0.50400001928E-02 0.  1.
    10030    2    1    2    0    0  0.00000000000E+00  0.00000000000E+00  0.52667479266E+03  0.13071948765E+04  0.11963996439E+04 0.  0.
        3    1    3    3  502    0 -0.50635549419E+03  0.99233141547E+02 -0.67345394841E+02  0.52036382972E+03  0.10100000352E+00 0.  1.
       -3    1    3    3    0  502  0.50635549419E+03 -0.99233141547E+02  0.59402018750E+03  0.78683104682E+03  0.10100000352E+00 0. -1.
</event>
<event>
 5   0  0.9298693E-04  0.1183145E+04  0.7818609E-02  0.9127739E-01
        2   -1    0    0  501    0  0.00000000000E+00  0.00000000000E+00  0.22882150922E+04  0.22882150922E+04  0.25500000920E-02 0. -1.
       -2   -1    0    0    0  501  0.00000000000E+00  0.00000000000E+00 -0.15293935437E+03  0.15293935440E+03  0.25500000920E-02 0.  1.
    10030    2    1    2    0    0  0.00000000000E+00  0.00000000000E+00  0.21352757378E+04  0.24411544466E+04  0.11831451963E+04 0.  0.
        1    1    3    3  502    0  0.48529488902E+03 -0.19852836582E+03  0.50246044221E+03  0.72621700431E+03  0.50400001928E-02 0.  1.
       -1    1    3    3    0  502 -0.48529488902E+03  0.19852836582E+03  0.16328152956E+04  0.17149374423E+04  0.50400001928E-02 0. -1.
</event>
<event>
 5   0  0.9070772E-04  0.1197436E+04  0.7818609E-02  0.9115104E-01
        2   -1    0    0  501    0  0.00000000000E+00  0.00000000000E+00  0.12551609803E+04  0.12551609803E+04  0.25500000920E-02 0.  1.
       -2   -1    0    0    0  501  0.00000000000E+00  0.00000000000E+00 -0.28559138052E+03  0.28559138053E+03  0.25500000920E-02 0. -1.
    10030    2    1    2    0    0  0.00000000000E+00  0.00000000000E+00  0.96956959976E+03  0.15407523608E+04  0.11974358557E+04 0.  0.
        4    1    3    3  502    0 -0.21485964565E+03 -0.41020438887E+03  0.97310637448E+03  0.10776687510E+04  0.12699999809E+01 0. -1.
       -4    1    3    3    0  502  0.21485964565E+03  0.41020438887E+03 -0.35367747258E+01  0.46308360979E+03  0.12699999809E+01 0.  1.
</event>
<event>
 5   0  0.5001586E-04  0.1198447E+04  0.7818609E-02  0.9114217E-01
        1   -1    0    0  501    0  0.00000000000E+00  0.00000000000E+00  0.99106195715E+03  0.99106195716E+03  0.50400001928E-02 0. -1.
       -1   -1    0    0    0  501  0.00000000000E+00  0.00000000000E+00 -0.36230732886E+03  0.36230732890E+03  0.50400001928E-02 0.  1.
    10030    2    1    2    0    0  0.00000000000E+00  0.00000000000E+00  0.62875462829E+03  0.13533692861E+04  0.11984473463E+04 0.  0.
        1    1    3    3  502    0  0.67633950698E+02 -0.50480524016E+03 -0.42132581019E+02  0.51105560968E+03  0.50400001928E-02 0.  1.
       -1    1    3    3    0  502 -0.67633950698E+02  0.50480524016E+03  0.67088720931E+03  0.84231367638E+03  0.50400001928E-02 0. -1.
</event>
<event>
 5   0  0.9298693E-04  0.1199874E+04  0.7818609E-02  0.9112967E-01
        2   -1    0    0  501    0  0.00000000000E+00  0.00000000000E+00  0.58491258498E+03  0.58491258498E+03  0.25500000920E-02 0.  1.
       -2   -1    0    0    0  501  0.00000000000E+00  0.00000000000E+00 -0.61534730625E+03  0.61534730626E+03  0.25500000920E-02 0. -1.
    10030    2    1    2    0    0  0.00000000000E+00  0.00000000000E+00 -0.30434721276E+02  0.12002598912E+04  0.11998739660E+04 0.  0.
        1    1    3    3  502    0 -0.32087293037E+03  0.40635269355E+03  0.28793528096E+03  0.59244297198E+03  0.50400001928E-02 0.  1.
       -1    1    3    3    0  502  0.32087293037E+03 -0.40635269355E+03 -0.31837000223E+03  0.60781691927E+03  0.50400001928E-02 0. -1.
</event>
<event>
 5   0  0.9070772E-04  0.1205934E+04  0.7818609E-02  0.9107679E-01
       -2   -1    0    0    0  501  0.00000000000E+00  0.00000000000E+00  0.77742199354E+03  0.77742199354E+03  0.25500000920E-02 0.  1.
        2   -1    0    0  501    0  0.00000000000E+00  0.00000000000E+00 -0.46765979811E+03  0.46765979812E+03  0.25500000920E-02 0. -1.
    10030    2    1    2    0    0  0.00000000000E+00  0.00000000000E+00  0.30976219543E+03  0.12450817917E+04  0.12059336840E+04 0.  0.
        4    1    3    3  502    0 -0.57912514577E+03  0.16700821078E+03  0.13730729565E+03  0.61816873366E+03  0.12699999809E+01 0.  1.
       -4    1    3    3    0  502  0.57912514577E+03 -0.16700821078E+03  0.17245489978E+03  0.62691305800E+03  0.12699999809E+01 0. -1.
</event>
<event>
 5   0  0.9145224E-04  0.1201650E+04  0.7818609E-02  0.9111414E-01
       -2   -1    0    0    0  501  0.00000000000E+00  0.00000000000E+00  0.39640857529E+03  0.39640857530E+03  0.25500000920E-02 0.  1.
        2   -1    0    0  501    0  0.00000000000E+00  0.00000000000E+00 -0.91065231838E+03  0.91065231839E+03  0.25500000920E-02 0. -1.
    10030    2    1    2    0    0  0.00000000000E+00  0.00000000000E+00 -0.51424374309E+03  0.13070608937E+04  0.12016495132E+04 0.  0.
        5    1    3    3  502    0  0.39331941137E+03  0.39664321349E+03 -0.49775764635E+03  0.74820502716E+03  0.46999998093E+01 0. -1.
       -5    1    3    3    0  502 -0.39331941137E+03 -0.39664321349E+03 -0.16486096740E+02  0.55885586653E+03  0.46999998093E+01 0.  1.
</event>
<event>
 5   0  0.9298693E-04  0.1196075E+04  0.7818609E-02  0.9116299E-01
        2   -1    0    0  501    0  0.00000000000E+00  0.00000000000E+00  0.81905751190E+03  0.81905751190E+03  0.25500000920E-02 0.  1.
       -2   -1    0    0    0  501  0.00000000000E+00  0.00000000000E+00 -0.43665933308E+03  0.43665933308E+03  0.25500000920E-02 0. -1.
    10030    2    1    2    0    0  0.00000000000E+00  0.00000000000E+00  0.38239817882E+03  0.12557168450E+04  0.11960754272E+04 0.  0.
        1    1    3    3  502    0  0.55404743563E+03 -0.14340179606E+03  0.37339355948E+03  0.68334133954E+03  0.50400001928E-02 0.  1.
       -1    1    3    3    0  502 -0.55404743563E+03  0.14340179606E+03  0.90046193394E+01  0.57237550544E+03  0.50400001928E-02 0. -1.
</event>
<event>
 5   0  0.9145224E-04  0.1224550E+04  0.7818609E-02  0.9091635E-01
       -2   -1    0    0    0  501  0.00000000000E+00  0.00000000000E+00  0.97956461368E+03  0.97956461369E+03  0.25500000920E-02 0.  1.
        2   -1    0    0  501    0  0.00000000000E+00  0.00000000000E+00 -0.38270149743E+03  0.38270149744E+03  0.25500000920E-02 0. -1.
    10030    2    1    2    0    0  0.00000000000E+00  0.00000000000E+00  0.59686311625E+03  0.13622661111E+04  0.12245502758E+04 0.  0.
        5    1    3    3  502    0 -0.31413734208E+03 -0.52030616534E+03  0.21624491026E+03  0.64512380718E+03  0.46999998093E+01 0. -1.
       -5    1    3    3    0  502  0.31413734208E+03  0.52030616534E+03  0.38061820600E+03  0.71714230395E+03  0.46999998093E+01 0.  1.
</event>
<event>
 5   0  0.9298693E-04  0.1201201E+04  0.7818609E-02  0.9111806E-01
       -2   -1    0    0    0  501  0.00000000000E+00  0.00000000000E+00  0.70593839637E+03  0.70593839637E+03  0.25500000920E-02 0. -1.
        2   -1    0    0  501    0  0.00000000000E+00  0.00000000000E+00 -0.51098063475E+03  0.51098063476E+03  0.25500000920E-02 0.  1.
    10030    2    1    2    0    0  0.00000000000E+00  0.00000000000E+00  0.19495776162E+03  0.12169190311E+04  0.12012008156E+04 0.  0.
        1    1    3    3  502    0 -0.24255343680E+02  0.59212631975E+03  0.19632066556E+03  0.62429456508E+03  0.50400001928E-02 0. -1.
       -1    1    3    3    0  502  0.24255343680E+02 -0.59212631975E+03 -0.13629039449E+01  0.59262446605E+03  0.50400001928E-02 0.  1.
</event>
<event>
 5   0  0.5447074E-04  0.1162932E+04  0.7818609E-02  0.9145935E-01
        1   -1    0    0  501    0  0.00000000000E+00  0.00000000000E+00  0.96360527355E+03  0.96360527356E+03  0.50400001928E-02 0.  1.
       -1   -1    0    0    0  501  0.00000000000E+00  0.00000000000E+00 -0.35087274418E+03  0.35087274422E+03  0.50400001928E-02 0. -1.
    10030    2    1    2    0    0  0.00000000000E+00  0.00000000000E+00  0.61273252937E+03  0.13144780178E+04  0.11629322021E+04 0.  0.
        4    1    3    3  502    0  0.43611414020E+02 -0.32126003823E+03  0.85195919397E+03  0.91156242172E+03  0.12699999809E+01 0.  1.
       -4    1    3    3    0  502 -0.43611414020E+02  0.32126003823E+03 -0.23922666460E+03  0.40291559607E+03  0.12699999809E+01 0. -1.
</event>
<event>
 5   0  0.5003507E-04  0.1188744E+04  0.7818609E-02  0.9122767E-01
        1   -1    0    0  501    0  0.00000000000E+00  0.00000000000E+00  0.61599595127E+03  0.61599595130E+03  0.50400001928E-02 0.  1.
       -1   -1    0    0    0  501  0.00000000000E+00  0.00000000000E+00 -0.57350689128E+03  0.57350689130E+03  0.50400001928E-02 0. -1.
    10030    2    1    2    0    0  0.00000000000E+00  0.00000000000E+00  0.42489059996E+02  0.11895028426E+04  0.11887437454E+04 0.  0.
        3    1    3    3  502    0  0.18434601039E+03  0.30399269386E+03  0.49787096397E+03  0.61177652492E+03  0.10100000352E+00 0.  1.
       -3    1    3    3    0  502 -0.18434601039E+03 -0.30399269386E+03 -0.45538190398E+03  0.57772631768E+03  0.10100000352E+00 0. -1.
</event>
<event>
 5   0  0.9298693E-04  0.1196506E+04  0.7818609E-02  0.9115920E-01
        2   -1    0    0  501    0  0.00000000000E+00  0.00000000000E+00  0.19876688531E+04  0.19876688531E+04  0.25500000920E-02 0. -1.
       -2   -1    0    0    0  501  0.00000000000E+00  0.00000000000E+00 -0.18006354760E+03  0.18006354762E+03  0.25500000920E-02 0.  1.
    10030    2    1    2    0    0  0.00000000000E+00  0.00000000000E+00  0.18076053055E+04  0.21677324008E+04  0.11965060889E+04 0.  0.
        1    1    3    3  502    0 -0.41457577582E+03 -0.13875429147E+03  0.16391823047E+03  0.46689936132E+03  0.50400001928E-02 0.  1.
       -1    1    3    3    0  502  0.41457577582E+03  0.13875429147E+03  0.16436870751E+04  0.17008330394E+04  0.50400001928E-02 0. -1.
</event>
<event>
 5   0  0.5052959E-04  0.1202016E+04  0.7818609E-02  0.9111094E-01
        1   -1    0    0  501    0  0.00000000000E+00  0.00000000000E+00  0.72484256442E+03  0.72484256444E+03  0.50400001928E-02 0. -1.
       -1   -1    0    0    0  501  0.00000000000E+00  0.00000000000E+00 -0.49832994243E+03  0.49832994246E+03  0.50400001928E-02 0.  1.
    10030    2    1    2    0    0  0.00000000000E+00  0.00000000000E+00  0.22651262199E+03  0.12231725069E+04  0.12020162286E+04 0.  0.
        2    1    3    3  502    0 -0.23232466562E+03 -0.55363681321E+03  0.14060464289E+03  0.61665074135E+03  0.25500000920E-02 0.  1.
       -2    1    3    3    0  502  0.23232466562E+03  0.55363681321E+03  0.85907979099E+02  0.60652176554E+03  0.25500000920E-02 0. -1.
</event>
<event>
 5   0  0.9410666E-04  0.1198571E+04  0.7818609E-02  0.9114108E-01
        2   -1    0    0  501    0  0.00000000000E+00  0.00000000000E+00  0.66566998906E+03  0.66566998906E+03  0.25500000920E-02 0. -1.
       -2   -1    0    0    0  501  0.00000000000E+00  0.00000000000E+00 -0.53952139254E+03  0.53952139255E+03  0.25500000920E-02 0.  1.
    10030    2    1    2    0    0  0.00000000000E+00  0.00000000000E+00  0.12614859652E+03  0.12051913816E+04  0.11985711485E+04 0.  0.
        2    1    3    3  502    0 -0.54141869063E+03  0.24547586756E+03  0.13932586184E+03  0.61057701881E+03  0.25500000920E-02 0. -1.
       -2    1    3    3    0  502  0.54141869063E+03 -0.24547586756E+03 -0.13177265326E+02  0.59461436280E+03  0.25500000920E-02 0.  1.
</event>
<event>
 5   0  0.5447074E-04  0.1199704E+04  0.7818609E-02  0.9113116E-01
       -1   -1    0    0    0  501  0.00000000000E+00  0.00000000000E+00  0.23852022890E+03  0.23852022895E+03  0.50400001928E-02 0.  1.
        1   -1    0    0  501    0  0.00000000000E+00  0.00000000000E+00 -0.15085608952E+04  0.15085608952E+04  0.50400001928E-02 0. -1.
    10030    2    1    2    0    0  0.00000000000E+00  0.00000000000E+00 -0.12700406663E+04  0.17470811241E+04  0.11997037802E+04 0.  0.
        4    1    3    3  502    0  0.38697720183E+02  0.25339328162E+03 -0.14247848865E+04  0.14476599236E+04  0.12699999809E+01 0. -1.
       -4    1    3    3    0  502 -0.38697720183E+02 -0.25339328162E+03  0.15474422023E+03  0.29942120051E+03  0.12699999809E+01 0.  1.
</event>
<event>
 5   0  0.9145224E-04  0.1197653E+04  0.7818609E-02  0.9114913E-01
       -2   -1    0    0    0  501  0.00000000000E+00  0.00000000000E+00  0.26794335167E+03  0.26794335168E+03  0.25500000920E-02 0.  1.
        2   -1    0    0  501    0  0.00000000000E+00  0.00000000000E+00 -0.13383169946E+04  0.13383169946E+04  0.25500000920E-02 0. -1.
    10030    2    1    2    0    0  0.00000000000E+00  0.00000000000E+00 -0.10703736430E+04  0.16062603463E+04  0.11976529400E+04 0.  0.
        5    1    3    3  502    0 -0.39112648176E+03 -0.57582297486E+02 -0.11383800998E+04  0.12050838093E+04  0.46999998093E+01 0. -1.
       -5    1    3    3    0  502  0.39112648176E+03  0.57582297486E+02  0.68006456828E+02  0.40117653706E+03  0.46999998093E+01 0.  1.
</event>
<event>
 5   0  0.5001586E-04  0.1202607E+04  0.7818609E-02  0.9110577E-01
       -1   -1    0    0    0  501  0.00000000000E+00  0.00000000000E+00  0.28034004553E+03  0.28034004557E+03  0.50400001928E-02 0.  1.
        1   -1    0    0  501    0  0.00000000000E+00  0.00000000000E+00 -0.12897414899E+04  0.12897414900E+04  0.50400001928E-02 0. -1.
    10030    2    1    2    0    0  0.00000000000E+00  0.00000000000E+00 -0.10094014444E+04  0.15700815355E+04  0.12026074805E+04 0.  0.
        1    1    3    3  502    0 -0.48619977695E+03 -0.33819117817E+03 -0.64039586454E+03  0.87227883125E+03  0.50400001928E-02 0. -1.
       -1    1    3    3    0  502  0.48619977695E+03  0.33819117817E+03 -0.36900557987E+03  0.69780270428E+03  0.50400001928E-02 0.  1.
</event>
<event>
 5   0  0.9298693E-04  0.1217577E+04  0.7818609E-02  0.9097609E-01
        2   -1    0    0  501    0  0.00000000000E+00  0.00000000000E+00  0.65337279062E+03  0.65337279062E+03  0.25500000920E-02 0. -1.
       -2   -1    0    0    0  501  0.00000000000E+00  0.00000000000E+00 -0.56724639529E+03  0.56724639530E+03  0.25500000920E-02 0.  1.
    10030    2    1    2    0    0  0.00000000000E+00  0.00000000000E+00  0.86126395323E+02  0.12206191859E+04  0.12175768728E+04 0.  0.
        1    1    3    3  502    0 -0.17337653414E+02 -0.60839740443E+03  0.56338805010E+02  0.61124631444E+03  0.50400001928E-02 0.  1.
       -1    1    3    3    0  502  0.17337653414E+02  0.60839740443E+03  0.29787590313E+02  0.60937287148E+03  0.50400001928E-02 0. -1.
</event>
<event>
 5   0  0.5052959E-04  0.1198620E+04  0.7818609E-02  0.9114066E-01
        1   -1    0    0  501    0  0.00000000000E+00  0.00000000000E+00  0.17853406275E+04  0.17853406275E+04  0.50400001928E-02 0. -1.
       -1   -1    0    0    0  501  0.00000000000E+00  0.00000000000E+00 -0.20117860144E+03  0.20117860150E+03  0.50400001928E-02 0.  1.
    10030    2    1    2    0    0  0.00000000000E+00  0.00000000000E+00  0.15841620261E+04  0.19865192290E+04  0.11986197572E+04 0.  0.
        2    1    3    3  502    0 -0.97976170727E+02 -0.56779941201E+03  0.10652999055E+04  0.12111397074E+04  0.25500000920E-02 0. -1.
       -2    1    3    3    0  502  0.97976170727E+02  0.56779941201E+03  0.51886212063E+03  0.77537952162E+03  0.25500000920E-02 0.  1.
</event>
<event>
 5   0  0.5052959E-04  0.1227695E+04  0.7818609E-02  0.9088955E-01
       -1   -1    0    0    0  501  0.00000000000E+00  0.00000000000E+00  0.31495475567E+03  0.31495475571E+03  0.50400001928E-02 0.  1.
        1   -1    0    0  501    0  0.00000000000E+00  0.00000000000E+00 -0.11963900397E+04  0.11963900397E+04  0.50400001928E-02 0. -1.
    10030    2    1    2    0    0  0.00000000000E+00  0.00000000000E+00 -0.88143528406E+03  0.15113447955E+04  0.12276949665E+04 0.  0.
        2    1    3    3  502    0  0.41816559161E+02  0.14443273853E+03  0.29193298221E+03  0.32838134340E+03  0.25500000920E-02 0.  1.
       -2    1    3    3    0  502 -0.41816559161E+02 -0.14443273853E+03 -0.11733682663E+04  0.11829634521E+04  0.25500000920E-02 0. -1.
</event>
<event>
 5   0  0.5003507E-04  0.1193247E+04  0.7818609E-02  0.9118788E-01
        1   -1    0    0  501    0  0.00000000000E+00  0.00000000000E+00  0.20048983177E+04  0.20048983177E+04  0.50400001928E-02 0. -1.
       -1   -1    0    0    0  501  0.00000000000E+00  0.00000000000E+00 -0.17754501847E+03  0.17754501854E+03  0.50400001928E-02 0.  1.
    10030    2    1    2    0    0  0.00000000000E+00  0.00000000000E+00  0.18273532992E+04  0.21824433362E+04  0.11932471813E+04 0.  0.
        3    1    3    3  502    0 -0.21330188721E+03 -0.16940630181E+03  0.18845329042E+04  0.19041167158E+04  0.10100000352E+00 0. -1.
       -3    1    3    3    0  502  0.21330188721E+03  0.16940630181E+03 -0.57179605035E+02  0.27832662038E+03  0.10100000352E+00 0.  1.
</event>
<event>
 5   0  0.5157631E-04  0.1193019E+04  0.7818609E-02  0.9118989E-01
        1   -1    0    0  501    0  0.00000000000E+00  0.00000000000E+00  0.46473454361E+03  0.46473454364E+03  0.50400001928E-02 0. -1.
       -1   -1    0    0    0  501  0.00000000000E+00  0.00000000000E+00 -0.76564888980E+03  0.76564888982E+03  0.50400001928E-02 0.  1.
    10030    2    1    2    0    0  0.00000000000E+00  0.00000000000E+00 -0.30091434619E+03  0.12303834335E+04  0.11930188387E+04 0.  0.
        5    1    3    3  502    0  0.42170896854E+03 -0.10373080711E+03  0.27125392265E+03  0.51205401574E+03  0.46999998093E+01 0. -1.
       -5    1    3    3    0  502 -0.42170896854E+03  0.10373080711E+03 -0.57216826884E+03  0.71832941771E+03  0.46999998093E+01 0.  1.
</event>
<event>
 5   0  0.5447074E-04  0.1200587E+04  0.7818609E-02  0.9112343E-01
       -1   -1    0    0    0  501  0.00000000000E+00  0.00000000000E+00  0.73541173558E+03  0.73541173560E+03  0.50400001928E-02 0.  1.
        1   -1    0    0  501    0  0.00000000000E+00  0.00000000000E+00 -0.49000072920E+03  0.49000072922E+03  0.50400001928E-02 0. -1.
    10030    2    1    2    0    0  0.00000000000E+00  0.00000000000E+00  0.24541100638E+03  0.12254124648E+04  0.12005870010E+04 0.  0.
        4    1    3    3  502    0 -0.16311204511E+03 -0.30589150063E+03  0.62291626438E+03  0.71288248313E+03  0.12699999809E+01 0.  1.
       -4    1    3    3    0  502  0.16311204511E+03  0.30589150063E+03 -0.37750525800E+03  0.51252998169E+03  0.12699999809E+01 0. -1.
</event>
<event>
 5   0  0.9070772E-04  0.1197262E+04  0.7818609E-02  0.9115256E-01
        2   -1    0    0  501    0  0.00000000000E+00  0.00000000000E+00  0.19162438692E+04  0.19162438692E+04  0.25500000920E-02 0.  1.
       -2   -1    0    0    0  501  0.00000000000E+00  0.00000000000E+00 -0.18701131361E+03  0.18701131363E+03  0.25500000920E-02 0. -1.
    10030    2    1    2    0    0  0.00000000000E+00  0.00000000000E+00  0.17292325555E+04  0.21032551828E+04  0.11972623492E+04 0.  0.
        4    1    3    3  502    0 -0.25981924672E+03  0.14018619083E+03  0.17794602980E+04  0.18037845697E+04  0.12699999809E+01 0.  1.
       -4    1    3    3    0  502  0.25981924672E+03 -0.14018619083E+03 -0.50227742432E+02  0.29947061305E+03  0.12699999809E+01 0. -1.
</event>
<event>
 5   0  0.9298693E-04  0.1198696E+04  0.7818609E-02  0.9113998E-01
       -2   -1    0    0    0  501  0.00000000000E+00  0.00000000000E+00  0.44952040380E+03  0.44952040381E+03  0.25500000920E-02 0. -1.
        2   -1    0    0  501    0  0.00000000000E+00  0.00000000000E+00 -0.79911443160E+03  0.79911443160E+03  0.25500000920E-02 0.  1.
    10030    2    1    2    0    0  0.00000000000E+00  0.00000000000E+00 -0.34959402780E+03  0.12486348354E+04  0.11986963619E+04 0.  0.
        1    1    3    3  502    0 -0.40452566604E+03 -0.44021567145E+03 -0.13075816784E+03  0.61198737762E+03  0.50400001928E-02 0. -1.
       -1    1    3    3    0  502  0.40452566604E+03  0.44021567145E+03 -0.21883585996E+03  0.63664745779E+03  0.50400001928E-02 0.  1.
</event>
<event>
 5   0  0.9145224E-04  0.1166004E+04  0.7818609E-02  0.9143145E-01
        2   -1    0    0  501    0  0.00000000000E+00  0.00000000000E+00  0.70712005834E+03  0.70712005835E+03  0.25500000920E-02 0.  1.
       -2   -1    0    0    0  501  0.00000000000E+00  0.00000000000E+00 -0.48066967292E+03  0.48066967292E+03  0.25500000920E-02 0. -1.
    10030    2    1    2    0    0  0.00000000000E+00  0.00000000000E+00  0.22645038543E+03  0.11877897313E+04  0.11660037173E+04 0.  0.
        5    1    3    3  502    0  0.42571408341E+03  0.37707386784E+01  0.51894093520E+03  0.67124398210E+03  0.46999998093E+01 0.  1.
       -5    1    3    3    0  502 -0.42571408341E+03 -0.37707386784E+01 -0.29249054977E+03  0.51654574917E+03  0.46999998093E+01 0. -1.
</event>
<event>
 5   0  0.9410666E-04  0.1199513E+04  0.7818609E-02  0.9113283E-01
       -2   -1    0    0    0  501  0.00000000000E+00  0.00000000000E+00  0.15478814233E+03  0.15478814235E+03  0.25500000920E-02 0. -1.
        2   -1    0    0  501    0  0.00000000000E+00  0.00000000000E+00 -0.23238717676E+04  0.23238717676E+04  0.25500000920E-02 0.  1.
    10030    2    1    2    0    0  0.00000000000E+00  0.00000000000E+00 -0.21690836252E+04  0.24786599099E+04  0.11995128910E+04 0.  0.
        2    1    3    3  502    0  0.56277739165E+03  0.16798246566E+03 -0.13356849259E+04  0.14591061383E+04  0.25500000920E-02 0.  1.
       -2    1    3    3    0  502 -0.56277739165E+03 -0.16798246566E+03 -0.83339869930E+03  0.10195537717E+04  0.25500000920E-02 0. -1.
</event>
<event>
 5   0  0.5052959E-04  0.1199542E+04  0.7818609E-02  0.9113258E-01
        1   -1    0    0  501    0  0.00000000000E+00  0.00000000000E+00  0.26393475553E+03  0.26393475557E+03  0.50400001928E-02 0.  1.
       -1   -1    0    0    0  501  0.00000000000E+00  0.00000000000E+00 -0.13629322930E+04  0.13629322930E+04  0.50400001928E-02 0. -1.
    10030    2    1    2    0    0  0.00000000000E+00  0.00000000000E+00 -0.10989975374E+04  0.16268670486E+04  0.11995419152E+04 0.  0.
        2    1    3    3  502    0  0.28804578756E+03  0.10308895232E+03  0.15015230804E+03  0.34079821513E+03  0.25500000920E-02 0.  1.
       -2    1    3    3    0  502 -0.28804578756E+03 -0.10308895232E+03 -0.12491498455E+04  0.12860688334E+04  0.25500000920E-02 0. -1.
</event>
<event>
 5   0  0.5001586E-04  0.1199487E+04  0.7818609E-02  0.9113306E-01
        1   -1    0    0  501    0  0.00000000000E+00  0.00000000000E+00  0.66268460263E+03  0.66268460265E+03  0.50400001928E-02 0. -1.
       -1   -1    0    0    0  501  0.00000000000E+00  0.00000000000E+00 -0.54278037200E+03  0.54278037202E+03  0.50400001928E-02 0.  1.
    10030    2    1    2    0    0  0.00000000000E+00  0.00000000000E+00  0.11990423064E+03  0.12054649747E+04  0.11994868822E+04 0.  0.
        1    1    3    3  502    0  0.12764114181E+03  0.35046633437E+03 -0.41204087255E+03  0.55578466449E+03  0.50400001928E-02 0.  1.
       -1    1    3    3    0  502 -0.12764114181E+03 -0.35046633437E+03  0.53194510319E+03  0.64968031018E+03  0.50400001928E-02 0. -1.
</event>
<event>
 5   0  0.9145224E-04  0.1200767E+04  0.7818609E-02  0.9112185E-01
        2   -1    0    0  501    0  0.00000000000E+00  0.00000000000E+00  0.57989604301E+03  0.57989604301E+03  0.25500000920E-02 0.  1.
       -2   -1    0    0    0  501  0.00000000000E+00  0.00000000000E+00 -0.62159490210E+03  0.62159490211E+03  0.25500000920E-02 0. -1.
    10030    2    1    2    0    0  0.00000000000E+00  0.00000000000E+00 -0.41698859093E+02  0.12014909451E+04  0.12007671283E+04 0.  0.
        5    1    3    3  502    0  0.62545860273E+01  0.46969502615E+03 -0.39495419014E+03  0.61372912571E+03  0.46999998093E+01 0. -1.
       -5    1    3    3    0  502 -0.62545860273E+01 -0.46969502615E+03  0.35325533105E+03  0.58776181941E+03  0.46999998093E+01 0.  1.
</event>
<event>
 5   0  0.9298693E-04  0.1178316E+04  0.7818609E-02  0.9132051E-01
       -2   -1    0    0    0  501  0.00000000000E+00  0.00000000000E+00  0.62884132872E+03  0.62884132873E+03  0.25500000920E-02 0.  1.
        2   -1    0    0  501    0  0.00000000000E+00  0.00000000000E+00 -0.55197851721E+03  0.55197851721E+03  0.25500000920E-02 0. -1.
    10030    2    1    2    0    0  0.00000000000E+00  0.00000000000E+00  0.76862811516E+02  0.11808198459E+04  0.11783155845E+04 0.  0.
        1    1    3    3  502    0  0.57159746933E+03  0.50352938387E+02  0.17231106436E+03  0.59912451818E+03  0.50400001928E-02 0.  1.
       -1    1    3    3    0  502 -0.57159746933E+03 -0.50352938387E+02 -0.95448252847E+02  0.58169532777E+03  0.50400001928E-02 0. -1.
</event>
<event>
 5   0  0.5157631E-04  0.1199983E+04  0.7818609E-02  0.9112872E-01
       -1   -1    0    0    0  501  0.00000000000E+00  0.00000000000E+00  0.65315487302E+03  0.65315487304E+03  0.50400001928E-02 0. -1.
        1   -1    0    0  501    0  0.00000000000E+00  0.00000000000E+00 -0.55115507693E+03  0.55115507695E+03  0.50400001928E-02 0.  1.
    10030    2    1    2    0    0  0.00000000000E+00  0.00000000000E+00  0.10199979609E+03  0.12043099500E+04  0.11999827071E+04 0.  0.
        5    1    3    3  502    0 -0.56362956051E+02  0.13114349910E+03  0.63584667133E+03  0.65168894390E+03  0.46999998093E+01 0. -1.
       -5    1    3    3    0  502  0.56362956051E+02 -0.13114349910E+03 -0.53384687523E+03  0.55262100608E+03  0.46999998093E+01 0.  1.
</event>
<event>
 5   0  0.5003507E-04  0.1232979E+04  0.7818609E-02  0.9084470E-01
        1   -1    0    0  501    0  0.00000000000E+00  0.00000000000E+00  0.39621874697E+03  0.39621874700E+03  0.50400001928E-02 0. -1.
       -1   -1    0    0    0  501  0.00000000000E+00  0.00000000000E+00 -0.95921543546E+03  0.95921543547E+03  0.50400001928E-02 0.  1.
    10030    2    1    2    0    0  0.00000000000E+00  0.00000000000E+00 -0.56299668848E+03  0.13554341825E+04  0.12329787313E+04 0.  0.
        3    1    3    3  502    0  0.14647602510E+03 -0.57705478949E+03 -0.10556757074E+03  0.60464202484E+03  0.10100000352E+00 0. -1.
       -3    1    3    3    0  502 -0.14647602510E+03  0.57705478949E+03 -0.45742911774E+03  0.75079215764E+03  0.10100000352E+00 0.  1.
</event>
<event>
 5   0  0.9145224E-04  0.1200490E+04  0.7818609E-02  0.9112428E-01
       -2   -1    0    0    0  501  0.00000000000E+00  0.00000000000E+00  0.48921194227E+03  0.48921194228E+03  0.25500000920E-02 0.  1.
        2   -1    0    0  501    0  0.00000000000E+00  0.00000000000E+00 -0.73647803087E+03  0.73647803088E+03  0.25500000920E-02 0. -1.
    10030    2    1    2    0    0  0.00000000000E+00  0.00000000000E+00 -0.24726608860E+03  0.12256899732E+04  0.12004896467E+04 0.  0.
        5    1    3    3  502    0  0.11106356817E+03  0.24283519323E+03  0.42520836780E+03  0.50212378284E+03  0.46999998093E+01 0.  1.
       -5    1    3    3    0  502 -0.11106356817E+03 -0.24283519323E+03 -0.67247445640E+03  0.72356619031E+03  0.46999998093E+01 0. -1.
</event>
<event>
 5   0  0.5003507E-04  0.1199098E+04  0.7818609E-02  0.9113647E-01
       -1   -1    0    0    0  501  0.00000000000E+00  0.00000000000E+00  0.33577217108E+03  0.33577217111E+03  0.50400001928E-02 0. -1.
        1   -1    0    0  501    0  0.00000000000E+00  0.00000000000E+00 -0.10705437096E+04  0.10705437096E+04  0.50400001928E-02 0.  1.
    10030    2    1    2    0    0  0.00000000000E+00  0.00000000000E+00 -0.73477153850E+03  0.14063158807E+04  0.11990976368E+04 0.  0.
        3    1    3    3  502    0 -0.50584990784E+03  0.28016709134E+03 -0.55312394075E+03  0.80020236963E+03  0.10100000352E+00 0. -1.
       -3    1    3    3    0  502  0.50584990784E+03 -0.28016709134E+03 -0.18164759775E+03  0.60611351107E+03  0.10100000352E+00 0.  1.
</event>
<event>
 5   0  0.9145224E-04  0.1196460E+04  0.7818609E-02  0.9115961E-01
       -2   -1    0    0    0  501  0.00000000000E+00  0.00000000000E+00  0.63494547744E+03  0.63494547744E+03  0.25500000920E-02 0. -1.
        2   -1    0    0  501    0  0.00000000000E+00  0.00000000000E+00 -0.56363736313E+03  0.56363736313E+03  0.25500000920E-02 0.  1.
    10030    2    1    2    0    0  0.00000000000E+00  0.00000000000E+00  0.71308114313E+02  0.11985828406E+04  0.11964597689E+04 0.  0.
        5    1    3    3  502    0  0.21004098673E+03 -0.50767738928E+03 -0.20141615371E+03  0.58518723898E+03  0.46999998093E+01 0.  1.
       -5    1    3    3    0  502 -0.21004098673E+03  0.50767738928E+03  0.27272426802E+03  0.61339560160E+03  0.46999998093E+01 0. -1.
</event>
<event>
 5   0  0.5052959E-04  0.1167307E+04  0.7818609E-02  0.9141964E-01
        1   -1    0    0  501    0  0.00000000000E+00  0.00000000000E+00  0.13810949770E+04  0.13810949770E+04  0.50400001928E-02 0.  1.
       -1   -1    0    0    0  501  0.00000000000E+00  0.00000000000E+00 -0.24665320778E+03  0.24665320783E+03  0.50400001928E-02 0. -1.
    10030    2    1    2    0    0  0.00000000000E+00  0.00000000000E+00  0.11344417692E+04  0.16277481848E+04  0.11673071684E+04 0.  0.
        2    1    3    3  502    0  0.33609759755E+03  0.65463445998E+02  0.12263158216E+04  0.12732232924E+04  0.25500000920E-02 0.  1.
       -2    1    3    3    0  502 -0.33609759755E+03 -0.65463445998E+02 -0.91874052448E+02  0.35452489244E+03  0.25500000920E-02 0. -1.
</event>
<event>
 5   0  0.9298693E-04  0.1198969E+04  0.7818609E-02  0.9113760E-01
       -2   -1    0    0    0  501  0.00000000000E+00  0.00000000000E+00  0.89129540594E+03  0.89129540595E+03  0.25500000920E-02 0. -1.
        2   -1    0    0  501    0  0.00000000000E+00  0.00000000000E+00 -0.40321263689E+03  0.40321263690E+03  0.25500000920E-02 0.  1.
    10030    2    1    2    0    0  0.00000000000E+00  0.00000000000E+00  0.48808276905E+03  0.12945080428E+04  0.11989688418E+04 0.  0.
        1    1    3    3  502    0 -0.17903447539E+03 -0.25118396616E+03  0.79903999799E+03  0.85651132312E+03  0.50400001928E-02 0. -1.
       -1    1    3    3    0  502  0.17903447539E+03  0.25118396616E+03 -0.31095722893E+03  0.43799671972E+03  0.50400001928E-02 0.  1.
</event>
<event>
 5   0  0.5052959E-04  0.1190183E+04  0.7818609E-02  0.9121493E-01
       -1   -1    0    0    0  501  0.00000000000E+00  0.00000000000E+00  0.55468984670E+03  0.55468984673E+03  0.50400001928E-02 0. -1.
        1   -1    0    0  501    0  0.00000000000E+00  0.00000000000E+00 -0.63843591197E+03  0.63843591199E+03  0.50400001928E-02 0.  1.
    10030    2    1    2    0    0  0.00000000000E+00  0.00000000000E+00 -0.83746065265E+02  0.11931257587E+04  0.11901830417E+04 0.  0.
        2    1    3    3  502    0  0.45484911821E+03  0.36097585690E+03  0.88612649058E+02  0.58740402721E+03  0.25500000920E-02 0. -1.
       -2    1    3    3    0  502 -0.45484911821E+03 -0.36097585690E+03 -0.17235871432E+03  0.60572173150E+03  0.25500000920E-02 0.  1.
</event>
<event>
 5   0  0.9070772E-04  0.1199352E+04  0.7818609E-02  0.9113423E-01
        2   -1    0    0  501    0  0.00000000000E+00  0.00000000000E+00  0.18105726379E+04  0.18105726379E+04  0.25500000920E-02 0. -1.
       -2   -1    0    0    0  501  0.00000000000E+00  0.00000000000E+00 -0.19861760290E+03  0.19861760291E+03  0.25500000920E-02 0.  1.
    10030    2    1    2    0    0  0.00000000000E+00  0.00000000000E+00  0.16119550350E+04  0.20091902408E+04  0.11993524874E+04 0.  0.
        4    1    3    3  502    0 -0.59222691398E+03 -0.10452786227E+02  0.96284200598E+03  0.11304460711E+04  0.12699999809E+01 0. -1.
       -4    1    3    3    0  502  0.59222691398E+03  0.10452786227E+02  0.64911302903E+03  0.87874416968E+03  0.12699999809E+01 0.  1.
</event>
<event>
 5   0  0.5447074E-04  0.1205394E+04  0.7818609E-02  0.9108149E-01
        1   -1    0    0  501    0  0.00000000000E+00  0.00000000000E+00  0.58946518165E+03  0.58946518167E+03  0.50400001928E-02 0.  1.
       -1   -1    0    0    0  501  0.00000000000E+00  0.00000000000E+00 -0.61622536855E+03  0.61622536857E+03  0.50400001928E-02 0. -1.
    10030    2    1    2    0    0  0.00000000000E+00  0.00000000000E+00 -0.26760186899E+02  0.12056905502E+04  0.12053935438E+04 0.  0.
        4    1    3    3  502    0 -0.30559880961E+03  0.49028548596E+03 -0.18509445185E+03  0.60665645895E+03  0.12699999809E+01 0. -1.
       -4    1    3    3    0  502  0.30559880961E+03 -0.49028548596E+03  0.15833426495E+03  0.59903409129E+03  0.12699999809E+01 0.  1.
</event>
<event>
 5   0  0.5052959E-04  0.1196387E+04  0.7818609E-02  0.9116025E-01
       -1   -1    0    0    0  501  0.00000000000E+00  0.00000000000E+00  0.19847740513E+03  0.19847740519E+03  0.50400001928E-02 0. -1.
        1   -1    0    0  501    0  0.00000000000E+00  0.00000000000E+00 -0.18029032446E+04  0.18029032447E+04  0.50400001928E-02 0.  1.
    10030    2    1    2    0    0  0.00000000000E+00  0.00000000000E+00 -0.16044258395E+04  0.20013806498E+04  0.11963871577E+04 0.  0.
        2    1    3    3  502    0 -0.43209050714E+03 -0.14217178697E+03 -0.15233449198E+03  0.47970910021E+03  0.25500000920E-02 0. -1.
       -2    1    3    3    0  502  0.43209050714E+03  0.14217178697E+03 -0.14520913475E+04  0.15216715496E+04  0.25500000920E-02 0.  1.
</event>
<event>
 5   0  0.5157631E-04  0.1175312E+04  0.7818609E-02  0.9134744E-01
       -1   -1    0    0    0  501  0.00000000000E+00  0.00000000000E+00  0.67197311930E+03  0.67197311932E+03  0.50400001928E-02 0.  1.
        1   -1    0    0  501    0  0.00000000000E+00  0.00000000000E+00 -0.51391899551E+03  0.51391899553E+03  0.50400001928E-02 0. -1.
    10030    2    1    2    0    0  0.00000000000E+00  0.00000000000E+00  0.15805412380E+03  0.11858921149E+04  0.11753122998E+04 0.  0.
        5    1    3    3  502    0  0.57012307003E-01 -0.16535686949E+03  0.64799556627E+03  0.66877742294E+03  0.46999998093E+01 0.  1.
       -5    1    3    3    0  502 -0.57012307003E-01  0.16535686949E+03 -0.48994144247E+03  0.51711469191E+03  0.46999998093E+01 0. -1.
</event>
<event>
 5   0  0.5052959E-04  0.1204496E+04  0.7818609E-02  0.9108930E-01
        1   -1    0    0  501    0  0.00000000000E+00  0.00000000000E+00  0.84795636081E+03  0.84795636083E+03  0.50400001928E-02 0.  1.
       -1   -1    0    0    0  501  0.00000000000E+00  0.00000000000E+00 -0.42773768192E+03  0.42773768195E+03  0.50400001928E-02 0. -1.
    10030    2    1    2    0    0  0.00000000000E+00  0.00000000000E+00  0.42021867889E+03  0.12756940428E+04  0.12044963896E+04 0.  0.
        2    1    3    3  502    0 -0.64666826393E+02  0.57572811768E+03  0.38432639549E+03  0.69523481084E+03  0.25500000920E-02 0.  1.
       -2    1    3    3    0  502  0.64666826393E+02 -0.57572811768E+03  0.35892283405E+02  0.58045923194E+03  0.25500000920E-02 0. -1.
</event>
<event>
 5   0  0.5003507E-04  0.1193311E+04  0.7818609E-02  0.9118732E-01
        1   -1    0    0  501    0  0.00000000000E+00  0.00000000000E+00  0.50176943907E+03  0.50176943910E+03  0.50400001928E-02 0.  1.
       -1   -1    0    0    0  501  0.00000000000E+00  0.00000000000E+00 -0.70948445227E+03  0.70948445229E+03  0.50400001928E-02 0. -1.
    10030    2    1    2    0    0  0.00000000000E+00  0.00000000000E+00 -0.20771501319E+03  0.12112538914E+04  0.11933107151E+04 0.  0.
        3    1    3    3  502    0  0.29869341794E+03  0.25998210546E+03  0.34915947991E+03  0.52794015352E+03  0.10100000352E+00 0.  1.
       -3    1    3    3    0  502 -0.29869341794E+03 -0.25998210546E+03 -0.55687449311E+03  0.68331373787E+03  0.10100000352E+00 0. -1.
</event>
<event>
 5   0  0.5157631E-04  0.1202947E+04  0.7818609E-02  0.9110281E-01
        1   -1    0    0  501    0  0.00000000000E+00  0.00000000000E+00  0.84619024136E+03  0.84619024137E+03  0.50400001928E-02 0.  1.
       -1   -1    0    0    0  501  0.00000000000E+00  0.00000000000E+00 -0.42752843444E+03  0.42752843447E+03  0.50400001928E-02 0. -1.
    10030    2    1    2    0    0  0.00000000000E+00  0.00000000000E+00  0.41866180692E+03  0.12737186758E+04  0.12029470298E+04 0.  0.
        5    1    3    3  502    0  0.57652647294E+03  0.16978552211E+03  0.23389949155E+03  0.64493484916E+03  0.46999998093E+01 0. -1.
       -5    1    3    3    0  502 -0.57652647294E+03 -0.16978552211E+03  0.18476231537E+03  0.62878382668E+03  0.46999998093E+01 0.  1.
</event>
<event>
 5   0  0.5157631E-04  0.1200759E+04  0.7818609E-02  0.9112192E-01
       -1   -1    0    0    0  501  0.00000000000E+00  0.00000000000E+00  0.94108473492E+03  0.94108473494E+03  0.50400001928E-02 0. -1.
        1   -1    0    0  501    0  0.00000000000E+00  0.00000000000E+00 -0.38302162058E+03  0.38302162062E+03  0.50400001928E-02 0.  1.
    10030    2    1    2    0    0  0.00000000000E+00  0.00000000000E+00  0.55806311434E+03  0.13241063556E+04  0.12007594269E+04 0.  0.
        5    1    3    3  502    0  0.49442394402E+03  0.25797834113E+03  0.52418835270E+03  0.76537793280E+03  0.46999998093E+01 0. -1.
       -5    1    3    3    0  502 -0.49442394402E+03 -0.25797834113E+03  0.33874761640E+02  0.55872842275E+03  0.46999998093E+01 0.  1.
</event>
<event>
 5   0  0.5157631E-04  0.1196930E+04  0.7818609E-02  0.9115548E-01
       -1   -1    0    0    0  501  0.00000000000E+00  0.00000000000E+00  0.27448542956E+03  0.27448542960E+03  0.50400001928E-02 0. -1.
        1   -1    0    0  501    0  0.00000000000E+00  0.00000000000E+00 -0.13048432172E+04  0.13048432172E+04  0.50400001928E-02 0.  1.
    10030    2    1    2    0    0  0.00000000000E+00  0.00000000000E+00 -0.10303577877E+04  0.15793286469E+04  0.11969301584E+04 0.  0.
        5    1    3    3  502    0  0.23368844137E+03  0.54394798513E+03 -0.39978137720E+03  0.71437870749E+03  0.46999998093E+01 0.  1.
       -5    1    3    3    0  502 -0.23368844137E+03 -0.54394798513E+03 -0.63057641048E+03  0.86494993937E+03  0.46999998093E+01 0. -1.
</event>
<event>
 5   0  0.9070772E-04  0.1193355E+04  0.7818609E-02  0.9118693E-01
       -2   -1    0    0    0  501  0.00000000000E+00  0.00000000000E+00  0.19565827847E+03  0.19565827849E+03  0.25500000920E-02 0.  1.
        2   -1    0    0  501    0  0.00000000000E+00  0.00000000000E+00 -0.18196220064E+04  0.18196220064E+04  0.25500000920E-02 0. -1.
    10030    2    1    2    0    0  0.00000000000E+00  0.00000000000E+00 -0.16239637279E+04  0.20152802849E+04  0.11933551177E+04 0.  0.
        4    1    3    3  502    0  0.30659345404E+02 -0.39118391959E+03 -0.15710895637E+04  0.16193482900E+04  0.12699999809E+01 0. -1.
       -4    1    3    3    0  502 -0.30659345404E+02  0.39118391959E+03 -0.52874164238E+02  0.39593199486E+03  0.12699999809E+01 0.  1.
</event>
<event>
 5   0  0.5447074E-04  0.1202641E+04  0.7818609E-02  0.9110548E-01
        1   -1    0    0  501    0  0.00000000000E+00  0.00000000000E+00  0.11409688782E+04  0.11409688782E+04  0.50400001928E-02 0.  1.
       -1   -1    0    0    0  501  0.00000000000E+00  0.00000000000E+00 -0.31691180139E+03  0.31691180143E+03  0.50400001928E-02 0. -1.
    10030    2    1    2    0    0  0.00000000000E+00  0.00000000000E+00  0.82405707681E+03  0.14578806796E+04  0.12026412641E+04 0.  0.
        4    1    3    3  502    0  0.26690102596E+03 -0.38819348652E+03  0.86504441522E+03  0.98500446387E+03  0.12699999809E+01 0.  1.
       -4    1    3    3    0  502 -0.26690102596E+03  0.38819348652E+03 -0.40987338413E+02  0.47287621577E+03  0.12699999809E+01 0. -1.
</event>
<event>
 5   0  0.9050363E-04  0.1196819E+04  0.7818609E-02  0.9115645E-01
       -2   -1    0    0    0  501  0.00000000000E+00  0.00000000000E+00  0.61974046527E+03  0.61974046528E+03  0.25500000920E-02 0.  1.
        2   -1    0    0  501    0  0.00000000000E+00  0.00000000000E+00 -0.57781266974E+03  0.57781266975E+03  0.25500000920E-02 0. -1.
    10030    2    1    2    0    0  0.00000000000E+00  0.00000000000E+00  0.41927795530E+02  0.11975531350E+04  0.11968189383E+04 0.  0.
        3    1    3    3  502    0  0.35661495707E+02  0.55250470515E+03 -0.20624519321E+03  0.59082170018E+03  0.10100000352E+00 0. -1.
       -3    1    3    3    0  502 -0.35661495707E+02 -0.55250470515E+03  0.24817298874E+03  0.60673143484E+03  0.10100000352E+00 0.  1.
</event>
<event>
 5   0  0.9298693E-04  0.1202969E+04  0.7818609E-02  0.9110262E-01
       -2   -1    0    0    0  501  0.00000000000E+00  0.00000000000E+00  0.11731293821E+03  0.11731293824E+03  0.25500000920E-02 0. -1.
        2   -1    0    0  501    0  0.00000000000E+00  0.00000000000E+00 -0.30839195921E+04  0.30839195921E+04  0.25500000920E-02 0.  1.
    10030    2    1    2    0    0  0.00000000000E+00  0.00000000000E+00 -0.29666066539E+04  0.32012325304E+04  0.12029691079E+04 0.  0.
        1    1    3    3  502    0 -0.45448935740E+03 -0.37294939812E+03 -0.11453126767E+04  0.12873977462E+04  0.50400001928E-02 0. -1.
       -1    1    3    3    0  502  0.45448935740E+03  0.37294939812E+03 -0.18212939772E+04  0.19138347842E+04  0.50400001928E-02 0.  1.
</event>
<event>
 5   0  0.5447074E-04  0.1203915E+04  0.7818609E-02  0.9109436E-01
       -1   -1    0    0    0  501  0.00000000000E+00  0.00000000000E+00  0.12682709166E+04  0.12682709166E+04  0.50400001928E-02 0.  1.
        1   -1    0    0  501    0  0.00000000000E+00  0.00000000000E+00 -0.28570638093E+03  0.28570638097E+03  0.50400001928E-02 0. -1.
    10030    2    1    2    0    0  0.00000000000E+00  0.00000000000E+00  0.98256453569E+03  0.15539772976E+04  0.12039154350E+04 0.  0.
        4    1    3    3  502    0 -0.23990829602E+03 -0.54693544243E+03  0.58836591406E+03  0.83837368185E+03  0.12699999809E+01 0.  1.
       -4    1    3    3    0  502  0.23990829602E+03  0.54693544243E+03  0.39419862163E+03  0.71560361576E+03  0.12699999809E+01 0. -1.
</event>
<event>
 5   0  0.9298693E-04  0.1200986E+04  0.7818609E-02  0.9111994E-01
       -2   -1    0    0    0  501  0.00000000000E+00  0.00000000000E+00  0.53046804395E+03  0.53046804396E+03  0.25500000920E-02 0.  1.
        2   -1    0    0  501    0  0.00000000000E+00  0.00000000000E+00 -0.67976183165E+03  0.67976183166E+03  0.25500000920E-02 0. -1.
    10030    2    1    2    0    0  0.00000000000E+00  0.00000000000E+00 -0.14929378770E+03  0.12102298756E+04  0.12009861435E+04 0.  0.
        1    1    3    3  502    0 -0.37782584875E+03  0.24548614911E+02 -0.54432108273E+03  0.66305387987E+03  0.50400001928E-02 0. -1.
       -1    1    3    3    0  502  0.37782584875E+03 -0.24548614911E+02  0.39502729504E+03  0.54717599575E+03  0.50400001928E-02 0.  1.
</event>
<event>
 5   0  0.9050363E-04  0.1202923E+04  0.7818609E-02  0.9110302E-01
        2   -1    0    0  501    0  0.00000000000E+00  0.00000000000E+00  0.16444689449E+04  0.16444689449E+04  0.25500000920E-02 0.  1.
       -2   -1    0    0    0  501  0.00000000000E+00  0.00000000000E+00 -0.21998353152E+03  0.21998353153E+03  0.25500000920E-02 0. -1.
    10030    2    1    2    0    0  0.00000000000E+00  0.00000000000E+00  0.14244854133E+04  0.18644524764E+04  0.12029232494E+04 0.  0.
        3    1    3    3  502    0  0.47947031840E+03  0.23906504012E+03  0.11358945989E+04  0.12559062185E+04  0.10100000352E+00 0.  1.
       -3    1    3    3    0  502 -0.47947031840E+03 -0.23906504012E+03  0.28859081446E+03  0.60854625791E+03  0.10100000352E+00 0. -1.
</event>
<event>
 5   0  0.5052959E-04  0.1196848E+04  0.7818609E-02  0.9115620E-01
        1   -1    0    0  501    0  0.00000000000E+00  0.00000000000E+00  0.27532981017E+03  0.27532981022E+03  0.50400001928E-02 0.  1.
       -1   -1    0    0    0  501  0.00000000000E+00  0.00000000000E+00 -0.13006629778E+04  0.13006629778E+04  0.50400001928E-02 0. -1.
    10030    2    1    2    0    0  0.00000000000E+00  0.00000000000E+00 -0.10253331676E+04  0.15759927880E+04  0.11968480118E+04 0.  0.
        2    1    3    3  502    0  0.25698949913E+03 -0.45810001792E+03 -0.13510917842E+03  0.54235940038E+03  0.25500000920E-02 0.  1.
       -2    1    3    3    0  502 -0.25698949913E+03  0.45810001792E+03 -0.89022398919E+03  0.10336333876E+04  0.25500000920E-02 0. -1.
</event>
<event>
 5   0  0.9050363E-04  0.1181002E+04  0.7818609E-02  0.9129650E-01
        2   -1    0    0  501    0  0.00000000000E+00  0.00000000000E+00  0.19324645418E+04  0.19324645418E+04  0.25500000920E-02 0.  1.
       -2   -1    0    0    0  501  0.00000000000E+00  0.00000000000E+00 -0.18043869731E+03  0.18043869733E+03  0.25500000920E-02 0. -1.
    10030    2    1    2    0    0  0.00000000000E+00  0.00000000000E+00  0.17520258445E+04  0.21129032392E+04  0.11810019213E+04 0.  0.
        3    1    3    3  502    0 -0.47184995625E+03 -0.59762288015E+02  0.24989361799E+03  0.53727157267E+03  0.10100000352E+00 0. -1.
       -3    1    3    3    0  502  0.47184995625E+03  0.59762288015E+02  0.15021322265E+04  0.15756316665E+04  0.10100000352E+00 0.  1.
</event>
<event>
 5   0  0.5447074E-04  0.1202787E+04  0.7818609E-02  0.9110420E-01
        1   -1    0    0  501    0  0.00000000000E+00  0.00000000000E+00  0.33848052603E+03  0.33848052607E+03  0.50400001928E-02 0.  1.
       -1   -1    0    0    0  501  0.00000000000E+00  0.00000000000E+00 -0.10685236228E+04  0.10685236228E+04  0.50400001928E-02 0. -1.
    10030    2    1    2    0    0  0.00000000000E+00  0.00000000000E+00 -0.73004309675E+03  0.14070041489E+04  0.12027874924E+04 0.  0.
        4    1    3    3  502    0  0.50299541031E+03 -0.18082153280E+03 -0.42593140358E+02  0.53620574225E+03  0.12699999809E+01 0. -1.
       -4    1    3    3    0  502 -0.50299541031E+03  0.18082153280E+03 -0.68744995639E+03  0.87079840661E+03  0.12699999809E+01 0.  1.
</event>
<event>
 5   0  0.5052959E-04  0.1202029E+04  0.7818609E-02  0.9111082E-01
        1   -1    0    0  501    0  0.00000000000E+00  0.00000000000E+00  0.96696354169E+03  0.96696354170E+03  0.50400001928E-02 0.  1.
       -1   -1    0    0    0  501  0.00000000000E+00  0.00000000000E+00 -0.37355959374E+03  0.37355959378E+03  0.50400001928E-02 0. -1.
    10030    2    1    2    0    0  0.00000000000E+00  0.00000000000E+00  0.59340394795E+03  0.13405231355E+04  0.12020291308E+04 0.  0.
        2    1    3    3  502    0 -0.26159063197E+03 -0.44632565766E+03  0.63786038039E+03  0.82128077799E+03  0.25500000920E-02 0.  1.
       -2    1    3    3    0  502  0.26159063197E+03  0.44632565766E+03 -0.44456432444E+02  0.51924235749E+03  0.25500000920E-02 0. -1.
</event>
<event>
 5   0  0.5001586E-04  0.1199700E+04  0.7818609E-02  0.9113119E-01
       -1   -1    0    0    0  501  0.00000000000E+00  0.00000000000E+00  0.25316590934E+03  0.25316590939E+03  0.50400001928E-02 0. -1.
        1   -1    0    0  501    0  0.00000000000E+00  0.00000000000E+00 -0.14212806702E+04  0.14212806702E+04  0.50400001928E-02 0.  1.
    10030    2    1    2    0    0  0.00000000000E+00  0.00000000000E+00 -0.11681147608E+04  0.16744465796E+04  0.11996996513E+04 0.  0.
        1    1    3    3  502    0  0.33245841749E+03 -0.37495978205E+03 -0.12390010176E+03  0.51621184872E+03  0.50400001928E-02 0.  1.
       -1    1    3    3    0  502 -0.33245841749E+03  0.37495978205E+03 -0.10442146591E+04  0.11582347308E+04  0.50400001928E-02 0. -1.
</event>
<event>
 5   0  0.9298693E-04  0.1190378E+04  0.7818609E-02  0.9121320E-01
       -2   -1    0    0    0  501  0.00000000000E+00  0.00000000000E+00  0.65065279766E+03  0.65065279767E+03  0.25500000920E-02 0.  1.
        2   -1    0    0  501    0  0.00000000000E+00  0.00000000000E+00 -0.54445341502E+03  0.54445341502E+03  0.25500000920E-02 0. -1.
    10030    2    1    2    0    0  0.00000000000E+00  0.00000000000E+00  0.10619938265E+03  0.11951062127E+04  0.11903783225E+04 0.  0.
        1    1    3    3  502    0  0.37064433296E+02  0.34281384243E+03  0.54016056256E+03  0.64083425013E+03  0.50400001928E-02 0.  1.
       -1    1    3    3    0  502 -0.37064433296E+02 -0.34281384243E+03 -0.43396117991E+03  0.55427196255E+03  0.50400001928E-02 0. -1.
</event>
<event>
 5   0  0.5001586E-04  0.1205221E+04  0.7818609E-02  0.9108299E-01
        1   -1    0    0  501    0  0.00000000000E+00  0.00000000000E+00  0.45382878264E+03  0.45382878267E+03  0.50400001928E-02 0.  1.
       -1   -1    0    0    0  501  0.00000000000E+00  0.00000000000E+00 -0.80016798594E+03  0.80016798596E+03  0.50400001928E-02 0. -1.
    10030    2    1    2    0    0  0.00000000000E+00  0.00000000000E+00 -0.34633920331E+03  0.12539967686E+04  0.12052207482E+04 0.  0.
        1    1    3    3  502    0  0.49864580565E+02  0.47684175429E+03 -0.55301224550E+03  0.73190646856E+03  0.50400001928E-02 0. -1.
       -1    1    3    3    0  502 -0.49864580565E+02 -0.47684175429E+03  0.20667304220E+03  0.52209030006E+03  0.50400001928E-02 0.  1.
</event>
<event>
 5   0  0.5447074E-04  0.1212294E+04  0.7818609E-02  0.9102163E-01
        1   -1    0    0  501    0  0.00000000000E+00  0.00000000000E+00  0.14646971282E+04  0.14646971282E+04  0.50400001928E-02 0.  1.
       -1   -1    0    0    0  501  0.00000000000E+00  0.00000000000E+00 -0.25084659167E+03  0.25084659173E+03  0.50400001928E-02 0. -1.
    10030    2    1    2    0    0  0.00000000000E+00  0.00000000000E+00  0.12138505365E+04  0.17155437199E+04  0.12122941598E+04 0.  0.
        4    1    3    3  502    0  0.45982500501E+03  0.15550703056E+03  0.11206576959E+04  0.12212685028E+04  0.12699999809E+01 0.  1.
       -4    1    3    3    0  502 -0.45982500501E+03 -0.15550703056E+03  0.93192840638E+02  0.49427521709E+03  0.12699999809E+01 0. -1.
</event>
<event>
 5   0  0.9410666E-04  0.1197040E+04  0.7818609E-02  0.9115451E-01
        2   -1    0    0  501    0  0.00000000000E+00  0.00000000000E+00  0.79894817842E+03  0.79894817843E+03  0.25500000920E-02 0. -1.
       -2   -1    0    0    0  501  0.00000000000E+00  0.00000000000E+00 -0.44837240411E+03  0.44837240412E+03  0.25500000920E-02 0.  1.
    10030    2    1    2    0    0  0.00000000000E+00  0.00000000000E+00  0.35057577431E+03  0.12473205825E+04  0.11970402091E+04 0.  0.
        2    1    3    3  502    0  0.34176933646E+03 -0.91892886659E+02 -0.32766197565E+03  0.48229964986E+03  0.25500000920E-02 0.  1.
       -2    1    3    3    0  502 -0.34176933646E+03  0.91892886659E+02  0.67823774996E+03  0.76502093268E+03  0.25500000920E-02 0. -1.
</event>
<event>
 5   0  0.9410666E-04  0.1197674E+04  0.7818609E-02  0.9114895E-01
       -2   -1    0    0    0  501  0.00000000000E+00  0.00000000000E+00  0.50849330748E+03  0.50849330749E+03  0.25500000920E-02 0.  1.
        2   -1    0    0  501    0  0.00000000000E+00  0.00000000000E+00 -0.70523179069E+03  0.70523179070E+03  0.25500000920E-02 0. -1.
    10030    2    1    2    0    0  0.00000000000E+00  0.00000000000E+00 -0.19673848321E+03  0.12137250982E+04  0.11976738217E+04 0.  0.
        2    1    3    3  502    0 -0.25302675447E+02  0.39736697888E+02  0.50661260927E+03  0.50879815882E+03  0.25500000920E-02 0.  1.
       -2    1    3    3    0  502  0.25302675447E+02 -0.39736697888E+02 -0.70335109248E+03  0.70492693937E+03  0.25500000920E-02 0. -1.
</event>
<event>
 5   0  0.3453625E-04  0.1198364E+04  0.7818609E-02  0.9114290E-01
        4   -1    0    0  501    0  0.00000000000E+00  0.00000000000E+00  0.14659081243E+04  0.14659086745E+04  0.12699999809E+01 0. -1.
       -4   -1    0    0    0  501  0.00000000000E+00  0.00000000000E+00 -0.24491015816E+03  0.24491345097E+03  0.12699999809E+01 0.  1.
    10030    2    1    2    0    0  0.00000000000E+00  0.00000000000E+00  0.12209979662E+04  0.17108221255E+04  0.11983640146E+04 0.  0.
        4    1    3    3  502    0 -0.41704098310E+03  0.33209540890E+03  0.22002959300E+03  0.57673666165E+03  0.12699999809E+01 0.  1.
       -4    1    3    3    0  502  0.41704098310E+03 -0.33209540890E+03  0.10009683732E+04  0.11340854638E+04  0.12699999809E+01 0. -1.
</event>
<event>
 5   0  0.9298693E-04  0.1204852E+04  0.7818609E-02  0.9108620E-01
        2   -1    0    0  501    0  0.00000000000E+00  0.00000000000E+00  0.20659040037E+04  0.20659040037E+04  0.25500000920E-02 0.  1.
       -2   -1    0    0    0  501  0.00000000000E+00  0.00000000000E+00 -0.17566996656E+03  0.17566996658E+03  0.25500000920E-02 0. -1.
    10030    2    1    2    0    0  0.00000000000E+00  0.00000000000E+00  0.18902340371E+04  0.22415739703E+04  0.12048523350E+04 0.  0.
        1    1    3    3  502    0  0.11990456354E+03  0.24962152040E+03 -0.50234033486E+02  0.28144531609E+03  0.50400001928E-02 0. -1.
       -1    1    3    3    0  502 -0.11990456354E+03 -0.24962152040E+03  0.19404680706E+04  0.19601286542E+04  0.50400001928E-02 0.  1.
</event>
<event>
 5   0  0.5003507E-04  0.1196216E+04  0.7818609E-02  0.9116175E-01
       -1   -1    0    0    0  501  0.00000000000E+00  0.00000000000E+00  0.32766704624E+03  0.32766704628E+03  0.50400001928E-02 0. -1.
        1   -1    0    0  501    0  0.00000000000E+00  0.00000000000E+00 -0.10917584074E+04  0.10917584074E+04  0.50400001928E-02 0.  1.
    10030    2    1    2    0    0  0.00000000000E+00  0.00000000000E+00 -0.76409136114E+03  0.14194254537E+04  0.11962161219E+04 0.  0.
        3    1    3    3  502    0  0.31990968422E+03 -0.45693618165E+03 -0.12589377923E+03  0.57182351649E+03  0.10100000352E+00 0. -1.
       -3    1    3    3    0  502 -0.31990968422E+03  0.45693618165E+03 -0.63819758191E+03  0.84760193718E+03  0.10100000352E+00 0.  1.
</event>
<event>
 5   0  0.9070772E-04  0.1200841E+04  0.7818609E-02  0.9112121E-01
        2   -1    0    0  501    0  0.00000000000E+00  0.00000000000E+00  0.32044305969E+03  0.32044305970E+03  0.25500000920E-02 0. -1.
       -2   -1    0    0    0  501  0.00000000000E+00  0.00000000000E+00 -0.11250197414E+04  0.11250197414E+04  0.25500000920E-02 0.  1.
    10030    2    1    2    0    0  0.00000000000E+00  0.00000000000E+00 -0.80457668167E+03  0.14454628011E+04  0.12008409856E+04 0.  0.
        4    1    3    3  502    0 -0.43525760458E+03 -0.38291824229E+03 -0.59041994199E+03  0.82744962591E+03  0.12699999809E+01 0.  1.
       -4    1    3    3    0  502  0.43525760458E+03  0.38291824229E+03 -0.21415673968E+03  0.61801317516E+03  0.12699999809E+01 0. -1.
</event>
<event>
 5   0  0.9145224E-04  0.1200633E+04  0.7818609E-02  0.9112303E-01
        2   -1    0    0  501    0  0.00000000000E+00  0.00000000000E+00  0.75169073706E+03  0.75169073706E+03  0.25500000920E-02 0.  1.
       -2   -1    0    0    0  501  0.00000000000E+00  0.00000000000E+00 -0.47942578788E+03  0.47942578788E+03  0.25500000920E-02 0. -1.
    10030    2    1    2    0    0  0.00000000000E+00  0.00000000000E+00  0.27226494918E+03  0.12311165249E+04  0.12006330395E+04 0.  0.
        5    1    3    3  502    0 -0.31141239154E+03  0.43942704821E+03 -0.13570991837E+03  0.55543953788E+03  0.46999998093E+01 0.  1.
       -5    1    3    3    0  502  0.31141239154E+03 -0.43942704821E+03  0.40797486755E+03  0.67567698707E+03  0.46999998093E+01 0. -1.
</event>
<event>
 5   0  0.9050363E-04  0.1206186E+04  0.7818609E-02  0.9107459E-01
       -2   -1    0    0    0  501  0.00000000000E+00  0.00000000000E+00  0.68579763841E+03  0.68579763842E+03  0.25500000920E-02 0.  1.
        2   -1    0    0  501    0  0.00000000000E+00  0.00000000000E+00 -0.53036208906E+03  0.53036208907E+03  0.25500000920E-02 0. -1.
    10030    2    1    2    0    0  0.00000000000E+00  0.00000000000E+00  0.15543554935E+03  0.12161597275E+04  0.12061858367E+04 0.  0.
        3    1    3    3  502    0 -0.24211561820E+03 -0.89423452720E+02  0.62729791570E+03  0.67832087666E+03  0.10100000352E+00 0.  1.
       -3    1    3    3    0  502  0.24211561820E+03  0.89423452720E+02 -0.47186236635E+03  0.53783885082E+03  0.10100000352E+00 0. -1.
</event>
<event>
 5   0  0.5001586E-04  0.1199860E+04  0.7818609E-02  0.9112979E-01
       -1   -1    0    0    0  501  0.00000000000E+00  0.00000000000E+00  0.30350299460E+03  0.30350299464E+03  0.50400001928E-02 0.  1.
        1   -1    0    0  501    0  0.00000000000E+00  0.00000000000E+00 -0.11858733667E+04  0.11858733667E+04  0.50400001928E-02 0. -1.
    10030    2    1    2    0    0  0.00000000000E+00  0.00000000000E+00 -0.88237037207E+03  0.14893763613E+04  0.11998601886E+04 0.  0.
        1    1    3    3  502    0 -0.96018894501E+02 -0.37885515155E+03  0.12379378317E+03  0.40997043153E+03  0.50400001928E-02 0.  1.
       -1    1    3    3    0  502  0.96018894501E+02  0.37885515155E+03 -0.10061641552E+04  0.10794059298E+04  0.50400001928E-02 0. -1.
</event>
<event>
 5   0  0.5052959E-04  0.1200936E+04  0.7818609E-02  0.9112038E-01
        1   -1    0    0  501    0  0.00000000000E+00  0.00000000000E+00  0.12846284342E+04  0.12846284343E+04  0.50400001928E-02 0.  1.
       -1   -1    0    0    0  501  0.00000000000E+00  0.00000000000E+00 -0.28067388436E+03  0.28067388440E+03  0.50400001928E-02 0. -1.
    10030    2    1    2    0    0  0.00000000000E+00  0.00000000000E+00  0.10039545499E+04  0.15653023187E+04  0.12009357229E+04 0.  0.
        2    1    3    3  502    0 -0.39691955284E+03  0.29767004528E+03  0.61109166523E+02  0.49988690474E+03  0.25500000920E-02 0. -1.
       -2    1    3    3    0  502  0.39691955284E+03 -0.29767004528E+03  0.94284538337E+03  0.10654154139E+04  0.25500000920E-02 0.  1.
</event>
<event>
 5   0  0.5052959E-04  0.1202307E+04  0.7818609E-02  0.9110840E-01
       -1   -1    0    0    0  501  0.00000000000E+00  0.00000000000E+00  0.19446891840E+03  0.19446891846E+03  0.50400001928E-02 0.  1.
        1   -1    0    0  501    0  0.00000000000E+00  0.00000000000E+00 -0.18583196380E+04  0.18583196380E+04  0.50400001928E-02 0. -1.
    10030    2    1    2    0    0  0.00000000000E+00  0.00000000000E+00 -0.16638507196E+04  0.20527885564E+04  0.12023067996E+04 0.  0.
        2    1    3    3  502    0 -0.33299131521E+03 -0.37164186284E+03 -0.14043023439E+04  0.14903241136E+04  0.25500000920E-02 0.  1.
       -2    1    3    3    0  502  0.33299131521E+03  0.37164186284E+03 -0.25954837564E+03  0.56246444289E+03  0.25500000920E-02 0. -1.
</event>
<event>
 5   0  0.9410666E-04  0.1196941E+04  0.7818609E-02  0.9115539E-01
        2   -1    0    0  501    0  0.00000000000E+00  0.00000000000E+00  0.12053155356E+04  0.12053155356E+04  0.25500000920E-02 0. -1.
       -2   -1    0    0    0  501  0.00000000000E+00  0.00000000000E+00 -0.29715603881E+03  0.29715603882E+03  0.25500000920E-02 0.  1.
    10030    2    1    2    0    0  0.00000000000E+00  0.00000000000E+00  0.90815949680E+03  0.15024715744E+04  0.11969407506E+04 0.  0.
        2    1    3    3  502    0 -0.33966589386E+03  0.37013330828E+03  0.45791760514E+02  0.50444867993E+03  0.25500000920E-02 0.  1.
       -2    1    3    3    0  502  0.33966589386E+03 -0.37013330828E+03  0.86236773628E+03  0.99802289450E+03  0.25500000920E-02 0. -1.
</event>
<event>
 5   0  0.9070772E-04  0.1203895E+04  0.7818609E-02  0.9109454E-01
       -2   -1    0    0    0  501  0.00000000000E+00  0.00000000000E+00  0.67947220171E+03  0.67947220172E+03  0.25500000920E-02 0.  1.
        2   -1    0    0  501    0  0.00000000000E+00  0.00000000000E+00 -0.53326779901E+03  0.53326779902E+03  0.25500000920E-02 0. -1.
    10030    2    1    2    0    0  0.00000000000E+00  0.00000000000E+00  0.14620440270E+03  0.12127400007E+04  0.12038947554E+04 0.  0.
        4    1    3    3  502    0  0.10705182173E+03  0.59066873398E+03  0.28171955803E+02  0.60095334081E+03  0.12699999809E+01 0.  1.
       -4    1    3    3    0  502 -0.10705182173E+03 -0.59066873398E+03  0.11803244689E+03  0.61178665992E+03  0.12699999809E+01 0. -1.
</event>
<event>
 5   0  0.9145224E-04  0.1202232E+04  0.7818609E-02  0.9110905E-01
       -2   -1    0    0    0  501  0.00000000000E+00  0.00000000000E+00  0.10132835640E+04  0.10132835640E+04  0.25500000920E-02 0.  1.
        2   -1    0    0  501    0  0.00000000000E+00  0.00000000000E+00 -0.35660333966E+03  0.35660333967E+03  0.25500000920E-02 0. -1.
    10030    2    1    2    0    0  0.00000000000E+00  0.00000000000E+00  0.65668022434E+03  0.13698869037E+04  0.12022317629E+04 0.  0.
        5    1    3    3  502    0 -0.13052946114E+03  0.38497034731E+03 -0.17621785217E+03  0.44307440679E+03  0.46999998093E+01 0. -1.
       -5    1    3    3    0  502  0.13052946114E+03 -0.38497034731E+03  0.83289807651E+03  0.92681249689E+03  0.46999998093E+01 0.  1.
</event>
<event>
 5   0  0.5001586E-04  0.1186678E+04  0.7818609E-02  0.9124598E-01
       -1   -1    0    0    0  501  0.00000000000E+00  0.00000000000E+00  0.20448128385E+03  0.20448128392E+03  0.50400001928E-02 0.  1.
        1   -1    0    0  501    0  0.00000000000E+00  0.00000000000E+00 -0.17216795727E+04  0.17216795727E+04  0.50400001928E-02 0. -1.
    10030    2    1    2    0    0  0.00000000000E+00  0.00000000000E+00 -0.15171982888E+04  0.19261608566E+04  0.11866781358E+04 0.  0.
        1    1    3    3  502    0 -0.21104536263E+03 -0.31653918680E+03 -0.19548878420E+02  0.38094535112E+03  0.50400001928E-02 0.  1.
       -1    1    3    3    0  502  0.21104536263E+03  0.31653918680E+03 -0.14976494104E+04  0.15452155055E+04  0.50400001928E-02 0. -1.
</event>
<event>
 5   0  0.5447074E-04  0.1201462E+04  0.7818609E-02  0.9111578E-01
        1   -1    0    0  501    0  0.00000000000E+00  0.00000000000E+00  0.27330524314E+04  0.27330524314E+04  0.50400001928E-02 0. -1.
       -1   -1    0    0    0  501  0.00000000000E+00  0.00000000000E+00 -0.13204191801E+03  0.13204191811E+03  0.50400001928E-02 0.  1.
    10030    2    1    2    0    0  0.00000000000E+00  0.00000000000E+00  0.26010105134E+04  0.28650943495E+04  0.12014615853E+04 0.  0.
        4    1    3    3  502    0  0.58826421084E+03  0.11700660330E+03  0.13806865450E+04  0.15053379273E+04  0.12699999809E+01 0.  1.
       -4    1    3    3    0  502 -0.58826421084E+03 -0.11700660330E+03  0.12203239684E+04  0.13597564222E+04  0.12699999809E+01 0. -1.
</event>
<event>
 5   0  0.9410666E-04  0.1195795E+04  0.7818609E-02  0.9116545E-01
        2   -1    0    0  501    0  0.00000000000E+00  0.00000000000E+00  0.62902319779E+03  0.62902319780E+03  0.25500000920E-02 0.  1.
       -2   -1    0    0    0  501  0.00000000000E+00  0.00000000000E+00 -0.56831187441E+03  0.56831187442E+03  0.25500000920E-02 0. -1.
    10030    2    1    2    0    0  0.00000000000E+00  0.00000000000E+00  0.60711323382E+02  0.11973350722E+04  0.11957948864E+04 0.  0.
        2    1    3    3  502    0  0.20293252246E+03 -0.71894559821E+02  0.58886520199E+03  0.62698697158E+03  0.25500000920E-02 0.  1.
       -2    1    3    3    0  502 -0.20293252246E+03  0.71894559821E+02 -0.52815387861E+03  0.57034810064E+03  0.25500000920E-02 0. -1.
</event>
<event>
 5   0  0.9298693E-04  0.1200161E+04  0.7818609E-02  0.9112716E-01
        2   -1    0    0  501    0  0.00000000000E+00  0.00000000000E+00  0.47684839455E+03  0.47684839455E+03  0.25500000920E-02 0.  1.
       -2   -1    0    0    0  501  0.00000000000E+00  0.00000000000E+00 -0.75515952634E+03  0.75515952634E+03  0.25500000920E-02 0. -1.
    10030    2    1    2    0    0  0.00000000000E+00  0.00000000000E+00 -0.27831113179E+03  0.12320079209E+04  0.12001610021E+04 0.  0.
        1    1    3    3  502    0  0.44173036613E+03 -0.52405714739E+02 -0.55261438019E+03  0.70940448865E+03  0.50400001928E-02 0. -1.
       -1    1    3    3    0  502 -0.44173036613E+03  0.52405714739E+02  0.27430324840E+03  0.52260343225E+03  0.50400001928E-02 0.  1.
</event>
<event>
 5   0  0.9298693E-04  0.1199465E+04  0.7818609E-02  0.9113325E-01
        2   -1    0    0  501    0  0.00000000000E+00  0.00000000000E+00  0.15730839012E+04  0.15730839012E+04  0.25500000920E-02 0.  1.
       -2   -1    0    0    0  501  0.00000000000E+00  0.00000000000E+00 -0.22864572731E+03  0.22864572732E+03  0.25500000920E-02 0. -1.
    10030    2    1    2    0    0  0.00000000000E+00  0.00000000000E+00  0.13444381739E+04  0.18017296286E+04  0.11994647352E+04 0.  0.
        1    1    3    3  502    0 -0.28968177952E+03 -0.17960738035E+03 -0.69015529104E+02  0.34776067596E+03  0.50400001928E-02 0. -1.
       -1    1    3    3    0  502  0.28968177952E+03  0.17960738035E+03  0.14134537030E+04  0.14539689526E+04  0.50400001928E-02 0.  1.
</event>
<event>
 5   0  0.5052959E-04  0.1197729E+04  0.7818609E-02  0.9114847E-01
        1   -1    0    0  501    0  0.00000000000E+00  0.00000000000E+00  0.11839201021E+04  0.11839201021E+04  0.50400001928E-02 0.  1.
       -1   -1    0    0    0  501  0.00000000000E+00  0.00000000000E+00 -0.30292452819E+03  0.30292452824E+03  0.50400001928E-02 0. -1.
    10030    2    1    2    0    0  0.00000000000E+00  0.00000000000E+00  0.88099557394E+03  0.14868446304E+04  0.11977285809E+04 0.  0.
        2    1    3    3  502    0 -0.49934330113E+03 -0.27820066080E+03  0.21878212158E+03  0.61204979927E+03  0.25500000920E-02 0. -1.
       -2    1    3    3    0  502  0.49934330113E+03  0.27820066080E+03  0.66221345236E+03  0.87479483111E+03  0.25500000920E-02 0.  1.
</event>
<event>
 5   0  0.9145224E-04  0.1196280E+04  0.7818609E-02  0.9116119E-01
       -2   -1    0    0    0  501  0.00000000000E+00  0.00000000000E+00  0.60014514054E+03  0.60014514055E+03  0.25500000920E-02 0.  1.
        2   -1    0    0  501    0  0.00000000000E+00  0.00000000000E+00 -0.59614175260E+03  0.59614175261E+03  0.25500000920E-02 0. -1.
    10030    2    1    2    0    0  0.00000000000E+00  0.00000000000E+00  0.40033879383E+01  0.11962868932E+04  0.11962801944E+04 0.  0.
        5    1    3    3  502    0 -0.28578425469E+03 -0.51415893676E+03  0.11024939441E+03  0.59850569876E+03  0.46999998093E+01 0. -1.
       -5    1    3    3    0  502  0.28578425469E+03  0.51415893676E+03 -0.10624600647E+03  0.59778119440E+03  0.46999998093E+01 0.  1.
</event>
<event>
 5   0  0.5447074E-04  0.1196426E+04  0.7818609E-02  0.9115991E-01
        1   -1    0    0  501    0  0.00000000000E+00  0.00000000000E+00  0.46220021751E+03  0.46220021754E+03  0.50400001928E-02 0. -1.
       -1   -1    0    0    0  501  0.00000000000E+00  0.00000000000E+00 -0.77425012363E+03  0.77425012364E+03  0.50400001928E-02 0.  1.
    10030    2    1    2    0    0  0.00000000000E+00  0.00000000000E+00 -0.31204990611E+03  0.12364503412E+04  0.11964256359E+04 0.  0.
        4    1    3    3  502    0  0.15253464478E+03 -0.46945121348E+03 -0.50527370619E+03  0.70636703686E+03  0.12699999809E+01 0.  1.
       -4    1    3    3    0  502 -0.15253464478E+03  0.46945121348E+03  0.19322380008E+03  0.53008330432E+03  0.12699999809E+01 0. -1.
</event>
<event>
 5   0  0.5001586E-04  0.1195670E+04  0.7818609E-02  0.9116655E-01
       -1   -1    0    0    0  501  0.00000000000E+00  0.00000000000E+00  0.31492694055E+03  0.31492694059E+03  0.50400001928E-02 0.  1.
        1   -1    0    0  501    0  0.00000000000E+00  0.00000000000E+00 -0.11348869640E+04  0.11348869640E+04  0.50400001928E-02 0. -1.
    10030    2    1    2    0    0  0.00000000000E+00  0.00000000000E+00 -0.81996002342E+03  0.14498139046E+04  0.11956696525E+04 0.  0.
        1    1    3    3  502    0  0.26869737820E+03 -0.14881663240E+03 -0.10318934694E+04  0.10766377308E+04  0.50400001928E-02 0. -1.
       -1    1    3    3    0  502 -0.26869737820E+03  0.14881663240E+03  0.21193344598E+03  0.37317617378E+03  0.50400001928E-02 0.  1.
</event>
<event>
 5   0  0.5001586E-04  0.1190495E+04  0.7818609E-02  0.9121217E-01
       -1   -1    0    0    0  501  0.00000000000E+00  0.00000000000E+00  0.37966202735E+03  0.37966202738E+03  0.50400001928E-02 0.  1.
        1   -1    0    0  501    0  0.00000000000E+00  0.00000000000E+00 -0.93324978293E+03  0.93324978294E+03  0.50400001928E-02 0. -1.
    10030    2    1    2    0    0  0.00000000000E+00  0.00000000000E+00 -0.55358775558E+03  0.13129118103E+04  0.11904948629E+04 0.  0.
        1    1    3    3  502    0 -0.11315374480E+03  0.49660902290E+03 -0.61652096995E+03  0.79970144304E+03  0.50400001928E-02 0. -1.
       -1    1    3    3    0  502  0.11315374480E+03 -0.49660902290E+03  0.62933214365E+02  0.51321036728E+03  0.50400001928E-02 0.  1.
</event>
<event>
 5   0  0.5052959E-04  0.1203143E+04  0.7818609E-02  0.9110109E-01
        1   -1    0    0  501    0  0.00000000000E+00  0.00000000000E+00  0.15682259285E+04  0.15682259285E+04  0.50400001928E-02 0. -1.
       -1   -1    0    0    0  501  0.00000000000E+00  0.00000000000E+00 -0.23076302481E+03  0.23076302487E+03  0.50400001928E-02 0.  1.
    10030    2    1    2    0    0  0.00000000000E+00  0.00000000000E+00  0.13374629037E+04  0.17989889534E+04  0.12031434809E+04 0.  0.
        2    1    3    3  502    0 -0.38987941205E+03 -0.45592410927E+03  0.73586441580E+03  0.94940464914E+03  0.25500000920E-02 0.  1.
       -2    1    3    3    0  502  0.38987941205E+03  0.45592410927E+03  0.60159848786E+03  0.84958430421E+03  0.25500000920E-02 0. -1.
</event>
<event>
 5   0  0.5003507E-04  0.1202346E+04  0.7818609E-02  0.9110805E-01
        1   -1    0    0  501    0  0.00000000000E+00  0.00000000000E+00  0.10327569868E+04  0.10327569868E+04  0.50400001928E-02 0. -1.
       -1   -1    0    0    0  501  0.00000000000E+00  0.00000000000E+00 -0.34994603126E+03  0.34994603130E+03  0.50400001928E-02 0.  1.
    10030    2    1    2    0    0  0.00000000000E+00  0.00000000000E+00  0.68281095550E+03  0.13827030181E+04  0.12023463874E+04 0.  0.
        3    1    3    3  502    0 -0.18257573387E+03 -0.57275415005E+03  0.34748894507E+03  0.69435566690E+03  0.10100000352E+00 0. -1.
       -3    1    3    3    0  502  0.18257573387E+03  0.57275415005E+03  0.33532201042E+03  0.68834735118E+03  0.10100000352E+00 0.  1.
</event>
<event>
 5   0  0.9050363E-04  0.1200492E+04  0.7818609E-02  0.9112426E-01
       -2   -1    0    0    0  501  0.00000000000E+00  0.00000000000E+00  0.39859303294E+03  0.39859303295E+03  0.25500000920E-02 0.  1.
        2   -1    0    0  501    0  0.00000000000E+00  0.00000000000E+00 -0.90391739495E+03  0.90391739495E+03  0.25500000920E-02 0. -1.
    10030    2    1    2    0    0  0.00000000000E+00  0.00000000000E+00 -0.50532436201E+03  0.13025104279E+04  0.12004918592E+04 0.  0.
        3    1    3    3  502    0  0.50863623603E+03 -0.31520793443E+03 -0.20144577063E+03  0.63138520036E+03  0.10100000352E+00 0.  1.
       -3    1    3    3    0  502 -0.50863623603E+03  0.31520793443E+03 -0.30387859138E+03  0.67112522754E+03  0.10100000352E+00 0. -1.
</event>
<event>
 5   0  0.5003507E-04  0.1202136E+04  0.7818609E-02  0.9110989E-01
        1   -1    0    0  501    0  0.00000000000E+00  0.00000000000E+00  0.14612442147E+04  0.14612442147E+04  0.50400001928E-02 0.  1.
       -1   -1    0    0    0  501  0.00000000000E+00  0.00000000000E+00 -0.24724318489E+03  0.24724318494E+03  0.50400001928E-02 0. -1.
    10030    2    1    2    0    0  0.00000000000E+00  0.00000000000E+00  0.12140010298E+04  0.17084873996E+04  0.12021358885E+04 0.  0.
        3    1    3    3  502    0  0.25877189386E+03  0.24587858050E+02 -0.16323126569E+03  0.30693959034E+03  0.10100000352E+00 0. -1.
       -3    1    3    3    0  502 -0.25877189386E+03 -0.24587858050E+02  0.13772322955E+04  0.14015478093E+04  0.10100000352E+00 0.  1.
</event>
<event>
 5   0  0.9070772E-04  0.1207632E+04  0.7818609E-02  0.9106202E-01
       -2   -1    0    0    0  501  0.00000000000E+00  0.00000000000E+00  0.10271014574E+04  0.10271014574E+04  0.25500000920E-02 0. -1.
        2   -1    0    0  501    0  0.00000000000E+00  0.00000000000E+00 -0.35497345000E+03  0.35497345001E+03  0.25500000920E-02 0.  1.
    10030    2    1    2    0    0  0.00000000000E+00  0.00000000000E+00  0.67212800739E+03  0.13820749074E+04  0.12076319768E+04 0.  0.
        4    1    3    3  502    0 -0.15462613690E+03  0.22401224891E+02 -0.33143720183E+03  0.36641955290E+03  0.12699999809E+01 0.  1.
       -4    1    3    3    0  502  0.15462613690E+03 -0.22401224891E+02  0.10035652092E+04  0.10156553545E+04  0.12699999809E+01 0. -1.
</event>
<event>
 5   0  0.9050363E-04  0.1205935E+04  0.7818609E-02  0.9107677E-01
       -2   -1    0    0    0  501  0.00000000000E+00  0.00000000000E+00  0.34953283645E+03  0.34953283646E+03  0.25500000920E-02 0. -1.
        2   -1    0    0  501    0  0.00000000000E+00  0.00000000000E+00 -0.10401594465E+04  0.10401594465E+04  0.25500000920E-02 0.  1.
    10030    2    1    2    0    0  0.00000000000E+00  0.00000000000E+00 -0.69062661001E+03  0.13896922829E+04  0.12059351254E+04 0.  0.
        3    1    3    3  502    0  0.92147610543E+02  0.16363412945E+03 -0.10055989204E+04  0.10229841198E+04  0.10100000352E+00 0.  1.
       -3    1    3    3    0  502 -0.92147610543E+02 -0.16363412945E+03  0.31497231034E+03  0.36670816316E+03  0.10100000352E+00 0. -1.
</event>
<event>
 5   0  0.9410666E-04  0.1200438E+04  0.7818609E-02  0.9112473E-01
        2   -1    0    0  501    0  0.00000000000E+00  0.00000000000E+00  0.23047442683E+04  0.23047442683E+04  0.25500000920E-02 0.  1.
       -2   -1    0    0    0  501  0.00000000000E+00  0.00000000000E+00 -0.15631363946E+03  0.15631363948E+03  0.25500000920E-02 0. -1.
    10030    2    1    2    0    0  0.00000000000E+00  0.00000000000E+00  0.21484306288E+04  0.24610579077E+04  0.12004381944E+04 0.  0.
        2    1    3    3  502    0 -0.30404867089E+03  0.20903446215E+03  0.20447794461E+04  0.20778026817E+04  0.25500000920E-02 0.  1.
       -2    1    3    3    0  502  0.30404867089E+03 -0.20903446215E+03  0.10365118267E+03  0.38325522607E+03  0.25500000920E-02 0. -1.
</event>
<event>
 5   0  0.5157631E-04  0.1216552E+04  0.7818609E-02  0.9098491E-01
       -1   -1    0    0    0  501  0.00000000000E+00  0.00000000000E+00  0.16560214440E+03  0.16560214448E+03  0.50400001928E-02 0. -1.
        1   -1    0    0  501    0  0.00000000000E+00  0.00000000000E+00 -0.22342669885E+04  0.22342669885E+04  0.50400001928E-02 0.  1.
    10030    2    1    2    0    0  0.00000000000E+00  0.00000000000E+00 -0.20686648441E+04  0.23998691330E+04  0.12165515272E+04 0.  0.
        5    1    3    3  502    0  0.23462064957E+03  0.47169898640E+03 -0.16340748549E+04  0.17169069586E+04  0.46999998093E+01 0.  1.
       -5    1    3    3    0  502 -0.23462064957E+03 -0.47169898640E+03 -0.43458998920E+03  0.68296217442E+03  0.46999998093E+01 0. -1.
</event>
<event>
 5   0  0.5001586E-04  0.1200708E+04  0.7818609E-02  0.9112237E-01
       -1   -1    0    0    0  501  0.00000000000E+00  0.00000000000E+00  0.71665958008E+03  0.71665958010E+03  0.50400001928E-02 0.  1.
        1   -1    0    0  501    0  0.00000000000E+00  0.00000000000E+00 -0.50292311584E+03  0.50292311586E+03  0.50400001928E-02 0. -1.
    10030    2    1    2    0    0  0.00000000000E+00  0.00000000000E+00  0.21373646425E+03  0.12195826960E+04  0.12007075731E+04 0.  0.
        1    1    3    3  502    0  0.42118854552E+03  0.13761244069E+03 -0.30457697740E+03  0.53768402422E+03  0.50400001928E-02 0. -1.
       -1    1    3    3    0  502 -0.42118854552E+03 -0.13761244069E+03  0.51831344165E+03  0.68189867175E+03  0.50400001928E-02 0.  1.
</event>
<event>
 5   0  0.9298693E-04  0.1190183E+04  0.7818609E-02  0.9121493E-01
        2   -1    0    0  501    0  0.00000000000E+00  0.00000000000E+00  0.17082573960E+04  0.17082573960E+04  0.25500000920E-02 0. -1.
       -2   -1    0    0    0  501  0.00000000000E+00  0.00000000000E+00 -0.20730694910E+03  0.20730694911E+03  0.25500000920E-02 0.  1.
    10030    2    1    2    0    0  0.00000000000E+00  0.00000000000E+00  0.15009504469E+04  0.19155643451E+04  0.11901825558E+04 0.  0.
        1    1    3    3  502    0  0.59193537702E+02 -0.20805482787E+03 -0.14179168538E+03  0.25864177616E+03  0.50400001928E-02 0.  1.
       -1    1    3    3    0  502 -0.59193537702E+02  0.20805482787E+03  0.16427421323E+04  0.16569225690E+04  0.50400001928E-02 0. -1.
</event>
<event>
 5   0  0.9070772E-04  0.1201188E+04  0.7818609E-02  0.9111817E-01
        2   -1    0    0  501    0  0.00000000000E+00  0.00000000000E+00  0.10606934492E+04  0.10606934492E+04  0.25500000920E-02 0. -1.
       -2   -1    0    0    0  501  0.00000000000E+00  0.00000000000E+00 -0.34007309799E+03  0.34007309800E+03  0.25500000920E-02 0.  1.
    10030    2    1    2    0    0  0.00000000000E+00  0.00000000000E+00  0.72062035122E+03  0.14007665472E+04  0.12011882572E+04 0.  0.
        4    1    3    3  502    0 -0.28470361686E+03 -0.22432300472E+03 -0.19814664830E+03  0.41308675485E+03  0.12699999809E+01 0.  1.
       -4    1    3    3    0  502  0.28470361686E+03  0.22432300472E+03  0.91876699953E+03  0.98767979235E+03  0.12699999809E+01 0. -1.
</event>
<event>
 5   0  0.3453625E-04  0.1200404E+04  0.7818609E-02  0.9112503E-01
        4   -1    0    0  501    0  0.00000000000E+00  0.00000000000E+00  0.89403324887E+03  0.89403415090E+03  0.12699999809E+01 0. -1.
       -4   -1    0    0    0  501  0.00000000000E+00  0.00000000000E+00 -0.40293885167E+03  0.40294085309E+03  0.12699999809E+01 0.  1.
    10030    2    1    2    0    0  0.00000000000E+00  0.00000000000E+00  0.49109439719E+03  0.12969750040E+04  0.12004042877E+04 0.  0.
        4    1    3    3  502    0  0.21685004632E+03 -0.22033146640E+03  0.80139684249E+03  0.85895774619E+03  0.12699999809E+01 0. -1.
       -4    1    3    3    0  502 -0.21685004632E+03  0.22033146640E+03 -0.31030244530E+03  0.43801725780E+03  0.12699999809E+01 0.  1.
</event>
<event>
 5   0  0.9050363E-04  0.1173413E+04  0.7818609E-02  0.9136451E-01
       -2   -1    0    0    0  501  0.00000000000E+00  0.00000000000E+00  0.25548421314E+03  0.25548421315E+03  0.25500000920E-02 0. -1.
        2   -1    0    0  501    0  0.00000000000E+00  0.00000000000E+00 -0.13473427417E+04  0.13473427417E+04  0.25500000920E-02 0.  1.
    10030    2    1    2    0    0  0.00000000000E+00  0.00000000000E+00 -0.10918585286E+04  0.16028269549E+04  0.11734134825E+04 0.  0.
        3    1    3    3  502    0  0.53555509800E+03  0.20679237865E+03 -0.71121762687E+03  0.91400923071E+03  0.10100000352E+00 0. -1.
       -3    1    3    3    0  502 -0.53555509800E+03 -0.20679237865E+03 -0.38064090172E+03  0.68881772416E+03  0.10100000352E+00 0.  1.
</event>
<event>
 5   0  0.9070772E-04  0.1203314E+04  0.7818609E-02  0.9109960E-01
        2   -1    0    0  501    0  0.00000000000E+00  0.00000000000E+00  0.18158960093E+04  0.18158960093E+04  0.25500000920E-02 0.  1.
       -2   -1    0    0    0  501  0.00000000000E+00  0.00000000000E+00 -0.19934587372E+03  0.19934587374E+03  0.25500000920E-02 0. -1.
    10030    2    1    2    0    0  0.00000000000E+00  0.00000000000E+00  0.16165501356E+04  0.20152418831E+04  0.12033143838E+04 0.  0.
        4    1    3    3  502    0 -0.36793764836E+03  0.47569240092E+03  0.77792614765E+03  0.98327619592E+03  0.12699999809E+01 0. -1.
       -4    1    3    3    0  502  0.36793764836E+03 -0.47569240092E+03  0.83862398798E+03  0.10319656872E+04  0.12699999809E+01 0.  1.
</event>
<event>
 5   0  0.5157631E-04  0.1195326E+04  0.7818609E-02  0.9116958E-01
        1   -1    0    0  501    0  0.00000000000E+00  0.00000000000E+00  0.45660363101E+03  0.45660363104E+03  0.50400001928E-02 0.  1.
       -1   -1    0    0    0  501  0.00000000000E+00  0.00000000000E+00 -0.78229951738E+03  0.78229951739E+03  0.50400001928E-02 0. -1.
    10030    2    1    2    0    0  0.00000000000E+00  0.00000000000E+00 -0.32569588637E+03  0.12389031484E+04  0.11953255627E+04 0.  0.
        5    1    3    3  502    0  0.67273208028E+01  0.49227378758E+03 -0.51402168843E+03  0.71177182086E+03  0.46999998093E+01 0. -1.
       -5    1    3    3    0  502 -0.67273208028E+01 -0.49227378758E+03  0.18832580206E+03  0.52713132757E+03  0.46999998093E+01 0.  1.
</event>
<event>
 5   0  0.5052959E-04  0.1174392E+04  0.7818609E-02  0.9135571E-01
       -1   -1    0    0    0  501  0.00000000000E+00  0.00000000000E+00  0.29610782436E+03  0.29610782440E+03  0.50400001928E-02 0.  1.
        1   -1    0    0  501    0  0.00000000000E+00  0.00000000000E+00 -0.11644378685E+04  0.11644378685E+04  0.50400001928E-02 0. -1.
    10030    2    1    2    0    0  0.00000000000E+00  0.00000000000E+00 -0.86833004416E+03  0.14605456929E+04  0.11743920366E+04 0.  0.
        2    1    3    3  502    0  0.18069579262E+03 -0.14803580837E+03  0.23583665604E+03  0.33194050426E+03  0.25500000920E-02 0.  1.
       -2    1    3    3    0  502 -0.18069579262E+03  0.14803580837E+03 -0.11041667002E+04  0.11286051887E+04  0.25500000920E-02 0. -1.
</event>
<event>
 5   0  0.9070772E-04  0.1203226E+04  0.7818609E-02  0.9110037E-01
       -2   -1    0    0    0  501  0.00000000000E+00  0.00000000000E+00  0.26738889138E+03  0.26738889139E+03  0.25500000920E-02 0. -1.
        2   -1    0    0  501    0  0.00000000000E+00  0.00000000000E+00 -0.13536024585E+04  0.13536024585E+04  0.25500000920E-02 0.  1.
    10030    2    1    2    0    0  0.00000000000E+00  0.00000000000E+00 -0.10862135671E+04  0.16209913499E+04  0.12032260981E+04 0.  0.
        4    1    3    3  502    0 -0.11008739455E+02  0.27424787249E+02 -0.13526222481E+04  0.13529456272E+04  0.12699999809E+01 0.  1.
       -4    1    3    3    0  502  0.11008739455E+02 -0.27424787249E+02  0.26640868092E+03  0.26804572272E+03  0.12699999809E+01 0. -1.
</event>
<event>
 5   0  0.9050363E-04  0.1197778E+04  0.7818609E-02  0.9114804E-01
       -2   -1    0    0    0  501  0.00000000000E+00  0.00000000000E+00  0.35415312336E+03  0.35415312337E+03  0.25500000920E-02 0. -1.
        2   -1    0    0  501    0  0.00000000000E+00  0.00000000000E+00 -0.10127476591E+04  0.10127476591E+04  0.25500000920E-02 0.  1.
    10030    2    1    2    0    0  0.00000000000E+00  0.00000000000E+00 -0.65859453572E+03  0.13669007825E+04  0.11977775196E+04 0.  0.
        3    1    3    3  502    0 -0.16554339844E+03  0.47600405346E+03 -0.69852937206E+03  0.86135229117E+03  0.10100000352E+00 0.  1.
       -3    1    3    3    0  502  0.16554339844E+03 -0.47600405346E+03  0.39934836338E+02  0.50554849128E+03  0.10100000352E+00 0. -1.
</event>
<event>
 5   0  0.3453625E-04  0.1198555E+04  0.7818609E-02  0.9114123E-01
        3   -1    0    0  501    0  0.00000000000E+00  0.00000000000E+00  0.30703598012E+03  0.30703599674E+03  0.10100000352E+00 0.  1.
       -3   -1    0    0    0  501  0.00000000000E+00  0.00000000000E+00 -0.11696781439E+04  0.11696781483E+04  0.10100000352E+00 0. -1.
    10030    2    1    2    0    0  0.00000000000E+00  0.00000000000E+00 -0.86264216382E+03  0.14767141450E+04  0.11985546143E+04 0.  0.
        4    1    3    3  502    0 -0.13072658479E+03 -0.35839774079E+03  0.13809852449E+03  0.40572305325E+03  0.12699999809E+01 0.  1.
       -4    1    3    3    0  502  0.13072658479E+03  0.35839774079E+03 -0.10007406883E+04  0.10709910918E+04  0.12699999809E+01 0. -1.
</event>
<event>
 5   0  0.9410666E-04  0.1207387E+04  0.7818609E-02  0.9106416E-01
       -2   -1    0    0    0  501  0.00000000000E+00  0.00000000000E+00  0.39096751585E+03  0.39096751586E+03  0.25500000920E-02 0.  1.
        2   -1    0    0  501    0  0.00000000000E+00  0.00000000000E+00 -0.93216336044E+03  0.93216336044E+03  0.25500000920E-02 0. -1.
    10030    2    1    2    0    0  0.00000000000E+00  0.00000000000E+00 -0.54119584459E+03  0.13231308763E+04  0.12073865883E+04 0.  0.
        2    1    3    3  502    0  0.40443899001E+03 -0.15527073287E+03  0.19014158220E+03  0.47311068304E+03  0.25500000920E-02 0.  1.
       -2    1    3    3    0  502 -0.40443899001E+03  0.15527073287E+03 -0.73133742679E+03  0.85002019326E+03  0.25500000920E-02 0. -1.
</event>
<event>
 5   0  0.9070772E-04  0.1204562E+04  0.7818609E-02  0.9108873E-01
       -2   -1    0    0    0  501  0.00000000000E+00  0.00000000000E+00  0.45126144208E+03  0.45126144208E+03  0.25500000920E-02 0.  1.
        2   -1    0    0  501    0  0.00000000000E+00  0.00000000000E+00 -0.80384086288E+03  0.80384086288E+03  0.25500000920E-02 0. -1.
    10030    2    1    2    0    0  0.00000000000E+00  0.00000000000E+00 -0.35257942080E+03  0.12551023050E+04  0.12045619735E+04 0.  0.
        4    1    3    3  502    0  0.85325702598E+02  0.48116573479E+02 -0.79548346439E+03  0.80149312859E+03  0.12699999809E+01 0. -1.
       -4    1    3    3    0  502 -0.85325702598E+02 -0.48116573479E+02  0.44290404358E+03  0.45360917637E+03  0.12699999809E+01 0.  1.
</event>
<event>
 5   0  0.5001586E-04  0.1195533E+04  0.7818609E-02  0.9116776E-01
        1   -1    0    0  501    0  0.00000000000E+00  0.00000000000E+00  0.11045778174E+04  0.11045778174E+04  0.50400001928E-02 0. -1.
       -1   -1    0    0    0  501  0.00000000000E+00  0.00000000000E+00 -0.32349431439E+03  0.32349431443E+03  0.50400001928E-02 0.  1.
    10030    2    1    2    0    0  0.00000000000E+00  0.00000000000E+00  0.78108350300E+03  0.14280721318E+04  0.11955327578E+04 0.  0.
        1    1    3    3  502    0  0.57361491632E+03  0.14964231007E+03  0.29880742777E+03  0.66386201285E+03  0.50400001928E-02 0.  1.
       -1    1    3    3    0  502 -0.57361491632E+03 -0.14964231007E+03  0.48227607523E+03  0.76421011898E+03  0.50400001928E-02 0. -1.
</event>
<event>
 5   0  0.9410666E-04  0.1200220E+04  0.7818609E-02  0.9112664E-01
       -2   -1    0    0    0  501  0.00000000000E+00  0.00000000000E+00  0.66055093532E+03  0.66055093532E+03  0.25500000920E-02 0.  1.
        2   -1    0    0  501    0  0.00000000000E+00  0.00000000000E+00 -0.54519928469E+03  0.54519928470E+03  0.25500000920E-02 0. -1.
    10030    2    1    2    0    0  0.00000000000E+00  0.00000000000E+00  0.11535165062E+03  0.12057502200E+04  0.12002198089E+04 0.  0.
        2    1    3    3  502    0 -0.33265169008E+03 -0.39260069186E+03 -0.25251780425E+03  0.57319952166E+03  0.25500000920E-02 0. -1.
       -2    1    3    3    0  502  0.33265169008E+03  0.39260069186E+03  0.36786945487E+03  0.63255069836E+03  0.25500000920E-02 0.  1.
</event>
<event>
 5   0  0.5157631E-04  0.1199025E+04  0.7818609E-02  0.9113711E-01
        1   -1    0    0  501    0  0.00000000000E+00  0.00000000000E+00  0.75401435406E+03  0.75401435408E+03  0.50400001928E-02 0. -1.
       -1   -1    0    0    0  501  0.00000000000E+00  0.00000000000E+00 -0.47666871527E+03  0.47666871529E+03  0.50400001928E-02 0.  1.
    10030    2    1    2    0    0  0.00000000000E+00  0.00000000000E+00  0.27734563880E+03  0.12306830694E+04  0.11990246928E+04 0.  0.
        5    1    3    3  502    0 -0.21178588367E+03  0.56010070814E+03  0.16818793682E+03  0.62199303522E+03  0.46999998093E+01 0. -1.
       -5    1    3    3    0  502  0.21178588367E+03 -0.56010070814E+03  0.10915770197E+03  0.60869003415E+03  0.46999998093E+01 0.  1.
</event>
<event>
 5   0  0.3453625E-04  0.1204200E+04  0.7818609E-02  0.9109188E-01
        3   -1    0    0  501    0  0.00000000000E+00  0.00000000000E+00  0.32603486179E+03  0.32603487744E+03  0.10100000352E+00 0.  1.
       -3   -1    0    0    0  501  0.00000000000E+00  0.00000000000E+00 -0.11119193071E+04  0.11119193117E+04  0.10100000352E+00 0. -1.
    10030    2    1    2    0    0  0.00000000000E+00  0.00000000000E+00 -0.78588444530E+03  0.14379541891E+04  0.12042001032E+04 0.  0.
        5    1    3    3  502    0  0.35106461731E+03  0.45306158649E+03 -0.61309782300E+03  0.83929863412E+03  0.46999998093E+01 0. -1.
       -5    1    3    3    0  502 -0.35106461731E+03 -0.45306158649E+03 -0.17278662230E+03  0.59865555499E+03  0.46999998093E+01 0.  1.
</event>
<event>
 5   0  0.5003507E-04  0.1199967E+04  0.7818609E-02  0.9112885E-01
        1   -1    0    0  501    0  0.00000000000E+00  0.00000000000E+00  0.83719764788E+03  0.83719764790E+03  0.50400001928E-02 0. -1.
       -1   -1    0    0    0  501  0.00000000000E+00  0.00000000000E+00 -0.42998263380E+03  0.42998263383E+03  0.50400001928E-02 0.  1.
    10030    2    1    2    0    0  0.00000000000E+00  0.00000000000E+00  0.40721501408E+03  0.12671802817E+04  0.11999674157E+04 0.  0.
        3    1    3    3  502    0 -0.32280240498E+03  0.36785341277E+03 -0.16291076850E+03  0.51580757521E+03  0.10100000352E+00 0. -1.
       -3    1    3    3    0  502  0.32280240498E+03 -0.36785341277E+03  0.57012578258E+03  0.75137270652E+03  0.10100000352E+00 0.  1.
</event>
<event>
 5   0  0.9145224E-04  0.1193031E+04  0.7818609E-02  0.9118978E-01
       -2   -1    0    0    0  501  0.00000000000E+00  0.00000000000E+00  0.20209859121E+03  0.20209859123E+03  0.25500000920E-02 0.  1.
        2   -1    0    0  501    0  0.00000000000E+00  0.00000000000E+00 -0.17606802469E+04  0.17606802469E+04  0.25500000920E-02 0. -1.
    10030    2    1    2    0    0  0.00000000000E+00  0.00000000000E+00 -0.15585816557E+04  0.19627788382E+04  0.11930314288E+04 0.  0.
        5    1    3    3  502    0 -0.12251769770E+03 -0.11377430426E+03  0.16272791987E+03  0.23336161737E+03  0.46999998093E+01 0.  1.
       -5    1    3    3    0  502  0.12251769770E+03  0.11377430426E+03 -0.17213095756E+04  0.17294172208E+04  0.46999998093E+01 0. -1.
</event>
<event>
 5   0  0.5157631E-04  0.1193728E+04  0.7818609E-02  0.9118364E-01
       -1   -1    0    0    0  501  0.00000000000E+00  0.00000000000E+00  0.40715445463E+03  0.40715445467E+03  0.50400001928E-02 0.  1.
        1   -1    0    0  501    0  0.00000000000E+00  0.00000000000E+00 -0.87496713439E+03  0.87496713440E+03  0.50400001928E-02 0. -1.
    10030    2    1    2    0    0  0.00000000000E+00  0.00000000000E+00 -0.46781267975E+03  0.12821215891E+04  0.11937282211E+04 0.  0.
        5    1    3    3  502    0 -0.30130630473E+02 -0.50100995007E+03  0.11297272387E+03  0.51449368441E+03  0.46999998093E+01 0.  1.
       -5    1    3    3    0  502  0.30130630473E+02  0.50100995007E+03 -0.58078540362E+03  0.76762790466E+03  0.46999998093E+01 0. -1.
</event>
<event>
 5   0  0.9050363E-04  0.1192761E+04  0.7818609E-02  0.9119217E-01
       -2   -1    0    0    0  501  0.00000000000E+00  0.00000000000E+00  0.59579623557E+03  0.59579623557E+03  0.25500000920E-02 0. -1.
        2   -1    0    0  501    0  0.00000000000E+00  0.00000000000E+00 -0.59696507843E+03  0.59696507844E+03  0.25500000920E-02 0.  1.
    10030    2    1    2    0    0  0.00000000000E+00  0.00000000000E+00 -0.11688428665E+01  0.11927613140E+04  0.11927607413E+04 0.  0.
        3    1    3    3  502    0  0.38014766891E+03 -0.18368455903E+03  0.42062507427E+03  0.59596789403E+03  0.10100000352E+00 0. -1.
       -3    1    3    3    0  502 -0.38014766891E+03  0.18368455903E+03 -0.42179391714E+03  0.59679341999E+03  0.10100000352E+00 0.  1.
</event>
<event>
 5   0  0.5001586E-04  0.1204982E+04  0.7818609E-02  0.9108507E-01
       -1   -1    0    0    0  501  0.00000000000E+00  0.00000000000E+00  0.51906023308E+03  0.51906023310E+03  0.50400001928E-02 0. -1.
        1   -1    0    0  501    0  0.00000000000E+00  0.00000000000E+00 -0.69933213664E+03  0.69933213665E+03  0.50400001928E-02 0.  1.
    10030    2    1    2    0    0  0.00000000000E+00  0.00000000000E+00 -0.18027190356E+03  0.12183923698E+04  0.12049821606E+04 0.  0.
        1    1    3    3  502    0 -0.55910264854E+03 -0.36288447868E+02  0.13387619425E+03  0.57605161094E+03  0.50400001928E-02 0. -1.
       -1    1    3    3    0  502  0.55910264854E+03  0.36288447868E+02 -0.31414809781E+03  0.64234075882E+03  0.50400001928E-02 0.  1.
</event>
<event>
 5   0  0.5157631E-04  0.1201634E+04  0.7818609E-02  0.9111427E-01
        1   -1    0    0  501    0  0.00000000000E+00  0.00000000000E+00  0.47982696249E+03  0.47982696252E+03  0.50400001928E-02 0. -1.
       -1   -1    0    0    0  501  0.00000000000E+00  0.00000000000E+00 -0.75231519018E+03  0.75231519020E+03  0.50400001928E-02 0.  1.
    10030    2    1    2    0    0  0.00000000000E+00  0.00000000000E+00 -0.27248822769E+03  0.12321421527E+04  0.12016340750E+04 0.  0.
        5    1    3    3  502    0  0.42598753660E+02  0.24041982888E+03 -0.69912810805E+03  0.74055286739E+03  0.46999998093E+01 0.  1.
       -5    1    3    3    0  502 -0.42598753660E+02 -0.24041982888E+03  0.42663988037E+03  0.49158928533E+03  0.46999998093E+01 0. -1.
</event>
<event>
 5   0  0.9050363E-04  0.1197236E+04  0.7818609E-02  0.9115279E-01
       -2   -1    0    0    0  501  0.00000000000E+00  0.00000000000E+00  0.44656306772E+03  0.44656306772E+03  0.25500000920E-02 0. -1.
        2   -1    0    0  501    0  0.00000000000E+00  0.00000000000E+00 -0.80244790283E+03  0.80244790284E+03  0.25500000920E-02 0.  1.
    10030    2    1    2    0    0  0.00000000000E+00  0.00000000000E+00 -0.35588483512E+03  0.12490109706E+04  0.11972361458E+04 0.  0.
        3    1    3    3  502    0 -0.16155408074E+03 -0.57560041240E+03 -0.20972342994E+03  0.63356095446E+03  0.10100000352E+00 0.  1.
       -3    1    3    3    0  502  0.16155408074E+03  0.57560041240E+03 -0.14616140518E+03  0.61545001610E+03  0.10100000352E+00 0. -1.
</event>
<event>
 5   0  0.9145224E-04  0.1195597E+04  0.7818609E-02  0.9116719E-01
       -2   -1    0    0    0  501  0.00000000000E+00  0.00000000000E+00  0.23238325360E+03  0.23238325361E+03  0.25500000920E-02 0. -1.
        2   -1    0    0  501    0  0.00000000000E+00  0.00000000000E+00 -0.15378174404E+04  0.15378174404E+04  0.25500000920E-02 0.  1.
    10030    2    1    2    0    0  0.00000000000E+00  0.00000000000E+00 -0.13054341868E+04  0.17702006940E+04  0.11955969559E+04 0.  0.
        5    1    3    3  502    0  0.46327165635E+03 -0.20288854024E+03 -0.18088045578E+03  0.53714450255E+03  0.46999998093E+01 0. -1.
       -5    1    3    3    0  502 -0.46327165635E+03  0.20288854024E+03 -0.11245537310E+04  0.12330561914E+04  0.46999998093E+01 0.  1.
</event>
<event>
 5   0  0.9145224E-04  0.1199745E+04  0.7818609E-02  0.9113080E-01
       -2   -1    0    0    0  501  0.00000000000E+00  0.00000000000E+00  0.44559440876E+03  0.44559440877E+03  0.25500000920E-02 0.  1.
        2   -1    0    0  501    0  0.00000000000E+00  0.00000000000E+00 -0.80756617502E+03  0.80756617503E+03  0.25500000920E-02 0. -1.
    10030    2    1    2    0    0  0.00000000000E+00  0.00000000000E+00 -0.36197176626E+03  0.12531605838E+04  0.11997449267E+04 0.  0.
        5    1    3    3  502    0 -0.22556590100E+03  0.42793201913E+03 -0.55148832990E+03  0.73359883908E+03  0.46999998093E+01 0. -1.
       -5    1    3    3    0  502  0.22556590100E+03 -0.42793201913E+03  0.18951656364E+03  0.51956174472E+03  0.46999998093E+01 0.  1.
</event>
<event>
 5   0  0.5447074E-04  0.1191119E+04  0.7818609E-02  0.9120666E-01
       -1   -1    0    0    0  501  0.00000000000E+00  0.00000000000E+00  0.34042650994E+03  0.34042650998E+03  0.50400001928E-02 0.  1.
        1   -1    0    0  501    0  0.00000000000E+00  0.00000000000E+00 -0.10419013072E+04  0.10419013072E+04  0.50400001928E-02 0. -1.
    10030    2    1    2    0    0  0.00000000000E+00  0.00000000000E+00 -0.70147479729E+03  0.13823278172E+04  0.11911185092E+04 0.  0.
        4    1    3    3  502    0  0.10546140828E+03  0.13980175086E+03  0.30987041857E+03  0.35593247588E+03  0.12699999809E+01 0.  1.
       -4    1    3    3    0  502 -0.10546140828E+03 -0.13980175086E+03 -0.10113452159E+04  0.10263953413E+04  0.12699999809E+01 0. -1.
</event>
<event>
 5   0  0.3453625E-04  0.1196073E+04  0.7818609E-02  0.9116300E-01
       -3   -1    0    0    0  501  0.00000000000E+00  0.00000000000E+00  0.12313356661E+04  0.12313356702E+04  0.10100000352E+00 0.  1.
        3   -1    0    0  501    0  0.00000000000E+00  0.00000000000E+00 -0.29045520177E+03  0.29045521933E+03  0.10100000352E+00 0. -1.
    10030    2    1    2    0    0  0.00000000000E+00  0.00000000000E+00  0.94088046432E+03  0.15217908896E+04  0.11960733520E+04 0.  0.
        2    1    3    3  502    0  0.57693506710E+03 -0.31244022839E+02  0.66679715229E+03  0.88229740049E+03  0.25500000920E-02 0.  1.
       -2    1    3    3    0  502 -0.57693506710E+03  0.31244022839E+02  0.27408331203E+03  0.63949348906E+03  0.25500000920E-02 0. -1.
</event>
<event>
 5   0  0.5447074E-04  0.1234967E+04  0.7818609E-02  0.9082789E-01
       -1   -1    0    0    0  501  0.00000000000E+00  0.00000000000E+00  0.41939399864E+03  0.41939399867E+03  0.50400001928E-02 0.  1.
        1   -1    0    0  501    0  0.00000000000E+00  0.00000000000E+00 -0.90913505216E+03  0.90913505217E+03  0.50400001928E-02 0. -1.
    10030    2    1    2    0    0  0.00000000000E+00  0.00000000000E+00 -0.48974105352E+03  0.13285290508E+04  0.12349668576E+04 0.  0.
        4    1    3    3  502    0 -0.26591261075E+03 -0.40647232082E+02 -0.84278696522E+03  0.88467688773E+03  0.12699999809E+01 0. -1.
       -4    1    3    3    0  502  0.26591261075E+03  0.40647232082E+02  0.35304591170E+03  0.44385216311E+03  0.12699999809E+01 0.  1.
</event>
<event>
 5   0  0.5003507E-04  0.1201379E+04  0.7818609E-02  0.9111651E-01
        1   -1    0    0  501    0  0.00000000000E+00  0.00000000000E+00  0.81015865002E+03  0.81015865004E+03  0.50400001928E-02 0. -1.
       -1   -1    0    0    0  501  0.00000000000E+00  0.00000000000E+00 -0.44537901648E+03  0.44537901650E+03  0.50400001928E-02 0.  1.
    10030    2    1    2    0    0  0.00000000000E+00  0.00000000000E+00  0.36477963355E+03  0.12555376665E+04  0.12013786460E+04 0.  0.
        3    1    3    3  502    0 -0.29469398307E+03 -0.57594695126E+02  0.72609898746E+03  0.78573624223E+03  0.10100000352E+00 0. -1.
       -3    1    3    3    0  502  0.29469398307E+03  0.57594695126E+02 -0.36131935392E+03  0.46980142431E+03  0.10100000352E+00 0.  1.
</event>
<event>
 5   0  0.5001586E-04  0.1238768E+04  0.7818609E-02  0.9079583E-01
        1   -1    0    0  501    0  0.00000000000E+00  0.00000000000E+00  0.93408795280E+03  0.93408795281E+03  0.50400001928E-02 0. -1.
       -1   -1    0    0    0  501  0.00000000000E+00  0.00000000000E+00 -0.41070733460E+03  0.41070733463E+03  0.50400001928E-02 0.  1.
    10030    2    1    2    0    0  0.00000000000E+00  0.00000000000E+00  0.52338061820E+03  0.13447952874E+04  0.12387683777E+04 0.  0.
        1    1    3    3  502    0 -0.42716142333E+03 -0.40361838377E+03  0.49341209275E+02  0.58975353857E+03  0.50400001928E-02 0.  1.
       -1    1    3    3    0  502  0.42716142333E+03  0.40361838377E+03  0.47403940893E+03  0.75504174887E+03  0.50400001928E-02 0. -1.
</event>
<event>
 5   0  0.9145224E-04  0.1197187E+04  0.7818609E-02  0.9115323E-01
       -2   -1    0    0    0  501  0.00000000000E+00  0.00000000000E+00  0.30218462909E+03  0.30218462910E+03  0.25500000920E-02 0.  1.
        2   -1    0    0  501    0  0.00000000000E+00  0.00000000000E+00 -0.11857451049E+04  0.11857451049E+04  0.25500000920E-02 0. -1.
    10030    2    1    2    0    0  0.00000000000E+00  0.00000000000E+00 -0.88356047580E+03  0.14879297340E+04  0.11971866099E+04 0.  0.
        5    1    3    3  502    0  0.11042864788E+03  0.58671125449E+03 -0.49548643483E+03  0.77585661016E+03  0.46999998093E+01 0.  1.
       -5    1    3    3    0  502 -0.11042864788E+03 -0.58671125449E+03 -0.38807404097E+03  0.71207312384E+03  0.46999998093E+01 0. -1.
</event>
<event>
 5   0  0.9145224E-04  0.1218546E+04  0.7818609E-02  0.9096776E-01
        2   -1    0    0  501    0  0.00000000000E+00  0.00000000000E+00  0.85222086994E+03  0.85222086994E+03  0.25500000920E-02 0.  1.
       -2   -1    0    0    0  501  0.00000000000E+00  0.00000000000E+00 -0.43558374801E+03  0.43558374801E+03  0.25500000920E-02 0. -1.
    10030    2    1    2    0    0  0.00000000000E+00  0.00000000000E+00  0.41663712193E+03  0.12878046180E+04  0.12185459543E+04 0.  0.
        5    1    3    3  502    0  0.34659263848E+03  0.38306116794E+03  0.54967721026E+03  0.75434040122E+03  0.46999998093E+01 0.  1.
       -5    1    3    3    0  502 -0.34659263848E+03 -0.38306116794E+03 -0.13304008833E+03  0.53346421673E+03  0.46999998093E+01 0. -1.
</event>
<event>
 5   0  0.3453625E-04  0.1200142E+04  0.7818609E-02  0.9112732E-01
        4   -1    0    0  501    0  0.00000000000E+00  0.00000000000E+00  0.63828723484E+03  0.63828849829E+03  0.12699999809E+01 0.  1.
       -4   -1    0    0    0  501  0.00000000000E+00  0.00000000000E+00 -0.56414011797E+03  0.56414154749E+03  0.12699999809E+01 0. -1.
    10030    2    1    2    0    0  0.00000000000E+00  0.00000000000E+00  0.74147116863E+02  0.12024300458E+04  0.12001417500E+04 0.  0.
        2    1    3    3  502    0 -0.74005955806E+02 -0.26538693971E+03  0.57117341444E+03  0.63414996541E+03  0.25500000920E-02 0.  1.
       -2    1    3    3    0  502  0.74005955806E+02  0.26538693971E+03 -0.49702629757E+03  0.56828008037E+03  0.25500000920E-02 0. -1.
</event>
<event>
 5   0  0.5001586E-04  0.1195465E+04  0.7818609E-02  0.9116835E-01
       -1   -1    0    0    0  501  0.00000000000E+00  0.00000000000E+00  0.38500051460E+03  0.38500051464E+03  0.50400001928E-02 0. -1.
        1   -1    0    0  501    0  0.00000000000E+00  0.00000000000E+00 -0.92800996448E+03  0.92800996449E+03  0.50400001928E-02 0.  1.
    10030    2    1    2    0    0  0.00000000000E+00  0.00000000000E+00 -0.54300944988E+03  0.13130104791E+04  0.11954652883E+04 0.  0.
        1    1    3    3  502    0  0.14972850151E+02 -0.37250630205E+03  0.24166056872E+03  0.44428027394E+03  0.50400001928E-02 0. -1.
       -1    1    3    3    0  502 -0.14972850151E+02  0.37250630205E+03 -0.78467001859E+03  0.86873020519E+03  0.50400001928E-02 0.  1.
</event>
<event>
 5   0  0.9298693E-04  0.1213685E+04  0.7818609E-02  0.9100962E-01
        2   -1    0    0  501    0  0.00000000000E+00  0.00000000000E+00  0.68394248692E+03  0.68394248693E+03  0.25500000920E-02 0. -1.
       -2   -1    0    0    0  501  0.00000000000E+00  0.00000000000E+00 -0.53843351684E+03  0.53843351685E+03  0.25500000920E-02 0.  1.
    10030    2    1    2    0    0  0.00000000000E+00  0.00000000000E+00  0.14550897008E+03  0.12223760038E+04  0.12136845695E+04 0.  0.
        1    1    3    3  502    0 -0.56910631101E+03  0.21061990551E+03  0.76631820963E+02  0.61164955149E+03  0.50400001928E-02 0. -1.
       -1    1    3    3    0  502  0.56910631101E+03 -0.21061990551E+03  0.68877149116E+02  0.61072645229E+03  0.50400001928E-02 0.  1.
</event>
<event>
 5   0  0.9298693E-04  0.1199281E+04  0.7818609E-02  0.9113486E-01
        2   -1    0    0  501    0  0.00000000000E+00  0.00000000000E+00  0.14436469601E+04  0.14436469601E+04  0.25500000920E-02 0.  1.
       -2   -1    0    0    0  501  0.00000000000E+00  0.00000000000E+00 -0.24906984867E+03  0.24906984869E+03  0.25500000920E-02 0. -1.
    10030    2    1    2    0    0  0.00000000000E+00  0.00000000000E+00  0.11945771115E+04  0.16927168088E+04  0.11992813347E+04 0.  0.
        1    1    3    3  502    0  0.45687497465E+03  0.97095897046E+02  0.11280483692E+04  0.12209240267E+04  0.50400001928E-02 0.  1.
       -1    1    3    3    0  502 -0.45687497465E+03 -0.97095897046E+02  0.66528742246E+02  0.47179278211E+03  0.50400001928E-02 0. -1.
</event>
<event>
 5   0  0.5003507E-04  0.1193838E+04  0.7818609E-02  0.9118267E-01
        1   -1    0    0  501    0  0.00000000000E+00  0.00000000000E+00  0.88671217294E+03  0.88671217295E+03  0.50400001928E-02 0. -1.
       -1   -1    0    0    0  501  0.00000000000E+00  0.00000000000E+00 -0.40183567417E+03  0.40183567420E+03  0.50400001928E-02 0.  1.
    10030    2    1    2    0    0  0.00000000000E+00  0.00000000000E+00  0.48487649877E+03  0.12885478472E+04  0.11938384880E+04 0.  0.
        3    1    3    3  502    0  0.58233159955E+03 -0.13038940518E+03  0.22713285175E+03  0.63851455063E+03  0.10100000352E+00 0.  1.
       -3    1    3    3    0  502 -0.58233159955E+03  0.13038940518E+03  0.25774364701E+03  0.65003329653E+03  0.10100000352E+00 0. -1.
</event>
<event>
 5   0  0.9070772E-04  0.1196910E+04  0.7818609E-02  0.9115565E-01
       -2   -1    0    0    0  501  0.00000000000E+00  0.00000000000E+00  0.97987330515E+03  0.97987330515E+03  0.25500000920E-02 0. -1.
        2   -1    0    0  501    0  0.00000000000E+00  0.00000000000E+00 -0.36550487054E+03  0.36550487055E+03  0.25500000920E-02 0.  1.
    10030    2    1    2    0    0  0.00000000000E+00  0.00000000000E+00  0.61436843461E+03  0.13453781757E+04  0.11969101312E+04 0.  0.
        4    1    3    3  502    0  0.19673831194E+03  0.51454425502E+03  0.57003987928E+03  0.79272241714E+03  0.12699999809E+01 0. -1.
       -4    1    3    3    0  502 -0.19673831194E+03 -0.51454425502E+03  0.44328555325E+02  0.55265575857E+03  0.12699999809E+01 0.  1.
</event>
<event>
 5   0  0.5052959E-04  0.1201627E+04  0.7818609E-02  0.9111433E-01
       -1   -1    0    0    0  501  0.00000000000E+00  0.00000000000E+00  0.52015381790E+03  0.52015381792E+03  0.50400001928E-02 0.  1.
        1   -1    0    0  501    0  0.00000000000E+00  0.00000000000E+00 -0.69398155860E+03  0.69398155862E+03  0.50400001928E-02 0. -1.
    10030    2    1    2    0    0  0.00000000000E+00  0.00000000000E+00 -0.17382774071E+03  0.12141353765E+04  0.12016274918E+04 0.  0.
        2    1    3    3  502    0  0.39285822932E+03 -0.18969228707E+03 -0.50431974205E+03  0.66682767965E+03  0.25500000920E-02 0. -1.
       -2    1    3    3    0  502 -0.39285822932E+03  0.18969228707E+03  0.33049200134E+03  0.54730769689E+03  0.25500000920E-02 0.  1.
</event>
<event>
 5   0  0.9410666E-04  0.1199708E+04  0.7818609E-02  0.9113112E-01
       -2   -1    0    0    0  501  0.00000000000E+00  0.00000000000E+00  0.31090650184E+03  0.31090650185E+03  0.25500000920E-02 0.  1.
        2   -1    0    0  501    0  0.00000000000E+00  0.00000000000E+00 -0.11573405153E+04  0.11573405153E+04  0.25500000920E-02 0. -1.
    10030    2    1    2    0    0  0.00000000000E+00  0.00000000000E+00 -0.84643401349E+03  0.14682470172E+04  0.11997077829E+04 0.  0.
        2    1    3    3  502    0  0.26757667506E+03 -0.23249832689E+03  0.16901391583E+03  0.39270657340E+03  0.25500000920E-02 0.  1.
       -2    1    3    3    0  502 -0.26757667506E+03  0.23249832689E+03 -0.10154479293E+04  0.10755404438E+04  0.25500000920E-02 0. -1.
</event>
<event>
 5   0  0.5001586E-04  0.1204732E+04  0.7818609E-02  0.9108725E-01
       -1   -1    0    0    0  501  0.00000000000E+00  0.00000000000E+00  0.41320817998E+03  0.41320818001E+03  0.50400001928E-02 0. -1.
        1   -1    0    0  501    0  0.00000000000E+00  0.00000000000E+00 -0.87811645322E+03  0.87811645323E+03  0.50400001928E-02 0.  1.
    10030    2    1    2    0    0  0.00000000000E+00  0.00000000000E+00 -0.46490827323E+03  0.12913246332E+04  0.12047321719E+04 0.  0.
        1    1    3    3  502    0  0.52405226284E+03 -0.52450296726E+02 -0.54580740747E+03  0.75847711494E+03  0.50400001928E-02 0.  1.
       -1    1    3    3    0  502 -0.52405226284E+03  0.52450296726E+02  0.80899134238E+02  0.53284751830E+03  0.50400001928E-02 0. -1.
</event>
<event>
 5   0  0.9410666E-04  0.1198327E+04  0.7818609E-02  0.9114322E-01
        2   -1    0    0  501    0  0.00000000000E+00  0.00000000000E+00  0.29636204846E+03  0.29636204848E+03  0.25500000920E-02 0.  1.
       -2   -1    0    0    0  501  0.00000000000E+00  0.00000000000E+00 -0.12113457676E+04  0.12113457676E+04  0.25500000920E-02 0. -1.
    10030    2    1    2    0    0  0.00000000000E+00  0.00000000000E+00 -0.91498371918E+03  0.15077078161E+04  0.11983270223E+04 0.  0.
        2    1    3    3  502    0 -0.14755497161E+03 -0.57289454794E+03 -0.57696094478E+03  0.82635619712E+03  0.25500000920E-02 0. -1.
       -2    1    3    3    0  502  0.14755497161E+03  0.57289454794E+03 -0.33802277439E+03  0.68135161900E+03  0.25500000920E-02 0.  1.
</event>
<event>
 5   0  0.9145224E-04  0.1204001E+04  0.7818609E-02  0.9109361E-01
       -2   -1    0    0    0  501  0.00000000000E+00  0.00000000000E+00  0.10288578160E+04  0.10288578160E+04  0.25500000920E-02 0. -1.
        2   -1    0    0  501    0  0.00000000000E+00  0.00000000000E+00 -0.35223998143E+03  0.35223998144E+03  0.25500000920E-02 0.  1.
    10030    2    1    2    0    0  0.00000000000E+00  0.00000000000E+00  0.67661783453E+03  0.13810977974E+04  0.12040014253E+04 0.  0.
        5    1    3    3  502    0 -0.60166274921E+03  0.18149061700E+02  0.32977748519E+03  0.68636923879E+03  0.46999998093E+01 0.  1.
       -5    1    3    3    0  502  0.60166274921E+03 -0.18149061700E+02  0.34684034934E+03  0.69472855862E+03  0.46999998093E+01 0. -1.
</event>
<event>
 5   0  0.9145224E-04  0.1200620E+04  0.7818609E-02  0.9112314E-01
        2   -1    0    0  501    0  0.00000000000E+00  0.00000000000E+00  0.14864693560E+04  0.14864693560E+04  0.25500000920E-02 0.  1.
       -2   -1    0    0    0  501  0.00000000000E+00  0.00000000000E+00 -0.24243511299E+03  0.24243511300E+03  0.25500000920E-02 0. -1.
    10030    2    1    2    0    0  0.00000000000E+00  0.00000000000E+00  0.12440342430E+04  0.17289044690E+04  0.12006204501E+04 0.  0.
        5    1    3    3  502    0  0.23867720121E+03 -0.55055292860E+03  0.64589448501E+03  0.88163320566E+03  0.46999998093E+01 0.  1.
       -5    1    3    3    0  502 -0.23867720121E+03  0.55055292860E+03  0.59813975796E+03  0.84727126330E+03  0.46999998093E+01 0. -1.
</event>
<event>
 5   0  0.3453625E-04  0.1199608E+04  0.7818609E-02  0.9113200E-01
        4   -1    0    0  501    0  0.00000000000E+00  0.00000000000E+00  0.69073915635E+03  0.69074032386E+03  0.12699999809E+01 0.  1.
       -4   -1    0    0    0  501  0.00000000000E+00  0.00000000000E+00 -0.52083757461E+03  0.52083912298E+03  0.12699999809E+01 0. -1.
    10030    2    1    2    0    0  0.00000000000E+00  0.00000000000E+00  0.16990158174E+03  0.12115794468E+04  0.11996075227E+04 0.  0.
        4    1    3    3  502    0 -0.17442959290E+02 -0.47273484010E+03  0.45738619536E+03  0.65801689225E+03  0.12699999809E+01 0.  1.
       -4    1    3    3    0  502  0.17442959290E+02  0.47273484010E+03 -0.28748461362E+03  0.55356255459E+03  0.12699999809E+01 0. -1.
</event>
<event>
 5   0  0.5001586E-04  0.1199307E+04  0.7818609E-02  0.9113463E-01
        1   -1    0    0  501    0  0.00000000000E+00  0.00000000000E+00  0.40072214730E+03  0.40072214733E+03  0.50400001928E-02 0. -1.
       -1   -1    0    0    0  501  0.00000000000E+00  0.00000000000E+00 -0.89734078161E+03  0.89734078163E+03  0.50400001928E-02 0.  1.
    10030    2    1    2    0    0  0.00000000000E+00  0.00000000000E+00 -0.49661863432E+03  0.12980629290E+04  0.11993070081E+04 0.  0.
        1    1    3    3  502    0  0.27468885055E+03 -0.30410156029E+02  0.32768245641E+03  0.42866599406E+03  0.50400001928E-02 0. -1.
       -1    1    3    3    0  502 -0.27468885055E+03  0.30410156029E+02 -0.82430109072E+03  0.86939693489E+03  0.50400001928E-02 0.  1.
</event>
<event>
 5   0  0.5003507E-04  0.1147132E+04  0.7818609E-02  0.9160433E-01
        1   -1    0    0  501    0  0.00000000000E+00  0.00000000000E+00  0.10212447235E+04  0.10212447236E+04  0.50400001928E-02 0. -1.
       -1   -1    0    0    0  501  0.00000000000E+00  0.00000000000E+00 -0.32213435452E+03  0.32213435456E+03  0.50400001928E-02 0.  1.
    10030    2    1    2    0    0  0.00000000000E+00  0.00000000000E+00  0.69911036902E+03  0.13433790781E+04  0.11471320933E+04 0.  0.
        3    1    3    3  502    0 -0.31576999766E+03 -0.34967870376E+03  0.73261009240E+03  0.87103584597E+03  0.10100000352E+00 0. -1.
       -3    1    3    3    0  502  0.31576999766E+03  0.34967870376E+03 -0.33499723375E+02  0.47234323215E+03  0.10100000352E+00 0.  1.
</event>
<event>
 5   0  0.5003507E-04  0.1205408E+04  0.7818609E-02  0.9108136E-01
       -1   -1    0    0    0  501  0.00000000000E+00  0.00000000000E+00  0.25809159763E+03  0.25809159768E+03  0.50400001928E-02 0. -1.
        1   -1    0    0  501    0  0.00000000000E+00  0.00000000000E+00 -0.14074542858E+04  0.14074542858E+04  0.50400001928E-02 0.  1.
    10030    2    1    2    0    0  0.00000000000E+00  0.00000000000E+00 -0.11493626882E+04  0.16655458835E+04  0.12054080226E+04 0.  0.
        3    1    3    3  502    0 -0.36873656916E+03 -0.46534615081E+03 -0.43149794527E+03  0.73396470248E+03  0.10100000352E+00 0. -1.
       -3    1    3    3    0  502  0.36873656916E+03  0.46534615081E+03 -0.71786474289E+03  0.93158118100E+03  0.10100000352E+00 0.  1.
</event>
<event>
 5   0  0.9298693E-04  0.1205714E+04  0.7818609E-02  0.9107870E-01
        2   -1    0    0  501    0  0.00000000000E+00  0.00000000000E+00  0.82404328059E+03  0.82404328059E+03  0.25500000920E-02 0.  1.
       -2   -1    0    0    0  501  0.00000000000E+00  0.00000000000E+00 -0.44104079593E+03  0.44104079594E+03  0.25500000920E-02 0. -1.
    10030    2    1    2    0    0  0.00000000000E+00  0.00000000000E+00  0.38300248466E+03  0.12650840765E+04  0.12057142354E+04 0.  0.
        1    1    3    3  502    0 -0.31741172783E+03 -0.75109555436E+02 -0.34045955312E+03  0.47149163049E+03  0.50400001928E-02 0. -1.
       -1    1    3    3    0  502  0.31741172783E+03  0.75109555436E+02  0.72346203778E+03  0.79359244604E+03  0.50400001928E-02 0.  1.
</event>
<event>
 5   0  0.5157631E-04  0.1202209E+04  0.7818609E-02  0.9110926E-01
       -1   -1    0    0    0  501  0.00000000000E+00  0.00000000000E+00  0.24545887340E+03  0.24545887346E+03  0.50400001928E-02 0. -1.
        1   -1    0    0  501    0  0.00000000000E+00  0.00000000000E+00 -0.14720445912E+04  0.14720445912E+04  0.50400001928E-02 0.  1.
    10030    2    1    2    0    0  0.00000000000E+00  0.00000000000E+00 -0.12265857178E+04  0.17175034647E+04  0.12022086458E+04 0.  0.
        5    1    3    3  502    0 -0.45117962618E+03 -0.23412731167E+03 -0.10716242608E+04  0.11860772738E+04  0.46999998093E+01 0.  1.
       -5    1    3    3    0  502  0.45117962618E+03  0.23412731167E+03 -0.15496145698E+03  0.53142619083E+03  0.46999998093E+01 0. -1.
</event>
<event>
 5   0  0.9298693E-04  0.1206612E+04  0.7818609E-02  0.9107088E-01
       -2   -1    0    0    0  501  0.00000000000E+00  0.00000000000E+00  0.61323980772E+03  0.61323980772E+03  0.25500000920E-02 0.  1.
        2   -1    0    0  501    0  0.00000000000E+00  0.00000000000E+00 -0.59353343518E+03  0.59353343519E+03  0.25500000920E-02 0. -1.
    10030    2    1    2    0    0  0.00000000000E+00  0.00000000000E+00  0.19706372532E+02  0.12067732429E+04  0.12066123316E+04 0.  0.
        1    1    3    3  502    0  0.23154346991E+03 -0.53573633634E+03  0.16268890860E+03  0.60588239910E+03  0.50400001928E-02 0. -1.
       -1    1    3    3    0  502 -0.23154346991E+03  0.53573633634E+03 -0.14298253607E+03  0.60089084381E+03  0.50400001928E-02 0.  1.
</event>
<event>
 5   0  0.9050363E-04  0.1194463E+04  0.7818609E-02  0.9117717E-01
        2   -1    0    0  501    0  0.00000000000E+00  0.00000000000E+00  0.35604383821E+03  0.35604383822E+03  0.25500000920E-02 0.  1.
       -2   -1    0    0    0  501  0.00000000000E+00  0.00000000000E+00 -0.10018016300E+04  0.10018016300E+04  0.25500000920E-02 0. -1.
    10030    2    1    2    0    0  0.00000000000E+00  0.00000000000E+00 -0.64575779175E+03  0.13578454682E+04  0.11944627202E+04 0.  0.
        3    1    3    3  502    0  0.24688055683E+03 -0.50916690846E+02  0.29260591536E+03  0.38621334862E+03  0.10100000352E+00 0.  1.
       -3    1    3    3    0  502 -0.24688055683E+03  0.50916690846E+02 -0.93836370711E+03  0.97163211956E+03  0.10100000352E+00 0. -1.
</event>
<event>
 5   0  0.9410666E-04  0.1204232E+04  0.7818609E-02  0.9109160E-01
        2   -1    0    0  501    0  0.00000000000E+00  0.00000000000E+00  0.13879216449E+04  0.13879216449E+04  0.25500000920E-02 0. -1.
       -2   -1    0    0    0  501  0.00000000000E+00  0.00000000000E+00 -0.26121328383E+03  0.26121328385E+03  0.25500000920E-02 0.  1.
    10030    2    1    2    0    0  0.00000000000E+00  0.00000000000E+00  0.11267083610E+04  0.16491349287E+04  0.12042318225E+04 0.  0.
        2    1    3    3  502    0 -0.10706743159E+02 -0.59574144196E+02 -0.25703633824E+03  0.26406702215E+03  0.25500000920E-02 0.  1.
       -2    1    3    3    0  502  0.10706743159E+02  0.59574144196E+02  0.13837446993E+04  0.13850679066E+04  0.25500000920E-02 0. -1.
</event>
<event>
 5   0  0.5052959E-04  0.1182391E+04  0.7818609E-02  0.9128411E-01
       -1   -1    0    0    0  501  0.00000000000E+00  0.00000000000E+00  0.11140241450E+04  0.11140241450E+04  0.50400001928E-02 0.  1.
        1   -1    0    0  501    0  0.00000000000E+00  0.00000000000E+00 -0.31373839297E+03  0.31373839301E+03  0.50400001928E-02 0. -1.
    10030    2    1    2    0    0  0.00000000000E+00  0.00000000000E+00  0.80028575205E+03  0.14277625380E+04  0.11823910436E+04 0.  0.
        2    1    3    3  502    0  0.54517995546E+03  0.22856397143E+03  0.39164960036E+03  0.70912064019E+03  0.25500000920E-02 0. -1.
       -2    1    3    3    0  502 -0.54517995546E+03 -0.22856397143E+03  0.40863615168E+03  0.71864189785E+03  0.25500000920E-02 0.  1.
</event>
<event>
 5   0  0.9145224E-04  0.1202583E+04  0.7818609E-02  0.9110599E-01
       -2   -1    0    0    0  501  0.00000000000E+00  0.00000000000E+00  0.31692917178E+03  0.31692917179E+03  0.25500000920E-02 0.  1.
        2   -1    0    0  501    0  0.00000000000E+00  0.00000000000E+00 -0.11407956913E+04  0.11407956913E+04  0.25500000920E-02 0. -1.
    10030    2    1    2    0    0  0.00000000000E+00  0.00000000000E+00 -0.82386651955E+03  0.14577248631E+04  0.12025829429E+04 0.  0.
        5    1    3    3  502    0 -0.26627684903E+03 -0.50692116285E+02 -0.10625110081E+04  0.10965513136E+04  0.46999998093E+01 0. -1.
       -5    1    3    3    0  502  0.26627684903E+03  0.50692116285E+02  0.23864448854E+03  0.36117354955E+03  0.46999998093E+01 0.  1.
</event>
<event>
 5   0  0.3453625E-04  0.1194899E+04  0.7818609E-02  0.9117333E-01
       -3   -1    0    0    0  501  0.00000000000E+00  0.00000000000E+00  0.34949593037E+03  0.34949594496E+03  0.10100000352E+00 0.  1.
        3   -1    0    0  501    0  0.00000000000E+00  0.00000000000E+00 -0.10213157276E+04  0.10213157326E+04  0.10100000352E+00 0. -1.
    10030    2    1    2    0    0  0.00000000000E+00  0.00000000000E+00 -0.67181979722E+03  0.13708116775E+04  0.11948986632E+04 0.  0.
        1    1    3    3  502    0 -0.22612802245E+03  0.37146764302E+01 -0.97031118716E+03  0.99631896565E+03  0.50400001928E-02 0. -1.
       -1    1    3    3    0  502  0.22612802245E+03 -0.37146764302E+01  0.29849138994E+03  0.37449271189E+03  0.50400001928E-02 0.  1.
</event>
<event>
 5   0  0.9145224E-04  0.1204780E+04  0.7818609E-02  0.9108683E-01
       -2   -1    0    0    0  501  0.00000000000E+00  0.00000000000E+00  0.70462188746E+03  0.70462188747E+03  0.25500000920E-02 0.  1.
        2   -1    0    0  501    0  0.00000000000E+00  0.00000000000E+00 -0.51499085312E+03  0.51499085313E+03  0.25500000920E-02 0. -1.
    10030    2    1    2    0    0  0.00000000000E+00  0.00000000000E+00  0.18963103434E+03  0.12196127406E+04  0.12047801907E+04 0.  0.
        5    1    3    3  502    0 -0.43378917630E+03 -0.18607232621E+03 -0.28403217664E+03  0.55090137722E+03  0.46999998093E+01 0. -1.
       -5    1    3    3    0  502  0.43378917630E+03  0.18607232621E+03  0.47366321098E+03  0.66871136337E+03  0.46999998093E+01 0.  1.
</event>
<event>
 5   0  0.9298693E-04  0.1195861E+04  0.7818609E-02  0.9116487E-01
        2   -1    0    0  501    0  0.00000000000E+00  0.00000000000E+00  0.16687210169E+04  0.16687210169E+04  0.25500000920E-02 0. -1.
       -2   -1    0    0    0  501  0.00000000000E+00  0.00000000000E+00 -0.21424855880E+03  0.21424855881E+03  0.25500000920E-02 0.  1.
    10030    2    1    2    0    0  0.00000000000E+00  0.00000000000E+00  0.14544724581E+04  0.18829695758E+04  0.11958613179E+04 0.  0.
        1    1    3    3  502    0 -0.37653338701E+03 -0.34008683551E+03  0.22910224742E+03  0.55670843986E+03  0.50400001928E-02 0. -1.
       -1    1    3    3    0  502  0.37653338701E+03  0.34008683551E+03  0.12253702107E+04  0.13262611359E+04  0.50400001928E-02 0.  1.
</event>
<event>
 5   0  0.9070772E-04  0.1195666E+04  0.7818609E-02  0.9116659E-01
       -2   -1    0    0    0  501  0.00000000000E+00  0.00000000000E+00  0.18900952856E+03  0.18900952858E+03  0.25500000920E-02 0.  1.
        2   -1    0    0  501    0  0.00000000000E+00  0.00000000000E+00 -0.18909312013E+04  0.18909312013E+04  0.25500000920E-02 0. -1.
    10030    2    1    2    0    0  0.00000000000E+00  0.00000000000E+00 -0.17019216727E+04  0.20799407298E+04  0.11956655300E+04 0.  0.
        4    1    3    3  502    0 -0.19882932355E+03  0.55775803526E+03 -0.70777345295E+03  0.92280658829E+03  0.12699999809E+01 0.  1.
       -4    1    3    3    0  502  0.19882932355E+03 -0.55775803526E+03 -0.99414821974E+03  0.11571341415E+04  0.12699999809E+01 0. -1.
</event>
<event>
 5   0  0.5052959E-04  0.1203917E+04  0.7818609E-02  0.9109435E-01
       -1   -1    0    0    0  501  0.00000000000E+00  0.00000000000E+00  0.62931421700E+03  0.62931421702E+03  0.50400001928E-02 0. -1.
        1   -1    0    0  501    0  0.00000000000E+00  0.00000000000E+00 -0.57579223385E+03  0.57579223387E+03  0.50400001928E-02 0.  1.
    10030    2    1    2    0    0  0.00000000000E+00  0.00000000000E+00  0.53521983157E+02  0.12051064509E+04  0.12039173374E+04 0.  0.
        2    1    3    3  502    0 -0.90602379214E+02 -0.53850672399E+03  0.28030142748E+03  0.61381363064E+03  0.25500000920E-02 0. -1.
       -2    1    3    3    0  502  0.90602379214E+02  0.53850672399E+03 -0.22677944432E+03  0.59129282025E+03  0.25500000920E-02 0.  1.
</event>
<event>
 5   0  0.5052959E-04  0.1201476E+04  0.7818609E-02  0.9111565E-01
        1   -1    0    0  501    0  0.00000000000E+00  0.00000000000E+00  0.68054378317E+03  0.68054378319E+03  0.50400001928E-02 0.  1.
       -1   -1    0    0    0  501  0.00000000000E+00  0.00000000000E+00 -0.53029093873E+03  0.53029093876E+03  0.50400001928E-02 0. -1.
    10030    2    1    2    0    0  0.00000000000E+00  0.00000000000E+00  0.15025284444E+03  0.12108347220E+04  0.12014760949E+04 0.  0.
        2    1    3    3  502    0 -0.37378132907E+03 -0.44335179704E+03  0.23323344424E+03  0.62503690884E+03  0.25500000920E-02 0. -1.
       -2    1    3    3    0  502  0.37378132907E+03  0.44335179704E+03 -0.82980599799E+02  0.58579781311E+03  0.25500000920E-02 0.  1.
</event>
<event>
 5   0  0.9145224E-04  0.1207906E+04  0.7818609E-02  0.9105965E-01
        2   -1    0    0  501    0  0.00000000000E+00  0.00000000000E+00  0.16387731404E+04  0.16387731404E+04  0.25500000920E-02 0. -1.
       -2   -1    0    0    0  501  0.00000000000E+00  0.00000000000E+00 -0.22258054673E+03  0.22258054674E+03  0.25500000920E-02 0.  1.
    10030    2    1    2    0    0  0.00000000000E+00  0.00000000000E+00  0.14161925937E+04  0.18613536872E+04  0.12079056612E+04 0.  0.
        5    1    3    3  502    0 -0.19451414771E+03 -0.71439302595E+02  0.15822489706E+04  0.15957672833E+04  0.46999998093E+01 0. -1.
       -5    1    3    3    0  502  0.19451414771E+03  0.71439302595E+02 -0.16605637688E+03  0.26558640386E+03  0.46999998093E+01 0.  1.
</event>
<event>
 5   0  0.9050363E-04  0.1198012E+04  0.7818609E-02  0.9114598E-01
       -2   -1    0    0    0  501  0.00000000000E+00  0.00000000000E+00  0.23557525061E+03  0.23557525063E+03  0.25500000920E-02 0. -1.
        2   -1    0    0  501    0  0.00000000000E+00  0.00000000000E+00 -0.15231157528E+04  0.15231157528E+04  0.25500000920E-02 0.  1.
    10030    2    1    2    0    0  0.00000000000E+00  0.00000000000E+00 -0.12875405022E+04  0.17586910034E+04  0.11980123124E+04 0.  0.
        3    1    3    3  502    0  0.18612107258E+02 -0.57156526394E+03 -0.38208951821E+03  0.68776861779E+03  0.10100000352E+00 0. -1.
       -3    1    3    3    0  502 -0.18612107258E+02  0.57156526394E+03 -0.90545098396E+03  0.10709223856E+04  0.10100000352E+00 0.  1.
</event>
<event>
 5   0  0.5052959E-04  0.1137001E+04  0.7818609E-02  0.9169860E-01
        1   -1    0    0  501    0  0.00000000000E+00  0.00000000000E+00  0.56792128976E+03  0.56792128979E+03  0.50400001928E-02 0. -1.
       -1   -1    0    0    0  501  0.00000000000E+00  0.00000000000E+00 -0.56908046008E+03  0.56908046010E+03  0.50400001928E-02 0.  1.
    10030    2    1    2    0    0  0.00000000000E+00  0.00000000000E+00 -0.11591703137E+01  0.11370017499E+04  0.11370011590E+04 0.  0.
        2    1    3    3  502    0  0.44735405754E+03 -0.20669934926E+03 -0.28402749679E+03  0.56878984935E+03  0.25500000920E-02 0. -1.
       -2    1    3    3    0  502 -0.44735405754E+03  0.20669934926E+03  0.28286832648E+03  0.56821190054E+03  0.25500000920E-02 0.  1.
</event>
<event>
 5   0  0.9070772E-04  0.1200361E+04  0.7818609E-02  0.9112541E-01
        2   -1    0    0  501    0  0.00000000000E+00  0.00000000000E+00  0.13554549470E+04  0.13554549470E+04  0.25500000920E-02 0.  1.
       -2   -1    0    0    0  501  0.00000000000E+00  0.00000000000E+00 -0.26575320741E+03  0.26575320742E+03  0.25500000920E-02 0. -1.
    10030    2    1    2    0    0  0.00000000000E+00  0.00000000000E+00  0.10897017396E+04  0.16212081545E+04  0.12003607786E+04 0.  0.
        4    1    3    3  502    0  0.30155108266E+03 -0.35393173427E+03  0.32308728474E+02  0.46609676550E+03  0.12699999809E+01 0. -1.
       -4    1    3    3    0  502 -0.30155108266E+03  0.35393173427E+03  0.10573930111E+04  0.11551113890E+04  0.12699999809E+01 0.  1.
</event>
<event>
 5   0  0.5447074E-04  0.1209880E+04  0.7818609E-02  0.9104252E-01
       -1   -1    0    0    0  501  0.00000000000E+00  0.00000000000E+00  0.43998370092E+03  0.43998370094E+03  0.50400001928E-02 0.  1.
        1   -1    0    0  501    0  0.00000000000E+00  0.00000000000E+00 -0.83174103974E+03  0.83174103976E+03  0.50400001928E-02 0. -1.
    10030    2    1    2    0    0  0.00000000000E+00  0.00000000000E+00 -0.39175733882E+03  0.12717247407E+04  0.12098801608E+04 0.  0.
        4    1    3    3  502    0  0.11192341174E+03 -0.44840527113E+03  0.21440252951E+03  0.50947443001E+03  0.12699999809E+01 0.  1.
       -4    1    3    3    0  502 -0.11192341174E+03  0.44840527113E+03 -0.60615986833E+03  0.76225031069E+03  0.12699999809E+01 0. -1.
</event>
<event>
 5   0  0.5003507E-04  0.1201534E+04  0.7818609E-02  0.9111515E-01
       -1   -1    0    0    0  501  0.00000000000E+00  0.00000000000E+00  0.82851394121E+03  0.82851394122E+03  0.50400001928E-02 0.  1.
        1   -1    0    0  501    0  0.00000000000E+00  0.00000000000E+00 -0.43562474946E+03  0.43562474949E+03  0.50400001928E-02 0. -1.
    10030    2    1    2    0    0  0.00000000000E+00  0.00000000000E+00  0.39288919174E+03  0.12641386907E+04  0.12015343159E+04 0.  0.
        3    1    3    3  502    0 -0.16903569548E+03 -0.56977025368E+03  0.28882600774E+03  0.66078111449E+03  0.10100000352E+00 0. -1.
       -3    1    3    3    0  502  0.16903569548E+03  0.56977025368E+03  0.10406318400E+03  0.60335757622E+03  0.10100000352E+00 0.  1.
</event>
<event>
 5   0  0.9050363E-04  0.1200785E+04  0.7818609E-02  0.9112169E-01
        2   -1    0    0  501    0  0.00000000000E+00  0.00000000000E+00  0.46900876530E+03  0.46900876531E+03  0.25500000920E-02 0. -1.
       -2   -1    0    0    0  501  0.00000000000E+00  0.00000000000E+00 -0.76858134709E+03  0.76858134710E+03  0.25500000920E-02 0.  1.
    10030    2    1    2    0    0  0.00000000000E+00  0.00000000000E+00 -0.29957258179E+03  0.12375901124E+04  0.12007853907E+04 0.  0.
        3    1    3    3  502    0  0.30603019828E+03 -0.13816643780E+03 -0.66276347265E+03  0.74296694251E+03  0.10100000352E+00 0.  1.
       -3    1    3    3    0  502 -0.30603019828E+03  0.13816643780E+03  0.36319089085E+03  0.49462316989E+03  0.10100000352E+00 0. -1.
</event>
<event>
 5   0  0.5052959E-04  0.1200544E+04  0.7818609E-02  0.9112380E-01
       -1   -1    0    0    0  501  0.00000000000E+00  0.00000000000E+00  0.31172092827E+03  0.31172092831E+03  0.50400001928E-02 0.  1.
        1   -1    0    0  501    0  0.00000000000E+00  0.00000000000E+00 -0.11559269732E+04  0.11559269733E+04  0.50400001928E-02 0. -1.
    10030    2    1    2    0    0  0.00000000000E+00  0.00000000000E+00 -0.84420604498E+03  0.14676479016E+04  0.12005442585E+04 0.  0.
        2    1    3    3  502    0 -0.22692717995E+03 -0.50033398602E+03 -0.12643186246E+03  0.56375088329E+03  0.25500000920E-02 0.  1.
       -2    1    3    3    0  502  0.22692717995E+03  0.50033398602E+03 -0.71777418252E+03  0.90389701828E+03  0.25500000920E-02 0. -1.
</event>
<event>
 5   0  0.9298693E-04  0.1194584E+04  0.7818609E-02  0.9117611E-01
        2   -1    0    0  501    0  0.00000000000E+00  0.00000000000E+00  0.85831449322E+03  0.85831449322E+03  0.25500000920E-02 0. -1.
       -2   -1    0    0    0  501  0.00000000000E+00  0.00000000000E+00 -0.41564901636E+03  0.41564901637E+03  0.25500000920E-02 0.  1.
    10030    2    1    2    0    0  0.00000000000E+00  0.00000000000E+00  0.44266547686E+03  0.12739635096E+04  0.11945837348E+04 0.  0.
        1    1    3    3  502    0  0.30850245071E+03  0.44584530926E+03 -0.45931082969E+02  0.54411530607E+03  0.50400001928E-02 0.  1.
       -1    1    3    3    0  502 -0.30850245071E+03 -0.44584530926E+03  0.48859655982E+03  0.72984820352E+03  0.50400001928E-02 0. -1.
</event>
<event>
 5   0  0.9050363E-04  0.1203939E+04  0.7818609E-02  0.9109416E-01
        2   -1    0    0  501    0  0.00000000000E+00  0.00000000000E+00  0.98608347809E+03  0.98608347809E+03  0.25500000920E-02 0. -1.
       -2   -1    0    0    0  501  0.00000000000E+00  0.00000000000E+00 -0.36748113898E+03  0.36748113899E+03  0.25500000920E-02 0.  1.
    10030    2    1    2    0    0  0.00000000000E+00  0.00000000000E+00  0.61860233911E+03  0.13535646171E+04  0.12039386690E+04 0.  0.
        3    1    3    3  502    0 -0.82252337173E+02  0.37657737071E+03 -0.21053853462E+03  0.43920661181E+03  0.10100000352E+00 0.  1.
       -3    1    3    3    0  502  0.82252337173E+02 -0.37657737071E+03  0.82914087373E+03  0.91435800527E+03  0.10100000352E+00 0. -1.
</event>
<event>
 5   0  0.5001586E-04  0.1199946E+04  0.7818609E-02  0.9112903E-01
       -1   -1    0    0    0  501  0.00000000000E+00  0.00000000000E+00  0.53884239689E+03  0.53884239691E+03  0.50400001928E-02 0.  1.
        1   -1    0    0  501    0  0.00000000000E+00  0.00000000000E+00 -0.66803918437E+03  0.66803918439E+03  0.50400001928E-02 0. -1.
    10030    2    1    2    0    0  0.00000000000E+00  0.00000000000E+00 -0.12919678749E+03  0.12068815813E+04  0.11999463910E+04 0.  0.
        1    1    3    3  502    0 -0.51406079609E+02  0.17310044471E+03  0.51086354889E+03  0.54183753524E+03  0.50400001928E-02 0.  1.
       -1    1    3    3    0  502  0.51406079609E+02 -0.17310044471E+03 -0.64006033638E+03  0.66504404607E+03  0.50400001928E-02 0. -1.
</event>
<event>
 5   0  0.5001586E-04  0.1201801E+04  0.7818609E-02  0.9111282E-01
        1   -1    0    0  501    0  0.00000000000E+00  0.00000000000E+00  0.87068841890E+03  0.87068841891E+03  0.50400001928E-02 0. -1.
       -1   -1    0    0    0  501  0.00000000000E+00  0.00000000000E+00 -0.41470768592E+03  0.41470768595E+03  0.50400001928E-02 0.  1.
    10030    2    1    2    0    0  0.00000000000E+00  0.00000000000E+00  0.45598073298E+03  0.12853961049E+04  0.12018006147E+04 0.  0.
        1    1    3    3  502    0 -0.17474694149E+03  0.16339953902E+03  0.81755415688E+03  0.85183959896E+03  0.50400001928E-02 0. -1.
       -1    1    3    3    0  502  0.17474694149E+03 -0.16339953902E+03 -0.36157342390E+03  0.43355650590E+03  0.50400001928E-02 0.  1.
</event>
<event>
 5   0  0.9298693E-04  0.1204793E+04  0.7818609E-02  0.9108672E-01
        2   -1    0    0  501    0  0.00000000000E+00  0.00000000000E+00  0.11652239911E+04  0.11652239911E+04  0.25500000920E-02 0. -1.
       -2   -1    0    0    0  501  0.00000000000E+00  0.00000000000E+00 -0.31142619116E+03  0.31142619117E+03  0.25500000920E-02 0.  1.
    10030    2    1    2    0    0  0.00000000000E+00  0.00000000000E+00  0.85379779991E+03  0.14766501822E+04  0.12047925455E+04 0.  0.
        1    1    3    3  502    0  0.56230835812E+03  0.81345103155E+02  0.18154425651E+03  0.59646125818E+03  0.50400001928E-02 0.  1.
       -1    1    3    3    0  502 -0.56230835812E+03 -0.81345103155E+02  0.67225354340E+03  0.88018892407E+03  0.50400001928E-02 0. -1.
</event>
<event>
 5   0  0.5052959E-04  0.1198670E+04  0.7818609E-02  0.9114021E-01
        1   -1    0    0  501    0  0.00000000000E+00  0.00000000000E+00  0.31954589575E+03  0.31954589579E+03  0.50400001928E-02 0. -1.
       -1   -1    0    0    0  501  0.00000000000E+00  0.00000000000E+00 -0.11241031810E+04  0.11241031810E+04  0.50400001928E-02 0.  1.
    10030    2    1    2    0    0  0.00000000000E+00  0.00000000000E+00 -0.80455728528E+03  0.14436490768E+04  0.11986701931E+04 0.  0.
        2    1    3    3  502    0  0.50028800670E+03 -0.24339627225E+03 -0.67070237773E+03  0.87141925300E+03  0.25500000920E-02 0.  1.
       -2    1    3    3    0  502 -0.50028800670E+03  0.24339627225E+03 -0.13385490755E+03  0.57222982383E+03  0.25500000920E-02 0. -1.
</event>
<event>
 5   0  0.5001586E-04  0.1200364E+04  0.7818609E-02  0.9112538E-01
       -1   -1    0    0    0  501  0.00000000000E+00  0.00000000000E+00  0.64767140253E+03  0.64767140255E+03  0.50400001928E-02 0. -1.
        1   -1    0    0  501    0  0.00000000000E+00  0.00000000000E+00 -0.55617468383E+03  0.55617468385E+03  0.50400001928E-02 0.  1.
    10030    2    1    2    0    0  0.00000000000E+00  0.00000000000E+00  0.91496718706E+02  0.12038460864E+04  0.12003640074E+04 0.  0.
        1    1    3    3  502    0  0.43917972495E+03  0.36048693035E+03  0.23967105804E+03  0.61666187968E+03  0.50400001928E-02 0.  1.
       -1    1    3    3    0  502 -0.43917972495E+03 -0.36048693035E+03 -0.14817433934E+03  0.58718420672E+03  0.50400001928E-02 0. -1.
</event>
<event>
 5   0  0.9050363E-04  0.1225839E+04  0.7818609E-02  0.9090536E-01
        2   -1    0    0  501    0  0.00000000000E+00  0.00000000000E+00  0.39227472826E+03  0.39227472827E+03  0.25500000920E-02 0. -1.
       -2   -1    0    0    0  501  0.00000000000E+00  0.00000000000E+00 -0.95767122397E+03  0.95767122398E+03  0.25500000920E-02 0.  1.
    10030    2    1    2    0    0  0.00000000000E+00  0.00000000000E+00 -0.56539649572E+03  0.13499459522E+04  0.12258388461E+04 0.  0.
        3    1    3    3  502    0 -0.11211906817E+03 -0.18857632360E+03 -0.91295016432E+03  0.93894074786E+03  0.10100000352E+00 0.  1.
       -3    1    3    3    0  502  0.11211906817E+03  0.18857632360E+03  0.34755366860E+03  0.41100520438E+03  0.10100000352E+00 0. -1.
</event>
<event>
 5   0  0.5447074E-04  0.1204238E+04  0.7818609E-02  0.9109155E-01
        1   -1    0    0  501    0  0.00000000000E+00  0.00000000000E+00  0.11869492019E+04  0.11869492019E+04  0.50400001928E-02 0.  1.
       -1   -1    0    0    0  501  0.00000000000E+00  0.00000000000E+00 -0.30544475412E+03  0.30544475416E+03  0.50400001928E-02 0. -1.
    10030    2    1    2    0    0  0.00000000000E+00  0.00000000000E+00  0.88150444778E+03  0.14923939561E+04  0.12042381943E+04 0.  0.
        4    1    3    3  502    0 -0.83508462506E+02 -0.84536075332E+02 -0.29076781324E+03  0.31411390523E+03  0.12699999809E+01 0. -1.
       -4    1    3    3    0  502  0.83508462506E+02  0.84536075332E+02  0.11722722610E+04  0.11782800508E+04  0.12699999809E+01 0.  1.
</event>
<event>
 5   0  0.5001586E-04  0.1201951E+04  0.7818609E-02  0.9111150E-01
        1   -1    0    0  501    0  0.00000000000E+00  0.00000000000E+00  0.12688790082E+04  0.12688790082E+04  0.50400001928E-02 0. -1.
       -1   -1    0    0    0  501  0.00000000000E+00  0.00000000000E+00 -0.28463845923E+03  0.28463845927E+03  0.50400001928E-02 0.  1.
    10030    2    1    2    0    0  0.00000000000E+00  0.00000000000E+00  0.98424054899E+03  0.15535174675E+04  0.12019513566E+04 0.  0.
        1    1    3    3  502    0 -0.48631420143E+03  0.35189230208E+03  0.52962652295E+03  0.80052104820E+03  0.50400001928E-02 0.  1.
       -1    1    3    3    0  502  0.48631420143E+03 -0.35189230208E+03  0.45461402604E+03  0.75299641930E+03  0.50400001928E-02 0. -1.
</event>
<event>
 5   0  0.5001586E-04  0.1197652E+04  0.7818609E-02  0.9114915E-01
        1   -1    0    0  501    0  0.00000000000E+00  0.00000000000E+00  0.78750874388E+03  0.78750874390E+03  0.50400001928E-02 0.  1.
       -1   -1    0    0    0  501  0.00000000000E+00  0.00000000000E+00 -0.45535023051E+03  0.45535023054E+03  0.50400001928E-02 0. -1.
    10030    2    1    2    0    0  0.00000000000E+00  0.00000000000E+00  0.33215851338E+03  0.12428589744E+04  0.11976515154E+04 0.  0.
        1    1    3    3  502    0  0.19069099670E+03 -0.17693893423E+03 -0.39365198912E+03  0.47183930658E+03  0.50400001928E-02 0. -1.
       -1    1    3    3    0  502 -0.19069099670E+03  0.17693893423E+03  0.72581050250E+03  0.77101966786E+03  0.50400001928E-02 0.  1.
</event>
<event>
 5   0  0.9410666E-04  0.1210950E+04  0.7818609E-02  0.9103326E-01
       -2   -1    0    0    0  501  0.00000000000E+00  0.00000000000E+00  0.49788419404E+03  0.49788419404E+03  0.25500000920E-02 0.  1.
        2   -1    0    0  501    0  0.00000000000E+00  0.00000000000E+00 -0.73631521487E+03  0.73631521488E+03  0.25500000920E-02 0. -1.
    10030    2    1    2    0    0  0.00000000000E+00  0.00000000000E+00 -0.23843102083E+03  0.12341994089E+04  0.12109495569E+04 0.  0.
        2    1    3    3  502    0  0.40916747723E+03  0.44205955310E+03 -0.56677543883E+02  0.60501819551E+03  0.25500000920E-02 0. -1.
       -2    1    3    3    0  502 -0.40916747723E+03 -0.44205955310E+03 -0.18175347695E+03  0.62918121341E+03  0.25500000920E-02 0.  1.
</event>
<event>
 5   0  0.9070772E-04  0.1192212E+04  0.7818609E-02  0.9119701E-01
       -2   -1    0    0    0  501  0.00000000000E+00  0.00000000000E+00  0.25117497042E+03  0.25117497044E+03  0.25500000920E-02 0.  1.
        2   -1    0    0  501    0  0.00000000000E+00  0.00000000000E+00 -0.14147197926E+04  0.14147197926E+04  0.25500000920E-02 0. -1.
    10030    2    1    2    0    0  0.00000000000E+00  0.00000000000E+00 -0.11635448222E+04  0.16658947630E+04  0.11922117296E+04 0.  0.
        4    1    3    3  502    0 -0.11031550742E+02 -0.48093092173E+03 -0.89877324618E+02  0.48938307385E+03  0.12699999809E+01 0.  1.
       -4    1    3    3    0  502  0.11031550742E+02  0.48093092173E+03 -0.10736674975E+04  0.11765116892E+04  0.12699999809E+01 0. -1.
</event>
<event>
 5   0  0.9050363E-04  0.1195871E+04  0.7818609E-02  0.9116478E-01
       -2   -1    0    0    0  501  0.00000000000E+00  0.00000000000E+00  0.34749631474E+03  0.34749631475E+03  0.25500000920E-02 0. -1.
        2   -1    0    0  501    0  0.00000000000E+00  0.00000000000E+00 -0.10288650607E+04  0.10288650607E+04  0.25500000920E-02 0.  1.
    10030    2    1    2    0    0  0.00000000000E+00  0.00000000000E+00 -0.68136874592E+03  0.13763613754E+04  0.11958709244E+04 0.  0.
        3    1    3    3  502    0 -0.50986250215E+03  0.31230229059E+03 -0.34742638953E+03  0.69151832814E+03  0.10100000352E+00 0.  1.
       -3    1    3    3    0  502  0.50986250215E+03 -0.31230229059E+03 -0.33394235639E+03  0.68484304727E+03  0.10100000352E+00 0. -1.
</event>
<event>
 5   0  0.5003507E-04  0.1189849E+04  0.7818609E-02  0.9121788E-01
        1   -1    0    0  501    0  0.00000000000E+00  0.00000000000E+00  0.18291179738E+04  0.18291179738E+04  0.50400001928E-02 0. -1.
       -1   -1    0    0    0  501  0.00000000000E+00  0.00000000000E+00 -0.19350060450E+03  0.19350060457E+03  0.50400001928E-02 0.  1.
    10030    2    1    2    0    0  0.00000000000E+00  0.00000000000E+00  0.16356173693E+04  0.20226185784E+04  0.11898494589E+04 0.  0.
        3    1    3    3  502    0 -0.25990025509E+03 -0.51322851356E+03  0.56009786996E+03  0.80290801706E+03  0.10100000352E+00 0. -1.
       -3    1    3    3    0  502  0.25990025509E+03  0.51322851356E+03  0.10755194993E+04  0.12197105613E+04  0.10100000352E+00 0.  1.
</event>
<event>
 5   0  0.9145224E-04  0.1200721E+04  0.7818609E-02  0.9112226E-01
       -2   -1    0    0    0  501  0.00000000000E+00  0.00000000000E+00  0.39256771922E+03  0.39256771923E+03  0.25500000920E-02 0. -1.
        2   -1    0    0  501    0  0.00000000000E+00  0.00000000000E+00 -0.91814094449E+03  0.91814094449E+03  0.25500000920E-02 0.  1.
    10030    2    1    2    0    0  0.00000000000E+00  0.00000000000E+00 -0.52557322527E+03  0.13107086637E+04  0.12007206112E+04 0.  0.
        5    1    3    3  502    0 -0.27951789439E+03 -0.52828572897E+03 -0.32448231271E+03  0.68009332152E+03  0.46999998093E+01 0.  1.
       -5    1    3    3    0  502  0.27951789439E+03  0.52828572897E+03 -0.20109091255E+03  0.63061534221E+03  0.46999998093E+01 0. -1.
</event>
<event>
 5   0  0.9410666E-04  0.1198149E+04  0.7818609E-02  0.9114478E-01
       -2   -1    0    0    0  501  0.00000000000E+00  0.00000000000E+00  0.18550869655E+03  0.18550869657E+03  0.25500000920E-02 0. -1.
        2   -1    0    0  501    0  0.00000000000E+00  0.00000000000E+00 -0.19346275703E+04  0.19346275703E+04  0.25500000920E-02 0.  1.
    10030    2    1    2    0    0  0.00000000000E+00  0.00000000000E+00 -0.17491188737E+04  0.21201362668E+04  0.11981489705E+04 0.  0.
        2    1    3    3  502    0 -0.44650444268E+03  0.21268652479E+03 -0.27634876884E+03  0.56654251138E+03  0.25500000920E-02 0. -1.
       -2    1    3    3    0  502  0.44650444268E+03 -0.21268652479E+03 -0.14727701049E+04  0.15535937555E+04  0.25500000920E-02 0.  1.
</event>
<event>
 5   0  0.5003507E-04  0.1198400E+04  0.7818609E-02  0.9114259E-01
       -1   -1    0    0    0  501  0.00000000000E+00  0.00000000000E+00  0.43746507719E+03  0.43746507721E+03  0.50400001928E-02 0.  1.
        1   -1    0    0  501    0  0.00000000000E+00  0.00000000000E+00 -0.82072918924E+03  0.82072918925E+03  0.50400001928E-02 0. -1.
    10030    2    1    2    0    0  0.00000000000E+00  0.00000000000E+00 -0.38326411205E+03  0.12581942665E+04  0.11983995296E+04 0.  0.
        3    1    3    3  502    0 -0.34067460686E+03  0.25640136848E+03  0.25037207473E+03  0.49445630295E+03  0.10100000352E+00 0. -1.
       -3    1    3    3    0  502  0.34067460686E+03 -0.25640136848E+03 -0.63363618679E+03  0.76373796352E+03  0.10100000352E+00 0.  1.
</event>
<event>
 5   0  0.9145224E-04  0.1201083E+04  0.7818609E-02  0.9111909E-01
       -2   -1    0    0    0  501  0.00000000000E+00  0.00000000000E+00  0.15237494413E+04  0.15237494413E+04  0.25500000920E-02 0.  1.
        2   -1    0    0  501    0  0.00000000000E+00  0.00000000000E+00 -0.23668585787E+03  0.23668585788E+03  0.25500000920E-02 0. -1.
    10030    2    1    2    0    0  0.00000000000E+00  0.00000000000E+00  0.12870635834E+04  0.17604352992E+04  0.12010827510E+04 0.  0.
        5    1    3    3  502    0 -0.53191680959E+03 -0.42672271210E+02  0.23980618328E+03  0.58505171617E+03  0.46999998093E+01 0.  1.
       -5    1    3    3    0  502  0.53191680959E+03  0.42672271210E+02  0.10472574002E+04  0.11753835830E+04  0.46999998093E+01 0. -1.
</event>
<event>
 5   0  0.3453625E-04  0.1198142E+04  0.7818609E-02  0.9114484E-01
       -3   -1    0    0    0  501  0.00000000000E+00  0.00000000000E+00  0.75439671969E+03  0.75439672645E+03  0.10100000352E+00 0.  1.
        3   -1    0    0  501    0  0.00000000000E+00  0.00000000000E+00 -0.47572601661E+03  0.47572602733E+03  0.10100000352E+00 0. -1.
    10030    2    1    2    0    0  0.00000000000E+00  0.00000000000E+00  0.27867070308E+03  0.12301227538E+04  0.11981421571E+04 0.  0.
        2    1    3    3  502    0 -0.43230479678E+03 -0.11376403400E+03 -0.27012868626E+03  0.52230182835E+03  0.25500000920E-02 0. -1.
       -2    1    3    3    0  502  0.43230479678E+03  0.11376403400E+03  0.54879938934E+03  0.70782092544E+03  0.25500000920E-02 0.  1.
</event>
<event>
 5   0  0.9145224E-04  0.1205381E+04  0.7818609E-02  0.9108160E-01
        2   -1    0    0  501    0  0.00000000000E+00  0.00000000000E+00  0.40620739883E+03  0.40620739883E+03  0.25500000920E-02 0.  1.
       -2   -1    0    0    0  501  0.00000000000E+00  0.00000000000E+00 -0.89421235910E+03  0.89421235910E+03  0.25500000920E-02 0. -1.
    10030    2    1    2    0    0  0.00000000000E+00  0.00000000000E+00 -0.48800496027E+03  0.13004197579E+04  0.12053807305E+04 0.  0.
        5    1    3    3  502    0  0.49554362127E+03 -0.30083364425E+03 -0.42176411166E+03  0.71691799948E+03  0.46999998093E+01 0. -1.
       -5    1    3    3    0  502 -0.49554362127E+03  0.30083364425E+03 -0.66240848611E+02  0.58350175845E+03  0.46999998093E+01 0.  1.
</event>
<event>
 5   0  0.9298693E-04  0.1192637E+04  0.7818609E-02  0.9119326E-01
        2   -1    0    0  501    0  0.00000000000E+00  0.00000000000E+00  0.13805644179E+04  0.13805644179E+04  0.25500000920E-02 0. -1.
       -2   -1    0    0    0  501  0.00000000000E+00  0.00000000000E+00 -0.25757278040E+03  0.25757278041E+03  0.25500000920E-02 0.  1.
    10030    2    1    2    0    0  0.00000000000E+00  0.00000000000E+00  0.11229916375E+04  0.16381371984E+04  0.11926371043E+04 0.  0.
        1    1    3    3  502    0 -0.54227215778E+03  0.24722647356E+03  0.53348790888E+03  0.79986834622E+03  0.50400001928E-02 0. -1.
       -1    1    3    3    0  502  0.54227215778E+03 -0.24722647356E+03  0.58950372865E+03  0.83826885213E+03  0.50400001928E-02 0.  1.
</event>
<event>
 5   0  0.9070772E-04  0.1227639E+04  0.7818609E-02  0.9089002E-01
       -2   -1    0    0    0  501  0.00000000000E+00  0.00000000000E+00  0.17946824146E+03  0.17946824148E+03  0.25500000920E-02 0.  1.
        2   -1    0    0  501    0  0.00000000000E+00  0.00000000000E+00 -0.20993941715E+04  0.20993941715E+04  0.25500000920E-02 0. -1.
    10030    2    1    2    0    0  0.00000000000E+00  0.00000000000E+00 -0.19199259300E+04  0.22788624129E+04  0.12276393283E+04 0.  0.
        4    1    3    3  502    0  0.23180973955E+03 -0.50197192403E+03 -0.46512365797E+03  0.72253248921E+03  0.12699999809E+01 0.  1.
       -4    1    3    3    0  502 -0.23180973955E+03  0.50197192403E+03 -0.14548022720E+04  0.15563299237E+04  0.12699999809E+01 0. -1.
</event>
<event>
 5   0  0.5003507E-04  0.1198824E+04  0.7818609E-02  0.9113887E-01
        1   -1    0    0  501    0  0.00000000000E+00  0.00000000000E+00  0.12311574451E+04  0.12311574451E+04  0.50400001928E-02 0.  1.
       -1   -1    0    0    0  501  0.00000000000E+00  0.00000000000E+00 -0.29183484768E+03  0.29183484772E+03  0.50400001928E-02 0. -1.
    10030    2    1    2    0    0  0.00000000000E+00  0.00000000000E+00  0.93932259744E+03  0.15229922929E+04  0.11988238328E+04 0.  0.
        3    1    3    3  502    0  0.54323289988E+03 -0.35234398272E+02  0.78840697764E+03  0.95808612292E+03  0.10100000352E+00 0.  1.
       -3    1    3    3    0  502 -0.54323289988E+03  0.35234398272E+02  0.15091561980E+03  0.56490616993E+03  0.10100000352E+00 0. -1.
</event>
<event>
 5   0  0.5447074E-04  0.1199196E+04  0.7818609E-02  0.9113561E-01
       -1   -1    0    0    0  501  0.00000000000E+00  0.00000000000E+00  0.26715893134E+03  0.26715893138E+03  0.50400001928E-02 0.  1.
        1   -1    0    0  501    0  0.00000000000E+00  0.00000000000E+00 -0.13457065381E+04  0.13457065381E+04  0.50400001928E-02 0. -1.
    10030    2    1    2    0    0  0.00000000000E+00  0.00000000000E+00 -0.10785476068E+04  0.16128654695E+04  0.11991955982E+04 0.  0.
        4    1    3    3  502    0  0.50104454188E+03 -0.13134840487E+03 -0.13306616563E+03  0.53479552518E+03  0.12699999809E+01 0.  1.
       -4    1    3    3    0  502 -0.50104454188E+03  0.13134840487E+03 -0.94548144114E+03  0.10780699443E+04  0.12699999809E+01 0. -1.
</event>
<event>
 5   0  0.9298693E-04  0.1199930E+04  0.7818609E-02  0.9112918E-01
       -2   -1    0    0    0  501  0.00000000000E+00  0.00000000000E+00  0.26778646189E+03  0.26778646190E+03  0.25500000920E-02 0.  1.
        2   -1    0    0  501    0  0.00000000000E+00  0.00000000000E+00 -0.13441984499E+04  0.13441984499E+04  0.25500000920E-02 0. -1.
    10030    2    1    2    0    0  0.00000000000E+00  0.00000000000E+00 -0.10764119880E+04  0.16119849118E+04  0.11999302429E+04 0.  0.
        1    1    3    3  502    0  0.33676283936E+03  0.79935129633E+02  0.12014074468E+03  0.36637771968E+03  0.50400001928E-02 0.  1.
       -1    1    3    3    0  502 -0.33676283936E+03 -0.79935129633E+02 -0.11965527327E+04  0.12456071921E+04  0.50400001928E-02 0. -1.
</event>
<event>
 5   0  0.5001586E-04  0.1189912E+04  0.7818609E-02  0.9121733E-01
       -1   -1    0    0    0  501  0.00000000000E+00  0.00000000000E+00  0.30394910780E+03  0.30394910784E+03  0.50400001928E-02 0.  1.
        1   -1    0    0  501    0  0.00000000000E+00  0.00000000000E+00 -0.11645789439E+04  0.11645789439E+04  0.50400001928E-02 0. -1.
    10030    2    1    2    0    0  0.00000000000E+00  0.00000000000E+00 -0.86062983606E+03  0.14685280517E+04  0.11899121497E+04 0.  0.
        1    1    3    3  502    0  0.11356957316E+03 -0.65093465535E+02  0.28595643299E+03  0.31449370232E+03  0.50400001928E-02 0.  1.
       -1    1    3    3    0  502 -0.11356957316E+03  0.65093465535E+02 -0.11465862690E+04  0.11540343494E+04  0.50400001928E-02 0. -1.
</event>
<event>
 5   0  0.9070772E-04  0.1196651E+04  0.7818609E-02  0.9115793E-01
        2   -1    0    0  501    0  0.00000000000E+00  0.00000000000E+00  0.89279465673E+03  0.89279465674E+03  0.25500000920E-02 0. -1.
       -2   -1    0    0    0  501  0.00000000000E+00  0.00000000000E+00 -0.40098069691E+03  0.40098069691E+03  0.25500000920E-02 0.  1.
    10030    2    1    2    0    0  0.00000000000E+00  0.00000000000E+00  0.49181395983E+03  0.12937753537E+04  0.11966510329E+04 0.  0.
        4    1    3    3  502    0  0.88180419051E+02 -0.27839222650E+03  0.81051222088E+03  0.86151592625E+03  0.12699999809E+01 0. -1.
       -4    1    3    3    0  502 -0.88180419051E+02  0.27839222650E+03 -0.31869826106E+03  0.43225942740E+03  0.12699999809E+01 0.  1.
</event>
<event>
 5   0  0.9145224E-04  0.1199335E+04  0.7818609E-02  0.9113439E-01
        2   -1    0    0  501    0  0.00000000000E+00  0.00000000000E+00  0.81416801077E+03  0.81416801077E+03  0.25500000920E-02 0.  1.
       -2   -1    0    0    0  501  0.00000000000E+00  0.00000000000E+00 -0.44167890566E+03  0.44167890567E+03  0.25500000920E-02 0. -1.
    10030    2    1    2    0    0  0.00000000000E+00  0.00000000000E+00  0.37248910510E+03  0.12558469164E+04  0.11993345422E+04 0.  0.
        5    1    3    3  502    0 -0.44179715588E+03  0.34522498296E+03  0.40889908021E+03  0.69396366158E+03  0.46999998093E+01 0.  1.
       -5    1    3    3    0  502  0.44179715588E+03 -0.34522498296E+03 -0.36409975107E+02  0.56188325486E+03  0.46999998093E+01 0. -1.
</event>
<event>
 5   0  0.9145224E-04  0.1202020E+04  0.7818609E-02  0.9111090E-01
        2   -1    0    0  501    0  0.00000000000E+00  0.00000000000E+00  0.26595752203E+03  0.26595752204E+03  0.25500000920E-02 0. -1.
       -2   -1    0    0    0  501  0.00000000000E+00  0.00000000000E+00 -0.13581616674E+04  0.13581616674E+04  0.25500000920E-02 0.  1.
    10030    2    1    2    0    0  0.00000000000E+00  0.00000000000E+00 -0.10922041453E+04  0.16241191894E+04  0.12020204850E+04 0.  0.
        5    1    3    3  502    0  0.36387298077E+03 -0.15208886213E+03  0.66639590298E+02  0.39999686638E+03  0.46999998093E+01 0. -1.
       -5    1    3    3    0  502 -0.36387298077E+03  0.15208886213E+03 -0.11588437356E+04  0.12241223230E+04  0.46999998093E+01 0.  1.
</event>
<event>
 5   0  0.5447074E-04  0.1199449E+04  0.7818609E-02  0.9113339E-01
       -1   -1    0    0    0  501  0.00000000000E+00  0.00000000000E+00  0.31136968071E+03  0.31136968075E+03  0.50400001928E-02 0. -1.
        1   -1    0    0  501    0  0.00000000000E+00  0.00000000000E+00 -0.11551196389E+04  0.11551196390E+04  0.50400001928E-02 0.  1.
    10030    2    1    2    0    0  0.00000000000E+00  0.00000000000E+00 -0.84374995823E+03  0.14664893197E+04  0.11994485953E+04 0.  0.
        4    1    3    3  502    0 -0.57621137554E+02 -0.51878501687E+02 -0.11489643698E+04  0.11515781825E+04  0.12699999809E+01 0.  1.
       -4    1    3    3    0  502  0.57621137554E+02  0.51878501687E+02  0.30521441155E+03  0.31491113723E+03  0.12699999809E+01 0. -1.
</event>
<event>
 5   0  0.5447074E-04  0.1198307E+04  0.7818609E-02  0.9114340E-01
       -1   -1    0    0    0  501  0.00000000000E+00  0.00000000000E+00  0.31662864958E+03  0.31662864962E+03  0.50400001928E-02 0.  1.
        1   -1    0    0  501    0  0.00000000000E+00  0.00000000000E+00 -0.11337724683E+04  0.11337724683E+04  0.50400001928E-02 0. -1.
    10030    2    1    2    0    0  0.00000000000E+00  0.00000000000E+00 -0.81714381874E+03  0.14504011179E+04  0.11983068816E+04 0.  0.
        4    1    3    3  502    0 -0.50717256985E+03 -0.29589017906E+03 -0.55284651447E+03  0.80648366080E+03  0.12699999809E+01 0. -1.
       -4    1    3    3    0  502  0.50717256985E+03  0.29589017906E+03 -0.26429730426E+03  0.64391745714E+03  0.12699999809E+01 0.  1.
</event>
<event>
 5   0  0.5001586E-04  0.1198555E+04  0.7818609E-02  0.9114122E-01
        1   -1    0    0  501    0  0.00000000000E+00  0.00000000000E+00  0.49340758479E+03  0.49340758481E+03  0.50400001928E-02 0. -1.
       -1   -1    0    0    0  501  0.00000000000E+00  0.00000000000E+00 -0.72786358427E+03  0.72786358429E+03  0.50400001928E-02 0.  1.
    10030    2    1    2    0    0  0.00000000000E+00  0.00000000000E+00 -0.23445599948E+03  0.12212711691E+04  0.11985548184E+04 0.  0.
        1    1    3    3  502    0  0.23725997043E+03  0.25198297688E+03 -0.61573012747E+03  0.70633653742E+03  0.50400001928E-02 0.  1.
       -1    1    3    3    0  502 -0.23725997043E+03 -0.25198297688E+03  0.38127412799E+03  0.51493463168E+03  0.50400001928E-02 0. -1.
</event>
<event>
 5   0  0.9145224E-04  0.1198993E+04  0.7818609E-02  0.9113738E-01
       -2   -1    0    0    0  501  0.00000000000E+00  0.00000000000E+00  0.41823459693E+03  0.41823459694E+03  0.25500000920E-02 0.  1.
        2   -1    0    0  501    0  0.00000000000E+00  0.00000000000E+00 -0.85931756140E+03  0.85931756140E+03  0.25500000920E-02 0. -1.
    10030    2    1    2    0    0  0.00000000000E+00  0.00000000000E+00 -0.44108296447E+03  0.12775521583E+04  0.11989934678E+04 0.  0.
        5    1    3    3  502    0 -0.46020975062E+02  0.36806675065E+03 -0.72233624809E+03  0.81202389644E+03  0.46999998093E+01 0. -1.
       -5    1    3    3    0  502  0.46020975062E+02 -0.36806675065E+03  0.28125328363E+03  0.46552826190E+03  0.46999998093E+01 0.  1.
</event>
<event>
 5   0  0.9298693E-04  0.1192659E+04  0.7818609E-02  0.9119306E-01
       -2   -1    0    0    0  501  0.00000000000E+00  0.00000000000E+00  0.64063081804E+03  0.64063081804E+03  0.25500000920E-02 0.  1.
        2   -1    0    0  501    0  0.00000000000E+00  0.00000000000E+00 -0.55509188790E+03  0.55509188791E+03  0.25500000920E-02 0. -1.
    10030    2    1    2    0    0  0.00000000000E+00  0.00000000000E+00  0.85538930133E+02  0.11957227059E+04  0.11926591638E+04 0.  0.
        1    1    3    3  502    0 -0.37279213510E+03  0.43207334395E+03  0.21626778807E+03  0.61027297722E+03  0.50400001928E-02 0.  1.
       -1    1    3    3    0  502  0.37279213510E+03 -0.43207334395E+03 -0.13072885794E+03  0.58544972873E+03  0.50400001928E-02 0. -1.
</event>
<event>
 5   0  0.9298693E-04  0.1200886E+04  0.7818609E-02  0.9112081E-01
        2   -1    0    0  501    0  0.00000000000E+00  0.00000000000E+00  0.20581693899E+04  0.20581693899E+04  0.25500000920E-02 0.  1.
       -2   -1    0    0    0  501  0.00000000000E+00  0.00000000000E+00 -0.17517110988E+03  0.17517110990E+03  0.25500000920E-02 0. -1.
    10030    2    1    2    0    0  0.00000000000E+00  0.00000000000E+00  0.18829982800E+04  0.22333404998E+04  0.12008860335E+04 0.  0.
        1    1    3    3  502    0  0.59947621144E+03  0.28737222477E+01  0.10046162840E+04  0.11698862613E+04  0.50400001928E-02 0.  1.
       -1    1    3    3    0  502 -0.59947621144E+03 -0.28737222477E+01  0.87838199603E+03  0.10634542385E+04  0.50400001928E-02 0. -1.
</event>
<event>
 5   0  0.9298693E-04  0.1199904E+04  0.7818609E-02  0.9112940E-01
        2   -1    0    0  501    0  0.00000000000E+00  0.00000000000E+00  0.61454687001E+03  0.61454687001E+03  0.25500000920E-02 0. -1.
       -2   -1    0    0    0  501  0.00000000000E+00  0.00000000000E+00 -0.58570402180E+03  0.58570402181E+03  0.25500000920E-02 0.  1.
    10030    2    1    2    0    0  0.00000000000E+00  0.00000000000E+00  0.28842848204E+02  0.12002508918E+04  0.11999042851E+04 0.  0.
        1    1    3    3  502    0  0.91095640127E+02  0.19039512385E+03  0.57618302068E+03  0.61362496053E+03  0.50400001928E-02 0. -1.
       -1    1    3    3    0  502 -0.91095640127E+02 -0.19039512385E+03 -0.54734017247E+03  0.58662593129E+03  0.50400001928E-02 0.  1.
</event>
<event>
 5   0  0.5052959E-04  0.1198000E+04  0.7818609E-02  0.9114608E-01
       -1   -1    0    0    0  501  0.00000000000E+00  0.00000000000E+00  0.38989246631E+03  0.38989246634E+03  0.50400001928E-02 0.  1.
        1   -1    0    0  501    0  0.00000000000E+00  0.00000000000E+00 -0.92025706146E+03  0.92025706147E+03  0.50400001928E-02 0. -1.
    10030    2    1    2    0    0  0.00000000000E+00  0.00000000000E+00 -0.53036459515E+03  0.13101495278E+04  0.11980004931E+04 0.  0.
        2    1    3    3  502    0  0.19412482176E+03 -0.53563983245E+03 -0.62917543146E+02  0.57319551095E+03  0.25500000920E-02 0.  1.
       -2    1    3    3    0  502 -0.19412482176E+03  0.53563983245E+03 -0.46744705200E+03  0.73695401686E+03  0.25500000920E-02 0. -1.
</event>
<event>
 5   0  0.5157631E-04  0.1201646E+04  0.7818609E-02  0.9111417E-01
       -1   -1    0    0    0  501  0.00000000000E+00  0.00000000000E+00  0.88982307752E+03  0.88982307753E+03  0.50400001928E-02 0. -1.
        1   -1    0    0  501    0  0.00000000000E+00  0.00000000000E+00 -0.40568570537E+03  0.40568570540E+03  0.50400001928E-02 0.  1.
    10030    2    1    2    0    0  0.00000000000E+00  0.00000000000E+00  0.48413737215E+03  0.12955087829E+04  0.12016463754E+04 0.  0.
        5    1    3    3  502    0 -0.45046319640E+03 -0.20680595296E+03 -0.12398251102E+03  0.51095943726E+03  0.46999998093E+01 0.  1.
       -5    1    3    3    0  502  0.45046319640E+03  0.20680595296E+03  0.60811988317E+03  0.78454934567E+03  0.46999998093E+01 0. -1.
</event>
<event>
 5   0  0.9145224E-04  0.1197137E+04  0.7818609E-02  0.9115366E-01
       -2   -1    0    0    0  501  0.00000000000E+00  0.00000000000E+00  0.46637698071E+03  0.46637698071E+03  0.25500000920E-02 0.  1.
        2   -1    0    0  501    0  0.00000000000E+00  0.00000000000E+00 -0.76822893689E+03  0.76822893690E+03  0.25500000920E-02 0. -1.
    10030    2    1    2    0    0  0.00000000000E+00  0.00000000000E+00 -0.30185195619E+03  0.12346059176E+04  0.11971370717E+04 0.  0.
        5    1    3    3  502    0 -0.30776230609E+03  0.20785680182E+03 -0.63502171747E+03  0.73566076337E+03  0.46999998093E+01 0. -1.
       -5    1    3    3    0  502  0.30776230609E+03 -0.20785680182E+03  0.33316976128E+03  0.49894515424E+03  0.46999998093E+01 0.  1.
</event>
<event>
 5   0  0.5447074E-04  0.1197854E+04  0.7818609E-02  0.9114737E-01
       -1   -1    0    0    0  501  0.00000000000E+00  0.00000000000E+00  0.45858818663E+03  0.45858818665E+03  0.50400001928E-02 0. -1.
        1   -1    0    0  501    0  0.00000000000E+00  0.00000000000E+00 -0.78221275471E+03  0.78221275473E+03  0.50400001928E-02 0.  1.
    10030    2    1    2    0    0  0.00000000000E+00  0.00000000000E+00 -0.32362456809E+03  0.12408009414E+04  0.11978539623E+04 0.  0.
        4    1    3    3  502    0  0.39229390552E+02  0.25007487830E+03  0.40045238690E+03  0.47375111283E+03  0.12699999809E+01 0. -1.
       -4    1    3    3    0  502 -0.39229390552E+02 -0.25007487830E+03 -0.72407695498E+03  0.76704982855E+03  0.12699999809E+01 0.  1.
</event>
<event>
 5   0  0.9410666E-04  0.1195747E+04  0.7818609E-02  0.9116587E-01
       -2   -1    0    0    0  501  0.00000000000E+00  0.00000000000E+00  0.48364062770E+03  0.48364062771E+03  0.25500000920E-02 0. -1.
        2   -1    0    0  501    0  0.00000000000E+00  0.00000000000E+00 -0.73908723100E+03  0.73908723100E+03  0.25500000920E-02 0.  1.
    10030    2    1    2    0    0  0.00000000000E+00  0.00000000000E+00 -0.25544660330E+03  0.12227278587E+04  0.11957468166E+04 0.  0.
        2    1    3    3  502    0  0.38158663836E+03  0.45157964328E+03 -0.36720400926E+02  0.59235202764E+03  0.25500000920E-02 0.  1.
       -2    1    3    3    0  502 -0.38158663836E+03 -0.45157964328E+03 -0.21872620237E+03  0.63037583108E+03  0.25500000920E-02 0. -1.
</event>
<event>
 5   0  0.5001586E-04  0.1196167E+04  0.7818609E-02  0.9116218E-01
        1   -1    0    0  501    0  0.00000000000E+00  0.00000000000E+00  0.63710768899E+03  0.63710768901E+03  0.50400001928E-02 0.  1.
       -1   -1    0    0    0  501  0.00000000000E+00  0.00000000000E+00 -0.56144993163E+03  0.56144993165E+03  0.50400001928E-02 0. -1.
    10030    2    1    2    0    0  0.00000000000E+00  0.00000000000E+00  0.75657757362E+02  0.11985576207E+04  0.11961673268E+04 0.  0.
        1    1    3    3  502    0 -0.17613194079E+03 -0.47425005871E+03  0.35747809696E+03  0.61945634922E+03  0.50400001928E-02 0. -1.
       -1    1    3    3    0  502  0.17613194079E+03  0.47425005871E+03 -0.28182033960E+03  0.57910127145E+03  0.50400001928E-02 0.  1.
</event>
<event>
 5   0  0.9050363E-04  0.1196590E+04  0.7818609E-02  0.9115847E-01
       -2   -1    0    0    0  501  0.00000000000E+00  0.00000000000E+00  0.11232691570E+04  0.11232691570E+04  0.25500000920E-02 0.  1.
        2   -1    0    0  501    0  0.00000000000E+00  0.00000000000E+00 -0.31867418105E+03  0.31867418106E+03  0.25500000920E-02 0. -1.
    10030    2    1    2    0    0  0.00000000000E+00  0.00000000000E+00  0.80459497594E+03  0.14419433381E+04  0.11965899527E+04 0.  0.
        3    1    3    3  502    0  0.55391503100E+03 -0.10336636895E+03  0.64465933697E+03  0.85620799969E+03  0.10100000352E+00 0. -1.
       -3    1    3    3    0  502 -0.55391503100E+03  0.10336636895E+03  0.15993563897E+03  0.58573533836E+03  0.10100000352E+00 0.  1.
</event>
<event>
 5   0  0.3453625E-04  0.1192951E+04  0.7818609E-02  0.9119049E-01
       -4   -1    0    0    0  501  0.00000000000E+00  0.00000000000E+00  0.10537110848E+04  0.10537118502E+04  0.12699999809E+01 0. -1.
        4   -1    0    0  501    0  0.00000000000E+00  0.00000000000E+00 -0.33764545626E+03  0.33764784471E+03  0.12699999809E+01 0.  1.
    10030    2    1    2    0    0  0.00000000000E+00  0.00000000000E+00  0.71606562857E+03  0.13913596949E+04  0.11929508859E+04 0.  0.
        2    1    3    3  502    0 -0.20753928194E+03  0.26197801260E+03  0.93424322751E+03  0.99222751463E+03  0.25500000920E-02 0. -1.
       -2    1    3    3    0  502  0.20753928194E+03 -0.26197801260E+03 -0.21817759894E+03  0.39913218026E+03  0.25500000920E-02 0.  1.
</event>
<event>
 5   0  0.5001586E-04  0.1199362E+04  0.7818609E-02  0.9113415E-01
        1   -1    0    0  501    0  0.00000000000E+00  0.00000000000E+00  0.12706552582E+04  0.12706552582E+04  0.50400001928E-02 0. -1.
       -1   -1    0    0    0  501  0.00000000000E+00  0.00000000000E+00 -0.28301704039E+03  0.28301704043E+03  0.50400001928E-02 0.  1.
    10030    2    1    2    0    0  0.00000000000E+00  0.00000000000E+00  0.98763821779E+03  0.15536722986E+04  0.11993616478E+04 0.  0.
        1    1    3    3  502    0 -0.24795752452E+02  0.59594897228E+03  0.57416711044E+03  0.82791175716E+03  0.50400001928E-02 0.  1.
       -1    1    3    3    0  502  0.24795752452E+02 -0.59594897228E+03  0.41347110735E+03  0.72576054146E+03  0.50400001928E-02 0. -1.
</event>
<event>
 5   0  0.5447074E-04  0.1194926E+04  0.7818609E-02  0.9117309E-01
       -1   -1    0    0    0  501  0.00000000000E+00  0.00000000000E+00  0.33147132174E+03  0.33147132177E+03  0.50400001928E-02 0. -1.
        1   -1    0    0  501    0  0.00000000000E+00  0.00000000000E+00 -0.10769019674E+04  0.10769019674E+04  0.50400001928E-02 0.  1.
    10030    2    1    2    0    0  0.00000000000E+00  0.00000000000E+00 -0.74543064567E+03  0.14083732892E+04  0.11949261376E+04 0.  0.
        4    1    3    3  502    0  0.37974655913E+03  0.11564245404E+03  0.15356530395E+03  0.42563428178E+03  0.12699999809E+01 0. -1.
       -4    1    3    3    0  502 -0.37974655913E+03 -0.11564245404E+03 -0.89899594962E+03  0.98273900741E+03  0.12699999809E+01 0.  1.
</event>
<event>
 5   0  0.3453625E-04  0.1201237E+04  0.7818609E-02  0.9111774E-01
        3   -1    0    0  501    0  0.00000000000E+00  0.00000000000E+00  0.74927410375E+03  0.74927411056E+03  0.10100000352E+00 0. -1.
       -3   -1    0    0    0  501  0.00000000000E+00  0.00000000000E+00 -0.48145642546E+03  0.48145643606E+03  0.10100000352E+00 0.  1.
    10030    2    1    2    0    0  0.00000000000E+00  0.00000000000E+00  0.26781767829E+03  0.12307305466E+04  0.12012374326E+04 0.  0.
        2    1    3    3  502    0 -0.57745895374E+03 -0.12400634482E+03  0.24570446809E+03  0.63969297515E+03  0.25500000920E-02 0. -1.
       -2    1    3    3    0  502  0.57745895374E+03  0.12400634482E+03  0.22113210199E+02  0.59103757146E+03  0.25500000920E-02 0.  1.
</event>
<event>
 5   0  0.5157631E-04  0.1199812E+04  0.7818609E-02  0.9113021E-01
       -1   -1    0    0    0  501  0.00000000000E+00  0.00000000000E+00  0.25372718020E+03  0.25372718025E+03  0.50400001928E-02 0. -1.
        1   -1    0    0  501    0  0.00000000000E+00  0.00000000000E+00 -0.14184030453E+04  0.14184030454E+04  0.50400001928E-02 0.  1.
    10030    2    1    2    0    0  0.00000000000E+00  0.00000000000E+00 -0.11646758651E+04  0.16721302256E+04  0.11998123272E+04 0.  0.
        5    1    3    3  502    0 -0.63818082804E+02 -0.54884957788E+03 -0.90786031635E+03  0.10627986878E+04  0.46999998093E+01 0. -1.
       -5    1    3    3    0  502  0.63818082804E+02  0.54884957788E+03 -0.25681554879E+03  0.60933153778E+03  0.46999998093E+01 0.  1.
</event>
<event>
 5   0  0.3453625E-04  0.1201188E+04  0.7818609E-02  0.9111817E-01
        4   -1    0    0  501    0  0.00000000000E+00  0.00000000000E+00  0.10258009738E+04  0.10258017600E+04  0.12699999809E+01 0. -1.
       -4   -1    0    0    0  501  0.00000000000E+00  0.00000000000E+00 -0.35163851490E+03  0.35164080830E+03  0.12699999809E+01 0.  1.
    10030    2    1    2    0    0  0.00000000000E+00  0.00000000000E+00  0.67416245893E+03  0.13774425683E+04  0.12011881651E+04 0.  0.
        2    1    3    3  502    0  0.17728800275E+03 -0.51132576201E+03  0.63573468316E+03  0.83489140502E+03  0.25500000920E-02 0. -1.
       -2    1    3    3    0  502 -0.17728800275E+03  0.51132576201E+03  0.38427775777E+02  0.54255116327E+03  0.25500000920E-02 0.  1.
</event>
<event>
 5   0  0.9145224E-04  0.1194178E+04  0.7818609E-02  0.9117968E-01
        2   -1    0    0  501    0  0.00000000000E+00  0.00000000000E+00  0.15064346401E+04  0.15064346401E+04  0.25500000920E-02 0. -1.
       -2   -1    0    0    0  501  0.00000000000E+00  0.00000000000E+00 -0.23666155192E+03  0.23666155194E+03  0.25500000920E-02 0.  1.
    10030    2    1    2    0    0  0.00000000000E+00  0.00000000000E+00  0.12697730882E+04  0.17430961920E+04  0.11941778089E+04 0.  0.
        5    1    3    3  502    0 -0.33340756791E+03 -0.48529730554E+03  0.49024743508E+03  0.76618452001E+03  0.46999998093E+01 0.  1.
       -5    1    3    3    0  502  0.33340756791E+03  0.48529730554E+03  0.77952565310E+03  0.97691167203E+03  0.46999998093E+01 0. -1.
</event>
<event>
 5   0  0.9145224E-04  0.1200507E+04  0.7818609E-02  0.9112413E-01
       -2   -1    0    0    0  501  0.00000000000E+00  0.00000000000E+00  0.59736053771E+03  0.59736053771E+03  0.25500000920E-02 0.  1.
        2   -1    0    0  501    0  0.00000000000E+00  0.00000000000E+00 -0.60316034013E+03  0.60316034013E+03  0.25500000920E-02 0. -1.
    10030    2    1    2    0    0  0.00000000000E+00  0.00000000000E+00 -0.57998024199E+01  0.12005208778E+04  0.12005068681E+04 0.  0.
        5    1    3    3  502    0  0.44204746786E+03 -0.20549563084E+03  0.34731508926E+03  0.59856852520E+03  0.46999998093E+01 0.  1.
       -5    1    3    3    0  502 -0.44204746786E+03  0.20549563084E+03 -0.35311489168E+03  0.60195235265E+03  0.46999998093E+01 0. -1.
</event>
<event>
 5   0  0.9145224E-04  0.1202807E+04  0.7818609E-02  0.9110403E-01
       -2   -1    0    0    0  501  0.00000000000E+00  0.00000000000E+00  0.91974682506E+03  0.91974682507E+03  0.25500000920E-02 0.  1.
        2   -1    0    0  501    0  0.00000000000E+00  0.00000000000E+00 -0.39324510402E+03  0.39324510402E+03  0.25500000920E-02 0. -1.
    10030    2    1    2    0    0  0.00000000000E+00  0.00000000000E+00  0.52650172105E+03  0.13129919291E+04  0.12028066111E+04 0.  0.
        5    1    3    3  502    0 -0.13595342327E+03 -0.50998829410E+03  0.57791484576E+03  0.78267429520E+03  0.46999998093E+01 0.  1.
       -5    1    3    3    0  502  0.13595342327E+03  0.50998829410E+03 -0.51413124717E+02  0.53031763389E+03  0.46999998093E+01 0. -1.
</event>
<event>
 5   0  0.5052959E-04  0.1202790E+04  0.7818609E-02  0.9110418E-01
        1   -1    0    0  501    0  0.00000000000E+00  0.00000000000E+00  0.95760759133E+03  0.95760759134E+03  0.50400001928E-02 0. -1.
       -1   -1    0    0    0  501  0.00000000000E+00  0.00000000000E+00 -0.37768707488E+03  0.37768707491E+03  0.50400001928E-02 0.  1.
    10030    2    1    2    0    0  0.00000000000E+00  0.00000000000E+00  0.57992051645E+03  0.13352946662E+04  0.12027901065E+04 0.  0.
        2    1    3    3  502    0  0.15821688084E+03  0.74786075072E+01  0.93403498533E+03  0.94736997249E+03  0.25500000920E-02 0. -1.
       -2    1    3    3    0  502 -0.15821688084E+03 -0.74786075072E+01 -0.35411446888E+03  0.38792469376E+03  0.25500000920E-02 0.  1.
</event>
<event>
 5   0  0.9050363E-04  0.1198032E+04  0.7818609E-02  0.9114581E-01
        2   -1    0    0  501    0  0.00000000000E+00  0.00000000000E+00  0.29114618878E+03  0.29114618879E+03  0.25500000920E-02 0.  1.
       -2   -1    0    0    0  501  0.00000000000E+00  0.00000000000E+00 -0.12324394057E+04  0.12324394057E+04  0.25500000920E-02 0. -1.
    10030    2    1    2    0    0  0.00000000000E+00  0.00000000000E+00 -0.94129321695E+03  0.15235855945E+04  0.11980317790E+04 0.  0.
        3    1    3    3  502    0  0.38816317309E+03 -0.12975713913E+03 -0.10268967690E+04  0.11054521919E+04  0.10100000352E+00 0. -1.
       -3    1    3    3    0  502 -0.38816317309E+03  0.12975713913E+03  0.85603552051E+02  0.41813340266E+03  0.10100000352E+00 0.  1.
</event>
<event>
 5   0  0.9070772E-04  0.1200008E+04  0.7818609E-02  0.9112850E-01
        2   -1    0    0  501    0  0.00000000000E+00  0.00000000000E+00  0.51377346940E+03  0.51377346940E+03  0.25500000920E-02 0.  1.
       -2   -1    0    0    0  501  0.00000000000E+00  0.00000000000E+00 -0.70070706078E+03  0.70070706079E+03  0.25500000920E-02 0. -1.
    10030    2    1    2    0    0  0.00000000000E+00  0.00000000000E+00 -0.18693359139E+03  0.12144805302E+04  0.12000078294E+04 0.  0.
        4    1    3    3  502    0 -0.31925887853E+02  0.18577255982E+03  0.48302793674E+03  0.51850584073E+03  0.12699999809E+01 0.  1.
       -4    1    3    3    0  502  0.31925887853E+02 -0.18577255982E+03 -0.66996152813E+03  0.69597468946E+03  0.12699999809E+01 0. -1.
</event>
<event>
 5   0  0.9050363E-04  0.1200272E+04  0.7818609E-02  0.9112619E-01
        2   -1    0    0  501    0  0.00000000000E+00  0.00000000000E+00  0.59478821279E+03  0.59478821279E+03  0.25500000920E-02 0. -1.
       -2   -1    0    0    0  501  0.00000000000E+00  0.00000000000E+00 -0.60553155773E+03  0.60553155773E+03  0.25500000920E-02 0.  1.
    10030    2    1    2    0    0  0.00000000000E+00  0.00000000000E+00 -0.10743344936E+02  0.12003197705E+04  0.12002716909E+04 0.  0.
        3    1    3    3  502    0  0.26499522070E+03  0.93446995628E+02  0.52494025851E+03  0.59541338009E+03  0.10100000352E+00 0. -1.
       -3    1    3    3    0  502 -0.26499522070E+03 -0.93446995628E+02 -0.53568360345E+03  0.60490639043E+03  0.10100000352E+00 0.  1.
</event>
<event>
 5   0  0.5052959E-04  0.1202538E+04  0.7818609E-02  0.9110638E-01
       -1   -1    0    0    0  501  0.00000000000E+00  0.00000000000E+00  0.21339386457E+03  0.21339386463E+03  0.50400001928E-02 0. -1.
        1   -1    0    0  501    0  0.00000000000E+00  0.00000000000E+00 -0.16941650664E+04  0.16941650664E+04  0.50400001928E-02 0.  1.
    10030    2    1    2    0    0  0.00000000000E+00  0.00000000000E+00 -0.14807712018E+04  0.19075589310E+04  0.12025380340E+04 0.  0.
        2    1    3    3  502    0  0.40431010031E+03  0.10653484778E+03 -0.14258118339E+04  0.14858518489E+04  0.25500000920E-02 0.  1.
       -2    1    3    3    0  502 -0.40431010031E+03 -0.10653484778E+03 -0.54959367866E+02  0.42170708214E+03  0.25500000920E-02 0. -1.
</event>
<event>
 5   0  0.9410666E-04  0.1183989E+04  0.7818609E-02  0.9126988E-01
        2   -1    0    0  501    0  0.00000000000E+00  0.00000000000E+00  0.38147010516E+03  0.38147010517E+03  0.25500000920E-02 0. -1.
       -2   -1    0    0    0  501  0.00000000000E+00  0.00000000000E+00 -0.91870232977E+03  0.91870232977E+03  0.25500000920E-02 0.  1.
    10030    2    1    2    0    0  0.00000000000E+00  0.00000000000E+00 -0.53723222460E+03  0.13001724349E+04  0.11839889769E+04 0.  0.
        2    1    3    3  502    0  0.34165407150E+03 -0.13465044466E+02 -0.79930743594E+03  0.86936827015E+03  0.25500000920E-02 0.  1.
       -2    1    3    3    0  502 -0.34165407150E+03  0.13465044466E+02  0.26207521134E+03  0.43080416479E+03  0.25500000920E-02 0. -1.
</event>
<event>
 5   0  0.5447074E-04  0.1201935E+04  0.7818609E-02  0.9111164E-01
        1   -1    0    0  501    0  0.00000000000E+00  0.00000000000E+00  0.12315755049E+04  0.12315755050E+04  0.50400001928E-02 0.  1.
       -1   -1    0    0    0  501  0.00000000000E+00  0.00000000000E+00 -0.29325217827E+03  0.29325217831E+03  0.50400001928E-02 0. -1.
    10030    2    1    2    0    0  0.00000000000E+00  0.00000000000E+00  0.93832332668E+03  0.15248276833E+04  0.12019354385E+04 0.  0.
        4    1    3    3  502    0  0.14856301265E+03  0.29629134936E+03 -0.16680856121E+03  0.37106096726E+03  0.12699999809E+01 0. -1.
       -4    1    3    3    0  502 -0.14856301265E+03 -0.29629134936E+03  0.11051318879E+04  0.11537667160E+04  0.12699999809E+01 0.  1.
</event>
<event>
 5   0  0.5447074E-04  0.1206668E+04  0.7818609E-02  0.9107040E-01
        1   -1    0    0  501    0  0.00000000000E+00  0.00000000000E+00  0.88694681974E+03  0.88694681975E+03  0.50400001928E-02 0.  1.
       -1   -1    0    0    0  501  0.00000000000E+00  0.00000000000E+00 -0.41040993230E+03  0.41040993233E+03  0.50400001928E-02 0. -1.
    10030    2    1    2    0    0  0.00000000000E+00  0.00000000000E+00  0.47653688744E+03  0.12973567521E+04  0.12066677824E+04 0.  0.
        4    1    3    3  502    0 -0.41331779580E+03  0.36658008837E+03 -0.22437861751E+02  0.55291738267E+03  0.12699999809E+01 0. -1.
       -4    1    3    3    0  502  0.41331779580E+03 -0.36658008837E+03  0.49897474919E+03  0.74443936942E+03  0.12699999809E+01 0.  1.
</event>
<event>
 5   0  0.9070772E-04  0.1200986E+04  0.7818609E-02  0.9111994E-01
       -2   -1    0    0    0  501  0.00000000000E+00  0.00000000000E+00  0.35779404085E+03  0.35779404086E+03  0.25500000920E-02 0.  1.
        2   -1    0    0  501    0  0.00000000000E+00  0.00000000000E+00 -0.10078198676E+04  0.10078198676E+04  0.25500000920E-02 0. -1.
    10030    2    1    2    0    0  0.00000000000E+00  0.00000000000E+00 -0.65002582675E+03  0.13656139085E+04  0.12009861663E+04 0.  0.
        4    1    3    3  502    0 -0.69214608389E+02 -0.42764696202E+03 -0.79784801174E+03  0.90787424728E+03  0.12699999809E+01 0. -1.
       -4    1    3    3    0  502  0.69214608389E+02  0.42764696202E+03  0.14782218499E+03  0.45773966118E+03  0.12699999809E+01 0.  1.
</event>
<event>
 5   0  0.5003507E-04  0.1196730E+04  0.7818609E-02  0.9115724E-01
       -1   -1    0    0    0  501  0.00000000000E+00  0.00000000000E+00  0.36127374318E+03  0.36127374322E+03  0.50400001928E-02 0. -1.
        1   -1    0    0  501    0  0.00000000000E+00  0.00000000000E+00 -0.99105052244E+03  0.99105052245E+03  0.50400001928E-02 0.  1.
    10030    2    1    2    0    0  0.00000000000E+00  0.00000000000E+00 -0.62977677925E+03  0.13523242657E+04  0.11967297639E+04 0.  0.
        3    1    3    3  502    0 -0.56029392587E+03 -0.91541832419E+02 -0.52849237301E+03  0.77563740818E+03  0.10100000352E+00 0.  1.
       -3    1    3    3    0  502  0.56029392587E+03  0.91541832419E+02 -0.10128440624E+03  0.57668685748E+03  0.10100000352E+00 0. -1.
</event>
<event>
 5   0  0.5052959E-04  0.1199383E+04  0.7818609E-02  0.9113397E-01
       -1   -1    0    0    0  501  0.00000000000E+00  0.00000000000E+00  0.79371925769E+03  0.79371925771E+03  0.50400001928E-02 0. -1.
        1   -1    0    0  501    0  0.00000000000E+00  0.00000000000E+00 -0.45309428875E+03  0.45309428877E+03  0.50400001928E-02 0.  1.
    10030    2    1    2    0    0  0.00000000000E+00  0.00000000000E+00  0.34062496895E+03  0.12468135465E+04  0.11993826121E+04 0.  0.
        2    1    3    3  502    0 -0.49203799991E+03 -0.46060924221E+02  0.52346247647E+03  0.71988607875E+03  0.25500000920E-02 0.  1.
       -2    1    3    3    0  502  0.49203799991E+03  0.46060924221E+02 -0.18283750752E+03  0.52692746774E+03  0.25500000920E-02 0. -1.
</event>
<event>
 5   0  0.9050363E-04  0.1199830E+04  0.7818609E-02  0.9113006E-01
        2   -1    0    0  501    0  0.00000000000E+00  0.00000000000E+00  0.16266233052E+04  0.16266233052E+04  0.25500000920E-02 0.  1.
       -2   -1    0    0    0  501  0.00000000000E+00  0.00000000000E+00 -0.22125459523E+03  0.22125459525E+03  0.25500000920E-02 0. -1.
    10030    2    1    2    0    0  0.00000000000E+00  0.00000000000E+00  0.14053687100E+04  0.18478779005E+04  0.11998297896E+04 0.  0.
        3    1    3    3  502    0 -0.19577910666E+03 -0.10892302935E+03  0.15597758167E+04  0.15757837077E+04  0.10100000352E+00 0.  1.
       -3    1    3    3    0  502  0.19577910666E+03  0.10892302935E+03 -0.15440710672E+03  0.27209419275E+03  0.10100000352E+00 0. -1.
</event>
<event>
 5   0  0.9050363E-04  0.1157592E+04  0.7818609E-02  0.9150808E-01
        2   -1    0    0  501    0  0.00000000000E+00  0.00000000000E+00  0.47374996419E+03  0.47374996419E+03  0.25500000920E-02 0. -1.
       -2   -1    0    0    0  501  0.00000000000E+00  0.00000000000E+00 -0.70713476872E+03  0.70713476873E+03  0.25500000920E-02 0.  1.
    10030    2    1    2    0    0  0.00000000000E+00  0.00000000000E+00 -0.23338480454E+03  0.11808847329E+04  0.11575924522E+04 0.  0.
        3    1    3    3  502    0 -0.52985736325E+03 -0.11892548803E+03 -0.32100455450E+03  0.63082171119E+03  0.10100000352E+00 0. -1.
       -3    1    3    3    0  502  0.52985736325E+03  0.11892548803E+03  0.87619749964E+02  0.55006302173E+03  0.10100000352E+00 0.  1.
</event>
<event>
 5   0  0.9070772E-04  0.1197505E+04  0.7818609E-02  0.9115044E-01
       -2   -1    0    0    0  501  0.00000000000E+00  0.00000000000E+00  0.49135620632E+03  0.49135620633E+03  0.25500000920E-02 0.  1.
        2   -1    0    0  501    0  0.00000000000E+00  0.00000000000E+00 -0.72962210510E+03  0.72962210511E+03  0.25500000920E-02 0. -1.
    10030    2    1    2    0    0  0.00000000000E+00  0.00000000000E+00 -0.23826589878E+03  0.12209783114E+04  0.11975046549E+04 0.  0.
        4    1    3    3  502    0 -0.47778163509E+03  0.28065379113E+03  0.11216373569E+03  0.56535312665E+03  0.12699999809E+01 0. -1.
       -4    1    3    3    0  502  0.47778163509E+03 -0.28065379113E+03 -0.35042963447E+03  0.65562518478E+03  0.12699999809E+01 0.  1.
</event>
<event>
 5   0  0.5001586E-04  0.1183456E+04  0.7818609E-02  0.9127462E-01
       -1   -1    0    0    0  501  0.00000000000E+00  0.00000000000E+00  0.12649829945E+04  0.12649829945E+04  0.50400001928E-02 0. -1.
        1   -1    0    0  501    0  0.00000000000E+00  0.00000000000E+00 -0.27679569466E+03  0.27679569471E+03  0.50400001928E-02 0.  1.
    10030    2    1    2    0    0  0.00000000000E+00  0.00000000000E+00  0.98818729983E+03  0.15417786892E+04  0.11834556971E+04 0.  0.
        1    1    3    3  502    0 -0.35075015374E+03 -0.16823115801E+03 -0.86796498378E+02  0.39857373851E+03  0.50400001928E-02 0.  1.
       -1    1    3    3    0  502  0.35075015374E+03  0.16823115801E+03  0.10749837982E+04  0.11432049507E+04  0.50400001928E-02 0. -1.
</event>
<event>
 5   0  0.9070772E-04  0.1197770E+04  0.7818609E-02  0.9114811E-01
        2   -1    0    0  501    0  0.00000000000E+00  0.00000000000E+00  0.43146766934E+03  0.43146766935E+03  0.25500000920E-02 0.  1.
       -2   -1    0    0    0  501  0.00000000000E+00  0.00000000000E+00 -0.83126296728E+03  0.83126296728E+03  0.25500000920E-02 0. -1.
    10030    2    1    2    0    0  0.00000000000E+00  0.00000000000E+00 -0.39979529794E+03  0.12627306366E+04  0.11977697527E+04 0.  0.
        4    1    3    3  502    0  0.32786116024E+03 -0.30822740804E+02  0.32745008533E+03  0.46440085382E+03  0.12699999809E+01 0.  1.
       -4    1    3    3    0  502 -0.32786116024E+03  0.30822740804E+02 -0.72724538326E+03  0.79832978281E+03  0.12699999809E+01 0. -1.
</event>
<event>
 5   0  0.5003507E-04  0.1172923E+04  0.7818609E-02  0.9136893E-01
        1   -1    0    0  501    0  0.00000000000E+00  0.00000000000E+00  0.19700387744E+04  0.19700387744E+04  0.50400001928E-02 0.  1.
       -1   -1    0    0    0  501  0.00000000000E+00  0.00000000000E+00 -0.17458388151E+03  0.17458388158E+03  0.50400001928E-02 0. -1.
    10030    2    1    2    0    0  0.00000000000E+00  0.00000000000E+00  0.17954548929E+04  0.21446226560E+04  0.11729228722E+04 0.  0.
        3    1    3    3  502    0  0.45105006815E+03 -0.36064526751E+03  0.10844242208E+04  0.12286118483E+04  0.10100000352E+00 0.  1.
       -3    1    3    3    0  502 -0.45105006815E+03  0.36064526751E+03  0.71103067215E+03  0.91601080773E+03  0.10100000352E+00 0. -1.
</event>
<event>
 5   0  0.9050363E-04  0.1199874E+04  0.7818609E-02  0.9112967E-01
        2   -1    0    0  501    0  0.00000000000E+00  0.00000000000E+00  0.26708093036E+03  0.26708093037E+03  0.25500000920E-02 0. -1.
       -2   -1    0    0    0  501  0.00000000000E+00  0.00000000000E+00 -0.13476233814E+04  0.13476233814E+04  0.25500000920E-02 0.  1.
    10030    2    1    2    0    0  0.00000000000E+00  0.00000000000E+00 -0.10805424511E+04  0.16147043118E+04  0.11998741709E+04 0.  0.
        3    1    3    3  502    0 -0.35790362729E+03 -0.10504773746E+03 -0.11726122947E+04  0.12305078778E+04  0.10100000352E+00 0.  1.
       -3    1    3    3    0  502  0.35790362729E+03  0.10504773746E+03  0.92069843606E+02  0.38419643397E+03  0.10100000352E+00 0. -1.
</event>
<event>
 5   0  0.9145224E-04  0.1197560E+04  0.7818609E-02  0.9114995E-01
        2   -1    0    0  501    0  0.00000000000E+00  0.00000000000E+00  0.10786072627E+04  0.10786072627E+04  0.25500000920E-02 0.  1.
       -2   -1    0    0    0  501  0.00000000000E+00  0.00000000000E+00 -0.33240786703E+03  0.33240786704E+03  0.25500000920E-02 0. -1.
    10030    2    1    2    0    0  0.00000000000E+00  0.00000000000E+00  0.74619939566E+03  0.14110151297E+04  0.11975600854E+04 0.  0.
        5    1    3    3  502    0 -0.29207514342E+03 -0.52264348590E+03  0.38154258675E+03  0.70997249120E+03  0.46999998093E+01 0. -1.
       -5    1    3    3    0  502  0.29207514342E+03  0.52264348590E+03  0.36465680891E+03  0.70104263853E+03  0.46999998093E+01 0.  1.
</event>
<event>
 5   0  0.5001586E-04  0.1197894E+04  0.7818609E-02  0.9114702E-01
        1   -1    0    0  501    0  0.00000000000E+00  0.00000000000E+00  0.10513684995E+04  0.10513684995E+04  0.50400001928E-02 0.  1.
       -1   -1    0    0    0  501  0.00000000000E+00  0.00000000000E+00 -0.34121023360E+03  0.34121023363E+03  0.50400001928E-02 0. -1.
    10030    2    1    2    0    0  0.00000000000E+00  0.00000000000E+00  0.71015826591E+03  0.13925787332E+04  0.11978943048E+04 0.  0.
        1    1    3    3  502    0 -0.36503713732E+02  0.12956405173E+03 -0.32339807652E+03  0.35029370611E+03  0.50400001928E-02 0. -1.
       -1    1    3    3    0  502  0.36503713732E+02 -0.12956405173E+03  0.10335563424E+04  0.10422850271E+04  0.50400001928E-02 0.  1.
</event>
<event>
 5   0  0.5001586E-04  0.1199649E+04  0.7818609E-02  0.9113164E-01
       -1   -1    0    0    0  501  0.00000000000E+00  0.00000000000E+00  0.26561625969E+03  0.26561625974E+03  0.50400001928E-02 0.  1.
        1   -1    0    0  501    0  0.00000000000E+00  0.00000000000E+00 -0.13545453455E+04  0.13545453455E+04  0.50400001928E-02 0. -1.
    10030    2    1    2    0    0  0.00000000000E+00  0.00000000000E+00 -0.10889290858E+04  0.16201616052E+04  0.11996487291E+04 0.  0.
        1    1    3    3  502    0  0.25171069761E+03  0.31457502617E+03  0.55683922629E+02  0.40671417684E+03  0.50400001928E-02 0.  1.
       -1    1    3    3    0  502 -0.25171069761E+03 -0.31457502617E+03 -0.11446130084E+04  0.12134474284E+04  0.50400001928E-02 0. -1.
</event>
<event>
 5   0  0.9298693E-04  0.1202597E+04  0.7818609E-02  0.9110586E-01
       -2   -1    0    0    0  501  0.00000000000E+00  0.00000000000E+00  0.40579895186E+03  0.40579895186E+03  0.25500000920E-02 0. -1.
        2   -1    0    0  501    0  0.00000000000E+00  0.00000000000E+00 -0.89098273838E+03  0.89098273838E+03  0.25500000920E-02 0.  1.
    10030    2    1    2    0    0  0.00000000000E+00  0.00000000000E+00 -0.48518378652E+03  0.12967816902E+04  0.12025969589E+04 0.  0.
        1    1    3    3  502    0  0.20190737016E+03 -0.39703737103E+03  0.19296654477E+03  0.48542903451E+03  0.50400001928E-02 0. -1.
       -1    1    3    3    0  502 -0.20190737016E+03  0.39703737103E+03 -0.67815033129E+03  0.81135265574E+03  0.50400001928E-02 0.  1.
</event>
<event>
 5   0  0.5447074E-04  0.1198746E+04  0.7818609E-02  0.9113955E-01
       -1   -1    0    0    0  501  0.00000000000E+00  0.00000000000E+00  0.27031547275E+03  0.27031547280E+03  0.50400001928E-02 0.  1.
        1   -1    0    0  501    0  0.00000000000E+00  0.00000000000E+00 -0.13289949961E+04  0.13289949961E+04  0.50400001928E-02 0. -1.
    10030    2    1    2    0    0  0.00000000000E+00  0.00000000000E+00 -0.10586795233E+04  0.15993104689E+04  0.11987458625E+04 0.  0.
        4    1    3    3  502    0  0.32962187984E+03  0.50046188108E+03 -0.51391775396E+03  0.78944648256E+03  0.12699999809E+01 0.  1.
       -4    1    3    3    0  502 -0.32962187984E+03 -0.50046188108E+03 -0.54476176936E+03  0.80986398632E+03  0.12699999809E+01 0. -1.
</event>
<event>
 5   0  0.9145224E-04  0.1199444E+04  0.7818609E-02  0.9113343E-01
        2   -1    0    0  501    0  0.00000000000E+00  0.00000000000E+00  0.18942748599E+04  0.18942748599E+04  0.25500000920E-02 0. -1.
       -2   -1    0    0    0  501  0.00000000000E+00  0.00000000000E+00 -0.18987023872E+03  0.18987023873E+03  0.25500000920E-02 0.  1.
    10030    2    1    2    0    0  0.00000000000E+00  0.00000000000E+00  0.17044046212E+04  0.20841450986E+04  0.11994439042E+04 0.  0.
        5    1    3    3  502    0  0.28878494883E+03 -0.35542903884E+03  0.15249846508E+04  0.15922709642E+04  0.46999998093E+01 0. -1.
       -5    1    3    3    0  502 -0.28878494883E+03  0.35542903884E+03  0.17941997037E+03  0.49187413440E+03  0.46999998093E+01 0.  1.
</event>
<event>
 5   0  0.5052959E-04  0.1237678E+04  0.7818609E-02  0.9080502E-01
       -1   -1    0    0    0  501  0.00000000000E+00  0.00000000000E+00  0.99148807437E+03  0.99148807438E+03  0.50400001928E-02 0. -1.
        1   -1    0    0  501    0  0.00000000000E+00  0.00000000000E+00 -0.38624945982E+03  0.38624945985E+03  0.50400001928E-02 0.  1.
    10030    2    1    2    0    0  0.00000000000E+00  0.00000000000E+00  0.60523861455E+03  0.13777375342E+04  0.12376780408E+04 0.  0.
        2    1    3    3  502    0 -0.28368932895E+03  0.76777948635E+02  0.90884597799E+03  0.95518349048E+03  0.25500000920E-02 0. -1.
       -2    1    3    3    0  502  0.28368932895E+03 -0.76777948635E+02 -0.30360736344E+03  0.42255404376E+03  0.25500000920E-02 0.  1.
</event>
<event>
 5   0  0.5157631E-04  0.1199959E+04  0.7818609E-02  0.9112893E-01
        1   -1    0    0  501    0  0.00000000000E+00  0.00000000000E+00  0.23574529654E+04  0.23574529654E+04  0.50400001928E-02 0.  1.
       -1   -1    0    0    0  501  0.00000000000E+00  0.00000000000E+00 -0.15269665945E+03  0.15269665953E+03  0.50400001928E-02 0. -1.
    10030    2    1    2    0    0  0.00000000000E+00  0.00000000000E+00  0.22047563059E+04  0.25101496249E+04  0.11999586538E+04 0.  0.
        5    1    3    3  502    0  0.39157707305E+02  0.10694942997E+03  0.23345933134E+04  0.23373744962E+04  0.46999998093E+01 0.  1.
       -5    1    3    3    0  502 -0.39157707305E+02 -0.10694942997E+03 -0.12983700743E+03  0.17277512874E+03  0.46999998093E+01 0. -1.
</event>
<event>
 5   0  0.5001586E-04  0.1257600E+04  0.7818609E-02  0.9063882E-01
       -1   -1    0    0    0  501  0.00000000000E+00  0.00000000000E+00  0.94241590741E+03  0.94241590742E+03  0.50400001928E-02 0. -1.
        1   -1    0    0  501    0  0.00000000000E+00  0.00000000000E+00 -0.41954857341E+03  0.41954857344E+03  0.50400001928E-02 0.  1.
    10030    2    1    2    0    0  0.00000000000E+00  0.00000000000E+00  0.52286733400E+03  0.13619644809E+04  0.12575996971E+04 0.  0.
        1    1    3    3  502    0 -0.40765389503E+03  0.11898499090E+03 -0.24078540993E+03  0.48817695547E+03  0.50400001928E-02 0.  1.
       -1    1    3    3    0  502  0.40765389503E+03 -0.11898499090E+03  0.76365274392E+03  0.87378752539E+03  0.50400001928E-02 0. -1.
</event>
<event>
 5   0  0.9145224E-04  0.1196070E+04  0.7818609E-02  0.9116303E-01
       -2   -1    0    0    0  501  0.00000000000E+00  0.00000000000E+00  0.54102993564E+03  0.54102993564E+03  0.25500000920E-02 0. -1.
        2   -1    0    0  501    0  0.00000000000E+00  0.00000000000E+00 -0.66104647992E+03  0.66104647993E+03  0.25500000920E-02 0.  1.
    10030    2    1    2    0    0  0.00000000000E+00  0.00000000000E+00 -0.12001654429E+03  0.12020764156E+04  0.11960701225E+04 0.  0.
        5    1    3    3  502    0  0.41319599905E+03  0.18906656709E+03 -0.45073654051E+03  0.64004891952E+03  0.46999998093E+01 0.  1.
       -5    1    3    3    0  502 -0.41319599905E+03 -0.18906656709E+03  0.33071999622E+03  0.56202749606E+03  0.46999998093E+01 0. -1.
</event>
<event>
 5   0  0.5052959E-04  0.1203189E+04  0.7818609E-02  0.9110070E-01
        1   -1    0    0  501    0  0.00000000000E+00  0.00000000000E+00  0.82352549008E+03  0.82352549010E+03  0.50400001928E-02 0. -1.
       -1   -1    0    0    0  501  0.00000000000E+00  0.00000000000E+00 -0.43947135843E+03  0.43947135846E+03  0.50400001928E-02 0.  1.
    10030    2    1    2    0    0  0.00000000000E+00  0.00000000000E+00  0.38405413165E+03  0.12629968486E+04  0.12031888727E+04 0.  0.
        2    1    3    3  502    0 -0.39870220422E+03 -0.11007402275E+03 -0.26653566802E+03  0.49205792389E+03  0.25500000920E-02 0.  1.
       -2    1    3    3    0  502  0.39870220422E+03  0.11007402275E+03  0.65058979967E+03  0.77093892467E+03  0.25500000920E-02 0. -1.
</event>
<event>
 5   0  0.5003507E-04  0.1234671E+04  0.7818609E-02  0.9083039E-01
       -1   -1    0    0    0  501  0.00000000000E+00  0.00000000000E+00  0.66246456372E+03  0.66246456374E+03  0.50400001928E-02 0. -1.
        1   -1    0    0  501    0  0.00000000000E+00  0.00000000000E+00 -0.57528063602E+03  0.57528063604E+03  0.50400001928E-02 0.  1.
    10030    2    1    2    0    0  0.00000000000E+00  0.00000000000E+00  0.87183927704E+02  0.12377451998E+04  0.12346708640E+04 0.  0.
        3    1    3    3  502    0 -0.53438554181E+03  0.11708371100E+03  0.33035759434E+03  0.63907171195E+03  0.10100000352E+00 0. -1.
       -3    1    3    3    0  502  0.53438554181E+03 -0.11708371100E+03 -0.24317366663E+03  0.59867348783E+03  0.10100000352E+00 0.  1.
</event>
<event>
 5   0  0.9050363E-04  0.1145376E+04  0.7818609E-02  0.9162060E-01
       -2   -1    0    0    0  501  0.00000000000E+00  0.00000000000E+00  0.19808006320E+03  0.19808006322E+03  0.25500000920E-02 0.  1.
        2   -1    0    0  501    0  0.00000000000E+00  0.00000000000E+00 -0.16557521934E+04  0.16557521934E+04  0.25500000920E-02 0. -1.
    10030    2    1    2    0    0  0.00000000000E+00  0.00000000000E+00 -0.14576721302E+04  0.18538322566E+04  0.11453759193E+04 0.  0.
        3    1    3    3  502    0  0.44483815911E+03  0.17657039524E+03 -0.21979836941E+03  0.52665873739E+03  0.10100000352E+00 0.  1.
       -3    1    3    3    0  502 -0.44483815911E+03 -0.17657039524E+03 -0.12378737608E+04  0.13271735192E+04  0.10100000352E+00 0. -1.
</event>
<event>
 5   0  0.9145224E-04  0.1201575E+04  0.7818609E-02  0.9111479E-01
        2   -1    0    0  501    0  0.00000000000E+00  0.00000000000E+00  0.18501925607E+04  0.18501925607E+04  0.25500000920E-02 0.  1.
       -2   -1    0    0    0  501  0.00000000000E+00  0.00000000000E+00 -0.19508546712E+03  0.19508546714E+03  0.25500000920E-02 0. -1.
    10030    2    1    2    0    0  0.00000000000E+00  0.00000000000E+00  0.16551070936E+04  0.20452780279E+04  0.12015750996E+04 0.  0.
        5    1    3    3  502    0 -0.30450637260E+03 -0.46108732057E+03  0.42619659427E+03  0.69784760164E+03  0.46999998093E+01 0. -1.
       -5    1    3    3    0  502  0.30450637260E+03  0.46108732057E+03  0.12289104993E+04  0.13474304262E+04  0.46999998093E+01 0.  1.
</event>
<event>
 5   0  0.9298693E-04  0.1201566E+04  0.7818609E-02  0.9111487E-01
       -2   -1    0    0    0  501  0.00000000000E+00  0.00000000000E+00  0.62627845735E+03  0.62627845736E+03  0.25500000920E-02 0.  1.
        2   -1    0    0  501    0  0.00000000000E+00  0.00000000000E+00 -0.57632544204E+03  0.57632544205E+03  0.25500000920E-02 0. -1.
    10030    2    1    2    0    0  0.00000000000E+00  0.00000000000E+00  0.49953015310E+02  0.12026038994E+04  0.12015659928E+04 0.  0.
        1    1    3    3  502    0  0.19558131496E+03  0.17330360300E+03 -0.51646584721E+03  0.57881185279E+03  0.50400001928E-02 0. -1.
       -1    1    3    3    0  502 -0.19558131496E+03 -0.17330360300E+03  0.56641886252E+03  0.62379204662E+03  0.50400001928E-02 0.  1.
</event>
<event>
 5   0  0.5447074E-04  0.1202033E+04  0.7818609E-02  0.9111079E-01
       -1   -1    0    0    0  501  0.00000000000E+00  0.00000000000E+00  0.53644539235E+03  0.53644539237E+03  0.50400001928E-02 0.  1.
        1   -1    0    0  501    0  0.00000000000E+00  0.00000000000E+00 -0.67335989119E+03  0.67335989121E+03  0.50400001928E-02 0. -1.
    10030    2    1    2    0    0  0.00000000000E+00  0.00000000000E+00 -0.13691449884E+03  0.12098052836E+04  0.12020329630E+04 0.  0.
        4    1    3    3  502    0 -0.50833538812E+03 -0.83035042937E+02  0.24325407614E+03  0.56962605596E+03  0.12699999809E+01 0. -1.
       -4    1    3    3    0  502  0.50833538812E+03  0.83035042937E+02 -0.38016857498E+03  0.64017922762E+03  0.12699999809E+01 0.  1.
</event>
<event>
 5   0  0.5003507E-04  0.1189965E+04  0.7818609E-02  0.9121686E-01
       -1   -1    0    0    0  501  0.00000000000E+00  0.00000000000E+00  0.72010251260E+03  0.72010251262E+03  0.50400001928E-02 0.  1.
        1   -1    0    0  501    0  0.00000000000E+00  0.00000000000E+00 -0.49160253829E+03  0.49160253831E+03  0.50400001928E-02 0. -1.
    10030    2    1    2    0    0  0.00000000000E+00  0.00000000000E+00  0.22849997432E+03  0.12117050509E+04  0.11899650802E+04 0.  0.
        3    1    3    3  502    0  0.40182553156E+03  0.38869661112E+03 -0.93075766928E+02  0.56675561038E+03  0.10100000352E+00 0.  1.
       -3    1    3    3    0  502 -0.40182553156E+03 -0.38869661112E+03  0.32157574124E+03  0.64494944055E+03  0.10100000352E+00 0. -1.
</event>
<event>
 5   0  0.5001586E-04  0.1198481E+04  0.7818609E-02  0.9114187E-01
        1   -1    0    0  501    0  0.00000000000E+00  0.00000000000E+00  0.18226224811E+04  0.18226224811E+04  0.50400001928E-02 0. -1.
       -1   -1    0    0    0  501  0.00000000000E+00  0.00000000000E+00 -0.19701796475E+03  0.19701796481E+03  0.50400001928E-02 0.  1.
    10030    2    1    2    0    0  0.00000000000E+00  0.00000000000E+00  0.16256045164E+04  0.20196404460E+04  0.11984813254E+04 0.  0.
        1    1    3    3  502    0 -0.20914074725E+02  0.49423670519E+03  0.13827325375E+04  0.14685559539E+04  0.50400001928E-02 0. -1.
       -1    1    3    3    0  502  0.20914074725E+02 -0.49423670519E+03  0.24287197887E+03  0.55108449209E+03  0.50400001928E-02 0.  1.
</event>
<event>
 5   0  0.9410666E-04  0.1198435E+04  0.7818609E-02  0.9114228E-01
        2   -1    0    0  501    0  0.00000000000E+00  0.00000000000E+00  0.13707793966E+04  0.13707793966E+04  0.25500000920E-02 0. -1.
       -2   -1    0    0    0  501  0.00000000000E+00  0.00000000000E+00 -0.26193968285E+03  0.26193968286E+03  0.25500000920E-02 0.  1.
    10030    2    1    2    0    0  0.00000000000E+00  0.00000000000E+00  0.11088397138E+04  0.16327190795E+04  0.11984348467E+04 0.  0.
        2    1    3    3  502    0 -0.54129120573E+03  0.24689320322E+03  0.65179971167E+03  0.88249378884E+03  0.25500000920E-02 0. -1.
       -2    1    3    3    0  502  0.54129120573E+03 -0.24689320322E+03  0.45704000212E+03  0.75022529066E+03  0.25500000920E-02 0.  1.
</event>
<event>
 5   0  0.5001586E-04  0.1203368E+04  0.7818609E-02  0.9109913E-01
        1   -1    0    0  501    0  0.00000000000E+00  0.00000000000E+00  0.75509850047E+03  0.75509850048E+03  0.50400001928E-02 0. -1.
       -1   -1    0    0    0  501  0.00000000000E+00  0.00000000000E+00 -0.47943915756E+03  0.47943915758E+03  0.50400001928E-02 0.  1.
    10030    2    1    2    0    0  0.00000000000E+00  0.00000000000E+00  0.27565934291E+03  0.12345376581E+04  0.12033682545E+04 0.  0.
        1    1    3    3  502    0 -0.36503712568E+03  0.43863948218E+03 -0.57811416971E+02  0.57358422085E+03  0.50400001928E-02 0.  1.
       -1    1    3    3    0  502  0.36503712568E+03 -0.43863948218E+03  0.33347075988E+03  0.66095343722E+03  0.50400001928E-02 0. -1.
</event>
<event>
 5   0  0.3453625E-04  0.1199422E+04  0.7818609E-02  0.9113362E-01
        4   -1    0    0  501    0  0.00000000000E+00  0.00000000000E+00  0.83125016319E+03  0.83125113336E+03  0.12699999809E+01 0. -1.
       -4   -1    0    0    0  501  0.00000000000E+00  0.00000000000E+00 -0.43266371844E+03  0.43266558235E+03  0.12699999809E+01 0.  1.
    10030    2    1    2    0    0  0.00000000000E+00  0.00000000000E+00  0.39858644475E+03  0.12639167157E+04  0.11994224903E+04 0.  0.
        5    1    3    3  502    0 -0.38728284801E+03 -0.45756723051E+03  0.18179577408E+03  0.62644039482E+03  0.46999998093E+01 0.  1.
       -5    1    3    3    0  502  0.38728284801E+03  0.45756723051E+03  0.21679067068E+03  0.63747632088E+03  0.46999998093E+01 0. -1.
</event>
<event>
 5   0  0.5447074E-04  0.1187681E+04  0.7818609E-02  0.9123708E-01
        1   -1    0    0  501    0  0.00000000000E+00  0.00000000000E+00  0.11354523815E+04  0.11354523815E+04  0.50400001928E-02 0. -1.
       -1   -1    0    0    0  501  0.00000000000E+00  0.00000000000E+00 -0.31057802173E+03  0.31057802178E+03  0.50400001928E-02 0.  1.
    10030    2    1    2    0    0  0.00000000000E+00  0.00000000000E+00  0.82487435976E+03  0.14460304033E+04  0.11876810253E+04 0.  0.
        4    1    3    3  502    0  0.46747595925E+03  0.29216021915E+03  0.14360525504E+03  0.56966257407E+03  0.12699999809E+01 0.  1.
       -4    1    3    3    0  502 -0.46747595925E+03 -0.29216021915E+03  0.68126910471E+03  0.87636782920E+03  0.12699999809E+01 0. -1.
</event>
<event>
 5   0  0.9050363E-04  0.1199522E+04  0.7818609E-02  0.9113275E-01
        2   -1    0    0  501    0  0.00000000000E+00  0.00000000000E+00  0.16021672456E+04  0.16021672456E+04  0.25500000920E-02 0.  1.
       -2   -1    0    0    0  501  0.00000000000E+00  0.00000000000E+00 -0.22451664521E+03  0.22451664522E+03  0.25500000920E-02 0. -1.
    10030    2    1    2    0    0  0.00000000000E+00  0.00000000000E+00  0.13776506004E+04  0.18266838909E+04  0.11995219299E+04 0.  0.
        3    1    3    3  502    0 -0.16254674289E+03  0.52019889064E+03  0.30755182744E+03  0.62579267031E+03  0.10100000352E+00 0.  1.
       -3    1    3    3    0  502  0.16254674289E+03 -0.52019889064E+03  0.10700987730E+04  0.12008912206E+04  0.10100000352E+00 0. -1.
</event>
<event>
 5   0  0.9050363E-04  0.1171017E+04  0.7818609E-02  0.9138611E-01
        2   -1    0    0  501    0  0.00000000000E+00  0.00000000000E+00  0.80239881336E+03  0.80239881336E+03  0.25500000920E-02 0.  1.
       -2   -1    0    0    0  501  0.00000000000E+00  0.00000000000E+00 -0.42724385415E+03  0.42724385416E+03  0.25500000920E-02 0. -1.
    10030    2    1    2    0    0  0.00000000000E+00  0.00000000000E+00  0.37515495920E+03  0.12296426675E+04  0.11710165867E+04 0.  0.
        3    1    3    3  502    0  0.43104009624E+03  0.24245629177E+03  0.51670074350E+03  0.71523442766E+03  0.10100000352E+00 0.  1.
       -3    1    3    3    0  502 -0.43104009624E+03 -0.24245629177E+03 -0.14154578430E+03  0.51440823986E+03  0.10100000352E+00 0. -1.
</event>
<event>
 5   0  0.5052959E-04  0.1202304E+04  0.7818609E-02  0.9110842E-01
        1   -1    0    0  501    0  0.00000000000E+00  0.00000000000E+00  0.22371371515E+04  0.22371371515E+04  0.50400001928E-02 0.  1.
       -1   -1    0    0    0  501  0.00000000000E+00  0.00000000000E+00 -0.16153852055E+03  0.16153852062E+03  0.50400001928E-02 0. -1.
    10030    2    1    2    0    0  0.00000000000E+00  0.00000000000E+00  0.20755986309E+04  0.23986756721E+04  0.12023041642E+04 0.  0.
        2    1    3    3  502    0  0.81527006855E+02 -0.47697468512E+03  0.32616659751E+03  0.58355475529E+03  0.25500000920E-02 0. -1.
       -2    1    3    3    0  502 -0.81527006855E+02  0.47697468512E+03  0.17494320334E+04  0.18151209168E+04  0.25500000920E-02 0.  1.
</event>
<event>
 5   0  0.3453625E-04  0.1199558E+04  0.7818609E-02  0.9113244E-01
        3   -1    0    0  501    0  0.00000000000E+00  0.00000000000E+00  0.33368209999E+03  0.33368211528E+03  0.10100000352E+00 0.  1.
       -3   -1    0    0    0  501  0.00000000000E+00  0.00000000000E+00 -0.10780757443E+04  0.10780757490E+04  0.10100000352E+00 0. -1.
    10030    2    1    2    0    0  0.00000000000E+00  0.00000000000E+00 -0.74439364428E+03  0.14117578643E+04  0.11995575725E+04 0.  0.
        3    1    3    3  502    0  0.28202668207E+03  0.16860524950E+03  0.21832943631E+03  0.39450542774E+03  0.10100000352E+00 0.  1.
       -3    1    3    3    0  502 -0.28202668207E+03 -0.16860524950E+03 -0.96272308059E+03  0.10172524365E+04  0.10100000352E+00 0. -1.
</event>
<event>
 5   0  0.5157631E-04  0.1198456E+04  0.7818609E-02  0.9114209E-01
       -1   -1    0    0    0  501  0.00000000000E+00  0.00000000000E+00  0.29894104990E+03  0.29894104995E+03  0.50400001928E-02 0. -1.
        1   -1    0    0  501    0  0.00000000000E+00  0.00000000000E+00 -0.12011539341E+04  0.12011539341E+04  0.50400001928E-02 0.  1.
    10030    2    1    2    0    0  0.00000000000E+00  0.00000000000E+00 -0.90221288419E+03  0.15000949841E+04  0.11984560371E+04 0.  0.
        5    1    3    3  502    0  0.71245955287E+02 -0.46011129142E+03 -0.92323364898E+03  0.10340023439E+04  0.46999998093E+01 0.  1.
       -5    1    3    3    0  502 -0.71245955287E+02  0.46011129142E+03  0.21020764788E+02  0.46609264013E+03  0.46999998093E+01 0. -1.
</event>
<event>
 5   0  0.9145224E-04  0.1206008E+04  0.7818609E-02  0.9107614E-01
       -2   -1    0    0    0  501  0.00000000000E+00  0.00000000000E+00  0.57442812566E+03  0.57442812566E+03  0.25500000920E-02 0.  1.
        2   -1    0    0  501    0  0.00000000000E+00  0.00000000000E+00 -0.63300148894E+03  0.63300148894E+03  0.25500000920E-02 0. -1.
    10030    2    1    2    0    0  0.00000000000E+00  0.00000000000E+00 -0.58573363282E+02  0.12074296146E+04  0.12060080577E+04 0.  0.
        5    1    3    3  502    0 -0.33065885497E+02 -0.27973039237E+03 -0.56306549773E+03  0.62960883883E+03  0.46999998093E+01 0. -1.
       -5    1    3    3    0  502  0.33065885497E+02  0.27973039237E+03  0.50449213445E+03  0.57782077578E+03  0.46999998093E+01 0.  1.
</event>
<event>
 5   0  0.9298693E-04  0.1235087E+04  0.7818609E-02  0.9082687E-01
       -2   -1    0    0    0  501  0.00000000000E+00  0.00000000000E+00  0.19264992004E+03  0.19264992006E+03  0.25500000920E-02 0.  1.
        2   -1    0    0  501    0  0.00000000000E+00  0.00000000000E+00 -0.19795502739E+04  0.19795502739E+04  0.25500000920E-02 0. -1.
    10030    2    1    2    0    0  0.00000000000E+00  0.00000000000E+00 -0.17869003538E+04  0.21722001939E+04  0.12350873686E+04 0.  0.
        1    1    3    3  502    0 -0.28403730980E+03  0.45202452471E+03 -0.34751203506E+03  0.63699919845E+03  0.50400001928E-02 0.  1.
       -1    1    3    3    0  502  0.28403730980E+03 -0.45202452471E+03 -0.14393883188E+04  0.15352009955E+04  0.50400001928E-02 0. -1.
</event>
<event>
 5   0  0.3453625E-04  0.1196970E+04  0.7818609E-02  0.9115513E-01
        3   -1    0    0  501    0  0.00000000000E+00  0.00000000000E+00  0.95413655770E+03  0.95413656304E+03  0.10100000352E+00 0. -1.
       -3   -1    0    0    0  501  0.00000000000E+00  0.00000000000E+00 -0.37540142917E+03  0.37540144276E+03  0.10100000352E+00 0.  1.
    10030    2    1    2    0    0  0.00000000000E+00  0.00000000000E+00  0.57873512852E+03  0.13295380058E+04  0.11969699077E+04 0.  0.
        2    1    3    3  502    0  0.31890863794E+03  0.39485621336E+03 -0.62883202101E+02  0.51143762640E+03  0.25500000920E-02 0.  1.
       -2    1    3    3    0  502 -0.31890863794E+03 -0.39485621336E+03  0.64161833062E+03  0.81810037940E+03  0.25500000920E-02 0. -1.
</event>
<event>
 5   0  0.5447074E-04  0.1197837E+04  0.7818609E-02  0.9114752E-01
       -1   -1    0    0    0  501  0.00000000000E+00  0.00000000000E+00  0.29530846010E+03  0.29530846014E+03  0.50400001928E-02 0. -1.
        1   -1    0    0  501    0  0.00000000000E+00  0.00000000000E+00 -0.12146734520E+04  0.12146734521E+04  0.50400001928E-02 0.  1.
    10030    2    1    2    0    0  0.00000000000E+00  0.00000000000E+00 -0.91936499195E+03  0.15099819122E+04  0.11978369617E+04 0.  0.
        4    1    3    3  502    0 -0.53397240549E+03 -0.93590461894E+02 -0.78061613934E+03  0.95039406263E+03  0.12699999809E+01 0. -1.
       -4    1    3    3    0  502  0.53397240549E+03  0.93590461894E+02 -0.13874885261E+03  0.55958784957E+03  0.12699999809E+01 0.  1.
</event>
<event>
 5   0  0.9070772E-04  0.1196892E+04  0.7818609E-02  0.9115582E-01
       -2   -1    0    0    0  501  0.00000000000E+00  0.00000000000E+00  0.81017991164E+03  0.81017991164E+03  0.25500000920E-02 0.  1.
        2   -1    0    0  501    0  0.00000000000E+00  0.00000000000E+00 -0.44204677780E+03  0.44204677781E+03  0.25500000920E-02 0. -1.
    10030    2    1    2    0    0  0.00000000000E+00  0.00000000000E+00  0.36813313384E+03  0.12522266895E+04  0.11968916733E+04 0.  0.
        4    1    3    3  502    0  0.20156838424E+03 -0.82430219380E+02  0.76725191023E+03  0.79755981672E+03  0.12699999809E+01 0.  1.
       -4    1    3    3    0  502 -0.20156838424E+03  0.82430219380E+02 -0.39911877639E+03  0.45466687273E+03  0.12699999809E+01 0. -1.
</event>
<event>
 5   0  0.9050363E-04  0.1197273E+04  0.7818609E-02  0.9115247E-01
       -2   -1    0    0    0  501  0.00000000000E+00  0.00000000000E+00  0.26601627144E+03  0.26601627145E+03  0.25500000920E-02 0. -1.
        2   -1    0    0  501    0  0.00000000000E+00  0.00000000000E+00 -0.13471572629E+04  0.13471572629E+04  0.25500000920E-02 0.  1.
    10030    2    1    2    0    0  0.00000000000E+00  0.00000000000E+00 -0.10811409915E+04  0.16131735344E+04  0.11972731554E+04 0.  0.
        3    1    3    3  502    0  0.47920120536E+03 -0.30369098001E+03 -0.28314207222E+03  0.63405950022E+03  0.10100000352E+00 0. -1.
       -3    1    3    3    0  502 -0.47920120536E+03  0.30369098001E+03 -0.79799891925E+03  0.97911403416E+03  0.10100000352E+00 0.  1.
</event>
<event>
 5   0  0.9145224E-04  0.1205028E+04  0.7818609E-02  0.9108467E-01
        2   -1    0    0  501    0  0.00000000000E+00  0.00000000000E+00  0.78661609033E+03  0.78661609034E+03  0.25500000920E-02 0. -1.
       -2   -1    0    0    0  501  0.00000000000E+00  0.00000000000E+00 -0.46149962583E+03  0.46149962583E+03  0.25500000920E-02 0.  1.
    10030    2    1    2    0    0  0.00000000000E+00  0.00000000000E+00  0.32511646451E+03  0.12481157162E+04  0.12050278526E+04 0.  0.
        5    1    3    3  502    0 -0.48214342523E+03 -0.33142046662E+03  0.31157455633E+03  0.66287449969E+03  0.46999998093E+01 0. -1.
       -5    1    3    3    0  502  0.48214342523E+03  0.33142046662E+03  0.13541908180E+02  0.58524121648E+03  0.46999998093E+01 0.  1.
</event>
<event>
 5   0  0.9145224E-04  0.1199388E+04  0.7818609E-02  0.9113392E-01
        2   -1    0    0  501    0  0.00000000000E+00  0.00000000000E+00  0.14446534605E+04  0.14446534605E+04  0.25500000920E-02 0.  1.
       -2   -1    0    0    0  501  0.00000000000E+00  0.00000000000E+00 -0.24894067691E+03  0.24894067692E+03  0.25500000920E-02 0. -1.
    10030    2    1    2    0    0  0.00000000000E+00  0.00000000000E+00  0.11957127836E+04  0.16935941374E+04  0.11993881947E+04 0.  0.
        5    1    3    3  502    0  0.11289040712E+03  0.47139437711E+03  0.99313289368E+02  0.49481524050E+03  0.46999998093E+01 0. -1.
       -5    1    3    3    0  502 -0.11289040712E+03 -0.47139437711E+03  0.10963994942E+04  0.11987788969E+04  0.46999998093E+01 0.  1.
</event>
<event>
 5   0  0.9145224E-04  0.1197870E+04  0.7818609E-02  0.9114723E-01
       -2   -1    0    0    0  501  0.00000000000E+00  0.00000000000E+00  0.20686646253E+03  0.20686646255E+03  0.25500000920E-02 0. -1.
        2   -1    0    0  501    0  0.00000000000E+00  0.00000000000E+00 -0.17340816952E+04  0.17340816952E+04  0.25500000920E-02 0.  1.
    10030    2    1    2    0    0  0.00000000000E+00  0.00000000000E+00 -0.15272152327E+04  0.19409481578E+04  0.11978703537E+04 0.  0.
        5    1    3    3  502    0  0.10687476307E+03 -0.18242716088E+03  0.14435613144E+03  0.25605207808E+03  0.46999998093E+01 0. -1.
       -5    1    3    3    0  502 -0.10687476307E+03  0.18242716088E+03 -0.16715713641E+04  0.16848960797E+04  0.46999998093E+01 0.  1.
</event>
<event>
 5   0  0.5157631E-04  0.1192668E+04  0.7818609E-02  0.9119298E-01
        1   -1    0    0  501    0  0.00000000000E+00  0.00000000000E+00  0.91411765704E+03  0.91411765706E+03  0.50400001928E-02 0.  1.
       -1   -1    0    0    0  501  0.00000000000E+00  0.00000000000E+00 -0.38902483975E+03  0.38902483978E+03  0.50400001928E-02 0. -1.
    10030    2    1    2    0    0  0.00000000000E+00  0.00000000000E+00  0.52509281729E+03  0.13031424968E+04  0.11926683949E+04 0.  0.
        5    1    3    3  502    0 -0.56301790253E+03  0.11103332010E+03  0.85436793002E+02  0.58020607748E+03  0.46999998093E+01 0. -1.
       -5    1    3    3    0  502  0.56301790253E+03 -0.11103332010E+03  0.43965602429E+03  0.72293641936E+03  0.46999998093E+01 0.  1.
</event>
<event>
 5   0  0.9298693E-04  0.1204562E+04  0.7818609E-02  0.9108873E-01
        2   -1    0    0  501    0  0.00000000000E+00  0.00000000000E+00  0.65528535868E+03  0.65528535869E+03  0.25500000920E-02 0.  1.
       -2   -1    0    0    0  501  0.00000000000E+00  0.00000000000E+00 -0.55356361795E+03  0.55356361796E+03  0.25500000920E-02 0. -1.
    10030    2    1    2    0    0  0.00000000000E+00  0.00000000000E+00  0.10172174073E+03  0.12088489766E+04  0.12045615533E+04 0.  0.
        1    1    3    3  502    0  0.41196546212E+03  0.38151979327E+03  0.26951072137E+03  0.62282334863E+03  0.50400001928E-02 0.  1.
       -1    1    3    3    0  502 -0.41196546212E+03 -0.38151979327E+03 -0.16778898064E+03  0.58602562801E+03  0.50400001928E-02 0. -1.
</event>
<event>
 5   0  0.5052959E-04  0.1202241E+04  0.7818609E-02  0.9110897E-01
        1   -1    0    0  501    0  0.00000000000E+00  0.00000000000E+00  0.64707012332E+03  0.64707012334E+03  0.50400001928E-02 0.  1.
       -1   -1    0    0    0  501  0.00000000000E+00  0.00000000000E+00 -0.55843378761E+03  0.55843378764E+03  0.50400001928E-02 0. -1.
    10030    2    1    2    0    0  0.00000000000E+00  0.00000000000E+00  0.88636335708E+02  0.12055039110E+04  0.12022409407E+04 0.  0.
        2    1    3    3  502    0  0.42791052509E+03  0.41983557287E+03  0.88896608464E+02  0.60602964674E+03  0.25500000920E-02 0. -1.
       -2    1    3    3    0  502 -0.42791052509E+03 -0.41983557287E+03 -0.26027275532E+00  0.59947426423E+03  0.25500000920E-02 0.  1.
</event>
<event>
 5   0  0.5052959E-04  0.1182580E+04  0.7818609E-02  0.9128242E-01
       -1   -1    0    0    0  501  0.00000000000E+00  0.00000000000E+00  0.15251072487E+03  0.15251072496E+03  0.50400001928E-02 0. -1.
        1   -1    0    0  501    0  0.00000000000E+00  0.00000000000E+00 -0.22924537821E+04  0.22924537821E+04  0.50400001928E-02 0.  1.
    10030    2    1    2    0    0  0.00000000000E+00  0.00000000000E+00 -0.21399430572E+04  0.24449645070E+04  0.11825798716E+04 0.  0.
        2    1    3    3  502    0 -0.33766303238E+03  0.46554074990E+03 -0.13540476510E+04  0.14711184706E+04  0.25500000920E-02 0. -1.
       -2    1    3    3    0  502  0.33766303238E+03 -0.46554074990E+03 -0.78589540623E+03  0.97384603649E+03  0.25500000920E-02 0.  1.
</event>
<event>
 5   0  0.5003507E-04  0.1197168E+04  0.7818609E-02  0.9115339E-01
       -1   -1    0    0    0  501  0.00000000000E+00  0.00000000000E+00  0.53633497925E+03  0.53633497927E+03  0.50400001928E-02 0. -1.
        1   -1    0    0  501    0  0.00000000000E+00  0.00000000000E+00 -0.66805830135E+03  0.66805830137E+03  0.50400001928E-02 0.  1.
    10030    2    1    2    0    0  0.00000000000E+00  0.00000000000E+00 -0.13172332210E+03  0.12043932806E+04  0.11971683845E+04 0.  0.
        3    1    3    3  502    0 -0.97764423498E+02 -0.59012976576E+03 -0.88176643575E+02  0.60463720826E+03  0.10100000352E+00 0. -1.
       -3    1    3    3    0  502  0.97764423498E+02  0.59012976576E+03 -0.43546678523E+02  0.59975607238E+03  0.10100000352E+00 0.  1.
</event>
<event>
 5   0  0.9298693E-04  0.1197742E+04  0.7818609E-02  0.9114835E-01
        2   -1    0    0  501    0  0.00000000000E+00  0.00000000000E+00  0.78204437993E+03  0.78204437993E+03  0.25500000920E-02 0.  1.
       -2   -1    0    0    0  501  0.00000000000E+00  0.00000000000E+00 -0.45860136673E+03  0.45860136673E+03  0.25500000920E-02 0. -1.
    10030    2    1    2    0    0  0.00000000000E+00  0.00000000000E+00  0.32344301320E+03  0.12406457467E+04  0.11977422452E+04 0.  0.
        1    1    3    3  502    0  0.49392101645E+03 -0.74563725794E+02 -0.18045825201E+03  0.53111477144E+03  0.50400001928E-02 0. -1.
       -1    1    3    3    0  502 -0.49392101645E+03  0.74563725794E+02  0.50390126521E+03  0.70953097522E+03  0.50400001928E-02 0.  1.
</event>
<event>
 5   0  0.5447074E-04  0.1205881E+04  0.7818609E-02  0.9107725E-01
        1   -1    0    0  501    0  0.00000000000E+00  0.00000000000E+00  0.64408044253E+03  0.64408044255E+03  0.50400001928E-02 0.  1.
       -1   -1    0    0    0  501  0.00000000000E+00  0.00000000000E+00 -0.56442787783E+03  0.56442787786E+03  0.50400001928E-02 0. -1.
    10030    2    1    2    0    0  0.00000000000E+00  0.00000000000E+00  0.79652564694E+02  0.12085083204E+04  0.12058805204E+04 0.  0.
        4    1    3    3  502    0  0.25284136519E+03  0.14467344077E+03 -0.48922198042E+03  0.56938468494E+03  0.12699999809E+01 0. -1.
       -4    1    3    3    0  502 -0.25284136519E+03 -0.14467344077E+03  0.56887454512E+03  0.63912363546E+03  0.12699999809E+01 0.  1.
</event>
<event>
 5   0  0.5447074E-04  0.1194063E+04  0.7818609E-02  0.9118069E-01
       -1   -1    0    0    0  501  0.00000000000E+00  0.00000000000E+00  0.45026157279E+03  0.45026157282E+03  0.50400001928E-02 0. -1.
        1   -1    0    0  501    0  0.00000000000E+00  0.00000000000E+00 -0.79164402566E+03  0.79164402567E+03  0.50400001928E-02 0.  1.
    10030    2    1    2    0    0  0.00000000000E+00  0.00000000000E+00 -0.34138245286E+03  0.12419055985E+04  0.11940634558E+04 0.  0.
        4    1    3    3  502    0 -0.31982846530E+03  0.49933241778E+03 -0.98467147700E+02  0.60109941169E+03  0.12699999809E+01 0. -1.
       -4    1    3    3    0  502  0.31982846530E+03 -0.49933241778E+03 -0.24291530516E+03  0.64080618680E+03  0.12699999809E+01 0.  1.
</event>
<event>
 5   0  0.5157631E-04  0.1198498E+04  0.7818609E-02  0.9114172E-01
        1   -1    0    0  501    0  0.00000000000E+00  0.00000000000E+00  0.47400043845E+03  0.47400043847E+03  0.50400001928E-02 0. -1.
       -1   -1    0    0    0  501  0.00000000000E+00  0.00000000000E+00 -0.75759336349E+03  0.75759336350E+03  0.50400001928E-02 0.  1.
    10030    2    1    2    0    0  0.00000000000E+00  0.00000000000E+00 -0.28359292504E+03  0.12315938020E+04  0.11984983713E+04 0.  0.
        5    1    3    3  502    0 -0.56821171817E+03  0.49454963389E+02 -0.33062917296E+03  0.65927846172E+03  0.46999998093E+01 0. -1.
       -5    1    3    3    0  502  0.56821171817E+03 -0.49454963389E+02  0.47036247924E+02  0.57231534025E+03  0.46999998093E+01 0.  1.
</event>
<event>
 5   0  0.9410666E-04  0.1217568E+04  0.7818609E-02  0.9097617E-01
       -2   -1    0    0    0  501  0.00000000000E+00  0.00000000000E+00  0.12227183697E+03  0.12227183700E+03  0.25500000920E-02 0.  1.
        2   -1    0    0  501    0  0.00000000000E+00  0.00000000000E+00 -0.30310985037E+04  0.30310985037E+04  0.25500000920E-02 0. -1.
    10030    2    1    2    0    0  0.00000000000E+00  0.00000000000E+00 -0.29088266667E+04  0.31533703407E+04  0.12175680386E+04 0.  0.
        2    1    3    3  502    0 -0.50432782353E+03  0.31482461964E+03 -0.11151780707E+04  0.12637575812E+04  0.25500000920E-02 0. -1.
       -2    1    3    3    0  502  0.50432782353E+03 -0.31482461964E+03 -0.17936485960E+04  0.18896127595E+04  0.25500000920E-02 0.  1.
</event>
<event>
 5   0  0.9070772E-04  0.1197234E+04  0.7818609E-02  0.9115281E-01
        2   -1    0    0  501    0  0.00000000000E+00  0.00000000000E+00  0.12344173675E+04  0.12344173675E+04  0.25500000920E-02 0.  1.
       -2   -1    0    0    0  501  0.00000000000E+00  0.00000000000E+00 -0.29029260309E+03  0.29029260310E+03  0.25500000920E-02 0. -1.
    10030    2    1    2    0    0  0.00000000000E+00  0.00000000000E+00  0.94412476440E+03  0.15247099706E+04  0.11972338634E+04 0.  0.
        4    1    3    3  502    0 -0.70881381280E+02  0.17573719810E+03 -0.25108682210E+03  0.31456944883E+03  0.12699999809E+01 0. -1.
       -4    1    3    3    0  502  0.70881381280E+02 -0.17573719810E+03  0.11952115865E+04  0.12101405218E+04  0.12699999809E+01 0.  1.
</event>
<event>
 5   0  0.9145224E-04  0.1191665E+04  0.7818609E-02  0.9120183E-01
        2   -1    0    0  501    0  0.00000000000E+00  0.00000000000E+00  0.14401222398E+04  0.14401222398E+04  0.25500000920E-02 0. -1.
       -2   -1    0    0    0  501  0.00000000000E+00  0.00000000000E+00 -0.24651830991E+03  0.24651830992E+03  0.25500000920E-02 0.  1.
    10030    2    1    2    0    0  0.00000000000E+00  0.00000000000E+00  0.11936039299E+04  0.16866405497E+04  0.11916652225E+04 0.  0.
        5    1    3    3  502    0  0.34217216983E+02 -0.43681829694E+03  0.25349799702E+02  0.43891427958E+03  0.46999998093E+01 0.  1.
       -5    1    3    3    0  502 -0.34217216983E+02  0.43681829694E+03  0.11682541302E+04  0.12477262701E+04  0.46999998093E+01 0. -1.
</event>
<event>
 5   0  0.9050363E-04  0.1224326E+04  0.7818609E-02  0.9091826E-01
       -2   -1    0    0    0  501  0.00000000000E+00  0.00000000000E+00  0.27046028460E+03  0.27046028462E+03  0.25500000920E-02 0. -1.
        2   -1    0    0  501    0  0.00000000000E+00  0.00000000000E+00 -0.13855777250E+04  0.13855777250E+04  0.25500000920E-02 0.  1.
    10030    2    1    2    0    0  0.00000000000E+00  0.00000000000E+00 -0.11151174404E+04  0.16560380096E+04  0.12243263386E+04 0.  0.
        3    1    3    3  502    0  0.37743278111E+03 -0.23558643200E+03  0.11161403876E+02  0.44506298244E+03  0.10100000352E+00 0. -1.
       -3    1    3    3    0  502 -0.37743278111E+03  0.23558643200E+03 -0.11262788443E+04  0.12109750272E+04  0.10100000352E+00 0.  1.
</event>
<event>
 5   0  0.9145224E-04  0.1239701E+04  0.7818609E-02  0.9078799E-01
       -2   -1    0    0    0  501  0.00000000000E+00  0.00000000000E+00  0.30361780286E+03  0.30361780287E+03  0.25500000920E-02 0.  1.
        2   -1    0    0  501    0  0.00000000000E+00  0.00000000000E+00 -0.12654542542E+04  0.12654542542E+04  0.25500000920E-02 0. -1.
    10030    2    1    2    0    0  0.00000000000E+00  0.00000000000E+00 -0.96183645133E+03  0.15690720571E+04  0.12397006740E+04 0.  0.
        5    1    3    3  502    0 -0.54027208217E+03 -0.10563880379E+03 -0.12038895477E+03  0.56353266992E+03  0.46999998093E+01 0.  1.
       -5    1    3    3    0  502  0.54027208217E+03  0.10563880379E+03 -0.84144749656E+03  0.10055393871E+04  0.46999998093E+01 0. -1.
</event>
<event>
 5   0  0.9410666E-04  0.1200808E+04  0.7818609E-02  0.9112149E-01
       -2   -1    0    0    0  501  0.00000000000E+00  0.00000000000E+00  0.32841725130E+03  0.32841725131E+03  0.25500000920E-02 0. -1.
        2   -1    0    0  501    0  0.00000000000E+00  0.00000000000E+00 -0.10976436590E+04  0.10976436590E+04  0.25500000920E-02 0.  1.
    10030    2    1    2    0    0  0.00000000000E+00  0.00000000000E+00 -0.76922640769E+03  0.14260609103E+04  0.12008082501E+04 0.  0.
        2    1    3    3  502    0  0.38946640862E+03 -0.21577077069E+03 -0.86296646712E+03  0.97105727550E+03  0.25500000920E-02 0.  1.
       -2    1    3    3    0  502 -0.38946640862E+03  0.21577077069E+03  0.93740059425E+02  0.45500363480E+03  0.25500000920E-02 0. -1.
</event>
<event>
 5   0  0.5001586E-04  0.1188510E+04  0.7818609E-02  0.9122974E-01
       -1   -1    0    0    0  501  0.00000000000E+00  0.00000000000E+00  0.20901818811E+03  0.20901818817E+03  0.50400001928E-02 0.  1.
        1   -1    0    0  501    0  0.00000000000E+00  0.00000000000E+00 -0.16895132153E+04  0.16895132153E+04  0.50400001928E-02 0. -1.
    10030    2    1    2    0    0  0.00000000000E+00  0.00000000000E+00 -0.14804950272E+04  0.18985314035E+04  0.11885099766E+04 0.  0.
        1    1    3    3  502    0  0.48224688662E+03  0.23875846591E+03 -0.33748820187E+03  0.63518969696E+03  0.50400001928E-02 0.  1.
       -1    1    3    3    0  502 -0.48224688662E+03 -0.23875846591E+03 -0.11430068253E+04  0.12633417065E+04  0.50400001928E-02 0. -1.
</event>
<event>
 5   0  0.5447074E-04  0.1173126E+04  0.7818609E-02  0.9136710E-01
       -1   -1    0    0    0  501  0.00000000000E+00  0.00000000000E+00  0.11392496560E+04  0.11392496560E+04  0.50400001928E-02 0.  1.
        1   -1    0    0  501    0  0.00000000000E+00  0.00000000000E+00 -0.30200242526E+03  0.30200242530E+03  0.50400001928E-02 0. -1.
    10030    2    1    2    0    0  0.00000000000E+00  0.00000000000E+00  0.83724723070E+03  0.14412520813E+04  0.11731260105E+04 0.  0.
        4    1    3    3  502    0  0.23976497743E+03 -0.33365597408E+03 -0.95672371958E+02  0.42186297432E+03  0.12699999809E+01 0. -1.
       -4    1    3    3    0  502 -0.23976497743E+03  0.33365597408E+03  0.93291960266E+03  0.10193891070E+04  0.12699999809E+01 0.  1.
</event>
<event>
 5   0  0.9298693E-04  0.1201107E+04  0.7818609E-02  0.9111888E-01
       -2   -1    0    0    0  501  0.00000000000E+00  0.00000000000E+00  0.45070296178E+03  0.45070296179E+03  0.25500000920E-02 0.  1.
        2   -1    0    0  501    0  0.00000000000E+00  0.00000000000E+00 -0.80022636107E+03  0.80022636108E+03  0.25500000920E-02 0. -1.
    10030    2    1    2    0    0  0.00000000000E+00  0.00000000000E+00 -0.34952339929E+03  0.12509293229E+04  0.12011068080E+04 0.  0.
        1    1    3    3  502    0 -0.26457542216E+03  0.30018323595E+03 -0.64117088202E+03  0.75578451237E+03  0.50400001928E-02 0. -1.
       -1    1    3    3    0  502  0.26457542216E+03 -0.30018323595E+03  0.29164748272E+03  0.49514481050E+03  0.50400001928E-02 0.  1.
</event>
<event>
 5   0  0.9070772E-04  0.1198565E+04  0.7818609E-02  0.9114114E-01
       -2   -1    0    0    0  501  0.00000000000E+00  0.00000000000E+00  0.39417295482E+03  0.39417295483E+03  0.25500000920E-02 0.  1.
        2   -1    0    0  501    0  0.00000000000E+00  0.00000000000E+00 -0.91112123230E+03  0.91112123230E+03  0.25500000920E-02 0. -1.
    10030    2    1    2    0    0  0.00000000000E+00  0.00000000000E+00 -0.51694827748E+03  0.13052941871E+04  0.11985647222E+04 0.  0.
        4    1    3    3  502    0 -0.27728866751E+03  0.11555842578E+03  0.30625248243E+03  0.42899294958E+03  0.12699999809E+01 0.  1.
       -4    1    3    3    0  502  0.27728866751E+03 -0.11555842578E+03 -0.82320075991E+03  0.87630123754E+03  0.12699999809E+01 0. -1.
</event>
<event>
 5   0  0.5052959E-04  0.1193979E+04  0.7818609E-02  0.9118143E-01
        1   -1    0    0  501    0  0.00000000000E+00  0.00000000000E+00  0.85761413748E+03  0.85761413750E+03  0.50400001928E-02 0. -1.
       -1   -1    0    0    0  501  0.00000000000E+00  0.00000000000E+00 -0.41556728021E+03  0.41556728024E+03  0.50400001928E-02 0.  1.
    10030    2    1    2    0    0  0.00000000000E+00  0.00000000000E+00  0.44204685727E+03  0.12731814177E+04  0.11939788518E+04 0.  0.
        2    1    3    3  502    0  0.83985284042E+02 -0.43756485318E+03  0.64472200417E+03  0.78369827825E+03  0.25500000920E-02 0. -1.
       -2    1    3    3    0  502 -0.83985284042E+02  0.43756485318E+03 -0.20267514689E+03  0.48948313949E+03  0.25500000920E-02 0.  1.
</event>
<event>
 5   0  0.5052959E-04  0.1210726E+04  0.7818609E-02  0.9103520E-01
       -1   -1    0    0    0  501  0.00000000000E+00  0.00000000000E+00  0.35565094220E+03  0.35565094223E+03  0.50400001928E-02 0.  1.
        1   -1    0    0  501    0  0.00000000000E+00  0.00000000000E+00 -0.10304044746E+04  0.10304044746E+04  0.50400001928E-02 0. -1.
    10030    2    1    2    0    0  0.00000000000E+00  0.00000000000E+00 -0.67475353237E+03  0.13860554168E+04  0.12107259347E+04 0.  0.
        2    1    3    3  502    0  0.20417461316E+03 -0.45421611173E+03 -0.73140683368E+03  0.88484772994E+03  0.25500000920E-02 0.  1.
       -2    1    3    3    0  502 -0.20417461316E+03  0.45421611173E+03  0.56653301316E+02  0.50120768687E+03  0.25500000920E-02 0. -1.
</event>
<event>
 5   0  0.9410666E-04  0.1181520E+04  0.7818609E-02  0.9129188E-01
        2   -1    0    0  501    0  0.00000000000E+00  0.00000000000E+00  0.23319632298E+04  0.23319632298E+04  0.25500000920E-02 0.  1.
       -2   -1    0    0    0  501  0.00000000000E+00  0.00000000000E+00 -0.14965818869E+03  0.14965818871E+03  0.25500000920E-02 0. -1.
    10030    2    1    2    0    0  0.00000000000E+00  0.00000000000E+00  0.21823050411E+04  0.24816214186E+04  0.11815200262E+04 0.  0.
        2    1    3    3  502    0  0.44118002722E+03  0.38512475576E+03  0.92796497336E+03  0.10973057394E+04  0.25500000920E-02 0. -1.
       -2    1    3    3    0  502 -0.44118002722E+03 -0.38512475576E+03  0.12543400678E+04  0.13843156792E+04  0.25500000920E-02 0.  1.
</event>
<event>
 5   0  0.9050363E-04  0.1199107E+04  0.7818609E-02  0.9113638E-01
       -2   -1    0    0    0  501  0.00000000000E+00  0.00000000000E+00  0.81666793242E+03  0.81666793243E+03  0.25500000920E-02 0.  1.
        2   -1    0    0  501    0  0.00000000000E+00  0.00000000000E+00 -0.44016012198E+03  0.44016012199E+03  0.25500000920E-02 0. -1.
    10030    2    1    2    0    0  0.00000000000E+00  0.00000000000E+00  0.37650781044E+03  0.12568280544E+04  0.11991074293E+04 0.  0.
        3    1    3    3  502    0  0.28198583420E+03  0.49791415345E+03  0.37583848489E+03  0.68460871439E+03  0.10100000352E+00 0.  1.
       -3    1    3    3    0  502 -0.28198583420E+03 -0.49791415345E+03  0.66932555306E+00  0.57221934002E+03  0.10100000352E+00 0. -1.
</event>
<event>
 5   0  0.9410666E-04  0.1199957E+04  0.7818609E-02  0.9112894E-01
        2   -1    0    0  501    0  0.00000000000E+00  0.00000000000E+00  0.10132866300E+04  0.10132866300E+04  0.25500000920E-02 0. -1.
       -2   -1    0    0    0  501  0.00000000000E+00  0.00000000000E+00 -0.35525426100E+03  0.35525426101E+03  0.25500000920E-02 0.  1.
    10030    2    1    2    0    0  0.00000000000E+00  0.00000000000E+00  0.65803236899E+03  0.13685408910E+04  0.11999573208E+04 0.  0.
        2    1    3    3  502    0 -0.52153266060E+03  0.29540592235E+03  0.35947857469E+03  0.69891760651E+03  0.25500000920E-02 0. -1.
       -2    1    3    3    0  502  0.52153266060E+03 -0.29540592235E+03  0.29855379431E+03  0.66962328449E+03  0.25500000920E-02 0.  1.
</event>
<event>
 5   0  0.9298693E-04  0.1178490E+04  0.7818609E-02  0.9131895E-01
       -2   -1    0    0    0  501  0.00000000000E+00  0.00000000000E+00  0.48663996989E+03  0.48663996990E+03  0.25500000920E-02 0.  1.
        2   -1    0    0  501    0  0.00000000000E+00  0.00000000000E+00 -0.71348352611E+03  0.71348352612E+03  0.25500000920E-02 0. -1.
    10030    2    1    2    0    0  0.00000000000E+00  0.00000000000E+00 -0.22684355622E+03  0.12001234960E+04  0.11784898840E+04 0.  0.
        1    1    3    3  502    0 -0.33093818933E+03 -0.28459083413E+03  0.28969531657E+03  0.52386582681E+03  0.50400001928E-02 0.  1.
       -1    1    3    3    0  502  0.33093818933E+03  0.28459083413E+03 -0.51653887279E+03  0.67625766921E+03  0.50400001928E-02 0. -1.
</event>
<event>
 5   0  0.5157631E-04  0.1202144E+04  0.7818609E-02  0.9110982E-01
        1   -1    0    0  501    0  0.00000000000E+00  0.00000000000E+00  0.84596088476E+03  0.84596088478E+03  0.50400001928E-02 0. -1.
       -1   -1    0    0    0  501  0.00000000000E+00  0.00000000000E+00 -0.42707380660E+03  0.42707380663E+03  0.50400001928E-02 0.  1.
    10030    2    1    2    0    0  0.00000000000E+00  0.00000000000E+00  0.41888707817E+03  0.12730346914E+04  0.12021443097E+04 0.  0.
        5    1    3    3  502    0  0.12718976084E+03  0.45867911894E+03  0.59810408438E+03  0.76440457558E+03  0.46999998093E+01 0. -1.
       -5    1    3    3    0  502 -0.12718976084E+03 -0.45867911894E+03 -0.17921700621E+03  0.50863011583E+03  0.46999998093E+01 0.  1.
</event>
<event>
 5   0  0.9145224E-04  0.1202616E+04  0.7818609E-02  0.9110570E-01
        2   -1    0    0  501    0  0.00000000000E+00  0.00000000000E+00  0.65314083121E+03  0.65314083122E+03  0.25500000920E-02 0. -1.
       -2   -1    0    0    0  501  0.00000000000E+00  0.00000000000E+00 -0.55358868576E+03  0.55358868576E+03  0.25500000920E-02 0.  1.
    10030    2    1    2    0    0  0.00000000000E+00  0.00000000000E+00  0.99552145457E+02  0.12067295170E+04  0.12026161056E+04 0.  0.
        5    1    3    3  502    0  0.42047078352E+03 -0.42964076173E+03  0.36988053942E+02  0.60230977915E+03  0.46999998093E+01 0.  1.
       -5    1    3    3    0  502 -0.42047078352E+03  0.42964076173E+03  0.62564091515E+02  0.60441973783E+03  0.46999998093E+01 0. -1.
</event>
<event>
 5   0  0.9070772E-04  0.1132970E+04  0.7818609E-02  0.9173640E-01
       -2   -1    0    0    0  501  0.00000000000E+00  0.00000000000E+00  0.45335381864E+03  0.45335381865E+03  0.25500000920E-02 0. -1.
        2   -1    0    0  501    0  0.00000000000E+00  0.00000000000E+00 -0.70784723660E+03  0.70784723660E+03  0.25500000920E-02 0.  1.
    10030    2    1    2    0    0  0.00000000000E+00  0.00000000000E+00 -0.25449341795E+03  0.11612010553E+04  0.11329699868E+04 0.  0.
        4    1    3    3  502    0  0.12784696862E+03  0.55174211711E+03 -0.13934871165E+03  0.58325285042E+03  0.12699999809E+01 0. -1.
       -4    1    3    3    0  502 -0.12784696862E+03 -0.55174211711E+03 -0.11514470630E+03  0.57794820483E+03  0.12699999809E+01 0.  1.
</event>
<event>
 5   0  0.9410666E-04  0.1202114E+04  0.7818609E-02  0.9111008E-01
        2   -1    0    0  501    0  0.00000000000E+00  0.00000000000E+00  0.66827580118E+03  0.66827580119E+03  0.25500000920E-02 0.  1.
       -2   -1    0    0    0  501  0.00000000000E+00  0.00000000000E+00 -0.54059929127E+03  0.54059929128E+03  0.25500000920E-02 0. -1.
    10030    2    1    2    0    0  0.00000000000E+00  0.00000000000E+00  0.12767650991E+03  0.12088750925E+04  0.12021138457E+04 0.  0.
        2    1    3    3  502    0 -0.58992417975E+03  0.11171926938E+03  0.35794284337E+02  0.60147565520E+03  0.25500000920E-02 0. -1.
       -2    1    3    3    0  502  0.58992417975E+03 -0.11171926938E+03  0.91882225573E+02  0.60739943726E+03  0.25500000920E-02 0.  1.
</event>
<event>
 5   0  0.5003507E-04  0.1190817E+04  0.7818609E-02  0.9120933E-01
        1   -1    0    0  501    0  0.00000000000E+00  0.00000000000E+00  0.13507736330E+04  0.13507736330E+04  0.50400001928E-02 0. -1.
       -1   -1    0    0    0  501  0.00000000000E+00  0.00000000000E+00 -0.26245056464E+03  0.26245056469E+03  0.50400001928E-02 0.  1.
    10030    2    1    2    0    0  0.00000000000E+00  0.00000000000E+00  0.10883230683E+04  0.16132241976E+04  0.11908170350E+04 0.  0.
        3    1    3    3  502    0  0.14084042033E+03 -0.30699509785E+03 -0.12010651760E+03  0.35847956689E+03  0.10100000352E+00 0.  1.
       -3    1    3    3    0  502 -0.14084042033E+03  0.30699509785E+03  0.12084295859E+04  0.12547446308E+04  0.10100000352E+00 0. -1.
</event>
<event>
 5   0  0.5157631E-04  0.1165670E+04  0.7818609E-02  0.9143448E-01
        1   -1    0    0  501    0  0.00000000000E+00  0.00000000000E+00  0.60597425693E+03  0.60597425696E+03  0.50400001928E-02 0. -1.
       -1   -1    0    0    0  501  0.00000000000E+00  0.00000000000E+00 -0.56057887210E+03  0.56057887213E+03  0.50400001928E-02 0.  1.
    10030    2    1    2    0    0  0.00000000000E+00  0.00000000000E+00  0.45395384830E+02  0.11665531291E+04  0.11656695338E+04 0.  0.
        5    1    3    3  502    0 -0.41459012800E+03 -0.54724842854E+02 -0.38355890262E+03  0.56746744791E+03  0.46999998093E+01 0.  1.
       -5    1    3    3    0  502  0.41459012800E+03  0.54724842854E+02  0.42895428745E+03  0.59908568117E+03  0.46999998093E+01 0. -1.
</event>
<event>
 5   0  0.9298693E-04  0.1198947E+04  0.7818609E-02  0.9113779E-01
       -2   -1    0    0    0  501  0.00000000000E+00  0.00000000000E+00  0.29998136466E+03  0.29998136467E+03  0.25500000920E-02 0.  1.
        2   -1    0    0  501    0  0.00000000000E+00  0.00000000000E+00 -0.11979691630E+04  0.11979691630E+04  0.25500000920E-02 0. -1.
    10030    2    1    2    0    0  0.00000000000E+00  0.00000000000E+00 -0.89798779835E+03  0.14979505277E+04  0.11989469118E+04 0.  0.
        1    1    3    3  502    0 -0.16751442260E+03  0.31008652690E+03  0.15686768266E+03  0.38577481234E+03  0.50400001928E-02 0.  1.
       -1    1    3    3    0  502  0.16751442260E+03 -0.31008652690E+03 -0.10548554810E+04  0.11121757153E+04  0.50400001928E-02 0. -1.
</event>
<event>
 5   0  0.9145224E-04  0.1198192E+04  0.7818609E-02  0.9114441E-01
       -2   -1    0    0    0  501  0.00000000000E+00  0.00000000000E+00  0.53904671305E+03  0.53904671306E+03  0.25500000920E-02 0. -1.
        2   -1    0    0  501    0  0.00000000000E+00  0.00000000000E+00 -0.66583468444E+03  0.66583468444E+03  0.25500000920E-02 0.  1.
    10030    2    1    2    0    0  0.00000000000E+00  0.00000000000E+00 -0.12678797139E+03  0.12048813975E+04  0.11981919681E+04 0.  0.
        5    1    3    3  502    0  0.35650590114E+03  0.27721770282E+02 -0.54673216424E+03  0.65330169410E+03  0.46999998093E+01 0.  1.
       -5    1    3    3    0  502 -0.35650590114E+03 -0.27721770282E+02  0.41994419285E+03  0.55157970340E+03  0.46999998093E+01 0. -1.
</event>
<event>
 5   0  0.9145224E-04  0.1199798E+04  0.7818609E-02  0.9113034E-01
        2   -1    0    0  501    0  0.00000000000E+00  0.00000000000E+00  0.71048896831E+03  0.71048896832E+03  0.25500000920E-02 0. -1.
       -2   -1    0    0    0  501  0.00000000000E+00  0.00000000000E+00 -0.50652246347E+03  0.50652246347E+03  0.25500000920E-02 0.  1.
    10030    2    1    2    0    0  0.00000000000E+00  0.00000000000E+00  0.20396650485E+03  0.12170114318E+04  0.11997976871E+04 0.  0.
        5    1    3    3  502    0 -0.36428301788E+03 -0.61772110800E+02  0.58135071556E+03  0.68884588645E+03  0.46999998093E+01 0. -1.
       -5    1    3    3    0  502  0.36428301788E+03  0.61772110800E+02 -0.37738421072E+03  0.52816554534E+03  0.46999998093E+01 0.  1.
</event>
<event>
 5   0  0.5447074E-04  0.1202738E+04  0.7818609E-02  0.9110463E-01
        1   -1    0    0  501    0  0.00000000000E+00  0.00000000000E+00  0.65696562712E+03  0.65696562714E+03  0.50400001928E-02 0. -1.
       -1   -1    0    0    0  501  0.00000000000E+00  0.00000000000E+00 -0.55047761392E+03  0.55047761395E+03  0.50400001928E-02 0.  1.
    10030    2    1    2    0    0  0.00000000000E+00  0.00000000000E+00  0.10648801319E+03  0.12074432411E+04  0.12027383271E+04 0.  0.
        4    1    3    3  502    0 -0.49195072278E+03  0.77940846201E+02  0.39153841599E+03  0.63355681138E+03  0.12699999809E+01 0. -1.
       -4    1    3    3    0  502  0.49195072278E+03 -0.77940846201E+02 -0.28505040280E+03  0.57388642970E+03  0.12699999809E+01 0.  1.
</event>
<event>
 5   0  0.5447074E-04  0.1223427E+04  0.7818609E-02  0.9092595E-01
        1   -1    0    0  501    0  0.00000000000E+00  0.00000000000E+00  0.28837327611E+03  0.28837327615E+03  0.50400001928E-02 0. -1.
       -1   -1    0    0    0  501  0.00000000000E+00  0.00000000000E+00 -0.12976002989E+04  0.12976002989E+04  0.50400001928E-02 0.  1.
    10030    2    1    2    0    0  0.00000000000E+00  0.00000000000E+00 -0.10092270228E+04  0.15859735751E+04  0.12234267437E+04 0.  0.
        4    1    3    3  502    0 -0.20795698439E+03  0.40086529032E+03 -0.10395038917E+04  0.11333618319E+04  0.12699999809E+01 0.  1.
       -4    1    3    3    0  502  0.20795698439E+03 -0.40086529032E+03  0.30276868890E+02  0.45261174314E+03  0.12699999809E+01 0. -1.
</event>
<event>
 5   0  0.5052959E-04  0.1194550E+04  0.7818609E-02  0.9117641E-01
        1   -1    0    0  501    0  0.00000000000E+00  0.00000000000E+00  0.87952644332E+03  0.87952644333E+03  0.50400001928E-02 0.  1.
       -1   -1    0    0    0  501  0.00000000000E+00  0.00000000000E+00 -0.40560148171E+03  0.40560148174E+03  0.50400001928E-02 0. -1.
    10030    2    1    2    0    0  0.00000000000E+00  0.00000000000E+00  0.47392496161E+03  0.12851279251E+04  0.11945496702E+04 0.  0.
        2    1    3    3  502    0 -0.54177821053E+03  0.16007365252E+03  0.28379699000E+02  0.56564353700E+03  0.25500000920E-02 0.  1.
       -2    1    3    3    0  502  0.54177821053E+03 -0.16007365252E+03  0.44554526261E+03  0.71948438807E+03  0.25500000920E-02 0. -1.
</event>
<event>
 5   0  0.9298693E-04  0.1199655E+04  0.7818609E-02  0.9113159E-01
       -2   -1    0    0    0  501  0.00000000000E+00  0.00000000000E+00  0.32590937018E+03  0.32590937019E+03  0.25500000920E-02 0. -1.
        2   -1    0    0  501    0  0.00000000000E+00  0.00000000000E+00 -0.11039658550E+04  0.11039658550E+04  0.25500000920E-02 0.  1.
    10030    2    1    2    0    0  0.00000000000E+00  0.00000000000E+00 -0.77805648481E+03  0.14298752252E+04  0.11996546445E+04 0.  0.
        1    1    3    3  502    0 -0.28738162234E+03 -0.11844872562E+03 -0.10004822849E+04  0.10476560027E+04  0.50400001928E-02 0.  1.
       -1    1    3    3    0  502  0.28738162234E+03  0.11844872562E+03  0.22242580013E+03  0.38221922250E+03  0.50400001928E-02 0. -1.
</event>
<event>
 5   0  0.9145224E-04  0.1200132E+04  0.7818609E-02  0.9112741E-01
       -2   -1    0    0    0  501  0.00000000000E+00  0.00000000000E+00  0.17760602694E+03  0.17760602696E+03  0.25500000920E-02 0. -1.
        2   -1    0    0  501    0  0.00000000000E+00  0.00000000000E+00 -0.20274028827E+04  0.20274028827E+04  0.25500000920E-02 0.  1.
    10030    2    1    2    0    0  0.00000000000E+00  0.00000000000E+00 -0.18497968558E+04  0.22050089097E+04  0.12001316112E+04 0.  0.
        5    1    3    3  502    0  0.47474882805E+03  0.36101792557E+03 -0.80390811953E+03  0.10010048686E+04  0.46999998093E+01 0. -1.
       -5    1    3    3    0  502 -0.47474882805E+03 -0.36101792557E+03 -0.10458887363E+04  0.12040040411E+04  0.46999998093E+01 0.  1.
</event>
<event>
 5   0  0.9050363E-04  0.1201874E+04  0.7818609E-02  0.9111218E-01
        2   -1    0    0  501    0  0.00000000000E+00  0.00000000000E+00  0.44204217325E+03  0.44204217325E+03  0.25500000920E-02 0.  1.
       -2   -1    0    0    0  501  0.00000000000E+00  0.00000000000E+00 -0.81694757357E+03  0.81694757358E+03  0.25500000920E-02 0. -1.
    10030    2    1    2    0    0  0.00000000000E+00  0.00000000000E+00 -0.37490540033E+03  0.12589897468E+04  0.12018740048E+04 0.  0.
        3    1    3    3  502    0  0.34418851446E+03 -0.15219519033E+03  0.30331584068E+03  0.48335247890E+03  0.10100000352E+00 0.  1.
       -3    1    3    3    0  502 -0.34418851446E+03  0.15219519033E+03 -0.67822124101E+03  0.77563726793E+03  0.10100000352E+00 0. -1.
</event>
<event>
 5   0  0.5447074E-04  0.1205829E+04  0.7818609E-02  0.9107770E-01
        1   -1    0    0  501    0  0.00000000000E+00  0.00000000000E+00  0.59158684052E+03  0.59158684054E+03  0.50400001928E-02 0. -1.
       -1   -1    0    0    0  501  0.00000000000E+00  0.00000000000E+00 -0.61445859186E+03  0.61445859188E+03  0.50400001928E-02 0.  1.
    10030    2    1    2    0    0  0.00000000000E+00  0.00000000000E+00 -0.22871751344E+02  0.12060454324E+04  0.12058285401E+04 0.  0.
        4    1    3    3  502    0 -0.22748797585E+03  0.23356092980E+03 -0.51867847184E+03  0.61264219340E+03  0.12699999809E+01 0.  1.
       -4    1    3    3    0  502  0.22748797585E+03 -0.23356092980E+03  0.49580672050E+03  0.59340323902E+03  0.12699999809E+01 0. -1.
</event>
<event>
 5   0  0.9298693E-04  0.1205938E+04  0.7818609E-02  0.9107675E-01
        2   -1    0    0  501    0  0.00000000000E+00  0.00000000000E+00  0.93063804371E+03  0.93063804371E+03  0.25500000920E-02 0. -1.
       -2   -1    0    0    0  501  0.00000000000E+00  0.00000000000E+00 -0.39066941176E+03  0.39066941177E+03  0.25500000920E-02 0.  1.
    10030    2    1    2    0    0  0.00000000000E+00  0.00000000000E+00  0.53996863195E+03  0.13213074555E+04  0.12059383353E+04 0.  0.
        1    1    3    3  502    0  0.19654100753E+03 -0.34202716599E+02  0.89343128425E+03  0.91543304133E+03  0.50400001928E-02 0. -1.
       -1    1    3    3    0  502 -0.19654100753E+03  0.34202716599E+02 -0.35346265230E+03  0.40587441415E+03  0.50400001928E-02 0.  1.
</event>
<event>
 5   0  0.5447074E-04  0.1220561E+04  0.7818609E-02  0.9095047E-01
       -1   -1    0    0    0  501  0.00000000000E+00  0.00000000000E+00  0.23148610732E+03  0.23148610738E+03  0.50400001928E-02 0.  1.
        1   -1    0    0  501    0  0.00000000000E+00  0.00000000000E+00 -0.16089191418E+04  0.16089191418E+04  0.50400001928E-02 0. -1.
    10030    2    1    2    0    0  0.00000000000E+00  0.00000000000E+00 -0.13774330345E+04  0.18404052492E+04  0.12205612302E+04 0.  0.
        4    1    3    3  502    0 -0.31952950302E+03  0.43195766920E+03 -0.11250890538E+04  0.12468013166E+04  0.12699999809E+01 0. -1.
       -4    1    3    3    0  502  0.31952950302E+03 -0.43195766920E+03 -0.25234398071E+03  0.59360393258E+03  0.12699999809E+01 0.  1.
</event>
<event>
 5   0  0.9050363E-04  0.1198832E+04  0.7818609E-02  0.9113880E-01
        2   -1    0    0  501    0  0.00000000000E+00  0.00000000000E+00  0.10005410942E+04  0.10005410942E+04  0.25500000920E-02 0. -1.
       -2   -1    0    0    0  501  0.00000000000E+00  0.00000000000E+00 -0.35910510142E+03  0.35910510143E+03  0.25500000920E-02 0.  1.
    10030    2    1    2    0    0  0.00000000000E+00  0.00000000000E+00  0.64143599277E+03  0.13596461956E+04  0.11988317832E+04 0.  0.
        3    1    3    3  502    0 -0.32955815767E+03 -0.12363246593E+03 -0.22955255975E+03  0.42022369496E+03  0.10100000352E+00 0.  1.
       -3    1    3    3    0  502  0.32955815767E+03  0.12363246593E+03  0.87098855251E+03  0.93942250065E+03  0.10100000352E+00 0. -1.
</event>
<event>
 5   0  0.9070772E-04  0.1203823E+04  0.7818609E-02  0.9109517E-01
        2   -1    0    0  501    0  0.00000000000E+00  0.00000000000E+00  0.54317434664E+03  0.54317434664E+03  0.25500000920E-02 0.  1.
       -2   -1    0    0    0  501  0.00000000000E+00  0.00000000000E+00 -0.66699991016E+03  0.66699991017E+03  0.25500000920E-02 0. -1.
    10030    2    1    2    0    0  0.00000000000E+00  0.00000000000E+00 -0.12382556352E+03  0.12101742568E+04  0.12038226454E+04 0.  0.
        4    1    3    3  502    0  0.14700017300E+03 -0.46126195900E+03  0.29763895102E+03  0.56829763658E+03  0.12699999809E+01 0.  1.
       -4    1    3    3    0  502 -0.14700017300E+03  0.46126195900E+03 -0.42146451454E+03  0.64187662023E+03  0.12699999809E+01 0. -1.
</event>
<event>
 5   0  0.5001586E-04  0.1202479E+04  0.7818609E-02  0.9110689E-01
        1   -1    0    0  501    0  0.00000000000E+00  0.00000000000E+00  0.89457313757E+03  0.89457313759E+03  0.50400001928E-02 0. -1.
       -1   -1    0    0    0  501  0.00000000000E+00  0.00000000000E+00 -0.40409108476E+03  0.40409108479E+03  0.50400001928E-02 0.  1.
    10030    2    1    2    0    0  0.00000000000E+00  0.00000000000E+00  0.49048205282E+03  0.12986642224E+04  0.12024791551E+04 0.  0.
        1    1    3    3  502    0 -0.71141595141E+01 -0.42598867618E+03  0.70340598525E+03  0.82237275223E+03  0.50400001928E-02 0. -1.
       -1    1    3    3    0  502  0.71141595141E+01  0.42598867618E+03 -0.21292393244E+03  0.47629147014E+03  0.50400001928E-02 0.  1.
</event>
<event>
 5   0  0.9050363E-04  0.1199432E+04  0.7818609E-02  0.9113354E-01
        2   -1    0    0  501    0  0.00000000000E+00  0.00000000000E+00  0.18876989498E+04  0.18876989498E+04  0.25500000920E-02 0. -1.
       -2   -1    0    0    0  501  0.00000000000E+00  0.00000000000E+00 -0.19052786915E+03  0.19052786917E+03  0.25500000920E-02 0.  1.
    10030    2    1    2    0    0  0.00000000000E+00  0.00000000000E+00  0.16971710807E+04  0.20782268190E+04  0.11994319631E+04 0.  0.
        3    1    3    3  502    0  0.57164275125E+03  0.10398863833E+03  0.59117861394E+03  0.82890363478E+03  0.10100000352E+00 0.  1.
       -3    1    3    3    0  502 -0.57164275125E+03 -0.10398863833E+03  0.11059924668E+04  0.12493231842E+04  0.10100000352E+00 0. -1.
</event>
<event>
 5   0  0.5157631E-04  0.1200254E+04  0.7818609E-02  0.9112634E-01
       -1   -1    0    0    0  501  0.00000000000E+00  0.00000000000E+00  0.19511410388E+03  0.19511410395E+03  0.50400001928E-02 0. -1.
        1   -1    0    0  501    0  0.00000000000E+00  0.00000000000E+00 -0.18458563309E+04  0.18458563309E+04  0.50400001928E-02 0.  1.
    10030    2    1    2    0    0  0.00000000000E+00  0.00000000000E+00 -0.16507422270E+04  0.20409704349E+04  0.12002543130E+04 0.  0.
        5    1    3    3  502    0  0.41741631119E+03 -0.36687657917E+03 -0.12104981191E+04  0.13319769471E+04  0.46999998093E+01 0.  1.
       -5    1    3    3    0  502 -0.41741631119E+03  0.36687657917E+03 -0.44024410796E+03  0.70899348783E+03  0.46999998093E+01 0. -1.
</event>
<event>
 5   0  0.5157631E-04  0.1200957E+04  0.7818609E-02  0.9112019E-01
        1   -1    0    0  501    0  0.00000000000E+00  0.00000000000E+00  0.80560864957E+03  0.80560864959E+03  0.50400001928E-02 0. -1.
       -1   -1    0    0    0  501  0.00000000000E+00  0.00000000000E+00 -0.44758022593E+03  0.44758022596E+03  0.50400001928E-02 0.  1.
    10030    2    1    2    0    0  0.00000000000E+00  0.00000000000E+00  0.35802842364E+03  0.12531888756E+04  0.12009571207E+04 0.  0.
        5    1    3    3  502    0  0.41473319127E+03  0.41109025043E+03  0.33098396907E+02  0.58490717880E+03  0.46999998093E+01 0.  1.
       -5    1    3    3    0  502 -0.41473319127E+03 -0.41109025043E+03  0.32493002673E+03  0.66828169675E+03  0.46999998093E+01 0. -1.
</event>
<event>
 5   0  0.5001586E-04  0.1214677E+04  0.7818609E-02  0.9100106E-01
        1   -1    0    0  501    0  0.00000000000E+00  0.00000000000E+00  0.66730897738E+03  0.66730897740E+03  0.50400001928E-02 0.  1.
       -1   -1    0    0    0  501  0.00000000000E+00  0.00000000000E+00 -0.55275748016E+03  0.55275748019E+03  0.50400001928E-02 0. -1.
    10030    2    1    2    0    0  0.00000000000E+00  0.00000000000E+00  0.11455149722E+03  0.12200664576E+04  0.12146769593E+04 0.  0.
        1    1    3    3  502    0 -0.57445544847E+02 -0.16884498801E+03  0.64041297510E+03  0.66478372371E+03  0.50400001928E-02 0.  1.
       -1    1    3    3    0  502  0.57445544847E+02  0.16884498801E+03 -0.52586147788E+03  0.55528273388E+03  0.50400001928E-02 0. -1.
</event>
<event>
 5   0  0.5003507E-04  0.1205342E+04  0.7818609E-02  0.9108193E-01
       -1   -1    0    0    0  501  0.00000000000E+00  0.00000000000E+00  0.25075484740E+03  0.25075484745E+03  0.50400001928E-02 0.  1.
        1   -1    0    0  501    0  0.00000000000E+00  0.00000000000E+00 -0.14484763517E+04  0.14484763517E+04  0.50400001928E-02 0. -1.
    10030    2    1    2    0    0  0.00000000000E+00  0.00000000000E+00 -0.11977215043E+04  0.16992311991E+04  0.12053422196E+04 0.  0.
        3    1    3    3  502    0  0.19872411107E+03 -0.18316154264E+03 -0.13582608161E+04  0.13848869549E+04  0.10100000352E+00 0. -1.
       -3    1    3    3    0  502 -0.19872411107E+03  0.18316154264E+03  0.16053931186E+03  0.31434424422E+03  0.10100000352E+00 0.  1.
</event>
<event>
 5   0  0.5003507E-04  0.1199469E+04  0.7818609E-02  0.9113322E-01
        1   -1    0    0  501    0  0.00000000000E+00  0.00000000000E+00  0.48562925939E+03  0.48562925942E+03  0.50400001928E-02 0.  1.
       -1   -1    0    0    0  501  0.00000000000E+00  0.00000000000E+00 -0.74064988135E+03  0.74064988136E+03  0.50400001928E-02 0. -1.
    10030    2    1    2    0    0  0.00000000000E+00  0.00000000000E+00 -0.25502062195E+03  0.12262791408E+04  0.11994686380E+04 0.  0.
        3    1    3    3  502    0  0.32629311014E+03 -0.15194106522E+02 -0.64172712686E+03  0.72007761398E+03  0.10100000352E+00 0. -1.
       -3    1    3    3    0  502 -0.32629311014E+03  0.15194106522E+02  0.38670650491E+03  0.50620152681E+03  0.10100000352E+00 0.  1.
</event>
<event>
 5   0  0.5447074E-04  0.1197410E+04  0.7818609E-02  0.9115127E-01
       -1   -1    0    0    0  501  0.00000000000E+00  0.00000000000E+00  0.36456351481E+03  0.36456351485E+03  0.50400001928E-02 0.  1.
        1   -1    0    0  501    0  0.00000000000E+00  0.00000000000E+00 -0.98322379984E+03  0.98322379985E+03  0.50400001928E-02 0. -1.
    10030    2    1    2    0    0  0.00000000000E+00  0.00000000000E+00 -0.61866028502E+03  0.13477873147E+04  0.11974097450E+04 0.  0.
        4    1    3    3  502    0 -0.15340138717E+03  0.22249226751E+03  0.29200144644E+03  0.39787089904E+03  0.12699999809E+01 0.  1.
       -4    1    3    3    0  502  0.15340138717E+03 -0.22249226751E+03 -0.91066173146E+03  0.94991641565E+03  0.12699999809E+01 0. -1.
</event>
<event>
 5   0  0.5003507E-04  0.1202234E+04  0.7818609E-02  0.9110904E-01
       -1   -1    0    0    0  501  0.00000000000E+00  0.00000000000E+00  0.28572038782E+03  0.28572038786E+03  0.50400001928E-02 0. -1.
        1   -1    0    0  501    0  0.00000000000E+00  0.00000000000E+00 -0.12646683687E+04  0.12646683687E+04  0.50400001928E-02 0.  1.
    10030    2    1    2    0    0  0.00000000000E+00  0.00000000000E+00 -0.97894798091E+03  0.15503887566E+04  0.12022338156E+04 0.  0.
        3    1    3    3  502    0  0.11390561533E+03  0.28929033631E+03  0.17397984157E+03  0.35627571256E+03  0.10100000352E+00 0. -1.
       -3    1    3    3    0  502 -0.11390561533E+03 -0.28929033631E+03 -0.11529278225E+04  0.11941130440E+04  0.10100000352E+00 0.  1.
</event>
<event>
 5   0  0.5001586E-04  0.1199911E+04  0.7818609E-02  0.9112934E-01
        1   -1    0    0  501    0  0.00000000000E+00  0.00000000000E+00  0.86982482794E+03  0.86982482796E+03  0.50400001928E-02 0. -1.
       -1   -1    0    0    0  501  0.00000000000E+00  0.00000000000E+00 -0.41381537191E+03  0.41381537195E+03  0.50400001928E-02 0.  1.
    10030    2    1    2    0    0  0.00000000000E+00  0.00000000000E+00  0.45600945603E+03  0.12836401999E+04  0.11999114712E+04 0.  0.
        1    1    3    3  502    0  0.59012062242E+03 -0.76019705559E+02  0.31035367931E+03  0.67107432593E+03  0.50400001928E-02 0. -1.
       -1    1    3    3    0  502 -0.59012062242E+03  0.76019705559E+02  0.14565577672E+03  0.61256587397E+03  0.50400001928E-02 0.  1.
</event>
<event>
 5   0  0.5157631E-04  0.1200354E+04  0.7818609E-02  0.9112546E-01
       -1   -1    0    0    0  501  0.00000000000E+00  0.00000000000E+00  0.31302102615E+03  0.31302102619E+03  0.50400001928E-02 0. -1.
        1   -1    0    0  501    0  0.00000000000E+00  0.00000000000E+00 -0.11507620590E+04  0.11507620590E+04  0.50400001928E-02 0.  1.
    10030    2    1    2    0    0  0.00000000000E+00  0.00000000000E+00 -0.83774103286E+03  0.14637830852E+04  0.12003544820E+04 0.  0.
        5    1    3    3  502    0 -0.18583379727E+02  0.31752511667E+03  0.20176474295E+03  0.37669436313E+03  0.46999998093E+01 0. -1.
       -5    1    3    3    0  502  0.18583379727E+02 -0.31752511667E+03 -0.10395057758E+04  0.10870887221E+04  0.46999998093E+01 0.  1.
</event>
<event>
 5   0  0.9050363E-04  0.1197527E+04  0.7818609E-02  0.9115024E-01
       -2   -1    0    0    0  501  0.00000000000E+00  0.00000000000E+00  0.46895442326E+03  0.46895442327E+03  0.25500000920E-02 0. -1.
        2   -1    0    0  501    0  0.00000000000E+00  0.00000000000E+00 -0.76450491419E+03  0.76450491420E+03  0.25500000920E-02 0.  1.
    10030    2    1    2    0    0  0.00000000000E+00  0.00000000000E+00 -0.29555049093E+03  0.12334593375E+04  0.11975273878E+04 0.  0.
        3    1    3    3  502    0 -0.58835839005E+03  0.11106295469E+03 -0.15206875754E+03  0.61775844168E+03  0.10100000352E+00 0.  1.
       -3    1    3    3    0  502  0.58835839005E+03 -0.11106295469E+03 -0.14348173339E+03  0.61570089578E+03  0.10100000352E+00 0. -1.
</event>
<event>
 5   0  0.9410666E-04  0.1206047E+04  0.7818609E-02  0.9107580E-01
        2   -1    0    0  501    0  0.00000000000E+00  0.00000000000E+00  0.96610839868E+03  0.96610839868E+03  0.25500000920E-02 0. -1.
       -2   -1    0    0    0  501  0.00000000000E+00  0.00000000000E+00 -0.37639383589E+03  0.37639383589E+03  0.25500000920E-02 0.  1.
    10030    2    1    2    0    0  0.00000000000E+00  0.00000000000E+00  0.58971456280E+03  0.13425022346E+04  0.12060468417E+04 0.  0.
        2    1    3    3  502    0 -0.43329496259E+03  0.34046675252E+03  0.56746388690E+03  0.79099772258E+03  0.25500000920E-02 0. -1.
       -2    1    3    3    0  502  0.43329496259E+03 -0.34046675252E+03  0.22250675895E+02  0.55150451200E+03  0.25500000920E-02 0.  1.
</event>
<event>
 5   0  0.5157631E-04  0.1204295E+04  0.7818609E-02  0.9109105E-01
       -1   -1    0    0    0  501  0.00000000000E+00  0.00000000000E+00  0.70314404896E+03  0.70314404897E+03  0.50400001928E-02 0.  1.
        1   -1    0    0  501    0  0.00000000000E+00  0.00000000000E+00 -0.51565763721E+03  0.51565763724E+03  0.50400001928E-02 0. -1.
    10030    2    1    2    0    0  0.00000000000E+00  0.00000000000E+00  0.18748641175E+03  0.12188016862E+04  0.12042949787E+04 0.  0.
        5    1    3    3  502    0  0.52057221524E+03 -0.59129404967E+02 -0.20659371410E+03  0.56320047099E+03  0.46999998093E+01 0. -1.
       -5    1    3    3    0  502 -0.52057221524E+03  0.59129404967E+02  0.39408012585E+03  0.65560121522E+03  0.46999998093E+01 0.  1.
</event>
<event>
 5   0  0.9050363E-04  0.1223148E+04  0.7818609E-02  0.9092833E-01
       -2   -1    0    0    0  501  0.00000000000E+00  0.00000000000E+00  0.82366590625E+03  0.82366590625E+03  0.25500000920E-02 0.  1.
        2   -1    0    0  501    0  0.00000000000E+00  0.00000000000E+00 -0.45409492893E+03  0.45409492894E+03  0.25500000920E-02 0. -1.
    10030    2    1    2    0    0  0.00000000000E+00  0.00000000000E+00  0.36957097731E+03  0.12777608352E+04  0.12231475973E+04 0.  0.
        3    1    3    3  502    0 -0.10501995548E+03  0.48094593667E+02  0.81216722061E+03  0.82034010351E+03  0.10100000352E+00 0.  1.
       -3    1    3    3    0  502  0.10501995548E+03 -0.48094593667E+02 -0.44259624330E+03  0.45742073168E+03  0.10100000352E+00 0. -1.
</event>
<event>
 5   0  0.9298693E-04  0.1201070E+04  0.7818609E-02  0.9111920E-01
       -2   -1    0    0    0  501  0.00000000000E+00  0.00000000000E+00  0.20441031200E+03  0.20441031202E+03  0.25500000920E-02 0. -1.
        2   -1    0    0  501    0  0.00000000000E+00  0.00000000000E+00 -0.17643060555E+04  0.17643060555E+04  0.25500000920E-02 0.  1.
    10030    2    1    2    0    0  0.00000000000E+00  0.00000000000E+00 -0.15598957435E+04  0.19687163675E+04  0.12010701083E+04 0.  0.
        1    1    3    3  502    0 -0.40278457178E+03 -0.61368209718E+02 -0.56792150894E+02  0.41137187173E+03  0.50400001928E-02 0. -1.
       -1    1    3    3    0  502  0.40278457178E+03  0.61368209718E+02 -0.15031035926E+04  0.15573444958E+04  0.50400001928E-02 0.  1.
</event>
<event>
 5   0  0.9070772E-04  0.1199771E+04  0.7818609E-02  0.9113057E-01
        2   -1    0    0  501    0  0.00000000000E+00  0.00000000000E+00  0.58176736712E+03  0.58176736712E+03  0.25500000920E-02 0.  1.
       -2   -1    0    0    0  501  0.00000000000E+00  0.00000000000E+00 -0.61856762866E+03  0.61856762866E+03  0.25500000920E-02 0. -1.
    10030    2    1    2    0    0  0.00000000000E+00  0.00000000000E+00 -0.36800261540E+02  0.12003349958E+04  0.11997707460E+04 0.  0.
        4    1    3    3  502    0  0.16329685420E+03 -0.33479854070E+03 -0.48883922534E+03  0.61459037299E+03  0.12699999809E+01 0. -1.
       -4    1    3    3    0  502 -0.16329685420E+03  0.33479854070E+03  0.45203896380E+03  0.58574462280E+03  0.12699999809E+01 0.  1.
</event>
<event>
 5   0  0.9410666E-04  0.1208778E+04  0.7818609E-02  0.9105207E-01
        2   -1    0    0  501    0  0.00000000000E+00  0.00000000000E+00  0.70762898576E+03  0.70762898577E+03  0.25500000920E-02 0.  1.
       -2   -1    0    0    0  501  0.00000000000E+00  0.00000000000E+00 -0.51621157188E+03  0.51621157189E+03  0.25500000920E-02 0. -1.
    10030    2    1    2    0    0  0.00000000000E+00  0.00000000000E+00  0.19141741388E+03  0.12238405577E+04  0.12087783437E+04 0.  0.
        2    1    3    3  502    0 -0.28532424283E+03 -0.28287211067E+03  0.55284308063E+03  0.68341936346E+03  0.25500000920E-02 0.  1.
       -2    1    3    3    0  502  0.28532424283E+03  0.28287211067E+03 -0.36142566675E+03  0.54042119420E+03  0.25500000920E-02 0. -1.
</event>
<event>
 5   0  0.5157631E-04  0.1196804E+04  0.7818609E-02  0.9115659E-01
       -1   -1    0    0    0  501  0.00000000000E+00  0.00000000000E+00  0.50501586031E+03  0.50501586034E+03  0.50400001928E-02 0.  1.
        1   -1    0    0  501    0  0.00000000000E+00  0.00000000000E+00 -0.70905692753E+03  0.70905692754E+03  0.50400001928E-02 0. -1.
    10030    2    1    2    0    0  0.00000000000E+00  0.00000000000E+00 -0.20404106722E+03  0.12140727879E+04  0.11968040680E+04 0.  0.
        5    1    3    3  502    0  0.94900126662E+02  0.58297511613E+03 -0.19930467001E+03  0.62338628598E+03  0.46999998093E+01 0.  1.
       -5    1    3    3    0  502 -0.94900126662E+02 -0.58297511613E+03 -0.47363972046E+01  0.59068650190E+03  0.46999998093E+01 0. -1.
</event>
<event>
 5   0  0.9410666E-04  0.1180491E+04  0.7818609E-02  0.9130106E-01
       -2   -1    0    0    0  501  0.00000000000E+00  0.00000000000E+00  0.19483883480E+03  0.19483883482E+03  0.25500000920E-02 0. -1.
        2   -1    0    0  501    0  0.00000000000E+00  0.00000000000E+00 -0.17880915976E+04  0.17880915976E+04  0.25500000920E-02 0.  1.
    10030    2    1    2    0    0  0.00000000000E+00  0.00000000000E+00 -0.15932527627E+04  0.19829304324E+04  0.11804908867E+04 0.  0.
        2    1    3    3  502    0 -0.52726252121E+03  0.99267948959E+02 -0.12098921448E+04  0.13235176213E+04  0.25500000920E-02 0.  1.
       -2    1    3    3    0  502  0.52726252121E+03 -0.99267948959E+02 -0.38336061799E+03  0.65941281106E+03  0.25500000920E-02 0. -1.
</event>
<event>
 5   0  0.5157631E-04  0.1203377E+04  0.7818609E-02  0.9109906E-01
       -1   -1    0    0    0  501  0.00000000000E+00  0.00000000000E+00  0.55336757967E+03  0.55336757969E+03  0.50400001928E-02 0.  1.
        1   -1    0    0  501    0  0.00000000000E+00  0.00000000000E+00 -0.65422916263E+03  0.65422916265E+03  0.50400001928E-02 0. -1.
    10030    2    1    2    0    0  0.00000000000E+00  0.00000000000E+00 -0.10086158296E+03  0.12075967423E+04  0.12033772614E+04 0.  0.
        5    1    3    3  502    0 -0.26545900455E+03  0.23506921146E+03 -0.53822273688E+03  0.64454000788E+03  0.46999998093E+01 0. -1.
       -5    1    3    3    0  502  0.26545900455E+03 -0.23506921146E+03  0.43736115391E+03  0.56305673446E+03  0.46999998093E+01 0.  1.
</event>
<event>
 5   0  0.5447074E-04  0.1200313E+04  0.7818609E-02  0.9112582E-01
       -1   -1    0    0    0  501  0.00000000000E+00  0.00000000000E+00  0.45216509111E+03  0.45216509114E+03  0.50400001928E-02 0.  1.
        1   -1    0    0  501    0  0.00000000000E+00  0.00000000000E+00 -0.79658493757E+03  0.79658493759E+03  0.50400001928E-02 0. -1.
    10030    2    1    2    0    0  0.00000000000E+00  0.00000000000E+00 -0.34441984646E+03  0.12487500287E+04  0.12003131273E+04 0.  0.
        4    1    3    3  502    0 -0.11275295395E+03  0.55761204757E+03 -0.37108314186E+03  0.67922657140E+03  0.12699999809E+01 0. -1.
       -4    1    3    3    0  502  0.11275295395E+03 -0.55761204757E+03  0.26663295407E+02  0.56952345733E+03  0.12699999809E+01 0.  1.
</event>
<event>
 5   0  0.5052959E-04  0.1203410E+04  0.7818609E-02  0.9109877E-01
       -1   -1    0    0    0  501  0.00000000000E+00  0.00000000000E+00  0.10548319073E+04  0.10548319073E+04  0.50400001928E-02 0. -1.
        1   -1    0    0  501    0  0.00000000000E+00  0.00000000000E+00 -0.34322897910E+03  0.34322897914E+03  0.50400001928E-02 0.  1.
    10030    2    1    2    0    0  0.00000000000E+00  0.00000000000E+00  0.71160292818E+03  0.13980608864E+04  0.12034099529E+04 0.  0.
        2    1    3    3  502    0 -0.35496275746E+03  0.46479869948E+03  0.19145398994E+03  0.61537876182E+03  0.25500000920E-02 0.  1.
       -2    1    3    3    0  502  0.35496275746E+03 -0.46479869948E+03  0.52014893824E+03  0.78268212461E+03  0.25500000920E-02 0. -1.
</event>
<event>
 5   0  0.5447074E-04  0.1213947E+04  0.7818609E-02  0.9100736E-01
       -1   -1    0    0    0  501  0.00000000000E+00  0.00000000000E+00  0.12469619604E+04  0.12469619604E+04  0.50400001928E-02 0. -1.
        1   -1    0    0  501    0  0.00000000000E+00  0.00000000000E+00 -0.29545147251E+03  0.29545147256E+03  0.50400001928E-02 0.  1.
    10030    2    1    2    0    0  0.00000000000E+00  0.00000000000E+00  0.95151048787E+03  0.15424134330E+04  0.12139468644E+04 0.  0.
        4    1    3    3  502    0 -0.12780241383E+03 -0.20824956334E+03  0.11817136938E+04  0.12067104891E+04  0.12699999809E+01 0. -1.
       -4    1    3    3    0  502  0.12780241383E+03  0.20824956334E+03 -0.23020320588E+03  0.33570294385E+03  0.12699999809E+01 0.  1.
</event>
<event>
 5   0  0.9298693E-04  0.1205880E+04  0.7818609E-02  0.9107725E-01
       -2   -1    0    0    0  501  0.00000000000E+00  0.00000000000E+00  0.54360773517E+03  0.54360773518E+03  0.25500000920E-02 0.  1.
        2   -1    0    0  501    0  0.00000000000E+00  0.00000000000E+00 -0.66874820261E+03  0.66874820261E+03  0.25500000920E-02 0. -1.
    10030    2    1    2    0    0  0.00000000000E+00  0.00000000000E+00 -0.12514046744E+03  0.12123559378E+04  0.12058800866E+04 0.  0.
        1    1    3    3  502    0 -0.52605170916E+03 -0.38179102176E+02  0.23114356594E+03  0.57586056702E+03  0.50400001928E-02 0.  1.
       -1    1    3    3    0  502  0.52605170916E+03  0.38179102176E+02 -0.35628403338E+03  0.63649537077E+03  0.50400001928E-02 0. -1.
</event>
<event>
 5   0  0.9070772E-04  0.1206259E+04  0.7818609E-02  0.9107396E-01
        2   -1    0    0  501    0  0.00000000000E+00  0.00000000000E+00  0.55187558891E+03  0.55187558891E+03  0.25500000920E-02 0. -1.
       -2   -1    0    0    0  501  0.00000000000E+00  0.00000000000E+00 -0.65914341590E+03  0.65914341591E+03  0.25500000920E-02 0.  1.
    10030    2    1    2    0    0  0.00000000000E+00  0.00000000000E+00 -0.10726782700E+03  0.12110190048E+04  0.12062589454E+04 0.  0.
        4    1    3    3  502    0 -0.26939907843E+03  0.12823745737E+03  0.47259366218E+03  0.55889810464E+03  0.12699999809E+01 0. -1.
       -4    1    3    3    0  502  0.26939907843E+03 -0.12823745737E+03 -0.57986148917E+03  0.65212090019E+03  0.12699999809E+01 0.  1.
</event>
<event>
 5   0  0.5003507E-04  0.1200392E+04  0.7818609E-02  0.9112514E-01
       -1   -1    0    0    0  501  0.00000000000E+00  0.00000000000E+00  0.56724469950E+03  0.56724469952E+03  0.50400001928E-02 0. -1.
        1   -1    0    0  501    0  0.00000000000E+00  0.00000000000E+00 -0.63506141779E+03  0.63506141781E+03  0.50400001928E-02 0.  1.
    10030    2    1    2    0    0  0.00000000000E+00  0.00000000000E+00 -0.67816718297E+02  0.12023061173E+04  0.12003919745E+04 0.  0.
        3    1    3    3  502    0 -0.81618822061E+02 -0.22715017799E+03  0.51649168376E+03  0.57010745046E+03  0.10100000352E+00 0. -1.
       -3    1    3    3    0  502  0.81618822061E+02  0.22715017799E+03 -0.58430840206E+03  0.63219866687E+03  0.10100000352E+00 0.  1.
</event>
<event>
 5   0  0.9050363E-04  0.1200512E+04  0.7818609E-02  0.9112408E-01
        2   -1    0    0  501    0  0.00000000000E+00  0.00000000000E+00  0.15075792300E+04  0.15075792300E+04  0.25500000920E-02 0.  1.
       -2   -1    0    0    0  501  0.00000000000E+00  0.00000000000E+00 -0.23899732145E+03  0.23899732147E+03  0.25500000920E-02 0. -1.
    10030    2    1    2    0    0  0.00000000000E+00  0.00000000000E+00  0.12685819086E+04  0.17465765515E+04  0.12005122205E+04 0.  0.
        3    1    3    3  502    0  0.75631458757E+02  0.24407576952E+03 -0.15591912641E+03  0.29933907697E+03  0.10100000352E+00 0. -1.
       -3    1    3    3    0  502 -0.75631458757E+02 -0.24407576952E+03  0.14245010350E+04  0.14472374745E+04  0.10100000352E+00 0.  1.
</event>
<event>
 5   0  0.5003507E-04  0.1210012E+04  0.7818609E-02  0.9104138E-01
       -1   -1    0    0    0  501  0.00000000000E+00  0.00000000000E+00  0.52617354326E+03  0.52617354329E+03  0.50400001928E-02 0.  1.
        1   -1    0    0  501    0  0.00000000000E+00  0.00000000000E+00 -0.69564874563E+03  0.69564874565E+03  0.50400001928E-02 0. -1.
    10030    2    1    2    0    0  0.00000000000E+00  0.00000000000E+00 -0.16947520237E+03  0.12218222889E+04  0.12100115130E+04 0.  0.
        3    1    3    3  502    0 -0.22094422579E+03  0.10371319104E+03  0.47425345242E+03  0.53337521900E+03  0.10100000352E+00 0.  1.
       -3    1    3    3    0  502  0.22094422579E+03 -0.10371319104E+03 -0.64372865479E+03  0.68844706993E+03  0.10100000352E+00 0. -1.
</event>
<event>
 5   0  0.5052959E-04  0.1202930E+04  0.7818609E-02  0.9110296E-01
        1   -1    0    0  501    0  0.00000000000E+00  0.00000000000E+00  0.87639815839E+03  0.87639815841E+03  0.50400001928E-02 0. -1.
       -1   -1    0    0    0  501  0.00000000000E+00  0.00000000000E+00 -0.41278058248E+03  0.41278058251E+03  0.50400001928E-02 0.  1.
    10030    2    1    2    0    0  0.00000000000E+00  0.00000000000E+00  0.46361757591E+03  0.12891787409E+04  0.12029299935E+04 0.  0.
        2    1    3    3  502    0  0.29728553092E+03 -0.19610819360E+03  0.75124901553E+03  0.83139172105E+03  0.25500000920E-02 0. -1.
       -2    1    3    3    0  502 -0.29728553092E+03  0.19610819360E+03 -0.28763143962E+03  0.45778701986E+03  0.25500000920E-02 0.  1.
</event>
<event>
 5   0  0.9410666E-04  0.1199234E+04  0.7818609E-02  0.9113527E-01
       -2   -1    0    0    0  501  0.00000000000E+00  0.00000000000E+00  0.20050092794E+03  0.20050092796E+03  0.25500000920E-02 0. -1.
        2   -1    0    0  501    0  0.00000000000E+00  0.00000000000E+00 -0.17932106511E+04  0.17932106511E+04  0.25500000920E-02 0.  1.
    10030    2    1    2    0    0  0.00000000000E+00  0.00000000000E+00 -0.15927097231E+04  0.19937115790E+04  0.11992337546E+04 0.  0.
        2    1    3    3  502    0  0.45430592431E+03  0.11957431834E+03 -0.14158374403E+04  0.14917397722E+04  0.25500000920E-02 0.  1.
       -2    1    3    3    0  502 -0.45430592431E+03 -0.11957431834E+03 -0.17687228284E+03  0.50197180689E+03  0.25500000920E-02 0. -1.
</event>
<event>
 5   0  0.5157631E-04  0.1199826E+04  0.7818609E-02  0.9113009E-01
       -1   -1    0    0    0  501  0.00000000000E+00  0.00000000000E+00  0.45833366420E+03  0.45833366423E+03  0.50400001928E-02 0. -1.
        1   -1    0    0  501    0  0.00000000000E+00  0.00000000000E+00 -0.78522616473E+03  0.78522616475E+03  0.50400001928E-02 0.  1.
    10030    2    1    2    0    0  0.00000000000E+00  0.00000000000E+00 -0.32689250053E+03  0.12435598290E+04  0.11998259629E+04 0.  0.
        5    1    3    3  502    0 -0.16097424575E+03 -0.11529674489E+03 -0.75036213936E+03  0.77606151648E+03  0.46999998093E+01 0.  1.
       -5    1    3    3    0  502  0.16097424575E+03  0.11529674489E+03  0.42346963883E+03  0.46749831250E+03  0.46999998093E+01 0. -1.
</event>
<event>
 5   0  0.5001586E-04  0.1203366E+04  0.7818609E-02  0.9109915E-01
       -1   -1    0    0    0  501  0.00000000000E+00  0.00000000000E+00  0.26124323262E+03  0.26124323266E+03  0.50400001928E-02 0.  1.
        1   -1    0    0  501    0  0.00000000000E+00  0.00000000000E+00 -0.13857687547E+04  0.13857687547E+04  0.50400001928E-02 0. -1.
    10030    2    1    2    0    0  0.00000000000E+00  0.00000000000E+00 -0.11245255221E+04  0.16470119873E+04  0.12033664599E+04 0.  0.
        1    1    3    3  502    0 -0.47706969771E+03 -0.26211462239E+03 -0.91314226543E+03  0.10630749591E+04  0.50400001928E-02 0. -1.
       -1    1    3    3    0  502  0.47706969771E+03  0.26211462239E+03 -0.21138325662E+03  0.58393702823E+03  0.50400001928E-02 0.  1.
</event>
<event>
 5   0  0.9070772E-04  0.1203377E+04  0.7818609E-02  0.9109906E-01
        2   -1    0    0  501    0  0.00000000000E+00  0.00000000000E+00  0.99861502327E+03  0.99861502328E+03  0.25500000920E-02 0. -1.
       -2   -1    0    0    0  501  0.00000000000E+00  0.00000000000E+00 -0.36253110112E+03  0.36253110113E+03  0.25500000920E-02 0.  1.
    10030    2    1    2    0    0  0.00000000000E+00  0.00000000000E+00  0.63608392215E+03  0.13611461244E+04  0.12033769218E+04 0.  0.
        4    1    3    3  502    0  0.85086674529E+02 -0.14275250284E+03  0.97213916487E+03  0.98624245904E+03  0.12699999809E+01 0. -1.
       -4    1    3    3    0  502 -0.85086674529E+02  0.14275250284E+03 -0.33605524271E+03  0.37490366536E+03  0.12699999809E+01 0.  1.
</event>
<event>
 5   0  0.5001586E-04  0.1180565E+04  0.7818609E-02  0.9130040E-01
        1   -1    0    0  501    0  0.00000000000E+00  0.00000000000E+00  0.65011206700E+03  0.65011206702E+03  0.50400001928E-02 0. -1.
       -1   -1    0    0    0  501  0.00000000000E+00  0.00000000000E+00 -0.53595898115E+03  0.53595898118E+03  0.50400001928E-02 0.  1.
    10030    2    1    2    0    0  0.00000000000E+00  0.00000000000E+00  0.11415308585E+03  0.11860710482E+04  0.11805649514E+04 0.  0.
        1    1    3    3  502    0 -0.49008112812E+03  0.32725099813E+03  0.22848994937E+02  0.58974130304E+03  0.50400001928E-02 0.  1.
       -1    1    3    3    0  502  0.49008112812E+03 -0.32725099813E+03  0.91304090914E+02  0.59632974516E+03  0.50400001928E-02 0. -1.
</event>
<event>
 5   0  0.9070772E-04  0.1200911E+04  0.7818609E-02  0.9112059E-01
        2   -1    0    0  501    0  0.00000000000E+00  0.00000000000E+00  0.65400924364E+03  0.65400924364E+03  0.25500000920E-02 0. -1.
       -2   -1    0    0    0  501  0.00000000000E+00  0.00000000000E+00 -0.55128742681E+03  0.55128742681E+03  0.25500000920E-02 0.  1.
    10030    2    1    2    0    0  0.00000000000E+00  0.00000000000E+00  0.10272181683E+03  0.12052966705E+04  0.12009114423E+04 0.  0.
        4    1    3    3  502    0 -0.31328902185E+03  0.22594316195E+03 -0.41004069901E+03  0.56332522701E+03  0.12699999809E+01 0.  1.
       -4    1    3    3    0  502  0.31328902185E+03 -0.22594316195E+03  0.51276251584E+03  0.64197144344E+03  0.12699999809E+01 0. -1.
</event>
<event>
 5   0  0.9145224E-04  0.1210001E+04  0.7818609E-02  0.9104147E-01
       -2   -1    0    0    0  501  0.00000000000E+00  0.00000000000E+00  0.33894422692E+03  0.33894422693E+03  0.25500000920E-02 0.  1.
        2   -1    0    0  501    0  0.00000000000E+00  0.00000000000E+00 -0.10798993804E+04  0.10798993804E+04  0.25500000920E-02 0. -1.
    10030    2    1    2    0    0  0.00000000000E+00  0.00000000000E+00 -0.74095515348E+03  0.14188436073E+04  0.12100010920E+04 0.  0.
        5    1    3    3  502    0 -0.46073026052E+03 -0.34335116278E+03 -0.59247089117E+03  0.82535219199E+03  0.46999998093E+01 0.  1.
       -5    1    3    3    0  502  0.46073026052E+03  0.34335116278E+03 -0.14848426232E+03  0.59349141535E+03  0.46999998093E+01 0. -1.
</event>
<event>
 5   0  0.5447074E-04  0.1198695E+04  0.7818609E-02  0.9114000E-01
        1   -1    0    0  501    0  0.00000000000E+00  0.00000000000E+00  0.39599573401E+03  0.39599573404E+03  0.50400001928E-02 0.  1.
       -1   -1    0    0    0  501  0.00000000000E+00  0.00000000000E+00 -0.90712392983E+03  0.90712392984E+03  0.50400001928E-02 0. -1.
    10030    2    1    2    0    0  0.00000000000E+00  0.00000000000E+00 -0.51112819582E+03  0.13031196639E+04  0.11986946341E+04 0.  0.
        4    1    3    3  502    0  0.31321162241E+03  0.58450045276E+02  0.29629852285E+03  0.43510039732E+03  0.12699999809E+01 0.  1.
       -4    1    3    3    0  502 -0.31321162241E+03 -0.58450045276E+02 -0.80742671866E+03  0.86801926656E+03  0.12699999809E+01 0. -1.
</event>
<event>
 5   0  0.9145224E-04  0.1201146E+04  0.7818609E-02  0.9111854E-01
        2   -1    0    0  501    0  0.00000000000E+00  0.00000000000E+00  0.11737412287E+04  0.11737412287E+04  0.25500000920E-02 0.  1.
       -2   -1    0    0    0  501  0.00000000000E+00  0.00000000000E+00 -0.30729766385E+03  0.30729766386E+03  0.25500000920E-02 0. -1.
    10030    2    1    2    0    0  0.00000000000E+00  0.00000000000E+00  0.86644356485E+03  0.14810388926E+04  0.12011460154E+04 0.  0.
        5    1    3    3  502    0 -0.26695552148E+03 -0.76452235154E+02 -0.22336148870E+03  0.35640235597E+03  0.46999998093E+01 0. -1.
       -5    1    3    3    0  502  0.26695552148E+03  0.76452235154E+02  0.10898050535E+04  0.11246365366E+04  0.46999998093E+01 0.  1.
</event>
<event>
 5   0  0.5052959E-04  0.1203525E+04  0.7818609E-02  0.9109777E-01
       -1   -1    0    0    0  501  0.00000000000E+00  0.00000000000E+00  0.44412906504E+03  0.44412906507E+03  0.50400001928E-02 0.  1.
        1   -1    0    0  501    0  0.00000000000E+00  0.00000000000E+00 -0.81534412088E+03  0.81534412089E+03  0.50400001928E-02 0. -1.
    10030    2    1    2    0    0  0.00000000000E+00  0.00000000000E+00 -0.37121505584E+03  0.12594731860E+04  0.12035248599E+04 0.  0.
        2    1    3    3  502    0  0.39173996191E+03 -0.17005464992E+03 -0.62927267306E+03  0.76050172833E+03  0.25500000920E-02 0. -1.
       -2    1    3    3    0  502 -0.39173996191E+03  0.17005464992E+03  0.25805761722E+03  0.49897145763E+03  0.25500000920E-02 0.  1.
</event>
<event>
 5   0  0.9410666E-04  0.1200308E+04  0.7818609E-02  0.9112587E-01
        2   -1    0    0  501    0  0.00000000000E+00  0.00000000000E+00  0.16586944350E+04  0.16586944350E+04  0.25500000920E-02 0. -1.
       -2   -1    0    0    0  501  0.00000000000E+00  0.00000000000E+00 -0.21714948763E+03  0.21714948764E+03  0.25500000920E-02 0.  1.
    10030    2    1    2    0    0  0.00000000000E+00  0.00000000000E+00  0.14415449474E+04  0.18758439226E+04  0.12003077051E+04 0.  0.
        2    1    3    3  502    0  0.13628922920E+02  0.48847902741E+03  0.12652631461E+04  0.13563511111E+04  0.25500000920E-02 0. -1.
       -2    1    3    3    0  502 -0.13628922920E+02 -0.48847902741E+03  0.17628180128E+03  0.51949281153E+03  0.25500000920E-02 0.  1.
</event>
<event>
 5   0  0.5157631E-04  0.1188681E+04  0.7818609E-02  0.9122822E-01
       -1   -1    0    0    0  501  0.00000000000E+00  0.00000000000E+00  0.30196192876E+03  0.30196192880E+03  0.50400001928E-02 0. -1.
        1   -1    0    0  501    0  0.00000000000E+00  0.00000000000E+00 -0.11698193292E+04  0.11698193292E+04  0.50400001928E-02 0.  1.
    10030    2    1    2    0    0  0.00000000000E+00  0.00000000000E+00 -0.86785740040E+03  0.14717812580E+04  0.11886814560E+04 0.  0.
        5    1    3    3  502    0 -0.26124493352E+03  0.13761753501E+03 -0.10725511140E+04  0.11124636998E+04  0.46999998093E+01 0.  1.
       -5    1    3    3    0  502  0.26124493352E+03 -0.13761753501E+03  0.20469371359E+03  0.35931755818E+03  0.46999998093E+01 0. -1.
</event>
</LesHouchesEvents>
