<LesHouchesEvents version="3.0">
<header>
<!--
#*********************************************************************
#                                                                    *
#                        MadGraph5_aMC@NLO                           *
#                                                                    *
#                           Going Beyond                             *
#                                                                    *
#                   http://madgraph.hep.uiuc.edu                     *
#                   http://madgraph.phys.ucl.ac.be                   *
#                   http://amcatnlo.cern.ch                          *
#                                                                    *
#                     The MadGraph5_aMC@NLO team                     *
#                                                                    *
#....................................................................*
#                                                                    *
# This file contains all the information necessary to reproduce      *
# the events generated:                                              *
#                                                                    *
# 1. software version                                                *
# 2. proc_card          : code generation info including model       *
# 3. param_card         : model primary parameters in the LH format  *
# 4. run_card           : running parameters (collider and cuts)     *
# 5. pythia_card        : present only if pythia has been run        *
# 6. pgs_card           : present only if pgs has been run           *
# 7. delphes_cards      : present only if delphes has been run       *
#                                                                    *
#                                                                    *
#*********************************************************************
-->
<MGVersion>
#5.2.2.3
</MGVersion>
<MG5ProcCard>
#************************************************************
#*                     MadGraph5_aMC@NLO                    *
#*                                                          *
#*                *                       *                 *
#*                  *        * *        *                   *
#*                    * * * * 5 * * * *                     *
#*                  *        * *        *                   *
#*                *                       *                 *
#*                                                          *
#*                                                          *
#*         VERSION 2.2.3                 2015-02-10         *
#*                                                          *
#*    The MadGraph5_aMC@NLO Development Team - Find us at   *
#*    https://server06.fynu.ucl.ac.be/projects/madgraph     *
#*                                                          *
#************************************************************
#*                                                          *
#*               Command File for MadGraph5_aMC@NLO         *
#*                                                          *
#*     run as ./bin/mg5_aMC  filename                       *
#*                                                          *
#************************************************************
set group_subprocesses Auto
set ignore_six_quark_processes False
set loop_optimized_output True
set gauge unitary
set complex_mass_scheme False
import model sm
define p = g u c d s u~ c~ d~ s~
define j = g u c d s u~ c~ d~ s~
define l+ = e+ mu+
define l- = e- mu-
define vl = ve vm vt
define vl~ = ve~ vm~ vt~
import model Zprime_UFO
generate p p > zph, zph > j j
add process p p > zph, zph > b b~
output Dijet_signal
</MG5ProcCard>
<MGProcCard>
#*********************************************************************
#                        MadGraph/MadEvent                           *
#                   http://madgraph.hep.uiuc.edu                     *
#                                                                    *
#                          proc_card.dat                             *
#*********************************************************************
#                                                                    *
#            This Files is generated by MADGRAPH 5                   *
#                                                                    *
# WARNING: This Files is generated for MADEVENT (compatibility issue)*
#          This files is NOT a valid MG4 proc_card.dat               *
#          Running this in MG4 will NEVER reproduce the result of MG5*
#                                                                    *
#*********************************************************************
#*********************************************************************
# Process(es) requested : mg2 input                                  *
#*********************************************************************
# Begin PROCESS # This is TAG. Do not modify this line
p p > zph , zph > j j           #Process
# Be carefull the coupling are here in MG5 convention
          
end_coup           # End the couplings input

done               # this tells MG there are no more procs
# End PROCESS  # This is TAG. Do not modify this line
#*********************************************************************
# Model information                                                  *
#*********************************************************************
# Begin MODEL  # This is TAG. Do not modify this line
Zprime_UFO
# End   MODEL  # This is TAG. Do not modify this line
#*********************************************************************
# Start multiparticle definitions                                    *
#*********************************************************************
# Begin MULTIPARTICLES # This is TAG. Do not modify this line

# End  MULTIPARTICLES # This is TAG. Do not modify this line
</MGProcCard>
<MGRunCard>
#*********************************************************************
#                       MadGraph5_aMC@NLO                            *
#                                                                    *
#                     run_card.dat MadEvent                          *
#                                                                    *
#  This file is used to set the parameters of the run.               *
#                                                                    *
#  Some notation/conventions:                                        *
#                                                                    *
#   Lines starting with a '# ' are info or comments                  *
#                                                                    *
#   mind the format:   value    = variable     ! comment             *
#*********************************************************************
#
#*******************                                                 
# Running parameters
#*******************                                                 
#                                                                    
#*********************************************************************
# Tag name for the run (one word)                                    *
#*********************************************************************
  tag_1     = run_tag ! name of the run 
#*********************************************************************
# Run to generate the grid pack                                      *
#*********************************************************************
  .false.     = gridpack  !True = setting up the grid pack
#*********************************************************************
# Number of events and rnd seed                                      *
# Warning: Do not generate more than 1M events in a single run       *
# If you want to run Pythia, avoid more than 50k events in a run.    *
#*********************************************************************
  2000 = nevents ! Number of unweighted events requested 
 3009 = iseed   ! rnd seed (0=assigned automatically=default))
#*********************************************************************
# Collider type and energy                                           *
# lpp: 0=No PDF, 1=proton, -1=antiproton, 2=photon from proton,      *
#                                         3=photon from electron     *
#*********************************************************************
        1     = lpp1    ! beam 1 type 
        1     = lpp2    ! beam 2 type
     4000     = ebeam1  ! beam 1 total energy in GeV
     4000     = ebeam2  ! beam 2 total energy in GeV
#*********************************************************************
# Beam polarization from -100 (left-handed) to 100 (right-handed)    *
#*********************************************************************
        0     = polbeam1 ! beam polarization for beam 1
        0     = polbeam2 ! beam polarization for beam 2
#*********************************************************************
# PDF CHOICE: this automatically fixes also alpha_s and its evol.    *
#*********************************************************************
 'nn23lo1'    = pdlabel     ! PDF set                                     
 230000    = lhaid     ! if pdlabel=lhapdf, this is the lhapdf number
#*********************************************************************
# Renormalization and factorization scales                           *
#*********************************************************************
 F        = fixed_ren_scale  ! if .true. use fixed ren scale
 F        = fixed_fac_scale  ! if .true. use fixed fac scale
 91.1880  = scale            ! fixed ren scale
 91.1880  = dsqrt_q2fact1    ! fixed fact scale for pdf1
 91.1880  = dsqrt_q2fact2    ! fixed fact scale for pdf2
 1        = scalefact        ! scale factor for event-by-event scales
#*********************************************************************
# Matching - Warning! ickkw > 1 is still beta
#*********************************************************************
 0        = ickkw            ! 0 no matching, 1 MLM, 2 CKKW matching
 1        = highestmult      ! for ickkw=2, highest mult group
 1        = ktscheme         ! for ickkw=1, 1 Durham kT, 2 Pythia pTE
 1        = alpsfact         ! scale factor for QCD emission vx
 F        = chcluster        ! cluster only according to channel diag
 T        = pdfwgt           ! for ickkw=1, perform pdf reweighting
 5        = asrwgtflavor     ! highest quark flavor for a_s reweight
 T        = clusinfo         ! include clustering tag in output
 3.0      = lhe_version       ! Change the way clustering information pass to shower.        
#*********************************************************************
#**********************************************************
#
#**********************************************************
# Automatic ptj and mjj cuts if xqcut > 0
# (turn off for VBF and single top processes)
#**********************************************************
   T  = auto_ptj_mjj  ! Automatic setting of ptj and mjj
#**********************************************************
#                                                                    
#**********************************
# BW cutoff (M+/-bwcutoff*Gamma)
#**********************************
  15  = bwcutoff      ! (M+/-bwcutoff*Gamma)
#**********************************************************
# Apply pt/E/eta/dr/mij cuts on decay products or not
# (note that etmiss/ptll/ptheavy/ht/sorted cuts always apply)
#**********************************************************
   T  = cut_decays    ! Cut decay products 
#*************************************************************
# Number of helicities to sum per event (0 = all helicities)
# 0 gives more stable result, but longer run time (needed for
# long decay chains e.g.).
# Use >=2 if most helicities contribute, e.g. pure QCD.
#*************************************************************
   0  = nhel          ! Number of helicities used per event
#*******************                                                 
# Standard Cuts
#*******************                                                 
#                                                                    
#*********************************************************************
# Minimum and maximum pt's (for max, -1 means no cut)                *
#*********************************************************************
 20  = ptj       ! minimum pt for the jets 
  0  = ptb       ! minimum pt for the b 
 10  = pta       ! minimum pt for the photons 
 10  = ptl       ! minimum pt for the charged leptons 
  0  = misset    ! minimum missing Et (sum of neutrino's momenta)
  0  = ptheavy   ! minimum pt for one heavy final state
 1.0 = ptonium   ! minimum pt for the quarkonium states
 -1  = ptjmax    ! maximum pt for the jets
 -1  = ptbmax    ! maximum pt for the b
 -1  = ptamax    ! maximum pt for the photons
 -1  = ptlmax    ! maximum pt for the charged leptons
 -1  = missetmax ! maximum missing Et (sum of neutrino's momenta)
#*********************************************************************
# Minimum and maximum E's (in the center of mass frame)              *
#*********************************************************************
  0  = ej     ! minimum E for the jets 
  0  = eb     ! minimum E for the b 
  0  = ea     ! minimum E for the photons 
  0  = el     ! minimum E for the charged leptons 
 -1   = ejmax ! maximum E for the jets
 -1   = ebmax ! maximum E for the b
 -1   = eamax ! maximum E for the photons
 -1   = elmax ! maximum E for the charged leptons
#*********************************************************************
# Maximum and minimum absolute rapidity (for max, -1 means no cut)   *
#*********************************************************************
   5  = etaj    ! max rap for the jets 
  -1  = etab    ! max rap for the b
 2.5  = etaa    ! max rap for the photons 
 2.5  = etal    ! max rap for the charged leptons 
 0.6  = etaonium ! max rap for the quarkonium states
   0  = etajmin ! min rap for the jets
   0  = etabmin ! min rap for the b
   0  = etaamin ! min rap for the photons
   0  = etalmin ! main rap for the charged leptons
#*********************************************************************
# Minimum and maximum DeltaR distance                                *
#*********************************************************************
 0.4 = drjj    ! min distance between jets 
 0   = drbb    ! min distance between b's 
 0.4 = drll    ! min distance between leptons 
 0.4 = draa    ! min distance between gammas 
 0   = drbj    ! min distance between b and jet 
 0.4 = draj    ! min distance between gamma and jet 
 0.4 = drjl    ! min distance between jet and lepton 
 0   = drab    ! min distance between gamma and b 
 0   = drbl    ! min distance between b and lepton 
 0.4 = dral    ! min distance between gamma and lepton 
 -1  = drjjmax ! max distance between jets
 -1  = drbbmax ! max distance between b's
 -1  = drllmax ! max distance between leptons
 -1  = draamax ! max distance between gammas
 -1  = drbjmax ! max distance between b and jet
 -1  = drajmax ! max distance between gamma and jet
 -1  = drjlmax ! max distance between jet and lepton
 -1  = drabmax ! max distance between gamma and b
 -1  = drblmax ! max distance between b and lepton
 -1  = dralmax ! maxdistance between gamma and lepton
#*********************************************************************
# Minimum and maximum invariant mass for pairs                       *
# WARNING: for four lepton final state mmll cut require to have      *
#          different lepton masses for each flavor!                  *           
#*********************************************************************
 0   = mmjj    ! min invariant mass of a jet pair 
 0   = mmbb    ! min invariant mass of a b pair 
 0   = mmaa    ! min invariant mass of gamma gamma pair
 0   = mmll    ! min invariant mass of l+l- (same flavour) lepton pair
 -1  = mmjjmax ! max invariant mass of a jet pair
 -1  = mmbbmax ! max invariant mass of a b pair
 -1  = mmaamax ! max invariant mass of gamma gamma pair
 -1  = mmllmax ! max invariant mass of l+l- (same flavour) lepton pair
#*********************************************************************
# Minimum and maximum invariant mass for all letpons                 *
#*********************************************************************
 0   = mmnl    ! min invariant mass for all letpons (l+- and vl) 
 -1  = mmnlmax ! max invariant mass for all letpons (l+- and vl) 
#*********************************************************************
# Minimum and maximum pt for 4-momenta sum of leptons                *
#*********************************************************************
 0   = ptllmin  ! Minimum pt for 4-momenta sum of leptons(l and vl)
 -1  = ptllmax  ! Maximum pt for 4-momenta sum of leptons(l and vl)
#*********************************************************************
# Inclusive cuts                                                     *
#*********************************************************************
 0  = xptj ! minimum pt for at least one jet  
 0  = xptb ! minimum pt for at least one b 
 0  = xpta ! minimum pt for at least one photon 
 0  = xptl ! minimum pt for at least one charged lepton 
#*********************************************************************
# Control the pt's of the jets sorted by pt                          *
#*********************************************************************
 0   = ptj1min ! minimum pt for the leading jet in pt
 0   = ptj2min ! minimum pt for the second jet in pt
 0   = ptj3min ! minimum pt for the third jet in pt
 0   = ptj4min ! minimum pt for the fourth jet in pt
 -1  = ptj1max ! maximum pt for the leading jet in pt 
 -1  = ptj2max ! maximum pt for the second jet in pt
 -1  = ptj3max ! maximum pt for the third jet in pt
 -1  = ptj4max ! maximum pt for the fourth jet in pt
 0   = cutuse  ! reject event if fails any (0) / all (1) jet pt cuts
#*********************************************************************
# Control the pt's of leptons sorted by pt                           *
#*********************************************************************
 0   = ptl1min ! minimum pt for the leading lepton in pt
 0   = ptl2min ! minimum pt for the second lepton in pt
 0   = ptl3min ! minimum pt for the third lepton in pt
 0   = ptl4min ! minimum pt for the fourth lepton in pt
 -1  = ptl1max ! maximum pt for the leading lepton in pt 
 -1  = ptl2max ! maximum pt for the second lepton in pt
 -1  = ptl3max ! maximum pt for the third lepton in pt
 -1  = ptl4max ! maximum pt for the fourth lepton in pt
#*********************************************************************
# Control the Ht(k)=Sum of k leading jets                            *
#*********************************************************************
 0   = htjmin ! minimum jet HT=Sum(jet pt)
 -1  = htjmax ! maximum jet HT=Sum(jet pt)
 0   = ihtmin  !inclusive Ht for all partons (including b)
 -1  = ihtmax  !inclusive Ht for all partons (including b)
 0   = ht2min ! minimum Ht for the two leading jets
 0   = ht3min ! minimum Ht for the three leading jets
 0   = ht4min ! minimum Ht for the four leading jets
 -1  = ht2max ! maximum Ht for the two leading jets
 -1  = ht3max ! maximum Ht for the three leading jets
 -1  = ht4max ! maximum Ht for the four leading jets
#***********************************************************************
# Photon-isolation cuts, according to hep-ph/9801442                   *
# When ptgmin=0, all the other parameters are ignored                  *
# When ptgmin>0, pta and draj are not going to be used                 *
#***********************************************************************
   0 = ptgmin ! Min photon transverse momentum
 0.4 = R0gamma ! Radius of isolation code
 1.0 = xn ! n parameter of eq.(3.4) in hep-ph/9801442
 1.0 = epsgamma ! epsilon_gamma parameter of eq.(3.4) in hep-ph/9801442
 .true. = isoEM ! isolate photons from EM energy (photons and leptons)
#*********************************************************************
# WBF cuts                                                           *
#*********************************************************************
 0   = xetamin ! minimum rapidity for two jets in the WBF case  
 0   = deltaeta ! minimum rapidity for two jets in the WBF case 
#*********************************************************************
# KT DURHAM CUT                                                      *
#*********************************************************************
 -1    =  ktdurham        
 0.4  =  dparameter 
#*********************************************************************
# maximal pdg code for quark to be considered as a light jet         *
# (otherwise b cuts are applied)                                     *
#*********************************************************************
 4 = maxjetflavor    ! Maximum jet pdg code
#*********************************************************************
# Jet measure cuts                                                   *
#*********************************************************************
 0   = xqcut   ! minimum kt jet measure between partons
#*********************************************************************
#
#*********************************************************************
# Store info for systematics studies                                 *
# WARNING: If use_syst is T, matched Pythia output is                *
#          meaningful ONLY if plotted taking matchscale              *
#          reweighting into account!                                 *
#*********************************************************************
   F  = use_syst      ! Enable systematics studies
#
#**************************************
# Parameter of the systematics study
#  will be used by SysCalc (if installed)
#**************************************                                  
#
0.5 1 2 = sys_scalefact  # factorization/renormalization scale factor
0.5 1 2 = sys_alpsfact  # \alpha_s emission scale factors
30 50 = sys_matchscale # variation of merging scale
# PDF sets and number of members (0 or none for all members).
CT10nlo.LHgrid = sys_pdf # matching scales
# MSTW2008nlo68cl.LHgrid 1  = sys_pdf
</MGRunCard>
<slha>
######################################################################
## PARAM_CARD AUTOMATICALY GENERATED BY MG5 FOLLOWING UFO MODEL   ####
######################################################################
##                                                                  ##
##  Width set on Auto will be computed following the information    ##
##        present in the decay.py files of the model.               ##
##        See  arXiv:1402.1178 for more details.                    ##
##                                                                  ##
######################################################################

###################################
## INFORMATION FOR CKMBLOCK
###################################
Block ckmblock 
    1 2.277360e-01 # cabi 

###################################
## INFORMATION FOR FRBLOCK
###################################
Block frblock 
    1 1.600000e+00 # gz 

###################################
## INFORMATION FOR MASS
###################################
Block mass 
    1 5.040000e-03 # MD 
    2 2.550000e-03 # MU 
    3 1.010000e-01 # MS 
    4 1.270000e+00 # MC 
    5 4.700000e+00 # MB 
    6 1.720000e+02 # MT 
   11 5.110000e-04 # Me 
   13 1.056600e-01 # MM 
   15 1.777000e+00 # MTA 
   23 9.118760e+01 # MZ 
   25 1.200000e+02 # MH 
  10030 3.200000e+03 # MZph 
  10031 3.000000e+02 # MZpl 
## Dependent parameters, given by model restrictions.
## Those values should be edited following the 
## analytical expression. MG5 ignores those values 
## but they are important for interfacing the output of MG5
## to external program such as Pythia.
  12 0.000000 # ve : 0.0 
  14 0.000000 # vm : 0.0 
  16 0.000000 # vt : 0.0 
  21 0.000000 # g : 0.0 
  22 0.000000 # a : 0.0 
  24 79.824360 # w+ : cmath.sqrt(MZ__exp__2/2. + cmath.sqrt(MZ__exp__4/4. - (aEW*cmath.pi*MZ__exp__2)/(Gf*sqrt__2))) 

###################################
## INFORMATION FOR SMINPUTS
###################################
Block sminputs 
    1 1.279000e+02 # aEWM1 
    2 1.166370e-05 # Gf 
    3 1.184000e-01 # aS 

###################################
## INFORMATION FOR YUKAWA
###################################
Block yukawa 
    1 5.040000e-03 # ymdo 
    2 2.550000e-03 # ymup 
    3 1.010000e-01 # yms 
    4 1.270000e+00 # ymc 
    5 4.700000e+00 # ymb 
    6 1.720000e+02 # ymt 
   11 5.110000e-04 # yme 
   13 1.056600e-01 # ymm 
   15 1.777000e+00 # ymtau 

###################################
## INFORMATION FOR DECAY
###################################
DECAY   6 1.508336e+00 # WT 
DECAY  23 2.495200e+00 # WZ 
DECAY  24 2.085000e+00 # WW 
DECAY  25 5.753088e-03 # WH 
## Dependent parameters, given by model restrictions.
## Those values should be edited following the 
## analytical expression. MG5 ignores those values 
## but they are important for interfacing the output of MG5
## to external program such as Pythia.
DECAY  1 0.000000 # d : 0.0 
DECAY  2 0.000000 # u : 0.0 
DECAY  3 0.000000 # s : 0.0 
DECAY  4 0.000000 # c : 0.0 
DECAY  5 0.000000 # b : 0.0 
DECAY  11 0.000000 # e- : 0.0 
DECAY  12 0.000000 # ve : 0.0 
DECAY  13 0.000000 # mu- : 0.0 
DECAY  14 0.000000 # vm : 0.0 
DECAY  15 0.000000 # ta- : 0.0 
DECAY  16 0.000000 # vt : 0.0 
DECAY  21 0.000000 # g : 0.0 
DECAY  22 0.000000 # a : 0.0 
DECAY  10030 0.308725 # zph : (gz__exp__2*MZph*(5 + cmath.sqrt(1 - (4*MT__exp__2)/MZph__exp__2)))/(144.*cmath.pi) 
DECAY  10031 0.132629 # zpl : (5*gz__exp__2*MZpl)/(144.*cmath.pi) 
#===========================================================
# QUANTUM NUMBERS OF NEW STATE(S) (NON SM PDG CODE)
#===========================================================

Block QNUMBERS 10030  # zph 
        1 0  # 3 times electric charge
        2 3  # number of spin states (2S+1)
        3 1  # colour rep (1: singlet, 3: triplet, 8: octet)
        4 0  # Particle/Antiparticle distinction (0=own anti)
Block QNUMBERS 10031  # zpl 
        1 0  # 3 times electric charge
        2 3  # number of spin states (2S+1)
        3 1  # colour rep (1: singlet, 3: triplet, 8: octet)
        4 0  # Particle/Antiparticle distinction (0=own anti)
</slha>
## END BANNER##
<MGGenerationInfo>
#  Number of Events        :         3711
#  Integrated weight (pb)  :  0.20647E-02
#  Max wgt                 :  0.82377E-06
#  Average wgt             :  0.55637E-06
</MGGenerationInfo>
</header>
<init>
     2212     2212  0.40000000000E+04  0.40000000000E+04 0 0  247000  247000 2   1
  0.20659217630E-02  0.10227048162E-04  0.82376640000E-06   0
</init>
<event>
 5   0  0.7971763E-06  0.3040814E+04  0.7818609E-02  0.8232171E-01
        2   -1    0    0  501    0  0.00000000000E+00  0.00000000000E+00  0.20802967599E+04  0.20802967599E+04  0.25500000920E-02 0. -1.
       -2   -1    0    0    0  501  0.00000000000E+00  0.00000000000E+00 -0.11112054523E+04  0.11112054523E+04  0.25500000920E-02 0.  1.
    10030    2    1    2    0    0  0.00000000000E+00  0.00000000000E+00  0.96909130761E+03  0.31915022123E+04  0.30408137741E+04 0.  0.
        1    1    3    3  502    0  0.12073429207E+04  0.91978690904E+03  0.57813995577E+03  0.16241707714E+04  0.50400001928E-02 0. -1.
       -1    1    3    3    0  502 -0.12073429207E+04 -0.91978690904E+03  0.39095135183E+03  0.15673314409E+04  0.50400001928E-02 0.  1.
</event>
<event>
 5   0  0.7971763E-06  0.3190487E+04  0.7818609E-02  0.8191334E-01
       -2   -1    0    0    0  501  0.00000000000E+00  0.00000000000E+00  0.12235965849E+04  0.12235965849E+04  0.25500000920E-02 0. -1.
        2   -1    0    0  501    0  0.00000000000E+00  0.00000000000E+00 -0.20797720413E+04  0.20797720413E+04  0.25500000920E-02 0.  1.
    10030    2    1    2    0    0  0.00000000000E+00  0.00000000000E+00 -0.85617545642E+03  0.33033686262E+04  0.31904870895E+04 0.  0.
        1    1    3    3  502    0 -0.69793887081E+02  0.74798049038E+03 -0.18851652001E+04  0.20293333468E+04  0.50400001928E-02 0.  1.
       -1    1    3    3    0  502  0.69793887081E+02 -0.74798049038E+03  0.10289897437E+04  0.12740352794E+04  0.50400001928E-02 0. -1.
</event>
<event>
 5   0  0.7510251E-06  0.3142109E+04  0.7818609E-02  0.8204276E-01
       -2   -1    0    0    0  501  0.00000000000E+00  0.00000000000E+00  0.13193085827E+04  0.13193085827E+04  0.25500000920E-02 0.  1.
        2   -1    0    0  501    0  0.00000000000E+00  0.00000000000E+00 -0.18708378881E+04  0.18708378881E+04  0.25500000920E-02 0. -1.
    10030    2    1    2    0    0  0.00000000000E+00  0.00000000000E+00 -0.55152930532E+03  0.31901464708E+04  0.31421091532E+04 0.  0.
        3    1    3    3  502    0  0.13569892394E+04  0.78738647414E+03 -0.35958109014E+03  0.16095638621E+04  0.10100000352E+00 0. -1.
       -3    1    3    3    0  502 -0.13569892394E+04 -0.78738647414E+03 -0.19194821518E+03  0.15805826087E+04  0.10100000352E+00 0.  1.
</event>
<event>
 5   0  0.7971763E-06  0.2896794E+04  0.7818609E-02  0.8273832E-01
        2   -1    0    0  501    0  0.00000000000E+00  0.00000000000E+00  0.12478447350E+04  0.12478447350E+04  0.25500000920E-02 0. -1.
       -2   -1    0    0    0  501  0.00000000000E+00  0.00000000000E+00 -0.16811812857E+04  0.16811812857E+04  0.25500000920E-02 0.  1.
    10030    2    1    2    0    0  0.00000000000E+00  0.00000000000E+00 -0.43333655065E+03  0.29290260207E+04  0.28967935487E+04 0.  0.
        1    1    3    3  502    0  0.74210267557E+03  0.11816441624E+04 -0.60938913367E+03  0.15226143386E+04  0.50400001928E-02 0. -1.
       -1    1    3    3    0  502 -0.74210267557E+03 -0.11816441624E+04  0.17605258302E+03  0.14064116822E+04  0.50400001928E-02 0.  1.
</event>
<event>
 5   0  0.7510251E-06  0.3222201E+04  0.7818609E-02  0.8182978E-01
        2   -1    0    0  501    0  0.00000000000E+00  0.00000000000E+00  0.21908820310E+04  0.21908820310E+04  0.25500000920E-02 0. -1.
       -2   -1    0    0    0  501  0.00000000000E+00  0.00000000000E+00 -0.11847491429E+04  0.11847491429E+04  0.25500000920E-02 0.  1.
    10030    2    1    2    0    0  0.00000000000E+00  0.00000000000E+00  0.10061328881E+04  0.33756311739E+04  0.32222014887E+04 0.  0.
        3    1    3    3  502    0 -0.11607064355E+04  0.89389778416E+03  0.12053234477E+04  0.18971286993E+04  0.10100000352E+00 0. -1.
       -3    1    3    3    0  502  0.11607064355E+04 -0.89389778416E+03 -0.19919055959E+03  0.14785024746E+04  0.10100000352E+00 0.  1.
</event>
<event>
 5   0  0.2788054E-06  0.3094724E+04  0.7818609E-02  0.8217187E-01
        1   -1    0    0  501    0  0.00000000000E+00  0.00000000000E+00  0.20658972626E+04  0.20658972626E+04  0.50400001928E-02 0.  1.
       -1   -1    0    0    0  501  0.00000000000E+00  0.00000000000E+00 -0.11589776539E+04  0.11589776539E+04  0.50400001928E-02 0. -1.
    10030    2    1    2    0    0  0.00000000000E+00  0.00000000000E+00  0.90691960873E+03  0.32248749165E+04  0.30947237438E+04 0.  0.
        3    1    3    3  502    0  0.13446008655E+04  0.45724554168E+03  0.10935432055E+04  0.17924457385E+04  0.10100000352E+00 0.  1.
       -3    1    3    3    0  502 -0.13446008655E+04 -0.45724554168E+03 -0.18662359676E+03  0.14324291780E+04  0.10100000352E+00 0. -1.
</event>
<event>
 5   0  0.2788054E-06  0.3189108E+04  0.7818609E-02  0.8191700E-01
       -1   -1    0    0    0  501  0.00000000000E+00  0.00000000000E+00  0.82662457874E+03  0.82662457876E+03  0.50400001928E-02 0. -1.
        1   -1    0    0  501    0  0.00000000000E+00  0.00000000000E+00 -0.30758847921E+04  0.30758847921E+04  0.50400001928E-02 0.  1.
    10030    2    1    2    0    0  0.00000000000E+00  0.00000000000E+00 -0.22492602134E+04  0.39025093709E+04  0.31891076938E+04 0.  0.
        3    1    3    3  502    0 -0.28522179036E+03 -0.21720802506E+03 -0.30259264090E+04  0.30470906515E+04  0.10100000352E+00 0.  1.
       -3    1    3    3    0  502  0.28522179036E+03  0.21720802506E+03  0.77666619560E+03  0.85541871936E+03  0.10100000352E+00 0. -1.
</event>
<event>
 5   0  0.7971763E-06  0.3223969E+04  0.7818609E-02  0.8182516E-01
       -2   -1    0    0    0  501  0.00000000000E+00  0.00000000000E+00  0.17755023257E+04  0.17755023257E+04  0.25500000920E-02 0.  1.
        2   -1    0    0  501    0  0.00000000000E+00  0.00000000000E+00 -0.14635263132E+04  0.14635263132E+04  0.25500000920E-02 0. -1.
    10030    2    1    2    0    0  0.00000000000E+00  0.00000000000E+00  0.31197601255E+03  0.32390286389E+04  0.32239692138E+04 0.  0.
        1    1    3    3  502    0  0.92720929070E+03 -0.10557373216E+04  0.94973920962E+03  0.16959666646E+04  0.50400001928E-02 0.  1.
       -1    1    3    3    0  502 -0.92720929070E+03  0.10557373216E+04 -0.63776319707E+03  0.15430619743E+04  0.50400001928E-02 0. -1.
</event>
<event>
 5   0  0.2933646E-06  0.1710542E+04  0.7818609E-02  0.8755374E-01
        1   -1    0    0  501    0  0.00000000000E+00  0.00000000000E+00  0.10146256211E+04  0.10146256211E+04  0.50400001928E-02 0.  1.
       -1   -1    0    0    0  501  0.00000000000E+00  0.00000000000E+00 -0.72094455481E+03  0.72094455483E+03  0.50400001928E-02 0. -1.
    10030    2    1    2    0    0  0.00000000000E+00  0.00000000000E+00  0.29368106625E+03  0.17355701759E+04  0.17105423897E+04 0.  0.
        2    1    3    3  502    0 -0.21467129065E+03  0.59157293806E+03  0.73449220777E+03  0.96722340096E+03  0.25500000920E-02 0.  1.
       -2    1    3    3    0  502  0.21467129065E+03 -0.59157293806E+03 -0.44081114152E+03  0.76834677495E+03  0.25500000920E-02 0. -1.
</event>
<event>
 5   0  0.7971763E-06  0.3197942E+04  0.7818609E-02  0.8189361E-01
       -2   -1    0    0    0  501  0.00000000000E+00  0.00000000000E+00  0.14578337657E+04  0.14578337657E+04  0.25500000920E-02 0.  1.
        2   -1    0    0  501    0  0.00000000000E+00  0.00000000000E+00 -0.17537716219E+04  0.17537716219E+04  0.25500000920E-02 0. -1.
    10030    2    1    2    0    0  0.00000000000E+00  0.00000000000E+00 -0.29593785618E+03  0.32116053876E+04  0.31979415177E+04 0.  0.
        1    1    3    3  502    0  0.12885321254E+04 -0.79785583702E+03  0.36393293106E+03  0.15586327833E+04  0.50400001928E-02 0.  1.
       -1    1    3    3    0  502 -0.12885321254E+04  0.79785583702E+03 -0.65987078724E+03  0.16529726043E+04  0.50400001928E-02 0. -1.
</event>
<event>
 5   0  0.2933646E-06  0.3190059E+04  0.7818609E-02  0.8191447E-01
        1   -1    0    0  501    0  0.00000000000E+00  0.00000000000E+00  0.22507583541E+04  0.22507583541E+04  0.50400001928E-02 0.  1.
       -1   -1    0    0    0  501  0.00000000000E+00  0.00000000000E+00 -0.11303388009E+04  0.11303388010E+04  0.50400001928E-02 0. -1.
    10030    2    1    2    0    0  0.00000000000E+00  0.00000000000E+00  0.11204195532E+04  0.33810971551E+04  0.31900592466E+04 0.  0.
        2    1    3    3  502    0 -0.90469482528E+03  0.12201039426E+04  0.44236997603E+02  0.15195668033E+04  0.25500000920E-02 0. -1.
       -2    1    3    3    0  502  0.90469482528E+03 -0.12201039426E+04  0.10761825556E+04  0.18615303518E+04  0.25500000920E-02 0.  1.
</event>
<event>
 5   0  0.8237664E-06  0.3227462E+04  0.7818609E-02  0.8181602E-01
        2   -1    0    0  501    0  0.00000000000E+00  0.00000000000E+00  0.95658523883E+03  0.95658523883E+03  0.25500000920E-02 0.  1.
       -2   -1    0    0    0  501  0.00000000000E+00  0.00000000000E+00 -0.27223157413E+04  0.27223157413E+04  0.25500000920E-02 0. -1.
    10030    2    1    2    0    0  0.00000000000E+00  0.00000000000E+00 -0.17657305025E+04  0.36789009801E+04  0.32274615744E+04 0.  0.
        5    1    3    3  502    0  0.33101088432E+03 -0.51673369810E+03 -0.25841151841E+04  0.26559848070E+04  0.46999998093E+01 0. -1.
       -5    1    3    3    0  502 -0.33101088432E+03  0.51673369810E+03  0.81838468159E+03  0.10229161732E+04  0.46999998093E+01 0.  1.
</event>
<event>
 5   0  0.4142886E-06  0.3176577E+04  0.7818609E-02  0.8195031E-01
       -1   -1    0    0    0  501  0.00000000000E+00  0.00000000000E+00  0.15188585964E+04  0.15188585964E+04  0.50400001928E-02 0. -1.
        1   -1    0    0  501    0  0.00000000000E+00  0.00000000000E+00 -0.16608923694E+04  0.16608923694E+04  0.50400001928E-02 0.  1.
    10030    2    1    2    0    0  0.00000000000E+00  0.00000000000E+00 -0.14203377305E+03  0.31797509658E+04  0.31765771850E+04 0.  0.
        5    1    3    3  502    0 -0.13794356651E+04  0.23410122345E+03 -0.82342766543E+03  0.16234843230E+04  0.46999998093E+01 0.  1.
       -5    1    3    3    0  502  0.13794356651E+04 -0.23410122345E+03  0.68139389239E+03  0.15562666428E+04  0.46999998093E+01 0. -1.
</event>
<event>
 5   0  0.2635798E-06  0.3170550E+04  0.7818609E-02  0.8196638E-01
        1   -1    0    0  501    0  0.00000000000E+00  0.00000000000E+00  0.17254569363E+04  0.17254569363E+04  0.50400001928E-02 0.  1.
       -1   -1    0    0    0  501  0.00000000000E+00  0.00000000000E+00 -0.14564820279E+04  0.14564820280E+04  0.50400001928E-02 0. -1.
    10030    2    1    2    0    0  0.00000000000E+00  0.00000000000E+00  0.26897490831E+03  0.31819389642E+04  0.31705501211E+04 0.  0.
        1    1    3    3  502    0 -0.13019977071E+04 -0.73096735817E+03 -0.39995308434E+03  0.15457922815E+04  0.50400001928E-02 0.  1.
       -1    1    3    3    0  502  0.13019977071E+04  0.73096735817E+03  0.66892799265E+03  0.16361466827E+04  0.50400001928E-02 0. -1.
</event>
<event>
 5   0  0.2788054E-06  0.3230787E+04  0.7818609E-02  0.8180733E-01
        1   -1    0    0  501    0  0.00000000000E+00  0.00000000000E+00  0.11897555738E+04  0.11897555738E+04  0.50400001928E-02 0.  1.
       -1   -1    0    0    0  501  0.00000000000E+00  0.00000000000E+00 -0.21933048232E+04  0.21933048232E+04  0.50400001928E-02 0. -1.
    10030    2    1    2    0    0  0.00000000000E+00  0.00000000000E+00 -0.10035492494E+04  0.33830603971E+04  0.32307872964E+04 0.  0.
        3    1    3    3  502    0  0.94736804470E+03  0.10375935646E+04 -0.13364576398E+04  0.19391301273E+04  0.10100000352E+00 0. -1.
       -3    1    3    3    0  502 -0.94736804470E+03 -0.10375935646E+04  0.33290839039E+03  0.14439302698E+04  0.10100000352E+00 0.  1.
</event>
<event>
 5   0  0.2788054E-06  0.3047287E+04  0.7818609E-02  0.8230355E-01
       -1   -1    0    0    0  501  0.00000000000E+00  0.00000000000E+00  0.15451248438E+04  0.15451248438E+04  0.50400001928E-02 0.  1.
        1   -1    0    0  501    0  0.00000000000E+00  0.00000000000E+00 -0.15024608914E+04  0.15024608915E+04  0.50400001928E-02 0. -1.
    10030    2    1    2    0    0  0.00000000000E+00  0.00000000000E+00  0.42663952329E+02  0.30475857352E+04  0.30472870887E+04 0.  0.
        3    1    3    3  502    0  0.91587313705E+03 -0.12015285498E+04  0.21882330429E+03  0.15265576005E+04  0.10100000352E+00 0. -1.
       -3    1    3    3    0  502 -0.91587313705E+03  0.12015285498E+04 -0.17615935196E+03  0.15210281347E+04  0.10100000352E+00 0.  1.
</event>
<event>
 5   0  0.7971763E-06  0.2012927E+04  0.7818609E-02  0.8600600E-01
       -2   -1    0    0    0  501  0.00000000000E+00  0.00000000000E+00  0.81766766982E+03  0.81766766983E+03  0.25500000920E-02 0. -1.
        2   -1    0    0  501    0  0.00000000000E+00  0.00000000000E+00 -0.12388518467E+04  0.12388518467E+04  0.25500000920E-02 0.  1.
    10030    2    1    2    0    0  0.00000000000E+00  0.00000000000E+00 -0.42118417683E+03  0.20565195165E+04  0.20129273238E+04 0.  0.
        1    1    3    3  502    0  0.40604710601E+03  0.88582837480E+03 -0.46784449208E+03  0.10809461738E+04  0.50400001928E-02 0.  1.
       -1    1    3    3    0  502 -0.40604710601E+03 -0.88582837480E+03  0.46660315243E+02  0.97557334267E+03  0.50400001928E-02 0. -1.
</event>
<event>
 5   0  0.2635798E-06  0.1761742E+04  0.7818609E-02  0.8726913E-01
        1   -1    0    0  501    0  0.00000000000E+00  0.00000000000E+00  0.15728255289E+04  0.15728255289E+04  0.50400001928E-02 0. -1.
       -1   -1    0    0    0  501  0.00000000000E+00  0.00000000000E+00 -0.49333771023E+03  0.49333771026E+03  0.50400001928E-02 0.  1.
    10030    2    1    2    0    0  0.00000000000E+00  0.00000000000E+00  0.10794878187E+04  0.20661632392E+04  0.17617424841E+04 0.  0.
        1    1    3    3  502    0 -0.46597733030E+03 -0.21537081656E+03  0.13792676585E+04  0.14716992678E+04  0.50400001928E-02 0. -1.
       -1    1    3    3    0  502  0.46597733030E+03  0.21537081656E+03 -0.29977983977E+03  0.59446397144E+03  0.50400001928E-02 0.  1.
</event>
<event>
 5   0  0.2635798E-06  0.3227700E+04  0.7818609E-02  0.8181540E-01
        1   -1    0    0  501    0  0.00000000000E+00  0.00000000000E+00  0.20915573859E+04  0.20915573859E+04  0.50400001928E-02 0.  1.
       -1   -1    0    0    0  501  0.00000000000E+00  0.00000000000E+00 -0.12452497684E+04  0.12452497685E+04  0.50400001928E-02 0. -1.
    10030    2    1    2    0    0  0.00000000000E+00  0.00000000000E+00  0.84630761742E+03  0.33368071543E+04  0.32276997075E+04 0.  0.
        1    1    3    3  502    0 -0.14090071676E+04  0.78679745018E+03  0.43622741933E+03  0.16717194104E+04  0.50400001928E-02 0. -1.
       -1    1    3    3    0  502  0.14090071676E+04 -0.78679745018E+03  0.41008019808E+03  0.16650877439E+04  0.50400001928E-02 0.  1.
</event>
<event>
 5   0  0.7952307E-06  0.2304033E+04  0.7818609E-02  0.8476333E-01
       -2   -1    0    0    0  501  0.00000000000E+00  0.00000000000E+00  0.17410671548E+04  0.17410671548E+04  0.25500000920E-02 0.  1.
        2   -1    0    0  501    0  0.00000000000E+00  0.00000000000E+00 -0.76225775126E+03  0.76225775126E+03  0.25500000920E-02 0. -1.
    10030    2    1    2    0    0  0.00000000000E+00  0.00000000000E+00  0.97880940358E+03  0.25033249061E+04  0.23040329288E+04 0.  0.
        2    1    3    3  502    0  0.38792591435E+03 -0.24193534785E+03 -0.65947160261E+03  0.80244751992E+03  0.25500000920E-02 0. -1.
       -2    1    3    3    0  502 -0.38792591435E+03  0.24193534785E+03  0.16382810062E+04  0.17008773862E+04  0.25500000920E-02 0.  1.
</event>
<event>
 5   0  0.2788054E-06  0.1668653E+04  0.7818609E-02  0.8779447E-01
       -1   -1    0    0    0  501  0.00000000000E+00  0.00000000000E+00  0.35061233867E+03  0.35061233871E+03  0.50400001928E-02 0.  1.
        1   -1    0    0  501    0  0.00000000000E+00  0.00000000000E+00 -0.19853859627E+04  0.19853859627E+04  0.50400001928E-02 0. -1.
    10030    2    1    2    0    0  0.00000000000E+00  0.00000000000E+00 -0.16347736240E+04  0.23359983014E+04  0.16686531282E+04 0.  0.
        3    1    3    3  502    0 -0.53524861627E+02  0.37537273423E+03 -0.18578009516E+04  0.18960996773E+04  0.10100000352E+00 0. -1.
       -3    1    3    3    0  502  0.53524861627E+02 -0.37537273423E+03  0.22302732758E+03  0.43989862408E+03  0.10100000352E+00 0.  1.
</event>
<event>
 5   0  0.7510251E-06  0.2829677E+04  0.7818609E-02  0.8294114E-01
       -2   -1    0    0    0  501  0.00000000000E+00  0.00000000000E+00  0.12101071643E+04  0.12101071643E+04  0.25500000920E-02 0.  1.
        2   -1    0    0  501    0  0.00000000000E+00  0.00000000000E+00 -0.16542066375E+04  0.16542066375E+04  0.25500000920E-02 0. -1.
    10030    2    1    2    0    0  0.00000000000E+00  0.00000000000E+00 -0.44409947314E+03  0.28643138018E+04  0.28296765210E+04 0.  0.
        3    1    3    3  502    0 -0.53736542104E+02  0.10298390717E+04 -0.12025715191E+04  0.15841825647E+04  0.10100000352E+00 0. -1.
       -3    1    3    3    0  502  0.53736542104E+02 -0.10298390717E+04  0.75847204598E+03  0.12801312371E+04  0.10100000352E+00 0.  1.
</event>
<event>
 5   0  0.2635798E-06  0.3067290E+04  0.7818609E-02  0.8224773E-01
        1   -1    0    0  501    0  0.00000000000E+00  0.00000000000E+00  0.95924669515E+03  0.95924669517E+03  0.50400001928E-02 0.  1.
       -1   -1    0    0    0  501  0.00000000000E+00  0.00000000000E+00 -0.24519939436E+04  0.24519939436E+04  0.50400001928E-02 0. -1.
    10030    2    1    2    0    0  0.00000000000E+00  0.00000000000E+00 -0.14927472485E+04  0.34112406388E+04  0.30672900658E+04 0.  0.
        1    1    3    3  502    0 -0.59591910467E+03  0.13959340120E+04 -0.99083026237E+03  0.18125937090E+04  0.50400001928E-02 0.  1.
       -1    1    3    3    0  502  0.59591910467E+03 -0.13959340120E+04 -0.50191698609E+03  0.15986469298E+04  0.50400001928E-02 0. -1.
</event>
<event>
 5   0  0.7952307E-06  0.2621544E+04  0.7818609E-02  0.8360920E-01
        2   -1    0    0  501    0  0.00000000000E+00  0.00000000000E+00  0.21014807679E+04  0.21014807679E+04  0.25500000920E-02 0.  1.
       -2   -1    0    0    0  501  0.00000000000E+00  0.00000000000E+00 -0.81757724354E+03  0.81757724354E+03  0.25500000920E-02 0. -1.
    10030    2    1    2    0    0  0.00000000000E+00  0.00000000000E+00  0.12839035244E+04  0.29190580115E+04  0.26215437083E+04 0.  0.
        2    1    3    3  502    0  0.17130088276E+03 -0.55806988839E+03  0.19487414785E+04  0.20343007012E+04  0.25500000920E-02 0.  1.
       -2    1    3    3    0  502 -0.17130088276E+03  0.55806988839E+03 -0.66483795416E+03  0.88475731026E+03  0.25500000920E-02 0. -1.
</event>
<event>
 5   0  0.2933646E-06  0.3320177E+04  0.7818609E-02  0.8157780E-01
        1   -1    0    0  501    0  0.00000000000E+00  0.00000000000E+00  0.18750892695E+04  0.18750892695E+04  0.50400001928E-02 0.  1.
       -1   -1    0    0    0  501  0.00000000000E+00  0.00000000000E+00 -0.14697396279E+04  0.14697396279E+04  0.50400001928E-02 0. -1.
    10030    2    1    2    0    0  0.00000000000E+00  0.00000000000E+00  0.40534964157E+03  0.33448288975E+04  0.33201765046E+04 0.  0.
        2    1    3    3  502    0 -0.16803513894E+02 -0.13085544189E+04 -0.82632784927E+03  0.15477127446E+04  0.25500000920E-02 0. -1.
       -2    1    3    3    0  502  0.16803513894E+02  0.13085544189E+04  0.12316774908E+04  0.17971161528E+04  0.25500000920E-02 0.  1.
</event>
<event>
 5   0  0.7510251E-06  0.2815299E+04  0.7818609E-02  0.8298534E-01
       -2   -1    0    0    0  501  0.00000000000E+00  0.00000000000E+00  0.11115170244E+04  0.11115170244E+04  0.25500000920E-02 0. -1.
        2   -1    0    0  501    0  0.00000000000E+00  0.00000000000E+00 -0.17826787652E+04  0.17826787652E+04  0.25500000920E-02 0.  1.
    10030    2    1    2    0    0  0.00000000000E+00  0.00000000000E+00 -0.67116174073E+03  0.28941957896E+04  0.28152994843E+04 0.  0.
        3    1    3    3  502    0  0.13399370282E+04 -0.24148011232E+03  0.31833718397E+02  0.13618947390E+04  0.10100000352E+00 0. -1.
       -3    1    3    3    0  502 -0.13399370282E+04  0.24148011232E+03 -0.70299545913E+03  0.15323010507E+04  0.10100000352E+00 0.  1.
</event>
<event>
 5   0  0.8237664E-06  0.1836636E+04  0.7818609E-02  0.8687056E-01
        2   -1    0    0  501    0  0.00000000000E+00  0.00000000000E+00  0.10627479314E+04  0.10627479314E+04  0.25500000920E-02 0.  1.
       -2   -1    0    0    0  501  0.00000000000E+00  0.00000000000E+00 -0.79351620257E+03  0.79351620257E+03  0.25500000920E-02 0. -1.
    10030    2    1    2    0    0  0.00000000000E+00  0.00000000000E+00  0.26923172887E+03  0.18562641340E+04  0.18366357318E+04 0.  0.
        5    1    3    3  502    0  0.79999898427E+01  0.79256209092E+02 -0.79000549928E+03  0.79402539343E+03  0.46999998093E+01 0. -1.
       -5    1    3    3    0  502 -0.79999898427E+01 -0.79256209092E+02  0.10592372282E+04  0.10622387406E+04  0.46999998093E+01 0.  1.
</event>
<event>
 5   0  0.2933646E-06  0.3242112E+04  0.7818609E-02  0.8177783E-01
        1   -1    0    0  501    0  0.00000000000E+00  0.00000000000E+00  0.11908254146E+04  0.11908254146E+04  0.50400001928E-02 0.  1.
       -1   -1    0    0    0  501  0.00000000000E+00  0.00000000000E+00 -0.22067232803E+04  0.22067232803E+04  0.50400001928E-02 0. -1.
    10030    2    1    2    0    0  0.00000000000E+00  0.00000000000E+00 -0.10158978657E+04  0.33975486950E+04  0.32421117595E+04 0.  0.
        2    1    3    3  502    0 -0.17587890424E+03  0.67882062227E+02  0.11792983222E+04  0.11942721198E+04  0.25500000920E-02 0.  1.
       -2    1    3    3    0  502  0.17587890424E+03 -0.67882062227E+02 -0.21951961879E+04  0.22032765752E+04  0.25500000920E-02 0. -1.
</event>
<event>
 5   0  0.7510251E-06  0.3215178E+04  0.7818609E-02  0.8184820E-01
       -2   -1    0    0    0  501  0.00000000000E+00  0.00000000000E+00  0.10151533723E+04  0.10151533723E+04  0.25500000920E-02 0. -1.
        2   -1    0    0  501    0  0.00000000000E+00  0.00000000000E+00 -0.25457656492E+04  0.25457656492E+04  0.25500000920E-02 0.  1.
    10030    2    1    2    0    0  0.00000000000E+00  0.00000000000E+00 -0.15306122769E+04  0.35609190215E+04  0.32151781188E+04 0.  0.
        3    1    3    3  502    0 -0.76758971465E+03  0.73019317088E+03 -0.21044455016E+04  0.23560702274E+04  0.10100000352E+00 0.  1.
       -3    1    3    3    0  502  0.76758971465E+03 -0.73019317088E+03  0.57383322472E+03  0.12048487942E+04  0.10100000352E+00 0. -1.
</event>
<event>
 5   0  0.7971763E-06  0.3072932E+04  0.7818609E-02  0.8223206E-01
        2   -1    0    0  501    0  0.00000000000E+00  0.00000000000E+00  0.18465987820E+04  0.18465987820E+04  0.25500000920E-02 0.  1.
       -2   -1    0    0    0  501  0.00000000000E+00  0.00000000000E+00 -0.12784191451E+04  0.12784191451E+04  0.25500000920E-02 0. -1.
    10030    2    1    2    0    0  0.00000000000E+00  0.00000000000E+00  0.56817963688E+03  0.31250179272E+04  0.30729316532E+04 0.  0.
        1    1    3    3  502    0  0.47220677526E+03  0.14341197895E+04  0.57360537712E+03  0.16151476520E+04  0.50400001928E-02 0.  1.
       -1    1    3    3    0  502 -0.47220677526E+03 -0.14341197895E+04 -0.54257402450E+01  0.15098702752E+04  0.50400001928E-02 0. -1.
</event>
<event>
 5   0  0.4142886E-06  0.2826448E+04  0.7818609E-02  0.8295104E-01
        1   -1    0    0  501    0  0.00000000000E+00  0.00000000000E+00  0.15149691973E+04  0.15149691973E+04  0.50400001928E-02 0.  1.
       -1   -1    0    0    0  501  0.00000000000E+00  0.00000000000E+00 -0.13183119817E+04  0.13183119817E+04  0.50400001928E-02 0. -1.
    10030    2    1    2    0    0  0.00000000000E+00  0.00000000000E+00  0.19665721561E+03  0.28332811790E+04  0.28264479792E+04 0.  0.
        5    1    3    3  502    0  0.43348896254E+03 -0.58663065171E+03  0.13116811944E+04  0.15008590367E+04  0.46999998093E+01 0.  1.
       -5    1    3    3    0  502 -0.43348896254E+03  0.58663065171E+03 -0.11150239788E+04  0.13324221424E+04  0.46999998093E+01 0. -1.
</event>
<event>
 5   0  0.7510251E-06  0.3178305E+04  0.7818609E-02  0.8194570E-01
        2   -1    0    0  501    0  0.00000000000E+00  0.00000000000E+00  0.19095015876E+04  0.19095015876E+04  0.25500000920E-02 0.  1.
       -2   -1    0    0    0  501  0.00000000000E+00  0.00000000000E+00 -0.13225470025E+04  0.13225470025E+04  0.25500000920E-02 0. -1.
    10030    2    1    2    0    0  0.00000000000E+00  0.00000000000E+00  0.58695458503E+03  0.32320485901E+04  0.31783049576E+04 0.  0.
        3    1    3    3  502    0 -0.13840236314E+04 -0.71476638405E+03 -0.26474822932E+02  0.15579195494E+04  0.10100000352E+00 0. -1.
       -3    1    3    3    0  502  0.13840236314E+04  0.71476638405E+03  0.61342940796E+03  0.16741290407E+04  0.10100000352E+00 0.  1.
</event>
<event>
 5   0  0.3938696E-06  0.2446724E+04  0.7818609E-02  0.8422215E-01
        1   -1    0    0  501    0  0.00000000000E+00  0.00000000000E+00  0.13717308455E+04  0.13717308455E+04  0.50400001928E-02 0. -1.
       -1   -1    0    0    0  501  0.00000000000E+00  0.00000000000E+00 -0.10910414383E+04  0.10910414383E+04  0.50400001928E-02 0.  1.
    10030    2    1    2    0    0  0.00000000000E+00  0.00000000000E+00  0.28068940725E+03  0.24627722838E+04  0.24467244999E+04 0.  0.
        4    1    3    3  502    0  0.20828292694E+03  0.10212468065E+04  0.78508221722E+03  0.13048687743E+04  0.12699999809E+01 0. -1.
       -4    1    3    3    0  502 -0.20828292694E+03 -0.10212468065E+04 -0.50439280997E+03  0.11579035094E+04  0.12699999809E+01 0.  1.
</event>
<event>
 5   0  0.2635798E-06  0.3184211E+04  0.7818609E-02  0.8192999E-01
        1   -1    0    0  501    0  0.00000000000E+00  0.00000000000E+00  0.15647207076E+04  0.15647207076E+04  0.50400001928E-02 0.  1.
       -1   -1    0    0    0  501  0.00000000000E+00  0.00000000000E+00 -0.16199698920E+04  0.16199698920E+04  0.50400001928E-02 0. -1.
    10030    2    1    2    0    0  0.00000000000E+00  0.00000000000E+00 -0.55249184440E+02  0.31846905996E+04  0.31842113220E+04 0.  0.
        1    1    3    3  502    0  0.10666165426E+04  0.85669639230E+03  0.78686944651E+03  0.15782151575E+04  0.50400001928E-02 0.  1.
       -1    1    3    3    0  502 -0.10666165426E+04 -0.85669639230E+03 -0.84211863095E+03  0.16064754421E+04  0.50400001928E-02 0. -1.
</event>
<event>
 5   0  0.4142886E-06  0.2902265E+04  0.7818609E-02  0.8272204E-01
       -1   -1    0    0    0  501  0.00000000000E+00  0.00000000000E+00  0.14124436099E+04  0.14124436099E+04  0.50400001928E-02 0. -1.
        1   -1    0    0  501    0  0.00000000000E+00  0.00000000000E+00 -0.14908810410E+04  0.14908810410E+04  0.50400001928E-02 0.  1.
    10030    2    1    2    0    0  0.00000000000E+00  0.00000000000E+00 -0.78437431023E+02  0.29033246509E+04  0.29022649083E+04 0.  0.
        5    1    3    3  502    0  0.78998881015E+03 -0.49859725095E+03 -0.11500663370E+04  0.14816734486E+04  0.46999998093E+01 0.  1.
       -5    1    3    3    0  502 -0.78998881015E+03  0.49859725095E+03  0.10716289060E+04  0.14216512023E+04  0.46999998093E+01 0. -1.
</event>
<event>
 5   0  0.7941434E-06  0.3369925E+04  0.7818609E-02  0.8145327E-01
        2   -1    0    0  501    0  0.00000000000E+00  0.00000000000E+00  0.15494447939E+04  0.15494447939E+04  0.25500000920E-02 0. -1.
       -2   -1    0    0    0  501  0.00000000000E+00  0.00000000000E+00 -0.18323323966E+04  0.18323323966E+04  0.25500000920E-02 0.  1.
    10030    2    1    2    0    0  0.00000000000E+00  0.00000000000E+00 -0.28288760276E+03  0.33817771905E+04  0.33699245645E+04 0.  0.
        4    1    3    3  502    0 -0.68732462835E+03 -0.15109262690E+04  0.14902709262E+03  0.16665905383E+04  0.12699999809E+01 0. -1.
       -4    1    3    3    0  502  0.68732462835E+03  0.15109262690E+04 -0.43191469537E+03  0.17151866522E+04  0.12699999809E+01 0.  1.
</event>
<event>
 5   0  0.7941434E-06  0.3200114E+04  0.7818609E-02  0.8188787E-01
       -2   -1    0    0    0  501  0.00000000000E+00  0.00000000000E+00  0.70268955518E+03  0.70268955518E+03  0.25500000920E-02 0. -1.
        2   -1    0    0  501    0  0.00000000000E+00  0.00000000000E+00 -0.36434057344E+04  0.36434057344E+04  0.25500000920E-02 0.  1.
    10030    2    1    2    0    0  0.00000000000E+00  0.00000000000E+00 -0.29407161793E+04  0.43460952896E+04  0.32001144697E+04 0.  0.
        4    1    3    3  502    0 -0.93906655939E+03  0.42729297801E+03 -0.31313370975E+04  0.32969226444E+04  0.12699999809E+01 0.  1.
       -4    1    3    3    0  502  0.93906655939E+03 -0.42729297801E+03  0.19062091828E+03  0.10491726452E+04  0.12699999809E+01 0. -1.
</event>
<event>
 5   0  0.2933646E-06  0.3116430E+04  0.7818609E-02  0.8211243E-01
       -1   -1    0    0    0  501  0.00000000000E+00  0.00000000000E+00  0.28828372195E+04  0.28828372195E+04  0.50400001928E-02 0.  1.
        1   -1    0    0  501    0  0.00000000000E+00  0.00000000000E+00 -0.84223786411E+03  0.84223786413E+03  0.50400001928E-02 0. -1.
    10030    2    1    2    0    0  0.00000000000E+00  0.00000000000E+00  0.20405993554E+04  0.37250750837E+04  0.31164304339E+04 0.  0.
        2    1    3    3  502    0  0.76436813675E+03  0.59758744143E+03 -0.43711853080E+03  0.10641625856E+04  0.25500000920E-02 0. -1.
       -2    1    3    3    0  502 -0.76436813675E+03 -0.59758744143E+03  0.24777178862E+04  0.26609124980E+04  0.25500000920E-02 0.  1.
</event>
<event>
 5   0  0.4142886E-06  0.3237115E+04  0.7818609E-02  0.8179083E-01
        1   -1    0    0  501    0  0.00000000000E+00  0.00000000000E+00  0.14225467468E+04  0.14225467468E+04  0.50400001928E-02 0. -1.
       -1   -1    0    0    0  501  0.00000000000E+00  0.00000000000E+00 -0.18415768329E+04  0.18415768329E+04  0.50400001928E-02 0.  1.
    10030    2    1    2    0    0  0.00000000000E+00  0.00000000000E+00 -0.41903008606E+03  0.32641235798E+04  0.32371154646E+04 0.  0.
        5    1    3    3  502    0 -0.21737632919E+02  0.15672322734E+04  0.19760786722E+03  0.15797976081E+04  0.46999998093E+01 0. -1.
       -5    1    3    3    0  502  0.21737632919E+02 -0.15672322734E+04 -0.61663795328E+03  0.16843259717E+04  0.46999998093E+01 0.  1.
</event>
<event>
 5   0  0.4142886E-06  0.2881730E+04  0.7818609E-02  0.8278334E-01
        1   -1    0    0  501    0  0.00000000000E+00  0.00000000000E+00  0.16556482756E+04  0.16556482756E+04  0.50400001928E-02 0. -1.
       -1   -1    0    0    0  501  0.00000000000E+00  0.00000000000E+00 -0.12539451868E+04  0.12539451868E+04  0.50400001928E-02 0.  1.
    10030    2    1    2    0    0  0.00000000000E+00  0.00000000000E+00  0.40170308881E+03  0.29095934624E+04  0.28817301652E+04 0.  0.
        5    1    3    3  502    0 -0.93445397988E+02  0.12985928610E+04 -0.42236421919E+03  0.13687545743E+04  0.46999998093E+01 0.  1.
       -5    1    3    3    0  502  0.93445397988E+02 -0.12985928610E+04  0.82406730800E+03  0.15408388881E+04  0.46999998093E+01 0. -1.
</event>
<event>
 5   0  0.7952307E-06  0.1686433E+04  0.7818609E-02  0.8769140E-01
        2   -1    0    0  501    0  0.00000000000E+00  0.00000000000E+00  0.11499082502E+04  0.11499082502E+04  0.25500000920E-02 0.  1.
       -2   -1    0    0    0  501  0.00000000000E+00  0.00000000000E+00 -0.61832270418E+03  0.61832270418E+03  0.25500000920E-02 0. -1.
    10030    2    1    2    0    0  0.00000000000E+00  0.00000000000E+00  0.53158554601E+03  0.17682309544E+04  0.16864333711E+04 0.  0.
        2    1    3    3  502    0  0.50081019559E+03 -0.59060466228E+03 -0.84146141353E+02  0.77891289129E+03  0.25500000920E-02 0. -1.
       -2    1    3    3    0  502 -0.50081019559E+03  0.59060466228E+03  0.61573168736E+03  0.98931806308E+03  0.25500000920E-02 0.  1.
</event>
<event>
 5   0  0.7510251E-06  0.3137764E+04  0.7818609E-02  0.8205450E-01
       -2   -1    0    0    0  501  0.00000000000E+00  0.00000000000E+00  0.15083699766E+04  0.15083699766E+04  0.25500000920E-02 0. -1.
        2   -1    0    0  501    0  0.00000000000E+00  0.00000000000E+00 -0.16318219121E+04  0.16318219121E+04  0.25500000920E-02 0.  1.
    10030    2    1    2    0    0  0.00000000000E+00  0.00000000000E+00 -0.12345193554E+03  0.31401918887E+04  0.31377642865E+04 0.  0.
        3    1    3    3  502    0 -0.11883777062E+03  0.12121465769E+04  0.92796250407E+03  0.15311878261E+04  0.10100000352E+00 0. -1.
       -3    1    3    3    0  502  0.11883777062E+03 -0.12121465769E+04 -0.10514144396E+04  0.16090040627E+04  0.10100000352E+00 0.  1.
</event>
<event>
 5   0  0.7971763E-06  0.1704694E+04  0.7818609E-02  0.8758692E-01
       -2   -1    0    0    0  501  0.00000000000E+00  0.00000000000E+00  0.59188393039E+03  0.59188393040E+03  0.25500000920E-02 0.  1.
        2   -1    0    0  501    0  0.00000000000E+00  0.00000000000E+00 -0.12274289123E+04  0.12274289123E+04  0.25500000920E-02 0. -1.
    10030    2    1    2    0    0  0.00000000000E+00  0.00000000000E+00 -0.63554498187E+03  0.18193128427E+04  0.17046940475E+04 0.  0.
        1    1    3    3  502    0  0.50960395255E+03 -0.39807721562E+03  0.27484095596E+03  0.70263732405E+03  0.50400001928E-02 0.  1.
       -1    1    3    3    0  502 -0.50960395255E+03  0.39807721562E+03 -0.91038593783E+03  0.11166755186E+04  0.50400001928E-02 0. -1.
</event>
<event>
 5   0  0.7952307E-06  0.3198708E+04  0.7818609E-02  0.8189159E-01
       -2   -1    0    0    0  501  0.00000000000E+00  0.00000000000E+00  0.12256619135E+04  0.12256619135E+04  0.25500000920E-02 0.  1.
        2   -1    0    0  501    0  0.00000000000E+00  0.00000000000E+00 -0.20869807558E+04  0.20869807558E+04  0.25500000920E-02 0. -1.
    10030    2    1    2    0    0  0.00000000000E+00  0.00000000000E+00 -0.86131884224E+03  0.33126426693E+04  0.31987077557E+04 0.  0.
        2    1    3    3  502    0  0.13977028394E+03 -0.15893408233E+04 -0.54594778551E+03  0.16862974143E+04  0.25500000920E-02 0. -1.
       -2    1    3    3    0  502 -0.13977028394E+03  0.15893408233E+04 -0.31537105673E+03  0.16263452550E+04  0.25500000920E-02 0.  1.
</event>
<event>
 5   0  0.7510251E-06  0.3109175E+04  0.7818609E-02  0.8213224E-01
       -2   -1    0    0    0  501  0.00000000000E+00  0.00000000000E+00  0.16027591681E+04  0.16027591681E+04  0.25500000920E-02 0.  1.
        2   -1    0    0  501    0  0.00000000000E+00  0.00000000000E+00 -0.15078641080E+04  0.15078641080E+04  0.25500000920E-02 0. -1.
    10030    2    1    2    0    0  0.00000000000E+00  0.00000000000E+00  0.94895060094E+02  0.31106232761E+04  0.31091754684E+04 0.  0.
        3    1    3    3  502    0  0.34083465389E+03 -0.11190601816E+04  0.10717792951E+04  0.15865606887E+04  0.10100000352E+00 0.  1.
       -3    1    3    3    0  502 -0.34083465389E+03  0.11190601816E+04 -0.97688423503E+03  0.15240625874E+04  0.10100000352E+00 0. -1.
</event>
<event>
 5   0  0.4142886E-06  0.2468857E+04  0.7818609E-02  0.8414165E-01
        1   -1    0    0  501    0  0.00000000000E+00  0.00000000000E+00  0.16476312540E+04  0.16476312540E+04  0.50400001928E-02 0. -1.
       -1   -1    0    0    0  501  0.00000000000E+00  0.00000000000E+00 -0.92485111669E+03  0.92485111670E+03  0.50400001928E-02 0.  1.
    10030    2    1    2    0    0  0.00000000000E+00  0.00000000000E+00  0.72278013733E+03  0.25724823707E+04  0.24688569057E+04 0.  0.
        5    1    3    3  502    0 -0.79052154804E+03  0.36266073564E+03  0.12741396634E+04  0.15426928077E+04  0.46999998093E+01 0. -1.
       -5    1    3    3    0  502  0.79052154804E+03 -0.36266073564E+03 -0.55135952608E+03  0.10297895630E+04  0.46999998093E+01 0.  1.
</event>
<event>
 5   0  0.8237664E-06  0.3178328E+04  0.7818609E-02  0.8194564E-01
        2   -1    0    0  501    0  0.00000000000E+00  0.00000000000E+00  0.18982231188E+04  0.18982231188E+04  0.25500000920E-02 0. -1.
       -2   -1    0    0    0  501  0.00000000000E+00  0.00000000000E+00 -0.13304243148E+04  0.13304243148E+04  0.25500000920E-02 0.  1.
    10030    2    1    2    0    0  0.00000000000E+00  0.00000000000E+00  0.56779880401E+03  0.32286474335E+04  0.31783279831E+04 0.  0.
        5    1    3    3  502    0  0.25688170281E+03  0.70585453775E+02 -0.13075724781E+04  0.13344431015E+04  0.46999998093E+01 0.  1.
       -5    1    3    3    0  502 -0.25688170281E+03 -0.70585453775E+02  0.18753712822E+04  0.18942043320E+04  0.46999998093E+01 0. -1.
</event>
<event>
 5   0  0.2580875E-06  0.3211730E+04  0.7818609E-02  0.8185726E-01
       -3   -1    0    0    0  501  0.00000000000E+00  0.00000000000E+00  0.18983016628E+04  0.18983016655E+04  0.10100000352E+00 0.  1.
        3   -1    0    0  501    0  0.00000000000E+00  0.00000000000E+00 -0.13584789277E+04  0.13584789315E+04  0.10100000352E+00 0. -1.
    10030    2    1    2    0    0  0.00000000000E+00  0.00000000000E+00  0.53982273510E+03  0.32567805970E+04  0.32117302614E+04 0.  0.
        3    1    3    3  502    0  0.53830960524E+02  0.15863448068E+04  0.51708274699E+03  0.16693598161E+04  0.10100000352E+00 0.  1.
       -3    1    3    3    0  502 -0.53830960524E+02 -0.15863448068E+04  0.22739988119E+02  0.15874207809E+04  0.10100000352E+00 0. -1.
</event>
<event>
 5   0  0.2788054E-06  0.3258654E+04  0.7818609E-02  0.8173496E-01
        1   -1    0    0  501    0  0.00000000000E+00  0.00000000000E+00  0.87199803325E+03  0.87199803327E+03  0.50400001928E-02 0.  1.
       -1   -1    0    0    0  501  0.00000000000E+00  0.00000000000E+00 -0.30443958683E+04  0.30443958683E+04  0.50400001928E-02 0. -1.
    10030    2    1    2    0    0  0.00000000000E+00  0.00000000000E+00 -0.21723978351E+04  0.39163939016E+04  0.32586544522E+04 0.  0.
        3    1    3    3  502    0  0.18457549132E+03  0.13019594551E+04  0.70035273425E+02  0.13168414803E+04  0.10100000352E+00 0.  1.
       -3    1    3    3    0  502 -0.18457549132E+03 -0.13019594551E+04 -0.22424331085E+04  0.25995524213E+04  0.10100000352E+00 0. -1.
</event>
<event>
 5   0  0.7510251E-06  0.2837215E+04  0.7818609E-02  0.8291807E-01
        2   -1    0    0  501    0  0.00000000000E+00  0.00000000000E+00  0.20380265529E+04  0.20380265529E+04  0.25500000920E-02 0. -1.
       -2   -1    0    0    0  501  0.00000000000E+00  0.00000000000E+00 -0.98744896811E+03  0.98744896811E+03  0.25500000920E-02 0.  1.
    10030    2    1    2    0    0  0.00000000000E+00  0.00000000000E+00  0.10505775847E+04  0.30254755210E+04  0.28372149842E+04 0.  0.
        3    1    3    3  502    0  0.42130696930E+03  0.18645985395E+03 -0.90544689166E+03  0.10159236799E+04  0.10100000352E+00 0.  1.
       -3    1    3    3    0  502 -0.42130696930E+03 -0.18645985395E+03  0.19560244764E+04  0.20095518411E+04  0.10100000352E+00 0. -1.
</event>
<event>
 5   0  0.2635798E-06  0.3150875E+04  0.7818609E-02  0.8201913E-01
        1   -1    0    0  501    0  0.00000000000E+00  0.00000000000E+00  0.26903808416E+04  0.26903808416E+04  0.50400001928E-02 0. -1.
       -1   -1    0    0    0  501  0.00000000000E+00  0.00000000000E+00 -0.92254719366E+03  0.92254719368E+03  0.50400001928E-02 0.  1.
    10030    2    1    2    0    0  0.00000000000E+00  0.00000000000E+00  0.17678336479E+04  0.36129280352E+04  0.31508749866E+04 0.  0.
        1    1    3    3  502    0 -0.33803114606E+03  0.15385157641E+04  0.91441586585E+03  0.18213874349E+04  0.50400001928E-02 0.  1.
       -1    1    3    3    0  502  0.33803114606E+03 -0.15385157641E+04  0.85341778204E+03  0.17915406004E+04  0.50400001928E-02 0. -1.
</event>
<event>
 5   0  0.4142886E-06  0.2748328E+04  0.7818609E-02  0.8319492E-01
       -1   -1    0    0    0  501  0.00000000000E+00  0.00000000000E+00  0.12238658683E+04  0.12238658683E+04  0.50400001928E-02 0.  1.
        1   -1    0    0  501    0  0.00000000000E+00  0.00000000000E+00 -0.15429193559E+04  0.15429193559E+04  0.50400001928E-02 0. -1.
    10030    2    1    2    0    0  0.00000000000E+00  0.00000000000E+00 -0.31905348759E+03  0.27667852243E+04  0.27483277369E+04 0.  0.
        5    1    3    3  502    0  0.11752624359E+04 -0.43637742885E+03 -0.72601106044E+03  0.14487170888E+04  0.46999998093E+01 0. -1.
       -5    1    3    3    0  502 -0.11752624359E+04  0.43637742885E+03  0.40695757285E+03  0.13180681355E+04  0.46999998093E+01 0.  1.
</event>
<event>
 5   0  0.3938696E-06  0.3199623E+04  0.7818609E-02  0.8188917E-01
        1   -1    0    0  501    0  0.00000000000E+00  0.00000000000E+00  0.13737633526E+04  0.13737633526E+04  0.50400001928E-02 0.  1.
       -1   -1    0    0    0  501  0.00000000000E+00  0.00000000000E+00 -0.18630547142E+04  0.18630547142E+04  0.50400001928E-02 0. -1.
    10030    2    1    2    0    0  0.00000000000E+00  0.00000000000E+00 -0.48929136153E+03  0.32368180668E+04  0.31996226592E+04 0.  0.
        4    1    3    3  502    0  0.40620197883E+03 -0.12524618993E+04  0.67461685767E+03  0.14794493484E+04  0.12699999809E+01 0.  1.
       -4    1    3    3    0  502 -0.40620197883E+03  0.12524618993E+04 -0.11639082192E+04  0.17573687184E+04  0.12699999809E+01 0. -1.
</event>
<event>
 5   0  0.4142886E-06  0.2962855E+04  0.7818609E-02  0.8254418E-01
       -1   -1    0    0    0  501  0.00000000000E+00  0.00000000000E+00  0.13893057108E+04  0.13893057108E+04  0.50400001928E-02 0. -1.
        1   -1    0    0  501    0  0.00000000000E+00  0.00000000000E+00 -0.15796574390E+04  0.15796574390E+04  0.50400001928E-02 0.  1.
    10030    2    1    2    0    0  0.00000000000E+00  0.00000000000E+00 -0.19035172822E+03  0.29689631498E+04  0.29628547728E+04 0.  0.
        5    1    3    3  502    0  0.14725213413E+04 -0.15667683730E+03 -0.53397231706E+02  0.14818029850E+04  0.46999998093E+01 0. -1.
       -5    1    3    3    0  502 -0.14725213413E+04  0.15667683730E+03 -0.13695449651E+03  0.14871601649E+04  0.46999998093E+01 0.  1.
</event>
<event>
 5   0  0.7941434E-06  0.2044680E+04  0.7818609E-02  0.8586011E-01
        2   -1    0    0  501    0  0.00000000000E+00  0.00000000000E+00  0.13609569464E+04  0.13609569465E+04  0.25500000920E-02 0.  1.
       -2   -1    0    0    0  501  0.00000000000E+00  0.00000000000E+00 -0.76797393463E+03  0.76797393463E+03  0.25500000920E-02 0. -1.
    10030    2    1    2    0    0  0.00000000000E+00  0.00000000000E+00  0.59298301182E+03  0.21289308811E+04  0.20446803770E+04 0.  0.
        4    1    3    3  502    0 -0.27511915624E+03 -0.47174281415E+03 -0.60338049675E+03  0.81381906440E+03  0.12699999809E+01 0. -1.
       -4    1    3    3    0  502  0.27511915624E+03  0.47174281415E+03  0.11963635086E+04  0.13151118167E+04  0.12699999809E+01 0.  1.
</event>
<event>
 5   0  0.7971763E-06  0.3144518E+04  0.7818609E-02  0.8203625E-01
       -2   -1    0    0    0  501  0.00000000000E+00  0.00000000000E+00  0.13945518903E+04  0.13945518903E+04  0.25500000920E-02 0.  1.
        2   -1    0    0  501    0  0.00000000000E+00  0.00000000000E+00 -0.17726116690E+04  0.17726116690E+04  0.25500000920E-02 0. -1.
    10030    2    1    2    0    0  0.00000000000E+00  0.00000000000E+00 -0.37805977867E+03  0.31671635592E+04  0.31445183756E+04 0.  0.
        1    1    3    3  502    0 -0.42925499855E+03  0.14911555960E+04 -0.44422001935E+03  0.16140434600E+04  0.50400001928E-02 0.  1.
       -1    1    3    3    0  502  0.42925499855E+03 -0.14911555960E+04  0.66160240677E+02  0.15531200992E+04  0.50400001928E-02 0. -1.
</event>
<event>
 5   0  0.2635798E-06  0.1825678E+04  0.7818609E-02  0.8692762E-01
        1   -1    0    0  501    0  0.00000000000E+00  0.00000000000E+00  0.91317608809E+03  0.91317608811E+03  0.50400001928E-02 0.  1.
       -1   -1    0    0    0  501  0.00000000000E+00  0.00000000000E+00 -0.91250179628E+03  0.91250179629E+03  0.50400001928E-02 0. -1.
    10030    2    1    2    0    0  0.00000000000E+00  0.00000000000E+00  0.67429181725E+00  0.18256778844E+04  0.18256777599E+04 0.  0.
        1    1    3    3  502    0 -0.50486757496E+03  0.51507364550E+03  0.55987511144E+03  0.91304560071E+03  0.50400001928E-02 0.  1.
       -1    1    3    3    0  502  0.50486757496E+03 -0.51507364550E+03 -0.55920081962E+03  0.91263228369E+03  0.50400001928E-02 0. -1.
</event>
<event>
 5   0  0.7952307E-06  0.2934696E+04  0.7818609E-02  0.8262629E-01
       -2   -1    0    0    0  501  0.00000000000E+00  0.00000000000E+00  0.23974385576E+04  0.23974385576E+04  0.25500000920E-02 0.  1.
        2   -1    0    0  501    0  0.00000000000E+00  0.00000000000E+00 -0.89808790998E+03  0.89808790998E+03  0.25500000920E-02 0. -1.
    10030    2    1    2    0    0  0.00000000000E+00  0.00000000000E+00  0.14993506476E+04  0.32955264675E+04  0.29346962933E+04 0.  0.
        2    1    3    3  502    0  0.14002202057E+04 -0.36121337328E+03  0.47001972191E+03  0.15205296000E+04  0.25500000920E-02 0. -1.
       -2    1    3    3    0  502 -0.14002202057E+04  0.36121337328E+03  0.10293309257E+04  0.17749968676E+04  0.25500000920E-02 0.  1.
</event>
<event>
 5   0  0.4142886E-06  0.1963389E+04  0.7818609E-02  0.8623932E-01
        1   -1    0    0  501    0  0.00000000000E+00  0.00000000000E+00  0.21790268868E+04  0.21790268868E+04  0.50400001928E-02 0. -1.
       -1   -1    0    0    0  501  0.00000000000E+00  0.00000000000E+00 -0.44227253667E+03  0.44227253669E+03  0.50400001928E-02 0.  1.
    10030    2    1    2    0    0  0.00000000000E+00  0.00000000000E+00  0.17367543501E+04  0.26212994235E+04  0.19633886510E+04 0.  0.
        5    1    3    3  502    0  0.29222299470E+03 -0.90643893912E+03  0.55053662831E+03  0.11000629519E+04  0.46999998093E+01 0.  1.
       -5    1    3    3    0  502 -0.29222299470E+03  0.90643893912E+03  0.11862177218E+04  0.15212364716E+04  0.46999998093E+01 0. -1.
</event>
<event>
 5   0  0.7952307E-06  0.3259717E+04  0.7818609E-02  0.8173222E-01
        2   -1    0    0  501    0  0.00000000000E+00  0.00000000000E+00  0.27300581636E+04  0.27300581636E+04  0.25500000920E-02 0.  1.
       -2   -1    0    0    0  501  0.00000000000E+00  0.00000000000E+00 -0.97303352340E+03  0.97303352340E+03  0.25500000920E-02 0. -1.
    10030    2    1    2    0    0  0.00000000000E+00  0.00000000000E+00  0.17570246402E+04  0.37030916870E+04  0.32597166220E+04 0.  0.
        2    1    3    3  502    0 -0.15825513592E+04 -0.19620591681E+02  0.43621756518E+03  0.16416880143E+04  0.25500000920E-02 0. -1.
       -2    1    3    3    0  502  0.15825513592E+04  0.19620591681E+02  0.13208070750E+04  0.20614036726E+04  0.25500000920E-02 0.  1.
</event>
<event>
 5   0  0.3938696E-06  0.2800147E+04  0.7818609E-02  0.8303223E-01
        1   -1    0    0  501    0  0.00000000000E+00  0.00000000000E+00  0.12214477364E+04  0.12214477365E+04  0.50400001928E-02 0.  1.
       -1   -1    0    0    0  501  0.00000000000E+00  0.00000000000E+00 -0.16048217649E+04  0.16048217649E+04  0.50400001928E-02 0. -1.
    10030    2    1    2    0    0  0.00000000000E+00  0.00000000000E+00 -0.38337402844E+03  0.28262695013E+04  0.28001470762E+04 0.  0.
        4    1    3    3  502    0 -0.12808438340E+04  0.45559166329E+02 -0.76047565469E+03  0.14902890321E+04  0.12699999809E+01 0. -1.
       -4    1    3    3    0  502  0.12808438340E+04 -0.45559166329E+02  0.37710162625E+03  0.13359804693E+04  0.12699999809E+01 0.  1.
</event>
<event>
 5   0  0.3938696E-06  0.3226570E+04  0.7818609E-02  0.8181835E-01
        1   -1    0    0  501    0  0.00000000000E+00  0.00000000000E+00  0.14372224902E+04  0.14372224903E+04  0.50400001928E-02 0.  1.
       -1   -1    0    0    0  501  0.00000000000E+00  0.00000000000E+00 -0.18109151350E+04  0.18109151350E+04  0.50400001928E-02 0. -1.
    10030    2    1    2    0    0  0.00000000000E+00  0.00000000000E+00 -0.37369264475E+03  0.32481376252E+04  0.32265696707E+04 0.  0.
        4    1    3    3  502    0 -0.31543649619E+03 -0.91425180022E+03  0.11130362839E+04  0.14745195555E+04  0.12699999809E+01 0.  1.
       -4    1    3    3    0  502  0.31543649619E+03  0.91425180022E+03 -0.14867289286E+04  0.17736180698E+04  0.12699999809E+01 0. -1.
</event>
<event>
 5   0  0.3938696E-06  0.2634619E+04  0.7818609E-02  0.8356536E-01
       -1   -1    0    0    0  501  0.00000000000E+00  0.00000000000E+00  0.11306985769E+04  0.11306985769E+04  0.50400001928E-02 0.  1.
        1   -1    0    0  501    0  0.00000000000E+00  0.00000000000E+00 -0.15347192521E+04  0.15347192521E+04  0.50400001928E-02 0. -1.
    10030    2    1    2    0    0  0.00000000000E+00  0.00000000000E+00 -0.40402067515E+03  0.26654178290E+04  0.26346194217E+04 0.  0.
        4    1    3    3  502    0  0.11126051416E+04 -0.65654513600E+03 -0.46262908478E+03  0.13722131757E+04  0.12699999809E+01 0.  1.
       -4    1    3    3    0  502 -0.11126051416E+04  0.65654513600E+03  0.58608409623E+02  0.12932046533E+04  0.12699999809E+01 0. -1.
</event>
<event>
 5   0  0.7952307E-06  0.3155739E+04  0.7818609E-02  0.8200605E-01
       -2   -1    0    0    0  501  0.00000000000E+00  0.00000000000E+00  0.10613475517E+04  0.10613475517E+04  0.25500000920E-02 0.  1.
        2   -1    0    0  501    0  0.00000000000E+00  0.00000000000E+00 -0.23457645726E+04  0.23457645726E+04  0.25500000920E-02 0. -1.
    10030    2    1    2    0    0  0.00000000000E+00  0.00000000000E+00 -0.12844170209E+04  0.34071121244E+04  0.31557385735E+04 0.  0.
        2    1    3    3  502    0  0.74314223227E+03  0.80067711660E+03  0.58704861699E+03  0.12401493060E+04  0.25500000920E-02 0.  1.
       -2    1    3    3    0  502 -0.74314223227E+03 -0.80067711660E+03 -0.18714656379E+04  0.21669628184E+04  0.25500000920E-02 0. -1.
</event>
<event>
 5   0  0.8237664E-06  0.3174974E+04  0.7818609E-02  0.8195458E-01
        2   -1    0    0  501    0  0.00000000000E+00  0.00000000000E+00  0.14656791300E+04  0.14656791300E+04  0.25500000920E-02 0.  1.
       -2   -1    0    0    0  501  0.00000000000E+00  0.00000000000E+00 -0.17194173910E+04  0.17194173910E+04  0.25500000920E-02 0. -1.
    10030    2    1    2    0    0  0.00000000000E+00  0.00000000000E+00 -0.25373826101E+03  0.31850965210E+04  0.31749735028E+04 0.  0.
        5    1    3    3  502    0 -0.85473417001E+03  0.10351085610E+04 -0.97696214385E+03  0.16602702656E+04  0.46999998093E+01 0. -1.
       -5    1    3    3    0  502  0.85473417001E+03 -0.10351085610E+04  0.72322388285E+03  0.15248262554E+04  0.46999998093E+01 0.  1.
</event>
<event>
 5   0  0.8237664E-06  0.3120675E+04  0.7818609E-02  0.8210087E-01
        2   -1    0    0  501    0  0.00000000000E+00  0.00000000000E+00  0.17698002149E+04  0.17698002149E+04  0.25500000920E-02 0. -1.
       -2   -1    0    0    0  501  0.00000000000E+00  0.00000000000E+00 -0.13756653110E+04  0.13756653110E+04  0.25500000920E-02 0.  1.
    10030    2    1    2    0    0  0.00000000000E+00  0.00000000000E+00  0.39413490389E+03  0.31454655259E+04  0.31206747752E+04 0.  0.
        5    1    3    3  502    0 -0.48274146411E+03  0.16709584556E+03  0.16831168904E+04  0.17589385719E+04  0.46999998093E+01 0. -1.
       -5    1    3    3    0  502  0.48274146411E+03 -0.16709584556E+03 -0.12889819865E+04  0.13865269541E+04  0.46999998093E+01 0.  1.
</event>
<event>
 5   0  0.7941434E-06  0.3239228E+04  0.7818609E-02  0.8178533E-01
        2   -1    0    0  501    0  0.00000000000E+00  0.00000000000E+00  0.13904148043E+04  0.13904148043E+04  0.25500000920E-02 0. -1.
       -2   -1    0    0    0  501  0.00000000000E+00  0.00000000000E+00 -0.18865950588E+04  0.18865950588E+04  0.25500000920E-02 0.  1.
    10030    2    1    2    0    0  0.00000000000E+00  0.00000000000E+00 -0.49618025448E+03  0.32770098631E+04  0.32392281176E+04 0.  0.
        4    1    3    3  502    0 -0.15078578514E+04  0.53245051994E+03 -0.50800943981E+03  0.16778599643E+04  0.12699999809E+01 0.  1.
       -4    1    3    3    0  502  0.15078578514E+04 -0.53245051994E+03  0.11829185332E+02  0.15991498987E+04  0.12699999809E+01 0. -1.
</event>
<event>
 5   0  0.2635798E-06  0.3141969E+04  0.7818609E-02  0.8204313E-01
        1   -1    0    0  501    0  0.00000000000E+00  0.00000000000E+00  0.19366250879E+04  0.19366250879E+04  0.50400001928E-02 0.  1.
       -1   -1    0    0    0  501  0.00000000000E+00  0.00000000000E+00 -0.12743782854E+04  0.12743782855E+04  0.50400001928E-02 0. -1.
    10030    2    1    2    0    0  0.00000000000E+00  0.00000000000E+00  0.66224680244E+03  0.32110033733E+04  0.31419694200E+04 0.  0.
        1    1    3    3  502    0  0.12302360040E+04  0.93215334112E+03  0.63013083567E+03  0.16671698615E+04  0.50400001928E-02 0. -1.
       -1    1    3    3    0  502 -0.12302360040E+04 -0.93215334112E+03  0.32115966768E+02  0.15438335118E+04  0.50400001928E-02 0.  1.
</event>
<event>
 5   0  0.2933646E-06  0.3260111E+04  0.7818609E-02  0.8173120E-01
        1   -1    0    0  501    0  0.00000000000E+00  0.00000000000E+00  0.31706569334E+04  0.31706569334E+04  0.50400001928E-02 0.  1.
       -1   -1    0    0    0  501  0.00000000000E+00  0.00000000000E+00 -0.83802195754E+03  0.83802195755E+03  0.50400001928E-02 0. -1.
    10030    2    1    2    0    0  0.00000000000E+00  0.00000000000E+00  0.23326349759E+04  0.40086788910E+04  0.32601105074E+04 0.  0.
        2    1    3    3  502    0  0.10595080106E+04 -0.78676894573E+03  0.23428455228E+04  0.26889566271E+04  0.25500000920E-02 0.  1.
       -2    1    3    3    0  502 -0.10595080106E+04  0.78676894573E+03 -0.10210546951E+02  0.13197222639E+04  0.25500000920E-02 0. -1.
</event>
<event>
 5   0  0.7952307E-06  0.2683164E+04  0.7818609E-02  0.8340488E-01
        2   -1    0    0  501    0  0.00000000000E+00  0.00000000000E+00  0.18972354424E+04  0.18972354424E+04  0.25500000920E-02 0. -1.
       -2   -1    0    0    0  501  0.00000000000E+00  0.00000000000E+00 -0.94866564086E+03  0.94866564086E+03  0.25500000920E-02 0.  1.
    10030    2    1    2    0    0  0.00000000000E+00  0.00000000000E+00  0.94856980159E+03  0.28459010833E+04  0.26831638615E+04 0.  0.
        2    1    3    3  502    0  0.37487036280E+03 -0.10772758609E+04 -0.27480149969E+03  0.11732718924E+04  0.25500000920E-02 0. -1.
       -2    1    3    3    0  502 -0.37487036280E+03  0.10772758609E+04  0.12233713013E+04  0.16726291909E+04  0.25500000920E-02 0.  1.
</event>
<event>
 5   0  0.2933646E-06  0.3061001E+04  0.7818609E-02  0.8226523E-01
       -1   -1    0    0    0  501  0.00000000000E+00  0.00000000000E+00  0.13613619397E+04  0.13613619397E+04  0.50400001928E-02 0. -1.
        1   -1    0    0  501    0  0.00000000000E+00  0.00000000000E+00 -0.17206535257E+04  0.17206535257E+04  0.50400001928E-02 0.  1.
    10030    2    1    2    0    0  0.00000000000E+00  0.00000000000E+00 -0.35929158592E+03  0.30820154654E+04  0.30610012880E+04 0.  0.
        2    1    3    3  502    0  0.56281353731E+03  0.13965215275E+04  0.96831317965E+02  0.15087769082E+04  0.25500000920E-02 0. -1.
       -2    1    3    3    0  502 -0.56281353731E+03 -0.13965215275E+04 -0.45612290388E+03  0.15732385572E+04  0.25500000920E-02 0.  1.
</event>
<event>
 5   0  0.7510251E-06  0.2135739E+04  0.7818609E-02  0.8545662E-01
        2   -1    0    0  501    0  0.00000000000E+00  0.00000000000E+00  0.15048239282E+04  0.15048239282E+04  0.25500000920E-02 0.  1.
       -2   -1    0    0    0  501  0.00000000000E+00  0.00000000000E+00 -0.75779280629E+03  0.75779280630E+03  0.25500000920E-02 0. -1.
    10030    2    1    2    0    0  0.00000000000E+00  0.00000000000E+00  0.74703112187E+03  0.22626167345E+04  0.21357385116E+04 0.  0.
        3    1    3    3  502    0 -0.41399445128E+03  0.20631718937E+03 -0.64615301678E+03  0.79465207457E+03  0.10100000352E+00 0. -1.
       -3    1    3    3    0  502  0.41399445128E+03 -0.20631718937E+03  0.13931841387E+04  0.14679646599E+04  0.10100000352E+00 0.  1.
</event>
<event>
 5   0  0.8237664E-06  0.3180227E+04  0.7818609E-02  0.8194059E-01
        2   -1    0    0  501    0  0.00000000000E+00  0.00000000000E+00  0.16264384097E+04  0.16264384097E+04  0.25500000920E-02 0.  1.
       -2   -1    0    0    0  501  0.00000000000E+00  0.00000000000E+00 -0.15545997993E+04  0.15545997993E+04  0.25500000920E-02 0. -1.
    10030    2    1    2    0    0  0.00000000000E+00  0.00000000000E+00  0.71838610384E+02  0.31810382090E+04  0.31802269261E+04 0.  0.
        5    1    3    3  502    0 -0.11231248995E+03 -0.15834909951E+04 -0.55651350296E+02  0.15884511291E+04  0.46999998093E+01 0.  1.
       -5    1    3    3    0  502  0.11231248995E+03  0.15834909951E+04  0.12748996068E+03  0.15925870799E+04  0.46999998093E+01 0. -1.
</event>
<event>
 5   0  0.2580875E-06  0.3129168E+04  0.7818609E-02  0.8207778E-01
       -3   -1    0    0    0  501  0.00000000000E+00  0.00000000000E+00  0.18471029937E+04  0.18471029964E+04  0.10100000352E+00 0.  1.
        3   -1    0    0  501    0  0.00000000000E+00  0.00000000000E+00 -0.13252767311E+04  0.13252767349E+04  0.10100000352E+00 0. -1.
    10030    2    1    2    0    0  0.00000000000E+00  0.00000000000E+00  0.52182626256E+03  0.31723797314E+04  0.31291677027E+04 0.  0.
        4    1    3    3  502    0  0.57411946978E+03 -0.54465044143E+02 -0.12135929323E+04  0.13436476565E+04  0.12699999809E+01 0. -1.
       -4    1    3    3    0  502 -0.57411946978E+03  0.54465044143E+02  0.17354191949E+04  0.18287320748E+04  0.12699999809E+01 0.  1.
</event>
<event>
 5   0  0.2788054E-06  0.3679770E+04  0.7818609E-02  0.8072460E-01
        1   -1    0    0  501    0  0.00000000000E+00  0.00000000000E+00  0.19409751749E+04  0.19409751749E+04  0.50400001928E-02 0.  1.
       -1   -1    0    0    0  501  0.00000000000E+00  0.00000000000E+00 -0.17440594475E+04  0.17440594475E+04  0.50400001928E-02 0. -1.
    10030    2    1    2    0    0  0.00000000000E+00  0.00000000000E+00  0.19691572747E+03  0.36850346224E+04  0.36797696076E+04 0.  0.
        3    1    3    3  502    0  0.17604923224E+04  0.53173204886E+03  0.42665566294E+02  0.18395359604E+04  0.10100000352E+00 0. -1.
       -3    1    3    3    0  502 -0.17604923224E+04 -0.53173204886E+03  0.15425016117E+03  0.18454986620E+04  0.10100000352E+00 0.  1.
</event>
<event>
 5   0  0.7510251E-06  0.3053457E+04  0.7818609E-02  0.8228629E-01
       -2   -1    0    0    0  501  0.00000000000E+00  0.00000000000E+00  0.10627853025E+04  0.10627853025E+04  0.25500000920E-02 0. -1.
        2   -1    0    0  501    0  0.00000000000E+00  0.00000000000E+00 -0.21931992298E+04  0.21931992298E+04  0.25500000920E-02 0.  1.
    10030    2    1    2    0    0  0.00000000000E+00  0.00000000000E+00 -0.11304139273E+04  0.32559845322E+04  0.30534569961E+04 0.  0.
        3    1    3    3  502    0 -0.41611474499E+03 -0.14689103327E+04 -0.57281086081E+03  0.16306321900E+04  0.10100000352E+00 0. -1.
       -3    1    3    3    0  502  0.41611474499E+03  0.14689103327E+04 -0.55760306651E+03  0.16253523423E+04  0.10100000352E+00 0.  1.
</event>
<event>
 5   0  0.7971763E-06  0.1845988E+04  0.7818609E-02  0.8682219E-01
        2   -1    0    0  501    0  0.00000000000E+00  0.00000000000E+00  0.22722371881E+04  0.22722371881E+04  0.25500000920E-02 0. -1.
       -2   -1    0    0    0  501  0.00000000000E+00  0.00000000000E+00 -0.37492482160E+03  0.37492482160E+03  0.25500000920E-02 0.  1.
    10030    2    1    2    0    0  0.00000000000E+00  0.00000000000E+00  0.18973123665E+04  0.26471620097E+04  0.18459882149E+04 0.  0.
        1    1    3    3  502    0 -0.35284284437E+03  0.57348373616E+03  0.43370559851E+02  0.67473155695E+03  0.50400001928E-02 0.  1.
       -1    1    3    3    0  502  0.35284284437E+03 -0.57348373616E+03  0.18539418067E+04  0.19724304528E+04  0.50400001928E-02 0. -1.
</event>
<event>
 5   0  0.7971763E-06  0.2347976E+04  0.7818609E-02  0.8459241E-01
       -2   -1    0    0    0  501  0.00000000000E+00  0.00000000000E+00  0.13082746511E+04  0.13082746511E+04  0.25500000920E-02 0. -1.
        2   -1    0    0  501    0  0.00000000000E+00  0.00000000000E+00 -0.10534850230E+04  0.10534850230E+04  0.25500000920E-02 0.  1.
    10030    2    1    2    0    0  0.00000000000E+00  0.00000000000E+00  0.25478962814E+03  0.23617596741E+04  0.23479759377E+04 0.  0.
        1    1    3    3  502    0  0.36821092076E+03  0.10621868492E+04  0.46765206698E+03  0.12175872209E+04  0.50400001928E-02 0. -1.
       -1    1    3    3    0  502 -0.36821092076E+03 -0.10621868492E+04 -0.21286243883E+03  0.11441724532E+04  0.50400001928E-02 0.  1.
</event>
<event>
 5   0  0.7952307E-06  0.3083613E+04  0.7818609E-02  0.8220250E-01
        2   -1    0    0  501    0  0.00000000000E+00  0.00000000000E+00  0.26035434552E+04  0.26035434552E+04  0.25500000920E-02 0. -1.
       -2   -1    0    0    0  501  0.00000000000E+00  0.00000000000E+00 -0.91305085511E+03  0.91305085512E+03  0.25500000920E-02 0.  1.
    10030    2    1    2    0    0  0.00000000000E+00  0.00000000000E+00  0.16904926000E+04  0.35165943103E+04  0.30836131911E+04 0.  0.
        2    1    3    3  502    0  0.28499693649E+03 -0.89212373304E+03  0.22419896977E+04  0.24297378075E+04  0.25500000920E-02 0. -1.
       -2    1    3    3    0  502 -0.28499693649E+03  0.89212373304E+03 -0.55149709763E+03  0.10868565027E+04  0.25500000920E-02 0.  1.
</event>
<event>
 5   0  0.2635798E-06  0.3087197E+04  0.7818609E-02  0.8219260E-01
        1   -1    0    0  501    0  0.00000000000E+00  0.00000000000E+00  0.17723050190E+04  0.17723050190E+04  0.50400001928E-02 0.  1.
       -1   -1    0    0    0  501  0.00000000000E+00  0.00000000000E+00 -0.13444057065E+04  0.13444057065E+04  0.50400001928E-02 0. -1.
    10030    2    1    2    0    0  0.00000000000E+00  0.00000000000E+00  0.42789931249E+03  0.31167107256E+04  0.30871974225E+04 0.  0.
        1    1    3    3  502    0  0.28515406447E+03  0.84854751933E+03  0.14834892952E+04  0.17326529433E+04  0.50400001928E-02 0.  1.
       -1    1    3    3    0  502 -0.28515406447E+03 -0.84854751933E+03 -0.10555899827E+04  0.13840577823E+04  0.50400001928E-02 0. -1.
</event>
<event>
 5   0  0.7971763E-06  0.3229559E+04  0.7818609E-02  0.8181054E-01
        2   -1    0    0  501    0  0.00000000000E+00  0.00000000000E+00  0.20777388694E+04  0.20777388694E+04  0.25500000920E-02 0. -1.
       -2   -1    0    0    0  501  0.00000000000E+00  0.00000000000E+00 -0.12549763260E+04  0.12549763260E+04  0.25500000920E-02 0.  1.
    10030    2    1    2    0    0  0.00000000000E+00  0.00000000000E+00  0.82276254339E+03  0.33327151953E+04  0.32295591604E+04 0.  0.
        1    1    3    3  502    0 -0.12922691049E+04  0.31023730835E+02  0.14100696343E+04  0.19129083316E+04  0.50400001928E-02 0. -1.
       -1    1    3    3    0  502  0.12922691049E+04 -0.31023730835E+02 -0.58730709095E+03  0.14198068638E+04  0.50400001928E-02 0.  1.
</event>
<event>
 5   0  0.7941434E-06  0.3414418E+04  0.7818609E-02  0.8134377E-01
       -2   -1    0    0    0  501  0.00000000000E+00  0.00000000000E+00  0.17790117408E+04  0.17790117408E+04  0.25500000920E-02 0.  1.
        2   -1    0    0  501    0  0.00000000000E+00  0.00000000000E+00 -0.16383043051E+04  0.16383043051E+04  0.25500000920E-02 0. -1.
    10030    2    1    2    0    0  0.00000000000E+00  0.00000000000E+00  0.14070743571E+03  0.34173160459E+04  0.34144180141E+04 0.  0.
        4    1    3    3  502    0  0.10360451591E+04  0.10059077140E+04  0.98179733744E+03  0.17461865666E+04  0.12699999809E+01 0.  1.
       -4    1    3    3    0  502 -0.10360451591E+04 -0.10059077140E+04 -0.84108990173E+03  0.16711294793E+04  0.12699999809E+01 0. -1.
</event>
<event>
 5   0  0.7510251E-06  0.3269677E+04  0.7818609E-02  0.8170654E-01
        2   -1    0    0  501    0  0.00000000000E+00  0.00000000000E+00  0.20354599423E+04  0.20354599423E+04  0.25500000920E-02 0. -1.
       -2   -1    0    0    0  501  0.00000000000E+00  0.00000000000E+00 -0.13130676549E+04  0.13130676549E+04  0.25500000920E-02 0.  1.
    10030    2    1    2    0    0  0.00000000000E+00  0.00000000000E+00  0.72239228737E+03  0.33485275971E+04  0.32696768115E+04 0.  0.
        3    1    3    3  502    0  0.12056710248E+04 -0.67065112618E+03  0.12594344506E+04  0.18680446190E+04  0.10100000352E+00 0. -1.
       -3    1    3    3    0  502 -0.12056710248E+04  0.67065112618E+03 -0.53704216320E+03  0.14804829781E+04  0.10100000352E+00 0.  1.
</event>
<event>
 5   0  0.4142886E-06  0.3232235E+04  0.7818609E-02  0.8180355E-01
        1   -1    0    0  501    0  0.00000000000E+00  0.00000000000E+00  0.16166475999E+04  0.16166475999E+04  0.50400001928E-02 0.  1.
       -1   -1    0    0    0  501  0.00000000000E+00  0.00000000000E+00 -0.16155876614E+04  0.16155876614E+04  0.50400001928E-02 0. -1.
    10030    2    1    2    0    0  0.00000000000E+00  0.00000000000E+00  0.10599385547E+01  0.32322352613E+04  0.32322350875E+04 0.  0.
        5    1    3    3  502    0  0.32185861752E+03 -0.87283672932E+03  0.13220355831E+04  0.16165509886E+04  0.46999998093E+01 0.  1.
       -5    1    3    3    0  502 -0.32185861752E+03  0.87283672932E+03 -0.13209756445E+04  0.16156842727E+04  0.46999998093E+01 0. -1.
</event>
<event>
 5   0  0.2933646E-06  0.3183426E+04  0.7818609E-02  0.8193208E-01
       -1   -1    0    0    0  501  0.00000000000E+00  0.00000000000E+00  0.11228792219E+04  0.11228792219E+04  0.50400001928E-02 0.  1.
        1   -1    0    0  501    0  0.00000000000E+00  0.00000000000E+00 -0.22562979688E+04  0.22562979688E+04  0.50400001928E-02 0. -1.
    10030    2    1    2    0    0  0.00000000000E+00  0.00000000000E+00 -0.11334187470E+04  0.33791771907E+04  0.31834258952E+04 0.  0.
        2    1    3    3  502    0  0.14002695571E+04  0.43013540786E+03  0.94300969261E+02  0.14678773704E+04  0.25500000920E-02 0.  1.
       -2    1    3    3    0  502 -0.14002695571E+04 -0.43013540786E+03 -0.12277197162E+04  0.19112998203E+04  0.25500000920E-02 0. -1.
</event>
<event>
 5   0  0.7971763E-06  0.1836170E+04  0.7818609E-02  0.8687298E-01
       -2   -1    0    0    0  501  0.00000000000E+00  0.00000000000E+00  0.45218418025E+03  0.45218418026E+03  0.25500000920E-02 0. -1.
        2   -1    0    0  501    0  0.00000000000E+00  0.00000000000E+00 -0.18640192791E+04  0.18640192791E+04  0.25500000920E-02 0.  1.
    10030    2    1    2    0    0  0.00000000000E+00  0.00000000000E+00 -0.14118350988E+04  0.23162034593E+04  0.18361699591E+04 0.  0.
        1    1    3    3  502    0 -0.21002641366E+03 -0.25484079108E+03 -0.17865054770E+04  0.18167709659E+04  0.50400001928E-02 0.  1.
       -1    1    3    3    0  502  0.21002641366E+03  0.25484079108E+03  0.37467037814E+03  0.49943249345E+03  0.50400001928E-02 0. -1.
</event>
<event>
 5   0  0.7941434E-06  0.2998564E+04  0.7818609E-02  0.8244141E-01
        2   -1    0    0  501    0  0.00000000000E+00  0.00000000000E+00  0.15627297948E+04  0.15627297948E+04  0.25500000920E-02 0. -1.
       -2   -1    0    0    0  501  0.00000000000E+00  0.00000000000E+00 -0.14384104226E+04  0.14384104226E+04  0.25500000920E-02 0.  1.
    10030    2    1    2    0    0  0.00000000000E+00  0.00000000000E+00  0.12431937223E+03  0.30011402174E+04  0.29985642062E+04 0.  0.
        4    1    3    3  502    0  0.21857382128E+03 -0.13458076861E+04 -0.56197235255E+03  0.14747160341E+04  0.12699999809E+01 0.  1.
       -4    1    3    3    0  502 -0.21857382128E+03  0.13458076861E+04  0.68629172478E+03  0.15264241834E+04  0.12699999809E+01 0. -1.
</event>
<event>
 5   0  0.7510251E-06  0.3183272E+04  0.7818609E-02  0.8193249E-01
       -2   -1    0    0    0  501  0.00000000000E+00  0.00000000000E+00  0.11896701465E+04  0.11896701465E+04  0.25500000920E-02 0. -1.
        2   -1    0    0  501    0  0.00000000000E+00  0.00000000000E+00 -0.21294180802E+04  0.21294180802E+04  0.25500000920E-02 0.  1.
    10030    2    1    2    0    0  0.00000000000E+00  0.00000000000E+00 -0.93974793371E+03  0.33190882268E+04  0.31832719768E+04 0.  0.
        3    1    3    3  502    0  0.90080191495E+03 -0.12337271814E+04 -0.38382896068E+01  0.15275933984E+04  0.10100000352E+00 0.  1.
       -3    1    3    3    0  502 -0.90080191495E+03  0.12337271814E+04 -0.93590964410E+03  0.17914948284E+04  0.10100000352E+00 0. -1.
</event>
<event>
 5   0  0.2788054E-06  0.3196367E+04  0.7818609E-02  0.8189777E-01
        1   -1    0    0  501    0  0.00000000000E+00  0.00000000000E+00  0.14076361043E+04  0.14076361043E+04  0.50400001928E-02 0. -1.
       -1   -1    0    0    0  501  0.00000000000E+00  0.00000000000E+00 -0.18145250190E+04  0.18145250190E+04  0.50400001928E-02 0.  1.
    10030    2    1    2    0    0  0.00000000000E+00  0.00000000000E+00 -0.40688891471E+03  0.32221611233E+04  0.31963672685E+04 0.  0.
        3    1    3    3  502    0  0.96598681380E+03 -0.11051080278E+04 -0.84084165415E+03  0.16915699735E+04  0.10100000352E+00 0.  1.
       -3    1    3    3    0  502 -0.96598681380E+03  0.11051080278E+04  0.43395273944E+03  0.15305911498E+04  0.10100000352E+00 0. -1.
</event>
<event>
 5   0  0.7952307E-06  0.3230761E+04  0.7818609E-02  0.8180740E-01
        2   -1    0    0  501    0  0.00000000000E+00  0.00000000000E+00  0.25792267267E+04  0.25792267268E+04  0.25500000920E-02 0. -1.
       -2   -1    0    0    0  501  0.00000000000E+00  0.00000000000E+00 -0.10117197265E+04  0.10117197265E+04  0.25500000920E-02 0.  1.
    10030    2    1    2    0    0  0.00000000000E+00  0.00000000000E+00  0.15675070003E+04  0.35909464532E+04  0.32307612468E+04 0.  0.
        2    1    3    3  502    0 -0.95389539079E+03  0.98782485988E+03  0.17293272534E+04  0.22082316726E+04  0.25500000920E-02 0. -1.
       -2    1    3    3    0  502  0.95389539079E+03 -0.98782485988E+03 -0.16182025312E+03  0.13827147807E+04  0.25500000920E-02 0.  1.
</event>
<event>
 5   0  0.2635798E-06  0.3313964E+04  0.7818609E-02  0.8159351E-01
       -1   -1    0    0    0  501  0.00000000000E+00  0.00000000000E+00  0.11432414742E+04  0.11432414742E+04  0.50400001928E-02 0.  1.
        1   -1    0    0  501    0  0.00000000000E+00  0.00000000000E+00 -0.24015833116E+04  0.24015833116E+04  0.50400001928E-02 0. -1.
    10030    2    1    2    0    0  0.00000000000E+00  0.00000000000E+00 -0.12583418374E+04  0.35448247857E+04  0.33139641793E+04 0.  0.
        1    1    3    3  502    0 -0.12084626903E+04  0.97485338385E+03 -0.10180280208E+02  0.15526831074E+04  0.50400001928E-02 0.  1.
       -1    1    3    3    0  502  0.12084626903E+04 -0.97485338385E+03 -0.12481615572E+04  0.19921416784E+04  0.50400001928E-02 0. -1.
</event>
<event>
 5   0  0.2933646E-06  0.3176654E+04  0.7818609E-02  0.8195010E-01
        1   -1    0    0  501    0  0.00000000000E+00  0.00000000000E+00  0.19842207983E+04  0.19842207983E+04  0.50400001928E-02 0.  1.
       -1   -1    0    0    0  501  0.00000000000E+00  0.00000000000E+00 -0.12714223252E+04  0.12714223252E+04  0.50400001928E-02 0. -1.
    10030    2    1    2    0    0  0.00000000000E+00  0.00000000000E+00  0.71279847312E+03  0.32556431235E+04  0.31766539761E+04 0.  0.
        2    1    3    3  502    0 -0.94158171593E+03  0.19478559129E+03  0.16520599339E+04  0.19114966857E+04  0.25500000920E-02 0.  1.
       -2    1    3    3    0  502  0.94158171593E+03 -0.19478559129E+03 -0.93926146078E+03  0.13441464377E+04  0.25500000920E-02 0. -1.
</event>
<event>
 5   0  0.8237664E-06  0.2609373E+04  0.7818609E-02  0.8365024E-01
        2   -1    0    0  501    0  0.00000000000E+00  0.00000000000E+00  0.22854554468E+04  0.22854554468E+04  0.25500000920E-02 0.  1.
       -2   -1    0    0    0  501  0.00000000000E+00  0.00000000000E+00 -0.74480000986E+03  0.74480000986E+03  0.25500000920E-02 0. -1.
    10030    2    1    2    0    0  0.00000000000E+00  0.00000000000E+00  0.15406554370E+04  0.30302554567E+04  0.26093732882E+04 0.  0.
        5    1    3    3  502    0  0.31260701523E+03  0.81827689523E+03 -0.35252322531E+03  0.94424305007E+03  0.46999998093E+01 0. -1.
       -5    1    3    3    0  502 -0.31260701523E+03 -0.81827689523E+03  0.18931786623E+04  0.20860124066E+04  0.46999998093E+01 0.  1.
</event>
<event>
 5   0  0.2635798E-06  0.3180584E+04  0.7818609E-02  0.8193964E-01
        1   -1    0    0  501    0  0.00000000000E+00  0.00000000000E+00  0.17083828003E+04  0.17083828003E+04  0.50400001928E-02 0.  1.
       -1   -1    0    0    0  501  0.00000000000E+00  0.00000000000E+00 -0.14803644306E+04  0.14803644306E+04  0.50400001928E-02 0. -1.
    10030    2    1    2    0    0  0.00000000000E+00  0.00000000000E+00  0.22801836973E+03  0.31887472309E+04  0.31805843057E+04 0.  0.
        1    1    3    3  502    0 -0.27227010217E+03  0.81660893447E+03 -0.12266017762E+04  0.14985102862E+04  0.50400001928E-02 0. -1.
       -1    1    3    3    0  502  0.27227010217E+03 -0.81660893447E+03  0.14546201459E+04  0.16902369447E+04  0.50400001928E-02 0.  1.
</event>
<event>
 5   0  0.7941434E-06  0.3074489E+04  0.7818609E-02  0.8222774E-01
        2   -1    0    0  501    0  0.00000000000E+00  0.00000000000E+00  0.21540124153E+04  0.21540124153E+04  0.25500000920E-02 0. -1.
       -2   -1    0    0    0  501  0.00000000000E+00  0.00000000000E+00 -0.10970786361E+04  0.10970786361E+04  0.25500000920E-02 0.  1.
    10030    2    1    2    0    0  0.00000000000E+00  0.00000000000E+00  0.10569337792E+04  0.32510910515E+04  0.30744892277E+04 0.  0.
        4    1    3    3  502    0 -0.54615297163E+03  0.93838064580E+03 -0.62228846234E+03  0.12514335172E+04  0.12699999809E+01 0.  1.
       -4    1    3    3    0  502  0.54615297163E+03 -0.93838064580E+03  0.16792222415E+04  0.19996575342E+04  0.12699999809E+01 0. -1.
</event>
<event>
 5   0  0.7510251E-06  0.3375686E+04  0.7818609E-02  0.8143900E-01
        2   -1    0    0  501    0  0.00000000000E+00  0.00000000000E+00  0.16071644792E+04  0.16071644792E+04  0.25500000920E-02 0. -1.
       -2   -1    0    0    0  501  0.00000000000E+00  0.00000000000E+00 -0.17725716279E+04  0.17725716279E+04  0.25500000920E-02 0.  1.
    10030    2    1    2    0    0  0.00000000000E+00  0.00000000000E+00 -0.16540714874E+03  0.33797361072E+04  0.33756860975E+04 0.  0.
        3    1    3    3  502    0  0.14410331552E+04  0.83842603964E+03  0.18082195698E+03  0.16769708908E+04  0.10100000352E+00 0. -1.
       -3    1    3    3    0  502 -0.14410331552E+04 -0.83842603964E+03 -0.34622910572E+03  0.17027652164E+04  0.10100000352E+00 0.  1.
</event>
<event>
 5   0  0.7510251E-06  0.3202433E+04  0.7818609E-02  0.8188175E-01
       -2   -1    0    0    0  501  0.00000000000E+00  0.00000000000E+00  0.12950952993E+04  0.12950952993E+04  0.25500000920E-02 0. -1.
        2   -1    0    0  501    0  0.00000000000E+00  0.00000000000E+00 -0.19796956447E+04  0.19796956447E+04  0.25500000920E-02 0.  1.
    10030    2    1    2    0    0  0.00000000000E+00  0.00000000000E+00 -0.68460034539E+03  0.32747909440E+04  0.32024331522E+04 0.  0.
        3    1    3    3  502    0  0.95704482156E+03  0.37029550932E+03 -0.15992353555E+04  0.19001598057E+04  0.10100000352E+00 0.  1.
       -3    1    3    3    0  502 -0.95704482156E+03 -0.37029550932E+03  0.91463501006E+03  0.13746311384E+04  0.10100000352E+00 0. -1.
</event>
<event>
 5   0  0.4142886E-06  0.2751606E+04  0.7818609E-02  0.8318452E-01
        1   -1    0    0  501    0  0.00000000000E+00  0.00000000000E+00  0.11160861108E+04  0.11160861108E+04  0.50400001928E-02 0. -1.
       -1   -1    0    0    0  501  0.00000000000E+00  0.00000000000E+00 -0.16959569033E+04  0.16959569033E+04  0.50400001928E-02 0.  1.
    10030    2    1    2    0    0  0.00000000000E+00  0.00000000000E+00 -0.57987079250E+03  0.28120430141E+04  0.27516060360E+04 0.  0.
        5    1    3    3  502    0  0.21782776553E+03  0.94216763336E+03 -0.12900427277E+04  0.16122534274E+04  0.46999998093E+01 0.  1.
       -5    1    3    3    0  502 -0.21782776553E+03 -0.94216763336E+03  0.71017193523E+03  0.11997895867E+04  0.46999998093E+01 0. -1.
</event>
<event>
 5   0  0.7952307E-06  0.1783712E+04  0.7818609E-02  0.8715010E-01
       -2   -1    0    0    0  501  0.00000000000E+00  0.00000000000E+00  0.93921762639E+03  0.93921762639E+03  0.25500000920E-02 0.  1.
        2   -1    0    0  501    0  0.00000000000E+00  0.00000000000E+00 -0.84688228258E+03  0.84688228259E+03  0.25500000920E-02 0. -1.
    10030    2    1    2    0    0  0.00000000000E+00  0.00000000000E+00  0.92335343804E+02  0.17860999090E+04  0.17837115992E+04 0.  0.
        2    1    3    3  502    0 -0.38804122567E+03  0.32165312549E+03 -0.69059602988E+03  0.85496175496E+03  0.25500000920E-02 0. -1.
       -2    1    3    3    0  502  0.38804122567E+03 -0.32165312549E+03  0.78293137368E+03  0.93113815401E+03  0.25500000920E-02 0.  1.
</event>
<event>
 5   0  0.7941434E-06  0.3168564E+04  0.7818609E-02  0.8197169E-01
        2   -1    0    0  501    0  0.00000000000E+00  0.00000000000E+00  0.20903879799E+04  0.20903879799E+04  0.25500000920E-02 0.  1.
       -2   -1    0    0    0  501  0.00000000000E+00  0.00000000000E+00 -0.12007096042E+04  0.12007096042E+04  0.25500000920E-02 0. -1.
    10030    2    1    2    0    0  0.00000000000E+00  0.00000000000E+00  0.88967837569E+03  0.32910975841E+04  0.31685636645E+04 0.  0.
        4    1    3    3  502    0  0.13895974507E+03 -0.17770591714E+03  0.20736202746E+04  0.20858551867E+04  0.12699999809E+01 0.  1.
       -4    1    3    3    0  502 -0.13895974507E+03  0.17770591714E+03 -0.11839418989E+04  0.12052423974E+04  0.12699999809E+01 0. -1.
</event>
<event>
 5   0  0.7941434E-06  0.3218384E+04  0.7818609E-02  0.8183979E-01
        2   -1    0    0  501    0  0.00000000000E+00  0.00000000000E+00  0.19319959430E+04  0.19319959430E+04  0.25500000920E-02 0.  1.
       -2   -1    0    0    0  501  0.00000000000E+00  0.00000000000E+00 -0.13403228960E+04  0.13403228960E+04  0.25500000920E-02 0. -1.
    10030    2    1    2    0    0  0.00000000000E+00  0.00000000000E+00  0.59167304707E+03  0.32723188390E+04  0.32183836921E+04 0.  0.
        4    1    3    3  502    0 -0.14658440340E+04 -0.65102172379E+03  0.42828377322E+03  0.16601074122E+04  0.12699999809E+01 0. -1.
       -4    1    3    3    0  502  0.14658440340E+04  0.65102172379E+03  0.16338927385E+03  0.16122114268E+04  0.12699999809E+01 0.  1.
</event>
<event>
 5   0  0.3938696E-06  0.2765661E+04  0.7818609E-02  0.8314009E-01
       -1   -1    0    0    0  501  0.00000000000E+00  0.00000000000E+00  0.13542402406E+04  0.13542402406E+04  0.50400001928E-02 0. -1.
        1   -1    0    0  501    0  0.00000000000E+00  0.00000000000E+00 -0.14120241786E+04  0.14120241787E+04  0.50400001928E-02 0.  1.
    10030    2    1    2    0    0  0.00000000000E+00  0.00000000000E+00 -0.57783938092E+02  0.27662644192E+04  0.27656608349E+04 0.  0.
        4    1    3    3  502    0 -0.11094511764E+04  0.56925533176E+03  0.56897153645E+03  0.13706435597E+04  0.12699999809E+01 0. -1.
       -4    1    3    3    0  502  0.11094511764E+04 -0.56925533176E+03 -0.62675547454E+03  0.13956208595E+04  0.12699999809E+01 0.  1.
</event>
<event>
 5   0  0.4655626E-06  0.1617691E+04  0.7818609E-02  0.8809753E-01
        1   -1    0    0  501    0  0.00000000000E+00  0.00000000000E+00  0.13345822212E+04  0.13345822212E+04  0.50400001928E-02 0.  1.
       -1   -1    0    0    0  501  0.00000000000E+00  0.00000000000E+00 -0.49021413750E+03  0.49021413753E+03  0.50400001928E-02 0. -1.
    10030    2    1    2    0    0  0.00000000000E+00  0.00000000000E+00  0.84436808371E+03  0.18247963587E+04  0.16176910367E+04 0.  0.
        5    1    3    3  502    0 -0.60252795266E+03 -0.12414059431E+03  0.10145403450E+04  0.11864927402E+04  0.46999998093E+01 0.  1.
       -5    1    3    3    0  502  0.60252795266E+03  0.12414059431E+03 -0.17017226133E+03  0.63830361852E+03  0.46999998093E+01 0. -1.
</event>
<event>
 5   0  0.2635798E-06  0.2103642E+04  0.7818609E-02  0.8559641E-01
        1   -1    0    0  501    0  0.00000000000E+00  0.00000000000E+00  0.24342128777E+04  0.24342128778E+04  0.50400001928E-02 0. -1.
       -1   -1    0    0    0  501  0.00000000000E+00  0.00000000000E+00 -0.45449093720E+03  0.45449093722E+03  0.50400001928E-02 0.  1.
    10030    2    1    2    0    0  0.00000000000E+00  0.00000000000E+00  0.19797219406E+04  0.28887038150E+04  0.21036422625E+04 0.  0.
        1    1    3    3  502    0 -0.51514014349E+03  0.65269799975E+03  0.10530424874E+03  0.83813664229E+03  0.50400001928E-02 0.  1.
       -1    1    3    3    0  502  0.51514014349E+03 -0.65269799975E+03  0.18744176918E+04  0.20505671727E+04  0.50400001928E-02 0. -1.
</event>
<event>
 5   0  0.3938696E-06  0.3023198E+04  0.7818609E-02  0.8237137E-01
       -1   -1    0    0    0  501  0.00000000000E+00  0.00000000000E+00  0.11359713099E+04  0.11359713099E+04  0.50400001928E-02 0. -1.
        1   -1    0    0  501    0  0.00000000000E+00  0.00000000000E+00 -0.20114340540E+04  0.20114340540E+04  0.50400001928E-02 0.  1.
    10030    2    1    2    0    0  0.00000000000E+00  0.00000000000E+00 -0.87546274408E+03  0.31474053640E+04  0.30231978944E+04 0.  0.
        4    1    3    3  502    0  0.11222894396E+04  0.17430538176E+03  0.60075465842E+03  0.12848438523E+04  0.12699999809E+01 0. -1.
       -4    1    3    3    0  502 -0.11222894396E+04 -0.17430538176E+03 -0.14762174025E+04  0.18625615116E+04  0.12699999809E+01 0.  1.
</event>
<event>
 5   0  0.2635798E-06  0.3175404E+04  0.7818609E-02  0.8195343E-01
       -1   -1    0    0    0  501  0.00000000000E+00  0.00000000000E+00  0.11642399456E+04  0.11642399456E+04  0.50400001928E-02 0.  1.
        1   -1    0    0  501    0  0.00000000000E+00  0.00000000000E+00 -0.21651869075E+04  0.21651869075E+04  0.50400001928E-02 0. -1.
    10030    2    1    2    0    0  0.00000000000E+00  0.00000000000E+00 -0.10009469619E+04  0.33294268531E+04  0.31754036514E+04 0.  0.
        1    1    3    3  502    0  0.53775159328E+03  0.11113526424E+04 -0.15471502675E+04  0.19793825861E+04  0.50400001928E-02 0. -1.
       -1    1    3    3    0  502 -0.53775159328E+03 -0.11113526424E+04  0.54620330560E+03  0.13500442670E+04  0.50400001928E-02 0.  1.
</event>
<event>
 5   0  0.7952307E-06  0.3252918E+04  0.7818609E-02  0.8174980E-01
       -2   -1    0    0    0  501  0.00000000000E+00  0.00000000000E+00  0.10728841293E+04  0.10728841293E+04  0.25500000920E-02 0. -1.
        2   -1    0    0  501    0  0.00000000000E+00  0.00000000000E+00 -0.24656610298E+04  0.24656610298E+04  0.25500000920E-02 0.  1.
    10030    2    1    2    0    0  0.00000000000E+00  0.00000000000E+00 -0.13927769005E+04  0.35385451591E+04  0.32529178207E+04 0.  0.
        2    1    3    3  502    0 -0.65837819472E+02  0.15518042070E+02  0.10713534007E+04  0.10734866265E+04  0.25500000920E-02 0. -1.
       -2    1    3    3    0  502  0.65837819472E+02 -0.15518042070E+02 -0.24641303012E+04  0.24650585327E+04  0.25500000920E-02 0.  1.
</event>
<event>
 5   0  0.3938696E-06  0.3113421E+04  0.7818609E-02  0.8212064E-01
        1   -1    0    0  501    0  0.00000000000E+00  0.00000000000E+00  0.20959025125E+04  0.20959025125E+04  0.50400001928E-02 0.  1.
       -1   -1    0    0    0  501  0.00000000000E+00  0.00000000000E+00 -0.11562307446E+04  0.11562307446E+04  0.50400001928E-02 0. -1.
    10030    2    1    2    0    0  0.00000000000E+00  0.00000000000E+00  0.93967176792E+03  0.32521332571E+04  0.31134205772E+04 0.  0.
        4    1    3    3  502    0 -0.84676128739E+02 -0.80065042518E+02 -0.11516675547E+04  0.11575492332E+04  0.12699999809E+01 0. -1.
       -4    1    3    3    0  502  0.84676128739E+02  0.80065042518E+02  0.20913393227E+04  0.20945840239E+04  0.12699999809E+01 0.  1.
</event>
<event>
 5   0  0.7941434E-06  0.3329206E+04  0.7818609E-02  0.8155503E-01
       -2   -1    0    0    0  501  0.00000000000E+00  0.00000000000E+00  0.18516971405E+04  0.18516971405E+04  0.25500000920E-02 0. -1.
        2   -1    0    0  501    0  0.00000000000E+00  0.00000000000E+00 -0.14964131649E+04  0.14964131649E+04  0.25500000920E-02 0.  1.
    10030    2    1    2    0    0  0.00000000000E+00  0.00000000000E+00  0.35528397562E+03  0.33481103054E+04  0.33292064992E+04 0.  0.
        4    1    3    3  502    0 -0.13929596304E+03  0.84300925692E+02  0.18436693286E+04  0.18508452711E+04  0.12699999809E+01 0. -1.
       -4    1    3    3    0  502  0.13929596304E+03 -0.84300925692E+02 -0.14883853530E+04  0.14972650344E+04  0.12699999809E+01 0.  1.
</event>
<event>
 5   0  0.2635798E-06  0.3110569E+04  0.7818609E-02  0.8212843E-01
       -1   -1    0    0    0  501  0.00000000000E+00  0.00000000000E+00  0.10140000412E+04  0.10140000412E+04  0.50400001928E-02 0.  1.
        1   -1    0    0  501    0  0.00000000000E+00  0.00000000000E+00 -0.23855128912E+04  0.23855128912E+04  0.50400001928E-02 0. -1.
    10030    2    1    2    0    0  0.00000000000E+00  0.00000000000E+00 -0.13715128500E+04  0.33995129324E+04  0.31105691890E+04 0.  0.
        1    1    3    3  502    0  0.67573711571E+03 -0.27027329219E+03  0.81641886060E+03  0.10937129687E+04  0.50400001928E-02 0.  1.
       -1    1    3    3    0  502 -0.67573711571E+03  0.27027329219E+03 -0.21879317106E+04  0.23057999637E+04  0.50400001928E-02 0. -1.
</event>
<event>
 5   0  0.4142886E-06  0.1720520E+04  0.7818609E-02  0.8749747E-01
        1   -1    0    0  501    0  0.00000000000E+00  0.00000000000E+00  0.17463754890E+04  0.17463754890E+04  0.50400001928E-02 0. -1.
       -1   -1    0    0    0  501  0.00000000000E+00  0.00000000000E+00 -0.42376178735E+03  0.42376178738E+03  0.50400001928E-02 0.  1.
    10030    2    1    2    0    0  0.00000000000E+00  0.00000000000E+00  0.13226137016E+04  0.21701372763E+04  0.17205199198E+04 0.  0.
        5    1    3    3  502    0 -0.30990009940E+03 -0.76719719092E+03  0.95817579881E+03  0.12659986385E+04  0.46999998093E+01 0. -1.
       -5    1    3    3    0  502  0.30990009940E+03  0.76719719092E+03  0.36443790280E+03  0.90413863780E+03  0.46999998093E+01 0.  1.
</event>
<event>
 5   0  0.7952307E-06  0.3186173E+04  0.7818609E-02  0.8192478E-01
       -2   -1    0    0    0  501  0.00000000000E+00  0.00000000000E+00  0.84919478870E+03  0.84919478870E+03  0.25500000920E-02 0. -1.
        2   -1    0    0  501    0  0.00000000000E+00  0.00000000000E+00 -0.29886243974E+04  0.29886243974E+04  0.25500000920E-02 0.  1.
    10030    2    1    2    0    0  0.00000000000E+00  0.00000000000E+00 -0.21394296087E+04  0.38378191861E+04  0.31861727911E+04 0.  0.
        2    1    3    3  502    0  0.10375501737E+04 -0.78361929140E+03  0.39071385825E+02  0.13008059540E+04  0.25500000920E-02 0. -1.
       -2    1    3    3    0  502 -0.10375501737E+04  0.78361929140E+03 -0.21785009946E+04  0.25370132321E+04  0.25500000920E-02 0.  1.
</event>
<event>
 5   0  0.7510251E-06  0.3166517E+04  0.7818609E-02  0.8197716E-01
        2   -1    0    0  501    0  0.00000000000E+00  0.00000000000E+00  0.20516301283E+04  0.20516301283E+04  0.25500000920E-02 0. -1.
       -2   -1    0    0    0  501  0.00000000000E+00  0.00000000000E+00 -0.12218126329E+04  0.12218126329E+04  0.25500000920E-02 0.  1.
    10030    2    1    2    0    0  0.00000000000E+00  0.00000000000E+00  0.82981749544E+03  0.32734427612E+04  0.31665170827E+04 0.  0.
        3    1    3    3  502    0  0.15296797826E+04  0.23903220184E+03  0.75722628588E+03  0.17234988509E+04  0.10100000352E+00 0.  1.
       -3    1    3    3    0  502 -0.15296797826E+04 -0.23903220184E+03  0.72591209557E+02  0.15499439102E+04  0.10100000352E+00 0. -1.
</event>
<event>
 5   0  0.8237664E-06  0.1710938E+04  0.7818609E-02  0.8755150E-01
       -2   -1    0    0    0  501  0.00000000000E+00  0.00000000000E+00  0.75526922811E+03  0.75526922811E+03  0.25500000920E-02 0.  1.
        2   -1    0    0  501    0  0.00000000000E+00  0.00000000000E+00 -0.96896216439E+03  0.96896216439E+03  0.25500000920E-02 0. -1.
    10030    2    1    2    0    0  0.00000000000E+00  0.00000000000E+00 -0.21369293628E+03  0.17242313925E+04  0.17109381122E+04 0.  0.
        5    1    3    3  502    0 -0.25212039394E+02 -0.12243784921E+03 -0.95969498716E+03  0.96781363507E+03  0.46999998093E+01 0. -1.
       -5    1    3    3    0  502  0.25212039394E+02  0.12243784921E+03  0.74600205088E+03  0.75641775743E+03  0.46999998093E+01 0.  1.
</event>
<event>
 5   0  0.3938696E-06  0.3177680E+04  0.7818609E-02  0.8194737E-01
       -1   -1    0    0    0  501  0.00000000000E+00  0.00000000000E+00  0.17896163901E+04  0.17896163901E+04  0.50400001928E-02 0.  1.
        1   -1    0    0  501    0  0.00000000000E+00  0.00000000000E+00 -0.14105889689E+04  0.14105889689E+04  0.50400001928E-02 0. -1.
    10030    2    1    2    0    0  0.00000000000E+00  0.00000000000E+00  0.37902742119E+03  0.32002053590E+04  0.31776803732E+04 0.  0.
        4    1    3    3  502    0 -0.96241459814E+03 -0.14597545423E+03 -0.10751187342E+04  0.14503215497E+04  0.12699999809E+01 0. -1.
       -4    1    3    3    0  502  0.96241459814E+03  0.14597545423E+03  0.14541461554E+04  0.17498838093E+04  0.12699999809E+01 0.  1.
</event>
<event>
 5   0  0.2788054E-06  0.3206551E+04  0.7818609E-02  0.8187089E-01
       -1   -1    0    0    0  501  0.00000000000E+00  0.00000000000E+00  0.13793176346E+04  0.13793176346E+04  0.50400001928E-02 0.  1.
        1   -1    0    0  501    0  0.00000000000E+00  0.00000000000E+00 -0.18635965162E+04  0.18635965162E+04  0.50400001928E-02 0. -1.
    10030    2    1    2    0    0  0.00000000000E+00  0.00000000000E+00 -0.48427888157E+03  0.32429141509E+04  0.32065505071E+04 0.  0.
        3    1    3    3  502    0 -0.53304033680E+03  0.11903877658E+04 -0.11850952116E+04  0.17622728802E+04  0.10100000352E+00 0. -1.
       -3    1    3    3    0  502  0.53304033680E+03 -0.11903877658E+04  0.70081632999E+03  0.14806412706E+04  0.10100000352E+00 0.  1.
</event>
<event>
 5   0  0.4142886E-06  0.2057579E+04  0.7818609E-02  0.8580164E-01
       -1   -1    0    0    0  501  0.00000000000E+00  0.00000000000E+00  0.83016025849E+03  0.83016025850E+03  0.50400001928E-02 0.  1.
        1   -1    0    0  501    0  0.00000000000E+00  0.00000000000E+00 -0.12749441824E+04  0.12749441824E+04  0.50400001928E-02 0. -1.
    10030    2    1    2    0    0  0.00000000000E+00  0.00000000000E+00 -0.44478392394E+03  0.21051044409E+04  0.20575791524E+04 0.  0.
        5    1    3    3  502    0 -0.18506028307E+03 -0.12080863041E+03  0.80557627155E+03  0.83535456714E+03  0.46999998093E+01 0.  1.
       -5    1    3    3    0  502  0.18506028307E+03  0.12080863041E+03 -0.12503601955E+04  0.12697498738E+04  0.46999998093E+01 0. -1.
</event>
<event>
 5   0  0.7510251E-06  0.2061896E+04  0.7818609E-02  0.8578217E-01
       -2   -1    0    0    0  501  0.00000000000E+00  0.00000000000E+00  0.70977280783E+03  0.70977280784E+03  0.25500000920E-02 0.  1.
        2   -1    0    0  501    0  0.00000000000E+00  0.00000000000E+00 -0.14974559333E+04  0.14974559333E+04  0.25500000920E-02 0. -1.
    10030    2    1    2    0    0  0.00000000000E+00  0.00000000000E+00 -0.78768312548E+03  0.22072287412E+04  0.20618957320E+04 0.  0.
        3    1    3    3  502    0 -0.21777828332E+02  0.20604016617E+03  0.68725656874E+03  0.71780807000E+03  0.10100000352E+00 0.  1.
       -3    1    3    3    0  502  0.21777828332E+02 -0.20604016617E+03 -0.14749396942E+04  0.14894206712E+04  0.10100000352E+00 0. -1.
</event>
<event>
 5   0  0.7952307E-06  0.3265236E+04  0.7818609E-02  0.8171798E-01
        2   -1    0    0  501    0  0.00000000000E+00  0.00000000000E+00  0.11575876031E+04  0.11575876031E+04  0.25500000920E-02 0.  1.
       -2   -1    0    0    0  501  0.00000000000E+00  0.00000000000E+00 -0.23025829089E+04  0.23025829089E+04  0.25500000920E-02 0. -1.
    10030    2    1    2    0    0  0.00000000000E+00  0.00000000000E+00 -0.11449953058E+04  0.34601705120E+04  0.32652359366E+04 0.  0.
        2    1    3    3  502    0 -0.13272041279E+04 -0.89944851755E+03 -0.89905551237E+03  0.18381456001E+04  0.25500000920E-02 0. -1.
       -2    1    3    3    0  502  0.13272041279E+04  0.89944851755E+03 -0.24593979338E+03  0.16220249119E+04  0.25500000920E-02 0.  1.
</event>
<event>
 5   0  0.2933646E-06  0.3196291E+04  0.7818609E-02  0.8189797E-01
       -1   -1    0    0    0  501  0.00000000000E+00  0.00000000000E+00  0.13181871964E+04  0.13181871965E+04  0.50400001928E-02 0.  1.
        1   -1    0    0  501    0  0.00000000000E+00  0.00000000000E+00 -0.19375617355E+04  0.19375617355E+04  0.50400001928E-02 0. -1.
    10030    2    1    2    0    0  0.00000000000E+00  0.00000000000E+00 -0.61937453901E+03  0.32557489319E+04  0.31962910206E+04 0.  0.
        2    1    3    3  502    0 -0.92277741826E+03  0.94477713489E+03  0.60702472198E+03  0.14534789339E+04  0.25500000920E-02 0.  1.
       -2    1    3    3    0  502  0.92277741826E+03 -0.94477713489E+03 -0.12263992610E+04  0.18022699980E+04  0.25500000920E-02 0. -1.
</event>
<event>
 5   0  0.2933646E-06  0.2789151E+04  0.7818609E-02  0.8306645E-01
       -1   -1    0    0    0  501  0.00000000000E+00  0.00000000000E+00  0.18063875449E+04  0.18063875449E+04  0.50400001928E-02 0.  1.
        1   -1    0    0  501    0  0.00000000000E+00  0.00000000000E+00 -0.10766461400E+04  0.10766461400E+04  0.50400001928E-02 0. -1.
    10030    2    1    2    0    0  0.00000000000E+00  0.00000000000E+00  0.72974140493E+03  0.28830336850E+04  0.27891505357E+04 0.  0.
        2    1    3    3  502    0  0.11305470209E+04 -0.81224780064E+03  0.27865377206E+03  0.14196939744E+04  0.25500000920E-02 0. -1.
       -2    1    3    3    0  502 -0.11305470209E+04  0.81224780064E+03  0.45108763287E+03  0.14633397106E+04  0.25500000920E-02 0.  1.
</event>
<event>
 5   0  0.7971763E-06  0.3328067E+04  0.7818609E-02  0.8155790E-01
        2   -1    0    0  501    0  0.00000000000E+00  0.00000000000E+00  0.27201063415E+04  0.27201063415E+04  0.25500000920E-02 0.  1.
       -2   -1    0    0    0  501  0.00000000000E+00  0.00000000000E+00 -0.10179774080E+04  0.10179774080E+04  0.25500000920E-02 0. -1.
    10030    2    1    2    0    0  0.00000000000E+00  0.00000000000E+00  0.17021289335E+04  0.37380837494E+04  0.33280665876E+04 0.  0.
        1    1    3    3  502    0 -0.40689845572E+03  0.67628266000E+02  0.26617750352E+04  0.26935452982E+04  0.50400001928E-02 0.  1.
       -1    1    3    3    0  502  0.40689845572E+03 -0.67628266000E+02 -0.95964610165E+03  0.10445384512E+04  0.50400001928E-02 0. -1.
</event>
<event>
 5   0  0.2788054E-06  0.3095045E+04  0.7818609E-02  0.8217099E-01
        1   -1    0    0  501    0  0.00000000000E+00  0.00000000000E+00  0.16192485933E+04  0.16192485933E+04  0.50400001928E-02 0. -1.
       -1   -1    0    0    0  501  0.00000000000E+00  0.00000000000E+00 -0.14789739808E+04  0.14789739808E+04  0.50400001928E-02 0.  1.
    10030    2    1    2    0    0  0.00000000000E+00  0.00000000000E+00  0.14027461248E+03  0.30982225741E+04  0.30950454200E+04 0.  0.
        3    1    3    3  502    0 -0.98583119513E+03  0.94030914482E+03 -0.66463395977E+03  0.15158439048E+04  0.10100000352E+00 0. -1.
       -3    1    3    3    0  502  0.98583119513E+03 -0.94030914482E+03  0.80490857225E+03  0.15823786693E+04  0.10100000352E+00 0.  1.
</event>
<event>
 5   0  0.7971763E-06  0.3230118E+04  0.7818609E-02  0.8180908E-01
        2   -1    0    0  501    0  0.00000000000E+00  0.00000000000E+00  0.25517269285E+04  0.25517269285E+04  0.25500000920E-02 0.  1.
       -2   -1    0    0    0  501  0.00000000000E+00  0.00000000000E+00 -0.10222158189E+04  0.10222158189E+04  0.25500000920E-02 0. -1.
    10030    2    1    2    0    0  0.00000000000E+00  0.00000000000E+00  0.15295111096E+04  0.35739427474E+04  0.32301180361E+04 0.  0.
        1    1    3    3  502    0  0.28870956119E+03  0.15858511087E+04  0.87616447180E+03  0.18346501387E+04  0.50400001928E-02 0.  1.
       -1    1    3    3    0  502 -0.28870956119E+03 -0.15858511087E+04  0.65334663782E+03  0.17392926087E+04  0.50400001928E-02 0. -1.
</event>
<event>
 5   0  0.2933646E-06  0.3032179E+04  0.7818609E-02  0.8234601E-01
        1   -1    0    0  501    0  0.00000000000E+00  0.00000000000E+00  0.17091690937E+04  0.17091690937E+04  0.50400001928E-02 0.  1.
       -1   -1    0    0    0  501  0.00000000000E+00  0.00000000000E+00 -0.13448215989E+04  0.13448215989E+04  0.50400001928E-02 0. -1.
    10030    2    1    2    0    0  0.00000000000E+00  0.00000000000E+00  0.36434749484E+03  0.30539906926E+04  0.30321790932E+04 0.  0.
        2    1    3    3  502    0  0.85308115950E+03  0.11264969057E+04  0.73547482947E+03  0.15930053258E+04  0.25500000920E-02 0. -1.
       -2    1    3    3    0  502 -0.85308115950E+03 -0.11264969057E+04 -0.37112733463E+03  0.14609853667E+04  0.25500000920E-02 0.  1.
</event>
<event>
 5   0  0.3938696E-06  0.2920940E+04  0.7818609E-02  0.8266674E-01
       -1   -1    0    0    0  501  0.00000000000E+00  0.00000000000E+00  0.11207090750E+04  0.11207090750E+04  0.50400001928E-02 0.  1.
        1   -1    0    0  501    0  0.00000000000E+00  0.00000000000E+00 -0.19032346586E+04  0.19032346586E+04  0.50400001928E-02 0. -1.
    10030    2    1    2    0    0  0.00000000000E+00  0.00000000000E+00 -0.78252558354E+03  0.30239437336E+04  0.29209398171E+04 0.  0.
        4    1    3    3  502    0 -0.44611483166E+01  0.12586642573E+04  0.37561217884E+03  0.13135226439E+04  0.12699999809E+01 0.  1.
       -4    1    3    3    0  502  0.44611483166E+01 -0.12586642573E+04 -0.11581377624E+04  0.17104210896E+04  0.12699999809E+01 0. -1.
</event>
<event>
 5   0  0.7941434E-06  0.3181954E+04  0.7818609E-02  0.8193599E-01
       -2   -1    0    0    0  501  0.00000000000E+00  0.00000000000E+00  0.18311529744E+04  0.18311529744E+04  0.25500000920E-02 0.  1.
        2   -1    0    0  501    0  0.00000000000E+00  0.00000000000E+00 -0.13823026060E+04  0.13823026060E+04  0.25500000920E-02 0. -1.
    10030    2    1    2    0    0  0.00000000000E+00  0.00000000000E+00  0.44885036843E+03  0.32134555804E+04  0.31819538203E+04 0.  0.
        4    1    3    3  502    0  0.10908075178E+04  0.25467550648E+03 -0.91657661937E+03  0.14473544717E+04  0.12699999809E+01 0. -1.
       -4    1    3    3    0  502 -0.10908075178E+04 -0.25467550648E+03  0.13654269878E+04  0.17661011088E+04  0.12699999809E+01 0.  1.
</event>
<event>
 5   0  0.7952307E-06  0.3310041E+04  0.7818609E-02  0.8160345E-01
       -2   -1    0    0    0  501  0.00000000000E+00  0.00000000000E+00  0.91197492438E+03  0.91197492439E+03  0.25500000920E-02 0.  1.
        2   -1    0    0  501    0  0.00000000000E+00  0.00000000000E+00 -0.30034730903E+04  0.30034730903E+04  0.25500000920E-02 0. -1.
    10030    2    1    2    0    0  0.00000000000E+00  0.00000000000E+00 -0.20914981659E+04  0.39154480147E+04  0.33100405704E+04 0.  0.
        2    1    3    3  502    0  0.15514401076E+04 -0.13472238648E+03 -0.38292831811E+03  0.16036678664E+04  0.25500000920E-02 0.  1.
       -2    1    3    3    0  502 -0.15514401076E+04  0.13472238648E+03 -0.17085698478E+04  0.23117801482E+04  0.25500000920E-02 0. -1.
</event>
<event>
 5   0  0.4142886E-06  0.3168853E+04  0.7818609E-02  0.8197092E-01
       -1   -1    0    0    0  501  0.00000000000E+00  0.00000000000E+00  0.14083287463E+04  0.14083287463E+04  0.50400001928E-02 0. -1.
        1   -1    0    0  501    0  0.00000000000E+00  0.00000000000E+00 -0.17825439015E+04  0.17825439015E+04  0.50400001928E-02 0.  1.
    10030    2    1    2    0    0  0.00000000000E+00  0.00000000000E+00 -0.37421515516E+03  0.31908726478E+04  0.31688533055E+04 0.  0.
        5    1    3    3  502    0 -0.22578434624E+03 -0.14032076976E+03  0.13857053988E+04  0.14109819388E+04  0.46999998093E+01 0. -1.
       -5    1    3    3    0  502  0.22578434624E+03  0.14032076976E+03 -0.17599205540E+04  0.17798907089E+04  0.46999998093E+01 0.  1.
</event>
<event>
 5   0  0.8237664E-06  0.2142752E+04  0.7818609E-02  0.8542641E-01
       -2   -1    0    0    0  501  0.00000000000E+00  0.00000000000E+00  0.12611835571E+04  0.12611835571E+04  0.25500000920E-02 0. -1.
        2   -1    0    0  501    0  0.00000000000E+00  0.00000000000E+00 -0.91013450479E+03  0.91013450479E+03  0.25500000920E-02 0.  1.
    10030    2    1    2    0    0  0.00000000000E+00  0.00000000000E+00  0.35104905231E+03  0.21713180619E+04  0.21427521296E+04 0.  0.
        5    1    3    3  502    0 -0.74728841696E+03  0.67904178271E+03 -0.18742196290E+03  0.10269794560E+04  0.46999998093E+01 0.  1.
       -5    1    3    3    0  502  0.74728841696E+03 -0.67904178271E+03  0.53847101520E+03  0.11443386059E+04  0.46999998093E+01 0. -1.
</event>
<event>
 5   0  0.7952307E-06  0.2207235E+04  0.7818609E-02  0.8515423E-01
        2   -1    0    0  501    0  0.00000000000E+00  0.00000000000E+00  0.72161770850E+03  0.72161770851E+03  0.25500000920E-02 0. -1.
       -2   -1    0    0    0  501  0.00000000000E+00  0.00000000000E+00 -0.16878353500E+04  0.16878353500E+04  0.25500000920E-02 0.  1.
    10030    2    1    2    0    0  0.00000000000E+00  0.00000000000E+00 -0.96621764150E+03  0.24094530585E+04  0.22072352640E+04 0.  0.
        2    1    3    3  502    0 -0.96250710681E+03  0.31391377757E+03 -0.96268747771E+03  0.13970429378E+04  0.25500000920E-02 0.  1.
       -2    1    3    3    0  502  0.96250710681E+03 -0.31391377757E+03 -0.35301637920E+01  0.10124101207E+04  0.25500000920E-02 0. -1.
</event>
<event>
 5   0  0.2933646E-06  0.3057114E+04  0.7818609E-02  0.8227607E-01
        1   -1    0    0  501    0  0.00000000000E+00  0.00000000000E+00  0.14420274669E+04  0.14420274669E+04  0.50400001928E-02 0.  1.
       -1   -1    0    0    0  501  0.00000000000E+00  0.00000000000E+00 -0.16202788350E+04  0.16202788350E+04  0.50400001928E-02 0. -1.
    10030    2    1    2    0    0  0.00000000000E+00  0.00000000000E+00 -0.17825136809E+03  0.30623063020E+04  0.30571140536E+04 0.  0.
        2    1    3    3  502    0 -0.14192175437E+04  0.37218803536E+03  0.34030303899E+03  0.15061568737E+04  0.25500000920E-02 0.  1.
       -2    1    3    3    0  502  0.14192175437E+04 -0.37218803536E+03 -0.51855440708E+03  0.15561494282E+04  0.25500000920E-02 0. -1.
</event>
<event>
 5   0  0.2788054E-06  0.3063877E+04  0.7818609E-02  0.8225722E-01
       -1   -1    0    0    0  501  0.00000000000E+00  0.00000000000E+00  0.97752588497E+03  0.97752588498E+03  0.50400001928E-02 0.  1.
        1   -1    0    0  501    0  0.00000000000E+00  0.00000000000E+00 -0.24007916438E+04  0.24007916438E+04  0.50400001928E-02 0. -1.
    10030    2    1    2    0    0  0.00000000000E+00  0.00000000000E+00 -0.14232657588E+04  0.33783175288E+04  0.30638772666E+04 0.  0.
        3    1    3    3  502    0 -0.97316340985E+02  0.11813843761E+04 -0.17816348298E+04  0.21399444365E+04  0.10100000352E+00 0. -1.
       -3    1    3    3    0  502  0.97316340985E+02 -0.11813843761E+04  0.35836907101E+03  0.12383730922E+04  0.10100000352E+00 0.  1.
</event>
<event>
 5   0  0.7971763E-06  0.3110881E+04  0.7818609E-02  0.8212758E-01
       -2   -1    0    0    0  501  0.00000000000E+00  0.00000000000E+00  0.14931239274E+04  0.14931239274E+04  0.25500000920E-02 0.  1.
        2   -1    0    0  501    0  0.00000000000E+00  0.00000000000E+00 -0.16203583400E+04  0.16203583400E+04  0.25500000920E-02 0. -1.
    10030    2    1    2    0    0  0.00000000000E+00  0.00000000000E+00 -0.12723441260E+03  0.31134822675E+04  0.31108814240E+04 0.  0.
        1    1    3    3  502    0  0.45944404700E+02 -0.33780100817E+03  0.14552732227E+04  0.14946707203E+04  0.50400001928E-02 0.  1.
       -1    1    3    3    0  502 -0.45944404700E+02  0.33780100817E+03 -0.15825076353E+04  0.16188115472E+04  0.50400001928E-02 0. -1.
</event>
<event>
 5   0  0.3974772E-06  0.1584441E+04  0.7818609E-02  0.8830164E-01
       -1   -1    0    0    0  501  0.00000000000E+00  0.00000000000E+00  0.91321055192E+03  0.91321055193E+03  0.50400001928E-02 0.  1.
        1   -1    0    0  501    0  0.00000000000E+00  0.00000000000E+00 -0.68726009410E+03  0.68726009412E+03  0.50400001928E-02 0. -1.
    10030    2    1    2    0    0  0.00000000000E+00  0.00000000000E+00  0.22595045782E+03  0.16004706461E+04  0.15844408097E+04 0.  0.
        3    1    3    3  502    0 -0.44279367294E+02  0.69325845473E+03  0.49767629725E+03  0.85454646127E+03  0.10100000352E+00 0. -1.
       -3    1    3    3    0  502  0.44279367294E+02 -0.69325845473E+03 -0.27172583943E+03  0.74592418478E+03  0.10100000352E+00 0.  1.
</event>
<event>
 5   0  0.7952307E-06  0.3285073E+04  0.7818609E-02  0.8166704E-01
       -2   -1    0    0    0  501  0.00000000000E+00  0.00000000000E+00  0.12894937625E+04  0.12894937625E+04  0.25500000920E-02 0.  1.
        2   -1    0    0  501    0  0.00000000000E+00  0.00000000000E+00 -0.20922368728E+04  0.20922368728E+04  0.25500000920E-02 0. -1.
    10030    2    1    2    0    0  0.00000000000E+00  0.00000000000E+00 -0.80274311028E+03  0.33817306353E+04  0.32850731481E+04 0.  0.
        2    1    3    3  502    0 -0.12497741505E+04 -0.88386156917E+03 -0.10145308926E+04  0.18364148858E+04  0.25500000920E-02 0.  1.
       -2    1    3    3    0  502  0.12497741505E+04  0.88386156917E+03  0.21178778233E+03  0.15453157495E+04  0.25500000920E-02 0. -1.
</event>
<event>
 5   0  0.7510251E-06  0.2927301E+04  0.7818609E-02  0.8264801E-01
        2   -1    0    0  501    0  0.00000000000E+00  0.00000000000E+00  0.17328209005E+04  0.17328209005E+04  0.25500000920E-02 0. -1.
       -2   -1    0    0    0  501  0.00000000000E+00  0.00000000000E+00 -0.12362924722E+04  0.12362924722E+04  0.25500000920E-02 0.  1.
    10030    2    1    2    0    0  0.00000000000E+00  0.00000000000E+00  0.49652842822E+03  0.29691133727E+04  0.29273014433E+04 0.  0.
        3    1    3    3  502    0 -0.10144640678E+04  0.10405343197E+04  0.71346869131E+02  0.14549705843E+04  0.10100000352E+00 0.  1.
       -3    1    3    3    0  502  0.10144640678E+04 -0.10405343197E+04  0.42518155909E+03  0.15141427884E+04  0.10100000352E+00 0. -1.
</event>
<event>
 5   0  0.7971763E-06  0.3169117E+04  0.7818609E-02  0.8197021E-01
       -2   -1    0    0    0  501  0.00000000000E+00  0.00000000000E+00  0.14439697225E+04  0.14439697225E+04  0.25500000920E-02 0. -1.
        2   -1    0    0  501    0  0.00000000000E+00  0.00000000000E+00 -0.17388354791E+04  0.17388354791E+04  0.25500000920E-02 0.  1.
    10030    2    1    2    0    0  0.00000000000E+00  0.00000000000E+00 -0.29486575665E+03  0.31828052016E+04  0.31691170910E+04 0.  0.
        1    1    3    3  502    0 -0.71487152153E+03  0.11533134876E+04 -0.96929036929E+03  0.16675422372E+04  0.50400001928E-02 0.  1.
       -1    1    3    3    0  502  0.71487152153E+03 -0.11533134876E+04  0.67442461264E+03  0.15152629643E+04  0.50400001928E-02 0. -1.
</event>
<event>
 5   0  0.8237664E-06  0.2822243E+04  0.7818609E-02  0.8296396E-01
       -2   -1    0    0    0  501  0.00000000000E+00  0.00000000000E+00  0.15042229192E+04  0.15042229192E+04  0.25500000920E-02 0.  1.
        2   -1    0    0  501    0  0.00000000000E+00  0.00000000000E+00 -0.13237823613E+04  0.13237823613E+04  0.25500000920E-02 0. -1.
    10030    2    1    2    0    0  0.00000000000E+00  0.00000000000E+00  0.18044055796E+03  0.28280052805E+04  0.28222429150E+04 0.  0.
        5    1    3    3  502    0  0.42891135906E+03 -0.53082542321E+03 -0.11474133067E+04  0.13350355689E+04  0.46999998093E+01 0. -1.
       -5    1    3    3    0  502 -0.42891135906E+03  0.53082542321E+03  0.13278538646E+04  0.14929697116E+04  0.46999998093E+01 0.  1.
</event>
<event>
 5   0  0.3938696E-06  0.3218381E+04  0.7818609E-02  0.8183980E-01
        1   -1    0    0  501    0  0.00000000000E+00  0.00000000000E+00  0.15046539953E+04  0.15046539954E+04  0.50400001928E-02 0.  1.
       -1   -1    0    0    0  501  0.00000000000E+00  0.00000000000E+00 -0.17209900564E+04  0.17209900564E+04  0.50400001928E-02 0. -1.
    10030    2    1    2    0    0  0.00000000000E+00  0.00000000000E+00 -0.21633606104E+03  0.32256440517E+04  0.32183813101E+04 0.  0.
        4    1    3    3  502    0  0.14541697440E+04  0.18644098977E+03 -0.77308284316E+03  0.16574162369E+04  0.12699999809E+01 0.  1.
       -4    1    3    3    0  502 -0.14541697440E+04 -0.18644098977E+03  0.55674678212E+03  0.15682278149E+04  0.12699999809E+01 0. -1.
</event>
<event>
 5   0  0.4142886E-06  0.1781324E+04  0.7818609E-02  0.8716295E-01
        1   -1    0    0  501    0  0.00000000000E+00  0.00000000000E+00  0.90764532784E+03  0.90764532785E+03  0.50400001928E-02 0.  1.
       -1   -1    0    0    0  501  0.00000000000E+00  0.00000000000E+00 -0.87399653772E+03  0.87399653773E+03  0.50400001928E-02 0. -1.
    10030    2    1    2    0    0  0.00000000000E+00  0.00000000000E+00  0.33648790119E+02  0.17816418656E+04  0.17813240851E+04 0.  0.
        5    1    3    3  502    0 -0.29145650816E+03 -0.14552757793E+03 -0.81225750464E+03  0.87516256543E+03  0.46999998093E+01 0. -1.
       -5    1    3    3    0  502  0.29145650816E+03  0.14552757793E+03  0.84590629476E+03  0.90647930015E+03  0.46999998093E+01 0.  1.
</event>
<event>
 5   0  0.7941434E-06  0.3164215E+04  0.7818609E-02  0.8198332E-01
       -2   -1    0    0    0  501  0.00000000000E+00  0.00000000000E+00  0.13120735703E+04  0.13120735703E+04  0.25500000920E-02 0.  1.
        2   -1    0    0  501    0  0.00000000000E+00  0.00000000000E+00 -0.19077164653E+04  0.19077164653E+04  0.25500000920E-02 0. -1.
    10030    2    1    2    0    0  0.00000000000E+00  0.00000000000E+00 -0.59564289496E+03  0.32197900357E+04  0.31642151342E+04 0.  0.
        4    1    3    3  502    0  0.11767705530E+04  0.11280831604E+03 -0.13677391370E+04  0.18078237221E+04  0.12699999809E+01 0. -1.
       -4    1    3    3    0  502 -0.11767705530E+04 -0.11280831604E+03  0.77209624201E+03  0.14119663135E+04  0.12699999809E+01 0.  1.
</event>
<event>
 5   0  0.3938696E-06  0.3026937E+04  0.7818609E-02  0.8236080E-01
       -1   -1    0    0    0  501  0.00000000000E+00  0.00000000000E+00  0.20070197586E+04  0.20070197586E+04  0.50400001928E-02 0. -1.
        1   -1    0    0  501    0  0.00000000000E+00  0.00000000000E+00 -0.11412875984E+04  0.11412875985E+04  0.50400001928E-02 0.  1.
    10030    2    1    2    0    0  0.00000000000E+00  0.00000000000E+00  0.86573216018E+03  0.31483073571E+04  0.30269369074E+04 0.  0.
        4    1    3    3  502    0  0.16795131299E+03 -0.14941260363E+04  0.25282147549E+03  0.15246444068E+04  0.12699999809E+01 0.  1.
       -4    1    3    3    0  502 -0.16795131299E+03  0.14941260363E+04  0.61291068469E+03  0.16236629503E+04  0.12699999809E+01 0. -1.
</event>
<event>
 5   0  0.2788054E-06  0.3214050E+04  0.7818609E-02  0.8185116E-01
       -1   -1    0    0    0  501  0.00000000000E+00  0.00000000000E+00  0.16573534295E+04  0.16573534295E+04  0.50400001928E-02 0. -1.
        1   -1    0    0  501    0  0.00000000000E+00  0.00000000000E+00 -0.15582251883E+04  0.15582251883E+04  0.50400001928E-02 0.  1.
    10030    2    1    2    0    0  0.00000000000E+00  0.00000000000E+00  0.99128241217E+02  0.32155786178E+04  0.32140503168E+04 0.  0.
        3    1    3    3  502    0 -0.96732986971E+03 -0.58585223558E+03 -0.10927230352E+04  0.15725754547E+04  0.10100000352E+00 0.  1.
       -3    1    3    3    0  502  0.96732986971E+03  0.58585223558E+03  0.11918512764E+04  0.16430031631E+04  0.10100000352E+00 0. -1.
</event>
<event>
 5   0  0.7971763E-06  0.3263749E+04  0.7818609E-02  0.8172181E-01
        2   -1    0    0  501    0  0.00000000000E+00  0.00000000000E+00  0.16341603154E+04  0.16341603154E+04  0.25500000920E-02 0. -1.
       -2   -1    0    0    0  501  0.00000000000E+00  0.00000000000E+00 -0.16295919407E+04  0.16295919407E+04  0.25500000920E-02 0.  1.
    10030    2    1    2    0    0  0.00000000000E+00  0.00000000000E+00  0.45683746856E+01  0.32637522562E+04  0.32637490589E+04 0.  0.
        1    1    3    3  502    0 -0.13292717422E+04 -0.88288520120E+03 -0.33913207631E+03  0.16313982372E+04  0.50400001928E-02 0.  1.
       -1    1    3    3    0  502  0.13292717422E+04  0.88288520120E+03  0.34370045099E+03  0.16323540190E+04  0.50400001928E-02 0. -1.
</event>
<event>
 5   0  0.4142886E-06  0.2971200E+04  0.7818609E-02  0.8252003E-01
        1   -1    0    0  501    0  0.00000000000E+00  0.00000000000E+00  0.21828051446E+04  0.21828051446E+04  0.50400001928E-02 0.  1.
       -1   -1    0    0    0  501  0.00000000000E+00  0.00000000000E+00 -0.10110875752E+04  0.10110875752E+04  0.50400001928E-02 0. -1.
    10030    2    1    2    0    0  0.00000000000E+00  0.00000000000E+00  0.11717175694E+04  0.31938927198E+04  0.29711998659E+04 0.  0.
        5    1    3    3  502    0  0.12751218407E+04 -0.74259608368E+03  0.40091600324E+03  0.15290978987E+04  0.46999998093E+01 0. -1.
       -5    1    3    3    0  502 -0.12751218407E+04  0.74259608368E+03  0.77080156621E+03  0.16647948211E+04  0.46999998093E+01 0.  1.
</event>
<event>
 5   0  0.7941434E-06  0.2976523E+04  0.7818609E-02  0.8250467E-01
        2   -1    0    0  501    0  0.00000000000E+00  0.00000000000E+00  0.14692128757E+04  0.14692128757E+04  0.25500000920E-02 0.  1.
       -2   -1    0    0    0  501  0.00000000000E+00  0.00000000000E+00 -0.15075574704E+04  0.15075574704E+04  0.25500000920E-02 0. -1.
    10030    2    1    2    0    0  0.00000000000E+00  0.00000000000E+00 -0.38344594708E+02  0.29767703460E+04  0.29765233722E+04 0.  0.
        4    1    3    3  502    0 -0.14700350003E+04 -0.25253195289E+02  0.21167277929E+03  0.14854115943E+04  0.12699999809E+01 0.  1.
       -4    1    3    3    0  502  0.14700350003E+04  0.25253195289E+02 -0.25001737400E+03  0.14913587517E+04  0.12699999809E+01 0. -1.
</event>
<event>
 5   0  0.7971763E-06  0.2881220E+04  0.7818609E-02  0.8278487E-01
       -2   -1    0    0    0  501  0.00000000000E+00  0.00000000000E+00  0.81290253958E+03  0.81290253958E+03  0.25500000920E-02 0. -1.
        2   -1    0    0  501    0  0.00000000000E+00  0.00000000000E+00 -0.25530215240E+04  0.25530215240E+04  0.25500000920E-02 0.  1.
    10030    2    1    2    0    0  0.00000000000E+00  0.00000000000E+00 -0.17401189845E+04  0.33659240636E+04  0.28812203529E+04 0.  0.
        1    1    3    3  502    0 -0.69400383024E+03 -0.10459031618E+04 -0.44159916064E+02  0.12559875949E+04  0.50400001928E-02 0.  1.
       -1    1    3    3    0  502  0.69400383024E+03  0.10459031618E+04 -0.16959590684E+04  0.21099364687E+04  0.50400001928E-02 0. -1.
</event>
<event>
 5   0  0.7510251E-06  0.3025243E+04  0.7818609E-02  0.8236559E-01
        2   -1    0    0  501    0  0.00000000000E+00  0.00000000000E+00  0.16486997350E+04  0.16486997350E+04  0.25500000920E-02 0.  1.
       -2   -1    0    0    0  501  0.00000000000E+00  0.00000000000E+00 -0.13877751396E+04  0.13877751396E+04  0.25500000920E-02 0. -1.
    10030    2    1    2    0    0  0.00000000000E+00  0.00000000000E+00  0.26092459538E+03  0.30364748746E+04  0.30252434646E+04 0.  0.
        3    1    3    3  502    0 -0.12668085617E+04 -0.53380086172E+02 -0.69744612093E+03  0.14470951825E+04  0.10100000352E+00 0. -1.
       -3    1    3    3    0  502  0.12668085617E+04  0.53380086172E+02  0.95837071631E+03  0.15893796921E+04  0.10100000352E+00 0.  1.
</event>
<event>
 5   0  0.7952307E-06  0.2229679E+04  0.7818609E-02  0.8506176E-01
        2   -1    0    0  501    0  0.00000000000E+00  0.00000000000E+00  0.11412521899E+04  0.11412521899E+04  0.25500000920E-02 0. -1.
       -2   -1    0    0    0  501  0.00000000000E+00  0.00000000000E+00 -0.10890380026E+04  0.10890380026E+04  0.25500000920E-02 0.  1.
    10030    2    1    2    0    0  0.00000000000E+00  0.00000000000E+00  0.52214187334E+02  0.22302901925E+04  0.22296789054E+04 0.  0.
        2    1    3    3  502    0  0.26841210498E+03 -0.73014392957E+03  0.82489461635E+03  0.11338458202E+04  0.25500000920E-02 0. -1.
       -2    1    3    3    0  502 -0.26841210498E+03  0.73014392957E+03 -0.77268042902E+03  0.10964443722E+04  0.25500000920E-02 0.  1.
</event>
<event>
 5   0  0.7971763E-06  0.2286001E+04  0.7818609E-02  0.8483461E-01
       -2   -1    0    0    0  501  0.00000000000E+00  0.00000000000E+00  0.65544039278E+03  0.65544039278E+03  0.25500000920E-02 0. -1.
        2   -1    0    0  501    0  0.00000000000E+00  0.00000000000E+00 -0.19932398809E+04  0.19932398809E+04  0.25500000920E-02 0.  1.
    10030    2    1    2    0    0  0.00000000000E+00  0.00000000000E+00 -0.13377994881E+04  0.26486802736E+04  0.22860008140E+04 0.  0.
        1    1    3    3  502    0 -0.59307997242E+03 -0.50309400075E+03 -0.16394068538E+04  0.18145253538E+04  0.50400001928E-02 0.  1.
       -1    1    3    3    0  502  0.59307997242E+03  0.50309400075E+03  0.30160736569E+03  0.83415491987E+03  0.50400001928E-02 0. -1.
</event>
<event>
 5   0  0.8237664E-06  0.3202743E+04  0.7818609E-02  0.8188093E-01
       -2   -1    0    0    0  501  0.00000000000E+00  0.00000000000E+00  0.99698532254E+03  0.99698532254E+03  0.25500000920E-02 0.  1.
        2   -1    0    0  501    0  0.00000000000E+00  0.00000000000E+00 -0.25721447169E+04  0.25721447169E+04  0.25500000920E-02 0. -1.
    10030    2    1    2    0    0  0.00000000000E+00  0.00000000000E+00 -0.15751593944E+04  0.35691300394E+04  0.32027429058E+04 0.  0.
        5    1    3    3  502    0  0.12550724474E+04  0.21866238058E+03  0.29364380627E+03  0.13073900947E+04  0.46999998093E+01 0.  1.
       -5    1    3    3    0  502 -0.12550724474E+04 -0.21866238058E+03 -0.18688032006E+04  0.22617399447E+04  0.46999998093E+01 0. -1.
</event>
<event>
 5   0  0.7952307E-06  0.2141208E+04  0.7818609E-02  0.8543305E-01
       -2   -1    0    0    0  501  0.00000000000E+00  0.00000000000E+00  0.99265525936E+03  0.99265525937E+03  0.25500000920E-02 0. -1.
        2   -1    0    0  501    0  0.00000000000E+00  0.00000000000E+00 -0.11546733839E+04  0.11546733839E+04  0.25500000920E-02 0.  1.
    10030    2    1    2    0    0  0.00000000000E+00  0.00000000000E+00 -0.16201812458E+03  0.21473286433E+04  0.21412077035E+04 0.  0.
        2    1    3    3  502    0  0.44644636159E+03  0.24497264201E+03 -0.10254371267E+04  0.11449223772E+04  0.25500000920E-02 0.  1.
       -2    1    3    3    0  502 -0.44644636159E+03 -0.24497264201E+03  0.86341900209E+03  0.10024062661E+04  0.25500000920E-02 0. -1.
</event>
<event>
 5   0  0.2788054E-06  0.2033491E+04  0.7818609E-02  0.8591121E-01
        1   -1    0    0  501    0  0.00000000000E+00  0.00000000000E+00  0.10630922607E+04  0.10630922607E+04  0.50400001928E-02 0.  1.
       -1   -1    0    0    0  501  0.00000000000E+00  0.00000000000E+00 -0.97241905081E+03  0.97241905082E+03  0.50400001928E-02 0. -1.
    10030    2    1    2    0    0  0.00000000000E+00  0.00000000000E+00  0.90673209913E+02  0.20355113116E+04  0.20334907594E+04 0.  0.
        3    1    3    3  502    0 -0.17512617713E+02  0.10022866689E+04 -0.12479079200E+03  0.10101772173E+04  0.10100000352E+00 0. -1.
       -3    1    3    3    0  502  0.17512617713E+02 -0.10022866689E+04  0.21546400191E+03  0.10253340942E+04  0.10100000352E+00 0.  1.
</event>
<event>
 5   0  0.2635798E-06  0.2250589E+04  0.7818609E-02  0.8497662E-01
        1   -1    0    0  501    0  0.00000000000E+00  0.00000000000E+00  0.89605402708E+03  0.89605402710E+03  0.50400001928E-02 0. -1.
       -1   -1    0    0    0  501  0.00000000000E+00  0.00000000000E+00 -0.14131827123E+04  0.14131827123E+04  0.50400001928E-02 0.  1.
    10030    2    1    2    0    0  0.00000000000E+00  0.00000000000E+00 -0.51712868519E+03  0.23092367394E+04  0.22505893098E+04 0.  0.
        1    1    3    3  502    0 -0.62074984954E+03 -0.44671211975E+02 -0.12205249723E+04  0.13700390873E+04  0.50400001928E-02 0.  1.
       -1    1    3    3    0  502  0.62074984954E+03  0.44671211975E+02  0.70339628708E+03  0.93919765204E+03  0.50400001928E-02 0. -1.
</event>
<event>
 5   0  0.7952307E-06  0.1718570E+04  0.7818609E-02  0.8750844E-01
       -2   -1    0    0    0  501  0.00000000000E+00  0.00000000000E+00  0.73706543747E+03  0.73706543747E+03  0.25500000920E-02 0. -1.
        2   -1    0    0  501    0  0.00000000000E+00  0.00000000000E+00 -0.10017706430E+04  0.10017706430E+04  0.25500000920E-02 0.  1.
    10030    2    1    2    0    0  0.00000000000E+00  0.00000000000E+00 -0.26470520553E+03  0.17388360805E+04  0.17185697742E+04 0.  0.
        2    1    3    3  502    0  0.82131961273E+03 -0.23684246943E+03 -0.43509061171E+02  0.85589327605E+03  0.25500000920E-02 0. -1.
       -2    1    3    3    0  502 -0.82131961273E+03  0.23684246943E+03 -0.22119614435E+03  0.88294280441E+03  0.25500000920E-02 0.  1.
</event>
<event>
 5   0  0.8237664E-06  0.3252779E+04  0.7818609E-02  0.8175016E-01
        2   -1    0    0  501    0  0.00000000000E+00  0.00000000000E+00  0.18475246144E+04  0.18475246144E+04  0.25500000920E-02 0. -1.
       -2   -1    0    0    0  501  0.00000000000E+00  0.00000000000E+00 -0.14317223532E+04  0.14317223532E+04  0.25500000920E-02 0.  1.
    10030    2    1    2    0    0  0.00000000000E+00  0.00000000000E+00  0.41580226122E+03  0.32792469676E+04  0.32527786820E+04 0.  0.
        5    1    3    3  502    0  0.86903635699E+03  0.81269077686E+03 -0.90991780592E+03  0.14978861746E+04  0.46999998093E+01 0.  1.
       -5    1    3    3    0  502 -0.86903635699E+03 -0.81269077686E+03  0.13257200671E+04  0.17813607930E+04  0.46999998093E+01 0. -1.
</event>
<event>
 5   0  0.8237664E-06  0.2114180E+04  0.7818609E-02  0.8555023E-01
        2   -1    0    0  501    0  0.00000000000E+00  0.00000000000E+00  0.12248195422E+04  0.12248195422E+04  0.25500000920E-02 0. -1.
       -2   -1    0    0    0  501  0.00000000000E+00  0.00000000000E+00 -0.91232984510E+03  0.91232984511E+03  0.25500000920E-02 0.  1.
    10030    2    1    2    0    0  0.00000000000E+00  0.00000000000E+00  0.31248969714E+03  0.21371493873E+04  0.21141801468E+04 0.  0.
        5    1    3    3  502    0  0.45211093718E+03 -0.89186530503E+03 -0.19039366515E+03  0.10178899054E+04  0.46999998093E+01 0.  1.
       -5    1    3    3    0  502 -0.45211093718E+03  0.89186530503E+03  0.50288336229E+03  0.11192594819E+04  0.46999998093E+01 0. -1.
</event>
<event>
 5   0  0.3938696E-06  0.3261156E+04  0.7818609E-02  0.8172850E-01
        1   -1    0    0  501    0  0.00000000000E+00  0.00000000000E+00  0.20987743199E+04  0.20987743199E+04  0.50400001928E-02 0. -1.
       -1   -1    0    0    0  501  0.00000000000E+00  0.00000000000E+00 -0.12668275780E+04  0.12668275780E+04  0.50400001928E-02 0.  1.
    10030    2    1    2    0    0  0.00000000000E+00  0.00000000000E+00  0.83194674191E+03  0.33656018978E+04  0.32611563522E+04 0.  0.
        4    1    3    3  502    0  0.45038311538E+03 -0.38876012205E+03 -0.11508070669E+04  0.12955068125E+04  0.12699999809E+01 0.  1.
       -4    1    3    3    0  502 -0.45038311538E+03  0.38876012205E+03  0.19827538088E+04  0.20700950853E+04  0.12699999809E+01 0. -1.
</event>
<event>
 5   0  0.7971763E-06  0.2908761E+04  0.7818609E-02  0.8270275E-01
        2   -1    0    0  501    0  0.00000000000E+00  0.00000000000E+00  0.19205493753E+04  0.19205493753E+04  0.25500000920E-02 0. -1.
       -2   -1    0    0    0  501  0.00000000000E+00  0.00000000000E+00 -0.11013636859E+04  0.11013636859E+04  0.25500000920E-02 0.  1.
    10030    2    1    2    0    0  0.00000000000E+00  0.00000000000E+00  0.81918568941E+03  0.30219130613E+04  0.29087614815E+04 0.  0.
        1    1    3    3  502    0  0.66296116789E+03  0.10928471871E+04  0.11304061140E+04  0.17063559028E+04  0.50400001928E-02 0. -1.
       -1    1    3    3    0  502 -0.66296116789E+03 -0.10928471871E+04 -0.31122042459E+03  0.13155571585E+04  0.50400001928E-02 0.  1.
</event>
<event>
 5   0  0.7941434E-06  0.1882791E+04  0.7818609E-02  0.8663470E-01
       -2   -1    0    0    0  501  0.00000000000E+00  0.00000000000E+00  0.65353039659E+03  0.65353039659E+03  0.25500000920E-02 0.  1.
        2   -1    0    0  501    0  0.00000000000E+00  0.00000000000E+00 -0.13560580292E+04  0.13560580292E+04  0.25500000920E-02 0. -1.
    10030    2    1    2    0    0  0.00000000000E+00  0.00000000000E+00 -0.70252763262E+03  0.20095884258E+04  0.18827906327E+04 0.  0.
        4    1    3    3  502    0  0.68781596354E+02  0.74074289478E+03 -0.96699608195E+03  0.12200467120E+04  0.12699999809E+01 0. -1.
       -4    1    3    3    0  502 -0.68781596354E+02 -0.74074289478E+03  0.26446844933E+03  0.78954171375E+03  0.12699999809E+01 0.  1.
</event>
<event>
 5   0  0.7952307E-06  0.3302734E+04  0.7818609E-02  0.8162200E-01
       -2   -1    0    0    0  501  0.00000000000E+00  0.00000000000E+00  0.12048355711E+04  0.12048355711E+04  0.25500000920E-02 0.  1.
        2   -1    0    0  501    0  0.00000000000E+00  0.00000000000E+00 -0.22633897176E+04  0.22633897176E+04  0.25500000920E-02 0. -1.
    10030    2    1    2    0    0  0.00000000000E+00  0.00000000000E+00 -0.10585541465E+04  0.34682252887E+04  0.33027336817E+04 0.  0.
        2    1    3    3  502    0 -0.10747149418E+04 -0.10640864168E+04 -0.12256181583E+04  0.19466463414E+04  0.25500000920E-02 0. -1.
       -2    1    3    3    0  502  0.10747149418E+04  0.10640864168E+04  0.16706401180E+03  0.15215789473E+04  0.25500000920E-02 0.  1.
</event>
<event>
 5   0  0.7952307E-06  0.2353272E+04  0.7818609E-02  0.8457208E-01
        2   -1    0    0  501    0  0.00000000000E+00  0.00000000000E+00  0.11218319094E+04  0.11218319094E+04  0.25500000920E-02 0.  1.
       -2   -1    0    0    0  501  0.00000000000E+00  0.00000000000E+00 -0.12341169676E+04  0.12341169676E+04  0.25500000920E-02 0. -1.
    10030    2    1    2    0    0  0.00000000000E+00  0.00000000000E+00 -0.11228505824E+03  0.23559488770E+04  0.23532715901E+04 0.  0.
        2    1    3    3  502    0  0.38310920626E+03 -0.10623163186E+04  0.27466216177E+03  0.11622082119E+04  0.25500000920E-02 0.  1.
       -2    1    3    3    0  502 -0.38310920626E+03  0.10623163186E+04 -0.38694722001E+03  0.11937406652E+04  0.25500000920E-02 0. -1.
</event>
<event>
 5   0  0.2933646E-06  0.2365019E+04  0.7818609E-02  0.8452717E-01
        1   -1    0    0  501    0  0.00000000000E+00  0.00000000000E+00  0.17147029246E+04  0.17147029246E+04  0.50400001928E-02 0.  1.
       -1   -1    0    0    0  501  0.00000000000E+00  0.00000000000E+00 -0.81549320110E+03  0.81549320111E+03  0.50400001928E-02 0. -1.
    10030    2    1    2    0    0  0.00000000000E+00  0.00000000000E+00  0.89920972350E+03  0.25301961257E+04  0.23650188811E+04 0.  0.
        2    1    3    3  502    0 -0.10639817442E+04 -0.29069577081E+03 -0.65135089378E+01  0.11029975562E+04  0.25500000920E-02 0. -1.
       -2    1    3    3    0  502  0.10639817442E+04  0.29069577081E+03  0.90572323244E+03  0.14271985695E+04  0.25500000920E-02 0.  1.
</event>
<event>
 5   0  0.2788054E-06  0.2508491E+04  0.7818609E-02  0.8399967E-01
        1   -1    0    0  501    0  0.00000000000E+00  0.00000000000E+00  0.18532051945E+04  0.18532051945E+04  0.50400001928E-02 0.  1.
       -1   -1    0    0    0  501  0.00000000000E+00  0.00000000000E+00 -0.84887085614E+03  0.84887085616E+03  0.50400001928E-02 0. -1.
    10030    2    1    2    0    0  0.00000000000E+00  0.00000000000E+00  0.10043343383E+04  0.27020760506E+04  0.25084910844E+04 0.  0.
        3    1    3    3  502    0  0.11789970957E+04 -0.34140541002E+03  0.78002754181E+03  0.14543159155E+04  0.10100000352E+00 0.  1.
       -3    1    3    3    0  502 -0.11789970957E+04  0.34140541002E+03  0.22430679652E+03  0.12477601352E+04  0.10100000352E+00 0. -1.
</event>
<event>
 5   0  0.8237664E-06  0.3265759E+04  0.7818609E-02  0.8171663E-01
        2   -1    0    0  501    0  0.00000000000E+00  0.00000000000E+00  0.18467484910E+04  0.18467484910E+04  0.25500000920E-02 0. -1.
       -2   -1    0    0    0  501  0.00000000000E+00  0.00000000000E+00 -0.14437779732E+04  0.14437779732E+04  0.25500000920E-02 0.  1.
    10030    2    1    2    0    0  0.00000000000E+00  0.00000000000E+00  0.40297051787E+03  0.32905264642E+04  0.32657585908E+04 0.  0.
        5    1    3    3  502    0 -0.15219059767E+04  0.57587981932E+03  0.64671307786E+02  0.16285084698E+04  0.46999998093E+01 0. -1.
       -5    1    3    3    0  502  0.15219059767E+04 -0.57587981932E+03  0.33829921008E+03  0.16620179944E+04  0.46999998093E+01 0.  1.
</event>
<event>
 5   0  0.7971763E-06  0.1704758E+04  0.7818609E-02  0.8758655E-01
        2   -1    0    0  501    0  0.00000000000E+00  0.00000000000E+00  0.15119294874E+04  0.15119294874E+04  0.25500000920E-02 0.  1.
       -2   -1    0    0    0  501  0.00000000000E+00  0.00000000000E+00 -0.48054499879E+03  0.48054499880E+03  0.25500000920E-02 0. -1.
    10030    2    1    2    0    0  0.00000000000E+00  0.00000000000E+00  0.10313844887E+04  0.19924744862E+04  0.17047582277E+04 0.  0.
        1    1    3    3  502    0  0.42828211017E+03 -0.72484751982E+03  0.36010645401E+03  0.91569981497E+03  0.50400001928E-02 0.  1.
       -1    1    3    3    0  502 -0.42828211017E+03  0.72484751982E+03  0.67127803464E+03  0.10767746713E+04  0.50400001928E-02 0. -1.
</event>
<event>
 5   0  0.3938696E-06  0.3189557E+04  0.7818609E-02  0.8191581E-01
       -1   -1    0    0    0  501  0.00000000000E+00  0.00000000000E+00  0.25790797942E+04  0.25790797942E+04  0.50400001928E-02 0. -1.
        1   -1    0    0  501    0  0.00000000000E+00  0.00000000000E+00 -0.98613386834E+03  0.98613386835E+03  0.50400001928E-02 0.  1.
    10030    2    1    2    0    0  0.00000000000E+00  0.00000000000E+00  0.15929459259E+04  0.35652136626E+04  0.31895566678E+04 0.  0.
        4    1    3    3  502    0 -0.12725580259E+04 -0.91337234422E+03  0.11311783689E+04  0.19321540010E+04  0.12699999809E+01 0. -1.
       -4    1    3    3    0  502  0.12725580259E+04  0.91337234422E+03  0.46176755695E+03  0.16330596615E+04  0.12699999809E+01 0.  1.
</event>
<event>
 5   0  0.2788054E-06  0.3236521E+04  0.7818609E-02  0.8179238E-01
       -1   -1    0    0    0  501  0.00000000000E+00  0.00000000000E+00  0.13163216152E+04  0.13163216152E+04  0.50400001928E-02 0. -1.
        1   -1    0    0  501    0  0.00000000000E+00  0.00000000000E+00 -0.19894586300E+04  0.19894586300E+04  0.50400001928E-02 0.  1.
    10030    2    1    2    0    0  0.00000000000E+00  0.00000000000E+00 -0.67313701484E+03  0.33057802452E+04  0.32365212172E+04 0.  0.
        3    1    3    3  502    0  0.46219118157E+03 -0.51547696265E+03 -0.18305478161E+04  0.19571005351E+04  0.10100000352E+00 0.  1.
       -3    1    3    3    0  502 -0.46219118157E+03  0.51547696265E+03  0.11574108013E+04  0.13486797101E+04  0.10100000352E+00 0. -1.
</event>
<event>
 5   0  0.8237664E-06  0.2589335E+04  0.7818609E-02  0.8371833E-01
       -2   -1    0    0    0  501  0.00000000000E+00  0.00000000000E+00  0.85828556139E+03  0.85828556139E+03  0.25500000920E-02 0.  1.
        2   -1    0    0  501    0  0.00000000000E+00  0.00000000000E+00 -0.19529209595E+04  0.19529209595E+04  0.25500000920E-02 0. -1.
    10030    2    1    2    0    0  0.00000000000E+00  0.00000000000E+00 -0.10946353981E+04  0.28112065209E+04  0.25893349433E+04 0.  0.
        5    1    3    3  502    0 -0.74611721469E+03 -0.28118246925E+03 -0.16547113748E+04  0.18368032837E+04  0.46999998093E+01 0. -1.
       -5    1    3    3    0  502  0.74611721469E+03  0.28118246925E+03  0.56007597668E+03  0.97440323722E+03  0.46999998093E+01 0.  1.
</event>
<event>
 5   0  0.2580875E-06  0.1797703E+04  0.7818609E-02  0.8707522E-01
       -4   -1    0    0    0  501  0.00000000000E+00  0.00000000000E+00  0.49139987788E+03  0.49140151901E+03  0.12699999809E+01 0. -1.
        4   -1    0    0  501    0  0.00000000000E+00  0.00000000000E+00 -0.16441426796E+04  0.16441431700E+04  0.12699999809E+01 0.  1.
    10030    2    1    2    0    0  0.00000000000E+00  0.00000000000E+00 -0.11527428017E+04  0.21355446891E+04  0.17977027430E+04 0.  0.
        3    1    3    3  502    0 -0.25308478777E+02  0.84793288393E+03 -0.92937466116E+03  0.12583195007E+04  0.10100000352E+00 0.  1.
       -3    1    3    3    0  502  0.25308478777E+02 -0.84793288393E+03 -0.22336814051E+03  0.87722518839E+03  0.10100000352E+00 0. -1.
</event>
<event>
 5   0  0.7952307E-06  0.3183073E+04  0.7818609E-02  0.8193302E-01
        2   -1    0    0  501    0  0.00000000000E+00  0.00000000000E+00  0.14500580542E+04  0.14500580542E+04  0.25500000920E-02 0. -1.
       -2   -1    0    0    0  501  0.00000000000E+00  0.00000000000E+00 -0.17468187060E+04  0.17468187060E+04  0.25500000920E-02 0.  1.
    10030    2    1    2    0    0  0.00000000000E+00  0.00000000000E+00 -0.29676065173E+03  0.31968767602E+04  0.31830730648E+04 0.  0.
        2    1    3    3  502    0  0.11109808971E+04 -0.11362550483E+04 -0.60626101161E+02  0.15902923042E+04  0.25500000920E-02 0. -1.
       -2    1    3    3    0  502 -0.11109808971E+04  0.11362550483E+04 -0.23613455057E+03  0.16065844561E+04  0.25500000920E-02 0.  1.
</event>
<event>
 5   0  0.7941434E-06  0.3175086E+04  0.7818609E-02  0.8195428E-01
       -2   -1    0    0    0  501  0.00000000000E+00  0.00000000000E+00  0.10236060386E+04  0.10236060386E+04  0.25500000920E-02 0.  1.
        2   -1    0    0  501    0  0.00000000000E+00  0.00000000000E+00 -0.24621709989E+04  0.24621709989E+04  0.25500000920E-02 0. -1.
    10030    2    1    2    0    0  0.00000000000E+00  0.00000000000E+00 -0.14385649602E+04  0.34857770375E+04  0.31750862052E+04 0.  0.
        4    1    3    3  502    0 -0.35631102357E+03  0.15468989371E+04 -0.74224893558E+03  0.17523666746E+04  0.12699999809E+01 0. -1.
       -4    1    3    3    0  502  0.35631102357E+03 -0.15468989371E+04 -0.69631602465E+03  0.17334103629E+04  0.12699999809E+01 0.  1.
</event>
<event>
 5   0  0.2635798E-06  0.3187711E+04  0.7818609E-02  0.8192070E-01
        1   -1    0    0  501    0  0.00000000000E+00  0.00000000000E+00  0.27382545201E+04  0.27382545201E+04  0.50400001928E-02 0.  1.
       -1   -1    0    0    0  501  0.00000000000E+00  0.00000000000E+00 -0.92773540289E+03  0.92773540290E+03  0.50400001928E-02 0. -1.
    10030    2    1    2    0    0  0.00000000000E+00  0.00000000000E+00  0.18105191173E+04  0.36659899230E+04  0.31877111917E+04 0.  0.
        1    1    3    3  502    0  0.14249593933E+04 -0.70170812600E+03  0.75324514238E+03  0.17579197397E+04  0.50400001928E-02 0. -1.
       -1    1    3    3    0  502 -0.14249593933E+04  0.70170812600E+03  0.10572739749E+04  0.19080701834E+04  0.50400001928E-02 0.  1.
</event>
<event>
 5   0  0.2635798E-06  0.3127151E+04  0.7818609E-02  0.8208326E-01
        1   -1    0    0  501    0  0.00000000000E+00  0.00000000000E+00  0.12874895293E+04  0.12874895293E+04  0.50400001928E-02 0.  1.
       -1   -1    0    0    0  501  0.00000000000E+00  0.00000000000E+00 -0.18988647428E+04  0.18988647429E+04  0.50400001928E-02 0. -1.
    10030    2    1    2    0    0  0.00000000000E+00  0.00000000000E+00 -0.61137521359E+03  0.31863542721E+04  0.31271510830E+04 0.  0.
        1    1    3    3  502    0 -0.59513506194E+03 -0.53729983509E+03  0.10620712306E+04  0.13307412046E+04  0.50400001928E-02 0.  1.
       -1    1    3    3    0  502  0.59513506194E+03  0.53729983509E+03 -0.16734464442E+04  0.18556130675E+04  0.50400001928E-02 0. -1.
</event>
<event>
 5   0  0.4142886E-06  0.2344604E+04  0.7818609E-02  0.8460539E-01
       -1   -1    0    0    0  501  0.00000000000E+00  0.00000000000E+00  0.13465537211E+04  0.13465537211E+04  0.50400001928E-02 0.  1.
        1   -1    0    0  501    0  0.00000000000E+00  0.00000000000E+00 -0.10205997657E+04  0.10205997657E+04  0.50400001928E-02 0. -1.
    10030    2    1    2    0    0  0.00000000000E+00  0.00000000000E+00  0.32595395539E+03  0.23671534868E+04  0.23446043694E+04 0.  0.
        5    1    3    3  502    0  0.20866586643E+03  0.24339297440E+03  0.13014247395E+04  0.13403395190E+04  0.46999998093E+01 0.  1.
       -5    1    3    3    0  502 -0.20866586643E+03 -0.24339297440E+03 -0.97547078407E+03  0.10268139678E+04  0.46999998093E+01 0. -1.
</event>
<event>
 5   0  0.7971763E-06  0.3207357E+04  0.7818609E-02  0.8186877E-01
       -2   -1    0    0    0  501  0.00000000000E+00  0.00000000000E+00  0.15352364595E+04  0.15352364595E+04  0.25500000920E-02 0.  1.
        2   -1    0    0  501    0  0.00000000000E+00  0.00000000000E+00 -0.16751714780E+04  0.16751714780E+04  0.25500000920E-02 0. -1.
    10030    2    1    2    0    0  0.00000000000E+00  0.00000000000E+00 -0.13993501846E+03  0.32104079375E+04  0.32073567491E+04 0.  0.
        1    1    3    3  502    0  0.46182415658E+03 -0.80324196865E+03 -0.13801455254E+04  0.16623119091E+04  0.50400001928E-02 0. -1.
       -1    1    3    3    0  502 -0.46182415658E+03  0.80324196865E+03  0.12402105069E+04  0.15480960284E+04  0.50400001928E-02 0.  1.
</event>
<event>
 5   0  0.7941434E-06  0.3219406E+04  0.7818609E-02  0.8183711E-01
       -2   -1    0    0    0  501  0.00000000000E+00  0.00000000000E+00  0.18166951300E+04  0.18166951300E+04  0.25500000920E-02 0. -1.
        2   -1    0    0  501    0  0.00000000000E+00  0.00000000000E+00 -0.14262949080E+04  0.14262949080E+04  0.25500000920E-02 0.  1.
    10030    2    1    2    0    0  0.00000000000E+00  0.00000000000E+00  0.39040022202E+03  0.32429900380E+04  0.32194055434E+04 0.  0.
        4    1    3    3  502    0 -0.58320075389E+03  0.14415507217E+04  0.61411901281E+03  0.16719256495E+04  0.12699999809E+01 0. -1.
       -4    1    3    3    0  502  0.58320075389E+03 -0.14415507217E+04 -0.22371879079E+03  0.15710643885E+04  0.12699999809E+01 0.  1.
</event>
<event>
 5   0  0.3938696E-06  0.3173409E+04  0.7818609E-02  0.8195875E-01
        1   -1    0    0  501    0  0.00000000000E+00  0.00000000000E+00  0.16839301887E+04  0.16839301887E+04  0.50400001928E-02 0.  1.
       -1   -1    0    0    0  501  0.00000000000E+00  0.00000000000E+00 -0.14950921953E+04  0.14950921953E+04  0.50400001928E-02 0. -1.
    10030    2    1    2    0    0  0.00000000000E+00  0.00000000000E+00  0.18883799340E+03  0.31790223839E+04  0.31734088186E+04 0.  0.
        4    1    3    3  502    0 -0.58426252925E+03 -0.14620200519E+04 -0.10281486860E+03  0.15777952482E+04  0.12699999809E+01 0. -1.
       -4    1    3    3    0  502  0.58426252925E+03  0.14620200519E+04  0.29165286200E+03  0.16012271357E+04  0.12699999809E+01 0.  1.
</event>
<event>
 5   0  0.7971763E-06  0.3197492E+04  0.7818609E-02  0.8189480E-01
        2   -1    0    0  501    0  0.00000000000E+00  0.00000000000E+00  0.14852840085E+04  0.14852840085E+04  0.25500000920E-02 0. -1.
       -2   -1    0    0    0  501  0.00000000000E+00  0.00000000000E+00 -0.17208753081E+04  0.17208753081E+04  0.25500000920E-02 0.  1.
    10030    2    1    2    0    0  0.00000000000E+00  0.00000000000E+00 -0.23559129963E+03  0.32061593167E+04  0.31974918770E+04 0.  0.
        1    1    3    3  502    0  0.11941162994E+04 -0.41788593788E+03  0.86232324994E+03  0.15310596922E+04  0.50400001928E-02 0. -1.
       -1    1    3    3    0  502 -0.11941162994E+04  0.41788593788E+03 -0.10979145496E+04  0.16750996245E+04  0.50400001928E-02 0.  1.
</event>
<event>
 5   0  0.4142886E-06  0.2647552E+04  0.7818609E-02  0.8352226E-01
        1   -1    0    0  501    0  0.00000000000E+00  0.00000000000E+00  0.20743511478E+04  0.20743511478E+04  0.50400001928E-02 0.  1.
       -1   -1    0    0    0  501  0.00000000000E+00  0.00000000000E+00 -0.84478575567E+03  0.84478575568E+03  0.50400001928E-02 0. -1.
    10030    2    1    2    0    0  0.00000000000E+00  0.00000000000E+00  0.12295653921E+04  0.29191369035E+04  0.26475515496E+04 0.  0.
        5    1    3    3  502    0  0.11631204247E+04 -0.26333301776E+03 -0.18761251232E+02  0.11927143309E+04  0.46999998093E+01 0. -1.
       -5    1    3    3    0  502 -0.11631204247E+04  0.26333301776E+03  0.12483266434E+04  0.17264225726E+04  0.46999998093E+01 0.  1.
</event>
<event>
 5   0  0.7952307E-06  0.3225596E+04  0.7818609E-02  0.8182090E-01
       -2   -1    0    0    0  501  0.00000000000E+00  0.00000000000E+00  0.11291652779E+04  0.11291652779E+04  0.25500000920E-02 0.  1.
        2   -1    0    0  501    0  0.00000000000E+00  0.00000000000E+00 -0.23035754977E+04  0.23035754977E+04  0.25500000920E-02 0. -1.
    10030    2    1    2    0    0  0.00000000000E+00  0.00000000000E+00 -0.11744102198E+04  0.34327407756E+04  0.32255960485E+04 0.  0.
        2    1    3    3  502    0  0.12516836580E+04  0.18889813120E+03 -0.16507444342E+04  0.20802287544E+04  0.25500000920E-02 0. -1.
       -2    1    3    3    0  502 -0.12516836580E+04 -0.18889813120E+03  0.47633421437E+03  0.13525120212E+04  0.25500000920E-02 0.  1.
</event>
<event>
 5   0  0.7952307E-06  0.3498923E+04  0.7818609E-02  0.8114045E-01
       -2   -1    0    0    0  501  0.00000000000E+00  0.00000000000E+00  0.18103029348E+04  0.18103029348E+04  0.25500000920E-02 0.  1.
        2   -1    0    0  501    0  0.00000000000E+00  0.00000000000E+00 -0.16906652849E+04  0.16906652849E+04  0.25500000920E-02 0. -1.
    10030    2    1    2    0    0  0.00000000000E+00  0.00000000000E+00  0.11963764988E+03  0.35009682197E+04  0.34989234499E+04 0.  0.
        2    1    3    3  502    0  0.79542211509E+03 -0.15429463895E+04 -0.15764761186E+03  0.17430526875E+04  0.25500000920E-02 0.  1.
       -2    1    3    3    0  502 -0.79542211509E+03  0.15429463895E+04  0.27728526173E+03  0.17579155322E+04  0.25500000920E-02 0. -1.
</event>
<event>
 5   0  0.7941434E-06  0.3257907E+04  0.7818609E-02  0.8173689E-01
       -2   -1    0    0    0  501  0.00000000000E+00  0.00000000000E+00  0.16748679381E+04  0.16748679381E+04  0.25500000920E-02 0.  1.
        2   -1    0    0  501    0  0.00000000000E+00  0.00000000000E+00 -0.15842974389E+04  0.15842974389E+04  0.25500000920E-02 0. -1.
    10030    2    1    2    0    0  0.00000000000E+00  0.00000000000E+00  0.90570499227E+02  0.32591653770E+04  0.32579066805E+04 0.  0.
        4    1    3    3  502    0 -0.44005772911E+03 -0.15679550849E+04  0.84821987403E+01  0.16285599510E+04  0.12699999809E+01 0.  1.
       -4    1    3    3    0  502  0.44005772911E+03  0.15679550849E+04  0.82088300486E+02  0.16306054260E+04  0.12699999809E+01 0. -1.
</event>
<event>
 5   0  0.7510251E-06  0.2208155E+04  0.7818609E-02  0.8515042E-01
        2   -1    0    0  501    0  0.00000000000E+00  0.00000000000E+00  0.17868766025E+04  0.17868766025E+04  0.25500000920E-02 0. -1.
       -2   -1    0    0    0  501  0.00000000000E+00  0.00000000000E+00 -0.68218871256E+03  0.68218871257E+03  0.25500000920E-02 0.  1.
    10030    2    1    2    0    0  0.00000000000E+00  0.00000000000E+00  0.11046878900E+04  0.24690653151E+04  0.22081549303E+04 0.  0.
        3    1    3    3  502    0 -0.10509138125E+04 -0.11337959285E+03  0.19573707867E+03  0.10749826917E+04  0.10100000352E+00 0.  1.
       -3    1    3    3    0  502  0.10509138125E+04  0.11337959285E+03  0.90895081132E+03  0.13940826234E+04  0.10100000352E+00 0. -1.
</event>
<event>
 5   0  0.7971763E-06  0.3288592E+04  0.7818609E-02  0.8165804E-01
       -2   -1    0    0    0  501  0.00000000000E+00  0.00000000000E+00  0.13270591250E+04  0.13270591250E+04  0.25500000920E-02 0.  1.
        2   -1    0    0  501    0  0.00000000000E+00  0.00000000000E+00 -0.20373697144E+04  0.20373697144E+04  0.25500000920E-02 0. -1.
    10030    2    1    2    0    0  0.00000000000E+00  0.00000000000E+00 -0.71031058940E+03  0.33644288395E+04  0.32885924470E+04 0.  0.
        1    1    3    3  502    0  0.20880117233E+03  0.58207338225E+01  0.13134303348E+04  0.13299364853E+04  0.50400001928E-02 0.  1.
       -1    1    3    3    0  502 -0.20880117233E+03 -0.58207338225E+01 -0.20237409242E+04  0.20344923541E+04  0.50400001928E-02 0. -1.
</event>
<event>
 5   0  0.8237664E-06  0.3166865E+04  0.7818609E-02  0.8197623E-01
       -2   -1    0    0    0  501  0.00000000000E+00  0.00000000000E+00  0.12462808111E+04  0.12462808111E+04  0.25500000920E-02 0. -1.
        2   -1    0    0  501    0  0.00000000000E+00  0.00000000000E+00 -0.20117920636E+04  0.20117920636E+04  0.25500000920E-02 0.  1.
    10030    2    1    2    0    0  0.00000000000E+00  0.00000000000E+00 -0.76551125248E+03  0.32580728747E+04  0.31668645975E+04 0.  0.
        5    1    3    3  502    0 -0.10717549096E+04 -0.25109782118E+03 -0.15537492820E+04  0.19041711119E+04  0.46999998093E+01 0.  1.
       -5    1    3    3    0  502  0.10717549096E+04  0.25109782118E+03  0.78823802948E+03  0.13539017628E+04  0.46999998093E+01 0. -1.
</event>
<event>
 5   0  0.3938696E-06  0.2248116E+04  0.7818609E-02  0.8498664E-01
        1   -1    0    0  501    0  0.00000000000E+00  0.00000000000E+00  0.27954938068E+04  0.27954938068E+04  0.50400001928E-02 0.  1.
       -1   -1    0    0    0  501  0.00000000000E+00  0.00000000000E+00 -0.45197971289E+03  0.45197971292E+03  0.50400001928E-02 0. -1.
    10030    2    1    2    0    0  0.00000000000E+00  0.00000000000E+00  0.23435140939E+04  0.32474735197E+04  0.22481160897E+04 0.  0.
        4    1    3    3  502    0  0.20573681709E+03  0.10409236898E+04  0.17077055383E+04  0.20104998345E+04  0.12699999809E+01 0.  1.
       -4    1    3    3    0  502 -0.20573681709E+03 -0.10409236898E+04  0.63580855558E+03  0.12369736853E+04  0.12699999809E+01 0. -1.
</event>
<event>
 5   0  0.4142886E-06  0.3221701E+04  0.7818609E-02  0.8183109E-01
        1   -1    0    0  501    0  0.00000000000E+00  0.00000000000E+00  0.14383593277E+04  0.14383593277E+04  0.50400001928E-02 0. -1.
       -1   -1    0    0    0  501  0.00000000000E+00  0.00000000000E+00 -0.18040273612E+04  0.18040273612E+04  0.50400001928E-02 0.  1.
    10030    2    1    2    0    0  0.00000000000E+00  0.00000000000E+00 -0.36566803348E+03  0.32423866890E+04  0.32217011547E+04 0.  0.
        5    1    3    3  502    0 -0.63429574204E+03  0.14719597116E+04 -0.34455492865E+03  0.16394318131E+04  0.46999998093E+01 0.  1.
       -5    1    3    3    0  502  0.63429574204E+03 -0.14719597116E+04 -0.21113104827E+02  0.16029548759E+04  0.46999998093E+01 0. -1.
</event>
<event>
 5   0  0.7941434E-06  0.3245974E+04  0.7818609E-02  0.8176780E-01
        2   -1    0    0  501    0  0.00000000000E+00  0.00000000000E+00  0.19293503687E+04  0.19293503687E+04  0.25500000920E-02 0.  1.
       -2   -1    0    0    0  501  0.00000000000E+00  0.00000000000E+00 -0.13652711973E+04  0.13652711973E+04  0.25500000920E-02 0. -1.
    10030    2    1    2    0    0  0.00000000000E+00  0.00000000000E+00  0.56407917142E+03  0.32946215659E+04  0.32459738063E+04 0.  0.
        4    1    3    3  502    0  0.10458165959E+04  0.11530837808E+04 -0.18391613089E+03  0.15675335129E+04  0.12699999809E+01 0. -1.
       -4    1    3    3    0  502 -0.10458165959E+04 -0.11530837808E+04  0.74799530231E+03  0.17270880531E+04  0.12699999809E+01 0.  1.
</event>
<event>
 5   0  0.7952307E-06  0.3188809E+04  0.7818609E-02  0.8191779E-01
        2   -1    0    0  501    0  0.00000000000E+00  0.00000000000E+00  0.17399338046E+04  0.17399338046E+04  0.25500000920E-02 0.  1.
       -2   -1    0    0    0  501  0.00000000000E+00  0.00000000000E+00 -0.14610476929E+04  0.14610476929E+04  0.25500000920E-02 0. -1.
    10030    2    1    2    0    0  0.00000000000E+00  0.00000000000E+00  0.27888611173E+03  0.32009814975E+04  0.31888093521E+04 0.  0.
        2    1    3    3  502    0 -0.47139196050E+03  0.13043790386E+04  0.92889990664E+03  0.16692723245E+04  0.25500000920E-02 0.  1.
       -2    1    3    3    0  502  0.47139196050E+03 -0.13043790386E+04 -0.65001379491E+03  0.15317091729E+04  0.25500000920E-02 0. -1.
</event>
<event>
 5   0  0.2580875E-06  0.2787914E+04  0.7818609E-02  0.8307030E-01
       -3   -1    0    0    0  501  0.00000000000E+00  0.00000000000E+00  0.19324851303E+04  0.19324851329E+04  0.10100000352E+00 0.  1.
        3   -1    0    0  501    0  0.00000000000E+00  0.00000000000E+00 -0.10055011675E+04  0.10055011726E+04  0.10100000352E+00 0. -1.
    10030    2    1    2    0    0  0.00000000000E+00  0.00000000000E+00  0.92698396279E+03  0.29379863055E+04  0.27879139628E+04 0.  0.
        5    1    3    3  502    0 -0.11421124526E+03 -0.13073919339E+04  0.95865297715E+03  0.16252247530E+04  0.46999998093E+01 0.  1.
       -5    1    3    3    0  502  0.11421124526E+03  0.13073919339E+04 -0.31669014360E+02  0.13127615525E+04  0.46999998093E+01 0. -1.
</event>
<event>
 5   0  0.3938696E-06  0.3065672E+04  0.7818609E-02  0.8225223E-01
        1   -1    0    0  501    0  0.00000000000E+00  0.00000000000E+00  0.25373360381E+04  0.25373360381E+04  0.50400001928E-02 0. -1.
       -1   -1    0    0    0  501  0.00000000000E+00  0.00000000000E+00 -0.92600519167E+03  0.92600519169E+03  0.50400001928E-02 0.  1.
    10030    2    1    2    0    0  0.00000000000E+00  0.00000000000E+00  0.16113308464E+04  0.34633412298E+04  0.30656720923E+04 0.  0.
        4    1    3    3  502    0  0.72010632449E+03  0.13453719045E+04  0.64193032093E+03  0.16554923225E+04  0.12699999809E+01 0.  1.
       -4    1    3    3    0  502 -0.72010632449E+03 -0.13453719045E+04  0.96940052548E+03  0.18078489073E+04  0.12699999809E+01 0. -1.
</event>
<event>
 5   0  0.8237664E-06  0.3304064E+04  0.7818609E-02  0.8161862E-01
       -2   -1    0    0    0  501  0.00000000000E+00  0.00000000000E+00  0.16349596460E+04  0.16349596460E+04  0.25500000920E-02 0.  1.
        2   -1    0    0  501    0  0.00000000000E+00  0.00000000000E+00 -0.16692830547E+04  0.16692830547E+04  0.25500000920E-02 0. -1.
    10030    2    1    2    0    0  0.00000000000E+00  0.00000000000E+00 -0.34323408691E+02  0.33042427006E+04  0.33040644256E+04 0.  0.
        5    1    3    3  502    0 -0.12162274625E+04 -0.85844768393E+03 -0.73347311788E+03  0.16595621625E+04  0.46999998093E+01 0. -1.
       -5    1    3    3    0  502  0.12162274625E+04  0.85844768393E+03  0.69914970919E+03  0.16446805381E+04  0.46999998093E+01 0.  1.
</event>
<event>
 5   0  0.2933646E-06  0.3172474E+04  0.7818609E-02  0.8196125E-01
       -1   -1    0    0    0  501  0.00000000000E+00  0.00000000000E+00  0.11322050073E+04  0.11322050073E+04  0.50400001928E-02 0.  1.
        1   -1    0    0  501    0  0.00000000000E+00  0.00000000000E+00 -0.22223427330E+04  0.22223427330E+04  0.50400001928E-02 0. -1.
    10030    2    1    2    0    0  0.00000000000E+00  0.00000000000E+00 -0.10901377257E+04  0.33545477403E+04  0.31724738424E+04 0.  0.
        2    1    3    3  502    0 -0.67755524506E+03 -0.13872093832E+04 -0.15985799657E+03  0.15520907068E+04  0.25500000920E-02 0. -1.
       -2    1    3    3    0  502  0.67755524506E+03  0.13872093832E+04 -0.93027972914E+03  0.18024570335E+04  0.25500000920E-02 0.  1.
</event>
<event>
 5   0  0.2788054E-06  0.2856272E+04  0.7818609E-02  0.8286008E-01
        1   -1    0    0  501    0  0.00000000000E+00  0.00000000000E+00  0.13394210479E+04  0.13394210479E+04  0.50400001928E-02 0. -1.
       -1   -1    0    0    0  501  0.00000000000E+00  0.00000000000E+00 -0.15227273822E+04  0.15227273822E+04  0.50400001928E-02 0.  1.
    10030    2    1    2    0    0  0.00000000000E+00  0.00000000000E+00 -0.18330633427E+03  0.28621484301E+04  0.28562724702E+04 0.  0.
        3    1    3    3  502    0  0.10348243670E+04 -0.42197551817E+03 -0.98266646491E+03  0.14881391736E+04  0.10100000352E+00 0.  1.
       -3    1    3    3    0  502 -0.10348243670E+04  0.42197551817E+03  0.79936013063E+03  0.13740092565E+04  0.10100000352E+00 0. -1.
</event>
<event>
 5   0  0.2635798E-06  0.2456323E+04  0.7818609E-02  0.8418713E-01
        1   -1    0    0  501    0  0.00000000000E+00  0.00000000000E+00  0.12921105738E+04  0.12921105738E+04  0.50400001928E-02 0. -1.
       -1   -1    0    0    0  501  0.00000000000E+00  0.00000000000E+00 -0.11673777835E+04  0.11673777835E+04  0.50400001928E-02 0.  1.
    10030    2    1    2    0    0  0.00000000000E+00  0.00000000000E+00  0.12473279029E+03  0.24594883574E+04  0.24563234134E+04 0.  0.
        1    1    3    3  502    0 -0.37862207152E+03  0.32577059444E+03 -0.10610864390E+04  0.11727683421E+04  0.50400001928E-02 0.  1.
       -1    1    3    3    0  502  0.37862207152E+03 -0.32577059444E+03  0.11858192292E+04  0.12867200153E+04  0.50400001928E-02 0. -1.
</event>
<event>
 5   0  0.7971763E-06  0.3181200E+04  0.7818609E-02  0.8193800E-01
       -2   -1    0    0    0  501  0.00000000000E+00  0.00000000000E+00  0.18329916531E+04  0.18329916531E+04  0.25500000920E-02 0. -1.
        2   -1    0    0  501    0  0.00000000000E+00  0.00000000000E+00 -0.13802621553E+04  0.13802621553E+04  0.25500000920E-02 0.  1.
    10030    2    1    2    0    0  0.00000000000E+00  0.00000000000E+00  0.45272949786E+03  0.32132538084E+04  0.31812004085E+04 0.  0.
        1    1    3    3  502    0 -0.19214619623E+03  0.15336291279E+04 -0.15301328084E+03  0.15531746607E+04  0.50400001928E-02 0.  1.
       -1    1    3    3    0  502  0.19214619623E+03 -0.15336291279E+04  0.60574277870E+03  0.16600791477E+04  0.50400001928E-02 0. -1.
</event>
<event>
 5   0  0.7510251E-06  0.1787486E+04  0.7818609E-02  0.8712983E-01
        2   -1    0    0  501    0  0.00000000000E+00  0.00000000000E+00  0.10758612458E+04  0.10758612458E+04  0.25500000920E-02 0. -1.
       -2   -1    0    0    0  501  0.00000000000E+00  0.00000000000E+00 -0.74245272109E+03  0.74245272110E+03  0.25500000920E-02 0.  1.
    10030    2    1    2    0    0  0.00000000000E+00  0.00000000000E+00  0.33340852472E+03  0.18183139669E+04  0.17874855070E+04 0.  0.
        3    1    3    3  502    0  0.22845933913E+03 -0.16519595536E+03  0.10294427636E+04  0.10673498897E+04  0.10100000352E+00 0. -1.
       -3    1    3    3    0  502 -0.22845933913E+03  0.16519595536E+03 -0.69603423890E+03  0.75096407719E+03  0.10100000352E+00 0.  1.
</event>
<event>
 5   0  0.8237664E-06  0.3160452E+04  0.7818609E-02  0.8199340E-01
       -2   -1    0    0    0  501  0.00000000000E+00  0.00000000000E+00  0.11539577226E+04  0.11539577226E+04  0.25500000920E-02 0.  1.
        2   -1    0    0  501    0  0.00000000000E+00  0.00000000000E+00 -0.21639565503E+04  0.21639565503E+04  0.25500000920E-02 0. -1.
    10030    2    1    2    0    0  0.00000000000E+00  0.00000000000E+00 -0.10099988277E+04  0.33179142729E+04  0.31604521022E+04 0.  0.
        5    1    3    3  502    0 -0.12609934544E+04  0.93926866190E+03 -0.67019951508E+03  0.17092453280E+04  0.46999998093E+01 0.  1.
       -5    1    3    3    0  502  0.12609934544E+04 -0.93926866190E+03 -0.33979931258E+03  0.16086689449E+04  0.46999998093E+01 0. -1.
</event>
<event>
 5   0  0.7941434E-06  0.3055449E+04  0.7818609E-02  0.8228072E-01
       -2   -1    0    0    0  501  0.00000000000E+00  0.00000000000E+00  0.15052445574E+04  0.15052445575E+04  0.25500000920E-02 0.  1.
        2   -1    0    0  501    0  0.00000000000E+00  0.00000000000E+00 -0.15505397263E+04  0.15505397263E+04  0.25500000920E-02 0. -1.
    10030    2    1    2    0    0  0.00000000000E+00  0.00000000000E+00 -0.45295168867E+02  0.30557842838E+04  0.30554485655E+04 0.  0.
        4    1    3    3  502    0  0.29731082401E+03 -0.35164350371E+03  0.14341843565E+04  0.15062978660E+04  0.12699999809E+01 0.  1.
       -4    1    3    3    0  502 -0.29731082401E+03  0.35164350371E+03 -0.14794795254E+04  0.15494864177E+04  0.12699999809E+01 0. -1.
</event>
<event>
 5   0  0.7971763E-06  0.3169883E+04  0.7818609E-02  0.8196817E-01
        2   -1    0    0  501    0  0.00000000000E+00  0.00000000000E+00  0.22554441119E+04  0.22554441119E+04  0.25500000920E-02 0.  1.
       -2   -1    0    0    0  501  0.00000000000E+00  0.00000000000E+00 -0.11137670465E+04  0.11137670465E+04  0.25500000920E-02 0. -1.
    10030    2    1    2    0    0  0.00000000000E+00  0.00000000000E+00  0.11416770653E+04  0.33692111584E+04  0.31698828540E+04 0.  0.
        1    1    3    3  502    0  0.14351454751E+04  0.33734185621E+03  0.11893200703E+04  0.18941816947E+04  0.50400001928E-02 0. -1.
       -1    1    3    3    0  502 -0.14351454751E+04 -0.33734185621E+03 -0.47643005002E+02  0.14750294637E+04  0.50400001928E-02 0.  1.
</event>
<event>
 5   0  0.2933646E-06  0.1749663E+04  0.7818609E-02  0.8733536E-01
        1   -1    0    0  501    0  0.00000000000E+00  0.00000000000E+00  0.59517307851E+03  0.59517307853E+03  0.50400001928E-02 0.  1.
       -1   -1    0    0    0  501  0.00000000000E+00  0.00000000000E+00 -0.12858947327E+04  0.12858947327E+04  0.50400001928E-02 0. -1.
    10030    2    1    2    0    0  0.00000000000E+00  0.00000000000E+00 -0.69072165420E+03  0.18810678113E+04  0.17496627409E+04 0.  0.
        2    1    3    3  502    0  0.79176588975E+03  0.28901398206E+03 -0.59728301585E+03  0.10330388700E+04  0.25500000920E-02 0. -1.
       -2    1    3    3    0  502 -0.79176588975E+03 -0.28901398206E+03 -0.93438638352E+02  0.84802894121E+03  0.25500000920E-02 0.  1.
</event>
<event>
 5   0  0.2788054E-06  0.3109367E+04  0.7818609E-02  0.8213172E-01
        1   -1    0    0  501    0  0.00000000000E+00  0.00000000000E+00  0.24465916983E+04  0.24465916983E+04  0.50400001928E-02 0. -1.
       -1   -1    0    0    0  501  0.00000000000E+00  0.00000000000E+00 -0.98792154002E+03  0.98792154004E+03  0.50400001928E-02 0.  1.
    10030    2    1    2    0    0  0.00000000000E+00  0.00000000000E+00  0.14586701582E+04  0.34345132383E+04  0.31093669056E+04 0.  0.
        3    1    3    3  502    0  0.10721762383E+03  0.14488840186E+04  0.11803757855E+03  0.14576328064E+04  0.10100000352E+00 0.  1.
       -3    1    3    3    0  502 -0.10721762383E+03 -0.14488840186E+04  0.13406325797E+04  0.19768804319E+04  0.10100000352E+00 0. -1.
</event>
<event>
 5   0  0.7510251E-06  0.3055927E+04  0.7818609E-02  0.8227939E-01
        2   -1    0    0  501    0  0.00000000000E+00  0.00000000000E+00  0.18618449144E+04  0.18618449144E+04  0.25500000920E-02 0. -1.
       -2   -1    0    0    0  501  0.00000000000E+00  0.00000000000E+00 -0.12539564054E+04  0.12539564054E+04  0.25500000920E-02 0.  1.
    10030    2    1    2    0    0  0.00000000000E+00  0.00000000000E+00  0.60788850901E+03  0.31158013197E+04  0.30559269338E+04 0.  0.
        3    1    3    3  502    0  0.11083574526E+04 -0.66027082959E+03  0.11386779927E+04  0.17207560526E+04  0.10100000352E+00 0. -1.
       -3    1    3    3    0  502 -0.11083574526E+04  0.66027082959E+03 -0.53078948374E+03  0.13950452671E+04  0.10100000352E+00 0.  1.
</event>
<event>
 5   0  0.7510251E-06  0.3157495E+04  0.7818609E-02  0.8200134E-01
       -2   -1    0    0    0  501  0.00000000000E+00  0.00000000000E+00  0.10089194548E+04  0.10089194549E+04  0.25500000920E-02 0. -1.
        2   -1    0    0  501    0  0.00000000000E+00  0.00000000000E+00 -0.24704084744E+04  0.24704084744E+04  0.25500000920E-02 0.  1.
    10030    2    1    2    0    0  0.00000000000E+00  0.00000000000E+00 -0.14614890195E+04  0.34793279292E+04  0.31574946849E+04 0.  0.
        3    1    3    3  502    0 -0.14573962876E+04  0.53788646530E+03 -0.42079663497E+03  0.16094705983E+04  0.10100000352E+00 0. -1.
       -3    1    3    3    0  502  0.14573962876E+04 -0.53788646530E+03 -0.10406923846E+04  0.18698573309E+04  0.10100000352E+00 0.  1.
</event>
<event>
 5   0  0.3938696E-06  0.2357343E+04  0.7818609E-02  0.8455649E-01
        1   -1    0    0  501    0  0.00000000000E+00  0.00000000000E+00  0.83377293949E+03  0.83377293951E+03  0.50400001928E-02 0. -1.
       -1   -1    0    0    0  501  0.00000000000E+00  0.00000000000E+00 -0.16662407852E+04  0.16662407852E+04  0.50400001928E-02 0.  1.
    10030    2    1    2    0    0  0.00000000000E+00  0.00000000000E+00 -0.83246784570E+03  0.25000137247E+04  0.23573429767E+04 0.  0.
        4    1    3    3  502    0  0.67960698393E+03 -0.79884336866E+03  0.15413409433E+03  0.10600826912E+04  0.12699999809E+01 0. -1.
       -4    1    3    3    0  502 -0.67960698393E+03  0.79884336866E+03 -0.98660194003E+03  0.14399310335E+04  0.12699999809E+01 0.  1.
</event>
<event>
 5   0  0.2635798E-06  0.3304122E+04  0.7818609E-02  0.8161847E-01
        1   -1    0    0  501    0  0.00000000000E+00  0.00000000000E+00  0.25467021315E+04  0.25467021315E+04  0.50400001928E-02 0.  1.
       -1   -1    0    0    0  501  0.00000000000E+00  0.00000000000E+00 -0.10717016307E+04  0.10717016307E+04  0.50400001928E-02 0. -1.
    10030    2    1    2    0    0  0.00000000000E+00  0.00000000000E+00  0.14750005008E+04  0.36184037621E+04  0.33041215638E+04 0.  0.
        1    1    3    3  502    0 -0.36125857662E+03  0.93490588049E+03 -0.70071484197E+03  0.12229301102E+04  0.50400001928E-02 0. -1.
       -1    1    3    3    0  502  0.36125857662E+03 -0.93490588049E+03  0.21757153428E+04  0.23954736520E+04  0.50400001928E-02 0.  1.
</event>
<event>
 5   0  0.8237664E-06  0.2029747E+04  0.7818609E-02  0.8592838E-01
        2   -1    0    0  501    0  0.00000000000E+00  0.00000000000E+00  0.86294292505E+03  0.86294292506E+03  0.25500000920E-02 0. -1.
       -2   -1    0    0    0  501  0.00000000000E+00  0.00000000000E+00 -0.11935530530E+04  0.11935530530E+04  0.25500000920E-02 0.  1.
    10030    2    1    2    0    0  0.00000000000E+00  0.00000000000E+00 -0.33061012798E+03  0.20564959781E+04  0.20297469426E+04 0.  0.
        5    1    3    3  502    0 -0.84778150075E+03 -0.44581357345E+03  0.17446923537E+03  0.97362457826E+03  0.46999998093E+01 0. -1.
       -5    1    3    3    0  502  0.84778150075E+03  0.44581357345E+03 -0.50507936335E+03  0.10828713998E+04  0.46999998093E+01 0.  1.
</event>
<event>
 5   0  0.2635798E-06  0.3213034E+04  0.7818609E-02  0.8185383E-01
       -1   -1    0    0    0  501  0.00000000000E+00  0.00000000000E+00  0.14918469819E+04  0.14918469819E+04  0.50400001928E-02 0.  1.
        1   -1    0    0  501    0  0.00000000000E+00  0.00000000000E+00 -0.17300011539E+04  0.17300011539E+04  0.50400001928E-02 0. -1.
    10030    2    1    2    0    0  0.00000000000E+00  0.00000000000E+00 -0.23815417196E+03  0.32218481359E+04  0.32130340803E+04 0.  0.
        1    1    3    3  502    0  0.15986532121E+04 -0.31211602513E+02 -0.27516637559E+03  0.16224619536E+04  0.50400001928E-02 0. -1.
       -1    1    3    3    0  502 -0.15986532121E+04  0.31211602513E+02  0.37012203634E+02  0.15993861822E+04  0.50400001928E-02 0.  1.
</event>
<event>
 5   0  0.2635798E-06  0.3212626E+04  0.7818609E-02  0.8185491E-01
        1   -1    0    0  501    0  0.00000000000E+00  0.00000000000E+00  0.16343549736E+04  0.16343549736E+04  0.50400001928E-02 0. -1.
       -1   -1    0    0    0  501  0.00000000000E+00  0.00000000000E+00 -0.15787522840E+04  0.15787522840E+04  0.50400001928E-02 0.  1.
    10030    2    1    2    0    0  0.00000000000E+00  0.00000000000E+00  0.55602689611E+02  0.32131072575E+04  0.32126261204E+04 0.  0.
        1    1    3    3  502    0  0.59380008994E+03 -0.10941964495E+04  0.10430283546E+04  0.16241220906E+04  0.50400001928E-02 0. -1.
       -1    1    3    3    0  502 -0.59380008994E+03  0.10941964495E+04 -0.98742566496E+03  0.15889851669E+04  0.50400001928E-02 0.  1.
</event>
<event>
 5   0  0.7941434E-06  0.3163087E+04  0.7818609E-02  0.8198634E-01
       -2   -1    0    0    0  501  0.00000000000E+00  0.00000000000E+00  0.10509184155E+04  0.10509184155E+04  0.25500000920E-02 0. -1.
        2   -1    0    0  501    0  0.00000000000E+00  0.00000000000E+00 -0.23800897259E+04  0.23800897259E+04  0.25500000920E-02 0.  1.
    10030    2    1    2    0    0  0.00000000000E+00  0.00000000000E+00 -0.13291713104E+04  0.34310081414E+04  0.31630871777E+04 0.  0.
        4    1    3    3  502    0 -0.39019672239E+03  0.14147388380E+04 -0.25127116364E+02  0.14677780645E+04  0.12699999809E+01 0. -1.
       -4    1    3    3    0  502  0.39019672239E+03 -0.14147388380E+04 -0.13040441940E+04  0.19632300768E+04  0.12699999809E+01 0.  1.
</event>
<event>
 5   0  0.2788054E-06  0.3216294E+04  0.7818609E-02  0.8184527E-01
        1   -1    0    0  501    0  0.00000000000E+00  0.00000000000E+00  0.12882491691E+04  0.12882491691E+04  0.50400001928E-02 0. -1.
       -1   -1    0    0    0  501  0.00000000000E+00  0.00000000000E+00 -0.20074821295E+04  0.20074821295E+04  0.50400001928E-02 0.  1.
    10030    2    1    2    0    0  0.00000000000E+00  0.00000000000E+00 -0.71923296039E+03  0.32957312986E+04  0.32162942560E+04 0.  0.
        3    1    3    3  502    0  0.65254176454E+02  0.13802794718E+03  0.12808059410E+04  0.12898735172E+04  0.10100000352E+00 0. -1.
       -3    1    3    3    0  502 -0.65254176454E+02 -0.13802794718E+03 -0.20000389014E+04  0.20058577814E+04  0.10100000352E+00 0.  1.
</event>
<event>
 5   0  0.2788054E-06  0.2807691E+04  0.7818609E-02  0.8300885E-01
        1   -1    0    0  501    0  0.00000000000E+00  0.00000000000E+00  0.12148235096E+04  0.12148235096E+04  0.50400001928E-02 0.  1.
       -1   -1    0    0    0  501  0.00000000000E+00  0.00000000000E+00 -0.16222789305E+04  0.16222789305E+04  0.50400001928E-02 0. -1.
    10030    2    1    2    0    0  0.00000000000E+00  0.00000000000E+00 -0.40745542098E+03  0.28371024401E+04  0.28076912821E+04 0.  0.
        3    1    3    3  502    0 -0.47971787724E+03 -0.23976514700E+03 -0.15146868012E+04  0.16068268990E+04  0.10100000352E+00 0. -1.
       -3    1    3    3    0  502  0.47971787724E+03  0.23976514700E+03  0.11072313802E+04  0.12302755411E+04  0.10100000352E+00 0.  1.
</event>
<event>
 5   0  0.2788054E-06  0.3186157E+04  0.7818609E-02  0.8192483E-01
        1   -1    0    0  501    0  0.00000000000E+00  0.00000000000E+00  0.20127893944E+04  0.20127893944E+04  0.50400001928E-02 0. -1.
       -1   -1    0    0    0  501  0.00000000000E+00  0.00000000000E+00 -0.12608869143E+04  0.12608869143E+04  0.50400001928E-02 0.  1.
    10030    2    1    2    0    0  0.00000000000E+00  0.00000000000E+00  0.75190248002E+03  0.32736763087E+04  0.31861574403E+04 0.  0.
        3    1    3    3  502    0 -0.42306185852E+03  0.11662334067E+04 -0.65090986916E+03  0.14009872816E+04  0.10100000352E+00 0.  1.
       -3    1    3    3    0  502  0.42306185852E+03 -0.11662334067E+04  0.14028123492E+04  0.18726890271E+04  0.10100000352E+00 0. -1.
</event>
<event>
 5   0  0.4142886E-06  0.2752988E+04  0.7818609E-02  0.8318014E-01
       -1   -1    0    0    0  501  0.00000000000E+00  0.00000000000E+00  0.13287916665E+04  0.13287916665E+04  0.50400001928E-02 0. -1.
        1   -1    0    0  501    0  0.00000000000E+00  0.00000000000E+00 -0.14259085221E+04  0.14259085221E+04  0.50400001928E-02 0.  1.
    10030    2    1    2    0    0  0.00000000000E+00  0.00000000000E+00 -0.97116855622E+02  0.27547001886E+04  0.27529877307E+04 0.  0.
        5    1    3    3  502    0  0.72303224272E+03 -0.65871712605E+03 -0.10176800582E+04  0.14115164424E+04  0.46999998093E+01 0.  1.
       -5    1    3    3    0  502 -0.72303224272E+03  0.65871712605E+03  0.92056320258E+03  0.13431837462E+04  0.46999998093E+01 0. -1.
</event>
<event>
 5   0  0.4142886E-06  0.3272189E+04  0.7818609E-02  0.8170008E-01
       -1   -1    0    0    0  501  0.00000000000E+00  0.00000000000E+00  0.20927940436E+04  0.20927940437E+04  0.50400001928E-02 0. -1.
        1   -1    0    0  501    0  0.00000000000E+00  0.00000000000E+00 -0.12790583139E+04  0.12790583139E+04  0.50400001928E-02 0.  1.
    10030    2    1    2    0    0  0.00000000000E+00  0.00000000000E+00  0.81373572971E+03  0.33718523576E+04  0.32721892494E+04 0.  0.
        5    1    3    3  502    0 -0.43090417468E+03 -0.12574692140E+04 -0.57605924367E+03  0.14487144557E+04  0.46999998093E+01 0.  1.
       -5    1    3    3    0  502  0.43090417468E+03  0.12574692140E+04  0.13897949734E+04  0.19231379019E+04  0.46999998093E+01 0. -1.
</event>
<event>
 5   0  0.2933646E-06  0.2937595E+04  0.7818609E-02  0.8261779E-01
       -1   -1    0    0    0  501  0.00000000000E+00  0.00000000000E+00  0.12095629199E+04  0.12095629199E+04  0.50400001928E-02 0.  1.
        1   -1    0    0  501    0  0.00000000000E+00  0.00000000000E+00 -0.17835911587E+04  0.17835911587E+04  0.50400001928E-02 0. -1.
    10030    2    1    2    0    0  0.00000000000E+00  0.00000000000E+00 -0.57402823880E+03  0.29931540786E+04  0.29375947507E+04 0.  0.
        2    1    3    3  502    0  0.11496139115E+04  0.90346906858E+03 -0.14474075290E+03  0.14692917984E+04  0.25500000920E-02 0.  1.
       -2    1    3    3    0  502 -0.11496139115E+04 -0.90346906858E+03 -0.42928748590E+03  0.15238622802E+04  0.25500000920E-02 0. -1.
</event>
<event>
 5   0  0.2933646E-06  0.2893945E+04  0.7818609E-02  0.8274681E-01
       -1   -1    0    0    0  501  0.00000000000E+00  0.00000000000E+00  0.88793246703E+03  0.88793246704E+03  0.50400001928E-02 0.  1.
        1   -1    0    0  501    0  0.00000000000E+00  0.00000000000E+00 -0.23579822512E+04  0.23579822512E+04  0.50400001928E-02 0. -1.
    10030    2    1    2    0    0  0.00000000000E+00  0.00000000000E+00 -0.14700497842E+04  0.32459147183E+04  0.28939447110E+04 0.  0.
        2    1    3    3  502    0  0.12616444145E+04  0.33749872760E+03 -0.36300643526E+02  0.13065105267E+04  0.25500000920E-02 0.  1.
       -2    1    3    3    0  502 -0.12616444145E+04 -0.33749872760E+03 -0.14337491407E+04  0.19394041915E+04  0.25500000920E-02 0. -1.
</event>
<event>
 5   0  0.2933646E-06  0.1845670E+04  0.7818609E-02  0.8682383E-01
       -1   -1    0    0    0  501  0.00000000000E+00  0.00000000000E+00  0.12280440721E+04  0.12280440721E+04  0.50400001928E-02 0.  1.
        1   -1    0    0  501    0  0.00000000000E+00  0.00000000000E+00 -0.69348034455E+03  0.69348034457E+03  0.50400001928E-02 0. -1.
    10030    2    1    2    0    0  0.00000000000E+00  0.00000000000E+00  0.53456372753E+03  0.19215244167E+04  0.18456699881E+04 0.  0.
        2    1    3    3  502    0  0.25916985583E+03  0.85209236772E+03  0.15701927310E+02  0.89077324153E+03  0.25500000920E-02 0. -1.
       -2    1    3    3    0  502 -0.25916985583E+03 -0.85209236772E+03  0.51886180022E+03  0.10307511751E+04  0.25500000920E-02 0.  1.
</event>
<event>
 5   0  0.8237664E-06  0.3391500E+04  0.7818609E-02  0.8139996E-01
        2   -1    0    0  501    0  0.00000000000E+00  0.00000000000E+00  0.20587259480E+04  0.20587259480E+04  0.25500000920E-02 0. -1.
       -2   -1    0    0    0  501  0.00000000000E+00  0.00000000000E+00 -0.13967708917E+04  0.13967708917E+04  0.25500000920E-02 0.  1.
    10030    2    1    2    0    0  0.00000000000E+00  0.00000000000E+00  0.66195505635E+03  0.34554968397E+04  0.33915002451E+04 0.  0.
        5    1    3    3  502    0 -0.29865546747E+03 -0.14702825782E+04  0.11362201298E+04  0.18820053723E+04  0.46999998093E+01 0. -1.
       -5    1    3    3    0  502  0.29865546747E+03  0.14702825782E+04 -0.47426507344E+03  0.15734914674E+04  0.46999998093E+01 0.  1.
</event>
<event>
 5   0  0.2788054E-06  0.3006147E+04  0.7818609E-02  0.8241978E-01
       -1   -1    0    0    0  501  0.00000000000E+00  0.00000000000E+00  0.13603813758E+04  0.13603813758E+04  0.50400001928E-02 0.  1.
        1   -1    0    0  501    0  0.00000000000E+00  0.00000000000E+00 -0.16607327181E+04  0.16607327182E+04  0.50400001928E-02 0. -1.
    10030    2    1    2    0    0  0.00000000000E+00  0.00000000000E+00 -0.30035134236E+03  0.30211140940E+04  0.30061469425E+04 0.  0.
        3    1    3    3  502    0 -0.13491289156E+04 -0.59585616599E+03  0.14115805680E+03  0.14815934019E+04  0.10100000352E+00 0.  1.
       -3    1    3    3    0  502  0.13491289156E+04  0.59585616599E+03 -0.44150939916E+03  0.15395206920E+04  0.10100000352E+00 0. -1.
</event>
<event>
 5   0  0.7510251E-06  0.3177337E+04  0.7818609E-02  0.8194828E-01
       -2   -1    0    0    0  501  0.00000000000E+00  0.00000000000E+00  0.11892994901E+04  0.11892994901E+04  0.25500000920E-02 0. -1.
        2   -1    0    0  501    0  0.00000000000E+00  0.00000000000E+00 -0.21221469994E+04  0.21221469994E+04  0.25500000920E-02 0.  1.
    10030    2    1    2    0    0  0.00000000000E+00  0.00000000000E+00 -0.93284750933E+03  0.33114464895E+04  0.31773374667E+04 0.  0.
        3    1    3    3  502    0 -0.13988576070E+04 -0.73816420913E+03 -0.31121057074E+03  0.16119990799E+04  0.10100000352E+00 0. -1.
       -3    1    3    3    0  502  0.13988576070E+04  0.73816420913E+03 -0.62163693859E+03  0.16994474096E+04  0.10100000352E+00 0.  1.
</event>
<event>
 5   0  0.3938696E-06  0.3252721E+04  0.7818609E-02  0.8175031E-01
       -1   -1    0    0    0  501  0.00000000000E+00  0.00000000000E+00  0.97118040792E+03  0.97118040794E+03  0.50400001928E-02 0. -1.
        1   -1    0    0  501    0  0.00000000000E+00  0.00000000000E+00 -0.27235391701E+04  0.27235391701E+04  0.50400001928E-02 0.  1.
    10030    2    1    2    0    0  0.00000000000E+00  0.00000000000E+00 -0.17523587622E+04  0.36947195781E+04  0.32527206349E+04 0.  0.
        4    1    3    3  502    0  0.15694768181E+04  0.38402979521E+03 -0.10865787645E+04  0.19471495553E+04  0.12699999809E+01 0. -1.
       -4    1    3    3    0  502 -0.15694768181E+04 -0.38402979521E+03 -0.66577999773E+03  0.17475700228E+04  0.12699999809E+01 0.  1.
</event>
<event>
 5   0  0.7941434E-06  0.3368942E+04  0.7818609E-02  0.8145571E-01
       -2   -1    0    0    0  501  0.00000000000E+00  0.00000000000E+00  0.24285877488E+04  0.24285877488E+04  0.25500000920E-02 0. -1.
        2   -1    0    0  501    0  0.00000000000E+00  0.00000000000E+00 -0.11683509435E+04  0.11683509435E+04  0.25500000920E-02 0.  1.
    10030    2    1    2    0    0  0.00000000000E+00  0.00000000000E+00  0.12602368054E+04  0.35969386923E+04  0.33689421412E+04 0.  0.
        4    1    3    3  502    0  0.33155350114E+03  0.16370386559E+04  0.86310157584E+03  0.18800981964E+04  0.12699999809E+01 0. -1.
       -4    1    3    3    0  502 -0.33155350114E+03 -0.16370386559E+04  0.39713522952E+03  0.17168404959E+04  0.12699999809E+01 0.  1.
</event>
<event>
 5   0  0.7971763E-06  0.3142891E+04  0.7818609E-02  0.8204064E-01
        2   -1    0    0  501    0  0.00000000000E+00  0.00000000000E+00  0.18366548522E+04  0.18366548522E+04  0.25500000920E-02 0.  1.
       -2   -1    0    0    0  501  0.00000000000E+00  0.00000000000E+00 -0.13445321107E+04  0.13445321107E+04  0.25500000920E-02 0. -1.
    10030    2    1    2    0    0  0.00000000000E+00  0.00000000000E+00  0.49212274151E+03  0.31811869629E+04  0.31428912963E+04 0.  0.
        1    1    3    3  502    0 -0.19988442881E+03 -0.88665960181E+02  0.18211803626E+04  0.18342609822E+04  0.50400001928E-02 0.  1.
       -1    1    3    3    0  502  0.19988442881E+03  0.88665960181E+02 -0.13290576211E+04  0.13469259808E+04  0.50400001928E-02 0. -1.
</event>
<event>
 5   0  0.2788054E-06  0.3180189E+04  0.7818609E-02  0.8194069E-01
       -1   -1    0    0    0  501  0.00000000000E+00  0.00000000000E+00  0.96638577510E+03  0.96638577511E+03  0.50400001928E-02 0.  1.
        1   -1    0    0  501    0  0.00000000000E+00  0.00000000000E+00 -0.26163468791E+04  0.26163468791E+04  0.50400001928E-02 0. -1.
    10030    2    1    2    0    0  0.00000000000E+00  0.00000000000E+00 -0.16499611040E+04  0.35827326543E+04  0.31801889295E+04 0.  0.
        3    1    3    3  502    0  0.44454248020E+03  0.10377882924E+04  0.43647448556E+03  0.12104265955E+04  0.10100000352E+00 0.  1.
       -3    1    3    3    0  502 -0.44454248020E+03 -0.10377882924E+04 -0.20864355896E+04  0.23723060587E+04  0.10100000352E+00 0. -1.
</event>
<event>
 5   0  0.7510251E-06  0.3184171E+04  0.7818609E-02  0.8193010E-01
       -2   -1    0    0    0  501  0.00000000000E+00  0.00000000000E+00  0.13678555352E+04  0.13678555352E+04  0.25500000920E-02 0.  1.
        2   -1    0    0  501    0  0.00000000000E+00  0.00000000000E+00 -0.18530730489E+04  0.18530730489E+04  0.25500000920E-02 0. -1.
    10030    2    1    2    0    0  0.00000000000E+00  0.00000000000E+00 -0.48521751368E+03  0.32209285841E+04  0.31841709923E+04 0.  0.
        3    1    3    3  502    0 -0.23751316084E+03 -0.52803125629E+03  0.12575850190E+04  0.13844672620E+04  0.10100000352E+00 0.  1.
       -3    1    3    3    0  502  0.23751316084E+03  0.52803125629E+03 -0.17428025327E+04  0.18364613221E+04  0.10100000352E+00 0. -1.
</event>
<event>
 5   0  0.2635798E-06  0.3244843E+04  0.7818609E-02  0.8177074E-01
        1   -1    0    0  501    0  0.00000000000E+00  0.00000000000E+00  0.13925706215E+04  0.13925706215E+04  0.50400001928E-02 0.  1.
       -1   -1    0    0    0  501  0.00000000000E+00  0.00000000000E+00 -0.18902100841E+04  0.18902100841E+04  0.50400001928E-02 0. -1.
    10030    2    1    2    0    0  0.00000000000E+00  0.00000000000E+00 -0.49763946266E+03  0.32827807056E+04  0.32448426967E+04 0.  0.
        1    1    3    3  502    0 -0.12769717908E+04 -0.88435482221E+02 -0.12573568198E+04  0.17942753304E+04  0.50400001928E-02 0. -1.
       -1    1    3    3    0  502  0.12769717908E+04  0.88435482221E+02  0.75971735718E+03  0.14885053752E+04  0.50400001928E-02 0.  1.
</event>
<event>
 5   0  0.7952307E-06  0.2478816E+04  0.7818609E-02  0.8410571E-01
       -2   -1    0    0    0  501  0.00000000000E+00  0.00000000000E+00  0.11179923999E+04  0.11179924000E+04  0.25500000920E-02 0.  1.
        2   -1    0    0  501    0  0.00000000000E+00  0.00000000000E+00 -0.13740100423E+04  0.13740100423E+04  0.25500000920E-02 0. -1.
    10030    2    1    2    0    0  0.00000000000E+00  0.00000000000E+00 -0.25601764234E+03  0.24920024422E+04  0.24788164795E+04 0.  0.
        2    1    3    3  502    0  0.66474010190E+03 -0.94666555479E+03 -0.57543551515E+03  0.12919679206E+04  0.25500000920E-02 0. -1.
       -2    1    3    3    0  502 -0.66474010190E+03  0.94666555479E+03  0.31941787282E+03  0.12000345217E+04  0.25500000920E-02 0.  1.
</event>
<event>
 5   0  0.3938696E-06  0.3096644E+04  0.7818609E-02  0.8216659E-01
        1   -1    0    0  501    0  0.00000000000E+00  0.00000000000E+00  0.81411992464E+03  0.81411992465E+03  0.50400001928E-02 0.  1.
       -1   -1    0    0    0  501  0.00000000000E+00  0.00000000000E+00 -0.29446538544E+04  0.29446538544E+04  0.50400001928E-02 0. -1.
    10030    2    1    2    0    0  0.00000000000E+00  0.00000000000E+00 -0.21305339297E+04  0.37587737790E+04  0.30966442315E+04 0.  0.
        4    1    3    3  502    0  0.15104561039E+04 -0.33838046122E+03 -0.11093803711E+04  0.19043910835E+04  0.12699999809E+01 0.  1.
       -4    1    3    3    0  502 -0.15104561039E+04  0.33838046122E+03 -0.10211535586E+04  0.18543826955E+04  0.12699999809E+01 0. -1.
</event>
<event>
 5   0  0.2635798E-06  0.3251158E+04  0.7818609E-02  0.8175436E-01
        1   -1    0    0  501    0  0.00000000000E+00  0.00000000000E+00  0.25261257880E+04  0.25261257880E+04  0.50400001928E-02 0. -1.
       -1   -1    0    0    0  501  0.00000000000E+00  0.00000000000E+00 -0.10460711778E+04  0.10460711778E+04  0.50400001928E-02 0.  1.
    10030    2    1    2    0    0  0.00000000000E+00  0.00000000000E+00  0.14800546102E+04  0.35721969659E+04  0.32511581803E+04 0.  0.
        1    1    3    3  502    0  0.15571117923E+04  0.17049756289E+02  0.22746548659E+03  0.15737307188E+04  0.50400001928E-02 0.  1.
       -1    1    3    3    0  502 -0.15571117923E+04 -0.17049756289E+02  0.12525891237E+04  0.19984662470E+04  0.50400001928E-02 0. -1.
</event>
<event>
 5   0  0.2933646E-06  0.3095220E+04  0.7818609E-02  0.8217051E-01
       -1   -1    0    0    0  501  0.00000000000E+00  0.00000000000E+00  0.12286287061E+04  0.12286287062E+04  0.50400001928E-02 0. -1.
        1   -1    0    0  501    0  0.00000000000E+00  0.00000000000E+00 -0.19494062811E+04  0.19494062811E+04  0.50400001928E-02 0.  1.
    10030    2    1    2    0    0  0.00000000000E+00  0.00000000000E+00 -0.72077757497E+03  0.31780349873E+04  0.30952198739E+04 0.  0.
        2    1    3    3  502    0 -0.14114221386E+04 -0.39908438978E+03 -0.86727319774E+03  0.17039787566E+04  0.25500000920E-02 0. -1.
       -2    1    3    3    0  502  0.14114221386E+04  0.39908438978E+03  0.14649562277E+03  0.14740562306E+04  0.25500000920E-02 0.  1.
</event>
<event>
 5   0  0.7952307E-06  0.3167038E+04  0.7818609E-02  0.8197577E-01
       -2   -1    0    0    0  501  0.00000000000E+00  0.00000000000E+00  0.84681356984E+03  0.84681356985E+03  0.25500000920E-02 0. -1.
        2   -1    0    0  501    0  0.00000000000E+00  0.00000000000E+00 -0.29611386843E+04  0.29611386843E+04  0.25500000920E-02 0.  1.
    10030    2    1    2    0    0  0.00000000000E+00  0.00000000000E+00 -0.21143251144E+04  0.38079522541E+04  0.31670379979E+04 0.  0.
        2    1    3    3  502    0  0.79961950391E+03 -0.12703384289E+04 -0.45073231640E+03  0.15672621657E+04  0.25500000920E-02 0. -1.
       -2    1    3    3    0  502 -0.79961950391E+03  0.12703384289E+04 -0.16635927980E+04  0.22406900885E+04  0.25500000920E-02 0.  1.
</event>
<event>
 5   0  0.7971763E-06  0.1619099E+04  0.7818609E-02  0.8808900E-01
       -2   -1    0    0    0  501  0.00000000000E+00  0.00000000000E+00  0.53112747156E+03  0.53112747156E+03  0.25500000920E-02 0.  1.
        2   -1    0    0  501    0  0.00000000000E+00  0.00000000000E+00 -0.12339222923E+04  0.12339222924E+04  0.25500000920E-02 0. -1.
    10030    2    1    2    0    0  0.00000000000E+00  0.00000000000E+00 -0.70279482079E+03  0.17650497639E+04  0.16190985483E+04 0.  0.
        1    1    3    3  502    0 -0.26315836659E+03  0.43959533680E+03 -0.10346953592E+04  0.11545955449E+04  0.50400001928E-02 0. -1.
       -1    1    3    3    0  502  0.26315836659E+03 -0.43959533680E+03  0.33190053840E+03  0.61045421897E+03  0.50400001928E-02 0.  1.
</event>
<event>
 5   0  0.2933646E-06  0.2909851E+04  0.7818609E-02  0.8269953E-01
       -1   -1    0    0    0  501  0.00000000000E+00  0.00000000000E+00  0.11127378133E+04  0.11127378133E+04  0.50400001928E-02 0. -1.
        1   -1    0    0  501    0  0.00000000000E+00  0.00000000000E+00 -0.19023417052E+04  0.19023417052E+04  0.50400001928E-02 0.  1.
    10030    2    1    2    0    0  0.00000000000E+00  0.00000000000E+00 -0.78960389188E+03  0.30150795185E+04  0.29098505454E+04 0.  0.
        2    1    3    3  502    0  0.53638985776E+03 -0.12836072528E+04  0.46566879260E+02  0.13919519149E+04  0.25500000920E-02 0. -1.
       -2    1    3    3    0  502 -0.53638985776E+03  0.12836072528E+04 -0.83617077114E+03  0.16231276036E+04  0.25500000920E-02 0.  1.
</event>
<event>
 5   0  0.7971763E-06  0.3025467E+04  0.7818609E-02  0.8236496E-01
        2   -1    0    0  501    0  0.00000000000E+00  0.00000000000E+00  0.14007584884E+04  0.14007584884E+04  0.25500000920E-02 0.  1.
       -2   -1    0    0    0  501  0.00000000000E+00  0.00000000000E+00 -0.16336596419E+04  0.16336596419E+04  0.25500000920E-02 0. -1.
    10030    2    1    2    0    0  0.00000000000E+00  0.00000000000E+00 -0.23290115348E+03  0.30344181303E+04  0.30254669791E+04 0.  0.
        1    1    3    3  502    0  0.54493269690E+03  0.13834787031E+04 -0.39547799377E+03  0.15386252986E+04  0.50400001928E-02 0.  1.
       -1    1    3    3    0  502 -0.54493269690E+03 -0.13834787031E+04  0.16257684029E+03  0.14957928316E+04  0.50400001928E-02 0. -1.
</event>
<event>
 5   0  0.2635798E-06  0.3186963E+04  0.7818609E-02  0.8192269E-01
        1   -1    0    0  501    0  0.00000000000E+00  0.00000000000E+00  0.15241483931E+04  0.15241483931E+04  0.50400001928E-02 0.  1.
       -1   -1    0    0    0  501  0.00000000000E+00  0.00000000000E+00 -0.16659681935E+04  0.16659681935E+04  0.50400001928E-02 0. -1.
    10030    2    1    2    0    0  0.00000000000E+00  0.00000000000E+00 -0.14181980036E+03  0.31901165866E+04  0.31869626575E+04 0.  0.
        1    1    3    3  502    0  0.15066005492E+03  0.22352404797E+03 -0.16429803881E+04  0.16649462478E+04  0.50400001928E-02 0. -1.
       -1    1    3    3    0  502 -0.15066005492E+03 -0.22352404797E+03  0.15011605878E+04  0.15251703388E+04  0.50400001928E-02 0.  1.
</event>
<event>
 5   0  0.8237664E-06  0.2714411E+04  0.7818609E-02  0.8330344E-01
        2   -1    0    0  501    0  0.00000000000E+00  0.00000000000E+00  0.17426757066E+04  0.17426757066E+04  0.25500000920E-02 0.  1.
       -2   -1    0    0    0  501  0.00000000000E+00  0.00000000000E+00 -0.10569994674E+04  0.10569994674E+04  0.25500000920E-02 0. -1.
    10030    2    1    2    0    0  0.00000000000E+00  0.00000000000E+00  0.68567623925E+03  0.27996751740E+04  0.27144113864E+04 0.  0.
        5    1    3    3  502    0  0.20057464363E+03 -0.12318734622E+04  0.89272923876E+03  0.15345129515E+04  0.46999998093E+01 0.  1.
       -5    1    3    3    0  502 -0.20057464363E+03  0.12318734622E+04 -0.20705299951E+03  0.12651622225E+04  0.46999998093E+01 0. -1.
</event>
<event>
 5   0  0.7941434E-06  0.2119895E+04  0.7818609E-02  0.8552530E-01
        2   -1    0    0  501    0  0.00000000000E+00  0.00000000000E+00  0.15317095354E+04  0.15317095354E+04  0.25500000920E-02 0.  1.
       -2   -1    0    0    0  501  0.00000000000E+00  0.00000000000E+00 -0.73348694115E+03  0.73348694116E+03  0.25500000920E-02 0. -1.
    10030    2    1    2    0    0  0.00000000000E+00  0.00000000000E+00  0.79822259420E+03  0.22651964765E+04  0.21198952255E+04 0.  0.
        4    1    3    3  502    0 -0.68334410257E+03  0.40538720623E+03 -0.35053707074E+03  0.86843295674E+03  0.12699999809E+01 0. -1.
       -4    1    3    3    0  502  0.68334410257E+03 -0.40538720623E+03  0.11487596649E+04  0.13967635198E+04  0.12699999809E+01 0.  1.
</event>
<event>
 5   0  0.7941434E-06  0.3212790E+04  0.7818609E-02  0.8185447E-01
       -2   -1    0    0    0  501  0.00000000000E+00  0.00000000000E+00  0.14965450148E+04  0.14965450148E+04  0.25500000920E-02 0. -1.
        2   -1    0    0  501    0  0.00000000000E+00  0.00000000000E+00 -0.17243085787E+04  0.17243085787E+04  0.25500000920E-02 0.  1.
    10030    2    1    2    0    0  0.00000000000E+00  0.00000000000E+00 -0.22776356392E+03  0.32208535935E+04  0.32127903183E+04 0.  0.
        4    1    3    3  502    0  0.22420317216E+03  0.87706295369E+03  0.12164744477E+04  0.15163502834E+04  0.12699999809E+01 0. -1.
       -4    1    3    3    0  502 -0.22420317216E+03 -0.87706295369E+03 -0.14442380116E+04  0.17045033101E+04  0.12699999809E+01 0.  1.
</event>
<event>
 5   0  0.2933646E-06  0.3003168E+04  0.7818609E-02  0.8242827E-01
       -1   -1    0    0    0  501  0.00000000000E+00  0.00000000000E+00  0.11615055866E+04  0.11615055866E+04  0.50400001928E-02 0. -1.
        1   -1    0    0  501    0  0.00000000000E+00  0.00000000000E+00 -0.19412347046E+04  0.19412347046E+04  0.50400001928E-02 0.  1.
    10030    2    1    2    0    0  0.00000000000E+00  0.00000000000E+00 -0.77972911796E+03  0.31027402912E+04  0.30031682965E+04 0.  0.
        2    1    3    3  502    0 -0.30583332790E+03  0.13231738337E+04  0.27202621501E+03  0.13850347578E+04  0.25500000920E-02 0. -1.
       -2    1    3    3    0  502  0.30583332790E+03 -0.13231738337E+04 -0.10517553330E+04  0.17177055333E+04  0.25500000920E-02 0.  1.
</event>
<event>
 5   0  0.2788054E-06  0.3932844E+04  0.7818609E-02  0.8018233E-01
       -1   -1    0    0    0  501  0.00000000000E+00  0.00000000000E+00  0.20280975560E+04  0.20280975560E+04  0.50400001928E-02 0. -1.
        1   -1    0    0  501    0  0.00000000000E+00  0.00000000000E+00 -0.19066224092E+04  0.19066224092E+04  0.50400001928E-02 0.  1.
    10030    2    1    2    0    0  0.00000000000E+00  0.00000000000E+00  0.12147514686E+03  0.39347199652E+04  0.39328443897E+04 0.  0.
        3    1    3    3  502    0 -0.11653023561E+04  0.60180111052E+03 -0.14051308089E+04  0.19221047729E+04  0.10100000352E+00 0.  1.
       -3    1    3    3    0  502  0.11653023561E+04 -0.60180111052E+03  0.15266059558E+04  0.20126151923E+04  0.10100000352E+00 0. -1.
</event>
<event>
 5   0  0.2580875E-06  0.3153530E+04  0.7818609E-02  0.8201199E-01
       -3   -1    0    0    0  501  0.00000000000E+00  0.00000000000E+00  0.17838531536E+04  0.17838531564E+04  0.10100000352E+00 0. -1.
        3   -1    0    0  501    0  0.00000000000E+00  0.00000000000E+00 -0.13937179378E+04  0.13937179414E+04  0.10100000352E+00 0.  1.
    10030    2    1    2    0    0  0.00000000000E+00  0.00000000000E+00  0.39013521578E+03  0.31775710978E+04  0.31535301799E+04 0.  0.
        3    1    3    3  502    0 -0.29169463739E+03 -0.69354955712E+03 -0.12011696893E+04  0.14173585934E+04  0.10100000352E+00 0.  1.
       -3    1    3    3    0  502  0.29169463739E+03  0.69354955712E+03  0.15913049051E+04  0.17602125044E+04  0.10100000352E+00 0. -1.
</event>
<event>
 5   0  0.7941434E-06  0.3192249E+04  0.7818609E-02  0.8190867E-01
        2   -1    0    0  501    0  0.00000000000E+00  0.00000000000E+00  0.25368497428E+04  0.25368497428E+04  0.25500000920E-02 0. -1.
       -2   -1    0    0    0  501  0.00000000000E+00  0.00000000000E+00 -0.10042428577E+04  0.10042428577E+04  0.25500000920E-02 0.  1.
    10030    2    1    2    0    0  0.00000000000E+00  0.00000000000E+00  0.15326068852E+04  0.35410926005E+04  0.31922488846E+04 0.  0.
        4    1    3    3  502    0 -0.67516225915E+03  0.73553916507E+03  0.21476778017E+04  0.23684137080E+04  0.12699999809E+01 0. -1.
       -4    1    3    3    0  502  0.67516225915E+03 -0.73553916507E+03 -0.61507091656E+03  0.11726788925E+04  0.12699999809E+01 0.  1.
</event>
<event>
 5   0  0.8237664E-06  0.3163314E+04  0.7818609E-02  0.8198574E-01
       -2   -1    0    0    0  501  0.00000000000E+00  0.00000000000E+00  0.12360226487E+04  0.12360226488E+04  0.25500000920E-02 0. -1.
        2   -1    0    0  501    0  0.00000000000E+00  0.00000000000E+00 -0.20239419474E+04  0.20239419474E+04  0.25500000920E-02 0.  1.
    10030    2    1    2    0    0  0.00000000000E+00  0.00000000000E+00 -0.78791929863E+03  0.32599645961E+04  0.31633135075E+04 0.  0.
        5    1    3    3  502    0 -0.10196739073E+04 -0.43960060972E+02  0.85124127839E+03  0.13290226365E+04  0.46999998093E+01 0. -1.
       -5    1    3    3    0  502  0.10196739073E+04  0.43960060972E+02 -0.16391605770E+04  0.19309419596E+04  0.46999998093E+01 0.  1.
</event>
<event>
 5   0  0.7971763E-06  0.3007943E+04  0.7818609E-02  0.8241466E-01
       -2   -1    0    0    0  501  0.00000000000E+00  0.00000000000E+00  0.10866887130E+04  0.10866887130E+04  0.25500000920E-02 0.  1.
        2   -1    0    0  501    0  0.00000000000E+00  0.00000000000E+00 -0.20814881437E+04  0.20814881437E+04  0.25500000920E-02 0. -1.
    10030    2    1    2    0    0  0.00000000000E+00  0.00000000000E+00 -0.99479943070E+03  0.31681768566E+04  0.30079426004E+04 0.  0.
        1    1    3    3  502    0  0.40198350470E+03  0.27976462868E+03 -0.19951452701E+04  0.20543767022E+04  0.50400001928E-02 0. -1.
       -1    1    3    3    0  502 -0.40198350470E+03 -0.27976462868E+03  0.10003458394E+04  0.11138001544E+04  0.50400001928E-02 0.  1.
</event>
<event>
 5   0  0.7971763E-06  0.3284155E+04  0.7818609E-02  0.8166939E-01
        2   -1    0    0  501    0  0.00000000000E+00  0.00000000000E+00  0.22143822335E+04  0.22143822335E+04  0.25500000920E-02 0. -1.
       -2   -1    0    0    0  501  0.00000000000E+00  0.00000000000E+00 -0.12176845631E+04  0.12176845631E+04  0.25500000920E-02 0.  1.
    10030    2    1    2    0    0  0.00000000000E+00  0.00000000000E+00  0.99669767037E+03  0.34320667966E+04  0.32841553329E+04 0.  0.
        1    1    3    3  502    0  0.66391120674E+03  0.20681533864E+03  0.20529172300E+04  0.21674915981E+04  0.50400001928E-02 0. -1.
       -1    1    3    3    0  502 -0.66391120674E+03 -0.20681533864E+03 -0.10562195596E+04  0.12645751986E+04  0.50400001928E-02 0.  1.
</event>
<event>
 5   0  0.7941434E-06  0.2821330E+04  0.7818609E-02  0.8296677E-01
       -2   -1    0    0    0  501  0.00000000000E+00  0.00000000000E+00  0.17698337342E+04  0.17698337342E+04  0.25500000920E-02 0. -1.
        2   -1    0    0  501    0  0.00000000000E+00  0.00000000000E+00 -0.11243858536E+04  0.11243858536E+04  0.25500000920E-02 0.  1.
    10030    2    1    2    0    0  0.00000000000E+00  0.00000000000E+00  0.64544788063E+03  0.28942195878E+04  0.28213301926E+04 0.  0.
        4    1    3    3  502    0  0.11309056242E+03  0.52437819765E+03 -0.10156714769E+04  0.11486305461E+04  0.12699999809E+01 0.  1.
       -4    1    3    3    0  502 -0.11309056242E+03 -0.52437819765E+03  0.16611193575E+04  0.17455890417E+04  0.12699999809E+01 0. -1.
</event>
<event>
 5   0  0.2635798E-06  0.1588438E+04  0.7818609E-02  0.8827682E-01
        1   -1    0    0  501    0  0.00000000000E+00  0.00000000000E+00  0.90379231424E+03  0.90379231426E+03  0.50400001928E-02 0. -1.
       -1   -1    0    0    0  501  0.00000000000E+00  0.00000000000E+00 -0.69793026137E+03  0.69793026139E+03  0.50400001928E-02 0.  1.
    10030    2    1    2    0    0  0.00000000000E+00  0.00000000000E+00  0.20586205287E+03  0.16017225756E+04  0.15884382344E+04 0.  0.
        1    1    3    3  502    0 -0.44499692700E+03 -0.20437385444E+03  0.73345484044E+03  0.88189962037E+03  0.50400001928E-02 0. -1.
       -1    1    3    3    0  502  0.44499692700E+03  0.20437385444E+03 -0.52759278757E+03  0.71982295528E+03  0.50400001928E-02 0.  1.
</event>
<event>
 5   0  0.7941434E-06  0.2583892E+04  0.7818609E-02  0.8373694E-01
       -2   -1    0    0    0  501  0.00000000000E+00  0.00000000000E+00  0.15148537234E+04  0.15148537234E+04  0.25500000920E-02 0. -1.
        2   -1    0    0  501    0  0.00000000000E+00  0.00000000000E+00 -0.11018383500E+04  0.11018383500E+04  0.25500000920E-02 0.  1.
    10030    2    1    2    0    0  0.00000000000E+00  0.00000000000E+00  0.41301537340E+03  0.26166920734E+04  0.25838915821E+04 0.  0.
        4    1    3    3  502    0  0.35400563613E+03  0.26824596167E+03  0.14351050553E+04  0.15022662943E+04  0.12699999809E+01 0. -1.
       -4    1    3    3    0  502 -0.35400563613E+03 -0.26824596167E+03 -0.10220896819E+04  0.11144257791E+04  0.12699999809E+01 0.  1.
</event>
<event>
 5   0  0.2788054E-06  0.3225131E+04  0.7818609E-02  0.8182211E-01
       -1   -1    0    0    0  501  0.00000000000E+00  0.00000000000E+00  0.13119793988E+04  0.13119793988E+04  0.50400001928E-02 0.  1.
        1   -1    0    0  501    0  0.00000000000E+00  0.00000000000E+00 -0.19820191134E+04  0.19820191134E+04  0.50400001928E-02 0. -1.
    10030    2    1    2    0    0  0.00000000000E+00  0.00000000000E+00 -0.67003971462E+03  0.32939985122E+04  0.32251314670E+04 0.  0.
        3    1    3    3  502    0 -0.21328197507E+02  0.11811694022E+04  0.78602976728E+03  0.14189640072E+04  0.10100000352E+00 0.  1.
       -3    1    3    3    0  502  0.21328197507E+02 -0.11811694022E+04 -0.14560694819E+04  0.18750345050E+04  0.10100000352E+00 0. -1.
</event>
<event>
 5   0  0.3938696E-06  0.2094215E+04  0.7818609E-02  0.8563796E-01
        1   -1    0    0  501    0  0.00000000000E+00  0.00000000000E+00  0.44924233516E+03  0.44924233519E+03  0.50400001928E-02 0.  1.
       -1   -1    0    0    0  501  0.00000000000E+00  0.00000000000E+00 -0.24406295454E+04  0.24406295454E+04  0.50400001928E-02 0. -1.
    10030    2    1    2    0    0  0.00000000000E+00  0.00000000000E+00 -0.19913872103E+04  0.28898718806E+04  0.20942149998E+04 0.  0.
        4    1    3    3  502    0  0.34003976014E+03  0.22685299153E+02  0.37057093248E+03  0.50345415896E+03  0.12699999809E+01 0.  1.
       -4    1    3    3    0  502 -0.34003976014E+03 -0.22685299153E+02 -0.23619581427E+04  0.23864177217E+04  0.12699999809E+01 0. -1.
</event>
<event>
 5   0  0.2933646E-06  0.3208433E+04  0.7818609E-02  0.8186594E-01
       -1   -1    0    0    0  501  0.00000000000E+00  0.00000000000E+00  0.80623692289E+03  0.80623692290E+03  0.50400001928E-02 0. -1.
        1   -1    0    0  501    0  0.00000000000E+00  0.00000000000E+00 -0.31920028259E+04  0.31920028259E+04  0.50400001928E-02 0.  1.
    10030    2    1    2    0    0  0.00000000000E+00  0.00000000000E+00 -0.23857659030E+04  0.39982397488E+04  0.32084329734E+04 0.  0.
        2    1    3    3  502    0 -0.27739043469E+03  0.14107349414E+04 -0.30609602297E+03  0.14699705111E+04  0.25500000920E-02 0. -1.
       -2    1    3    3    0  502  0.27739043469E+03 -0.14107349414E+04 -0.20796698800E+04  0.25282692377E+04  0.25500000920E-02 0.  1.
</event>
<event>
 5   0  0.7971763E-06  0.3211395E+04  0.7818609E-02  0.8185814E-01
       -2   -1    0    0    0  501  0.00000000000E+00  0.00000000000E+00  0.15067109993E+04  0.15067109993E+04  0.25500000920E-02 0. -1.
        2   -1    0    0  501    0  0.00000000000E+00  0.00000000000E+00 -0.17111869256E+04  0.17111869256E+04  0.25500000920E-02 0.  1.
    10030    2    1    2    0    0  0.00000000000E+00  0.00000000000E+00 -0.20447592628E+03  0.32178979248E+04  0.32113948138E+04 0.  0.
        1    1    3    3  502    0 -0.81029083233E+03 -0.61243957883E+02  0.12854643397E+04  0.15207697472E+04  0.50400001928E-02 0. -1.
       -1    1    3    3    0  502  0.81029083233E+03  0.61243957883E+02 -0.14899402659E+04  0.16971281777E+04  0.50400001928E-02 0.  1.
</event>
<event>
 5   0  0.2788054E-06  0.3130312E+04  0.7818609E-02  0.8207468E-01
        1   -1    0    0  501    0  0.00000000000E+00  0.00000000000E+00  0.12894804906E+04  0.12894804906E+04  0.50400001928E-02 0.  1.
       -1   -1    0    0    0  501  0.00000000000E+00  0.00000000000E+00 -0.18997671616E+04  0.18997671616E+04  0.50400001928E-02 0. -1.
    10030    2    1    2    0    0  0.00000000000E+00  0.00000000000E+00 -0.61028667103E+03  0.31892476522E+04  0.31303116085E+04 0.  0.
        3    1    3    3  502    0 -0.10815979295E+04  0.27629144188E+03 -0.14228494439E+04  0.18085053475E+04  0.10100000352E+00 0. -1.
       -3    1    3    3    0  502  0.10815979295E+04 -0.27629144188E+03  0.81256277284E+03  0.13807423047E+04  0.10100000352E+00 0.  1.
</event>
<event>
 5   0  0.7510251E-06  0.2553968E+04  0.7818609E-02  0.8384007E-01
        2   -1    0    0  501    0  0.00000000000E+00  0.00000000000E+00  0.15143839854E+04  0.15143839854E+04  0.25500000920E-02 0.  1.
       -2   -1    0    0    0  501  0.00000000000E+00  0.00000000000E+00 -0.10767998321E+04  0.10767998322E+04  0.25500000920E-02 0. -1.
    10030    2    1    2    0    0  0.00000000000E+00  0.00000000000E+00  0.43758415328E+03  0.25911838176E+04  0.25539682232E+04 0.  0.
        3    1    3    3  502    0 -0.78240380025E+03  0.98078354515E+03 -0.22574379869E+02  0.12548313360E+04  0.10100000352E+00 0. -1.
       -3    1    3    3    0  502  0.78240380025E+03 -0.98078354515E+03  0.46015853315E+03  0.13363524815E+04  0.10100000352E+00 0.  1.
</event>
<event>
 5   0  0.7952307E-06  0.3233580E+04  0.7818609E-02  0.8180005E-01
        2   -1    0    0  501    0  0.00000000000E+00  0.00000000000E+00  0.15406171438E+04  0.15406171438E+04  0.25500000920E-02 0. -1.
       -2   -1    0    0    0  501  0.00000000000E+00  0.00000000000E+00 -0.16967291261E+04  0.16967291261E+04  0.25500000920E-02 0.  1.
    10030    2    1    2    0    0  0.00000000000E+00  0.00000000000E+00 -0.15611198234E+03  0.32373462699E+04  0.32335800469E+04 0.  0.
        2    1    3    3  502    0 -0.13125498205E+04 -0.93006957824E+03 -0.24008864330E+03  0.16264867070E+04  0.25500000920E-02 0.  1.
       -2    1    3    3    0  502  0.13125498205E+04  0.93006957824E+03  0.83976660955E+02  0.16108595628E+04  0.25500000920E-02 0. -1.
</event>
<event>
 5   0  0.7941434E-06  0.3292709E+04  0.7818609E-02  0.8164753E-01
       -2   -1    0    0    0  501  0.00000000000E+00  0.00000000000E+00  0.11316069047E+04  0.11316069047E+04  0.25500000920E-02 0.  1.
        2   -1    0    0  501    0  0.00000000000E+00  0.00000000000E+00 -0.23952521179E+04  0.23952521179E+04  0.25500000920E-02 0. -1.
    10030    2    1    2    0    0  0.00000000000E+00  0.00000000000E+00 -0.12636452132E+04  0.35268590227E+04  0.32927094225E+04 0.  0.
        4    1    3    3  502    0 -0.12795450215E+04  0.55818895584E+03 -0.15666224830E+04  0.20983607863E+04  0.12699999809E+01 0. -1.
       -4    1    3    3    0  502  0.12795450215E+04 -0.55818895584E+03  0.30297726979E+03  0.14284982364E+04  0.12699999809E+01 0.  1.
</event>
<event>
 5   0  0.3938696E-06  0.1891455E+04  0.7818609E-02  0.8659122E-01
        1   -1    0    0  501    0  0.00000000000E+00  0.00000000000E+00  0.97746475828E+03  0.97746475829E+03  0.50400001928E-02 0. -1.
       -1   -1    0    0    0  501  0.00000000000E+00  0.00000000000E+00 -0.91502060770E+03  0.91502060772E+03  0.50400001928E-02 0.  1.
    10030    2    1    2    0    0  0.00000000000E+00  0.00000000000E+00  0.62444150575E+02  0.18924853660E+04  0.18914548868E+04 0.  0.
        4    1    3    3  502    0 -0.74939476447E+03  0.57331151580E+03  0.95445651398E+02  0.94836179406E+03  0.12699999809E+01 0.  1.
       -4    1    3    3    0  502  0.74939476447E+03 -0.57331151580E+03 -0.33001500822E+02  0.94412357195E+03  0.12699999809E+01 0. -1.
</event>
<event>
 5   0  0.2635798E-06  0.3254105E+04  0.7818609E-02  0.8174673E-01
        1   -1    0    0  501    0  0.00000000000E+00  0.00000000000E+00  0.15754061775E+04  0.15754061776E+04  0.50400001928E-02 0.  1.
       -1   -1    0    0    0  501  0.00000000000E+00  0.00000000000E+00 -0.16803917402E+04  0.16803917402E+04  0.50400001928E-02 0. -1.
    10030    2    1    2    0    0  0.00000000000E+00  0.00000000000E+00 -0.10498556270E+03  0.32557979178E+04  0.32541048098E+04 0.  0.
        1    1    3    3  502    0  0.23751536500E+03  0.34893469840E+03  0.15196715222E+04  0.15772033819E+04  0.50400001928E-02 0.  1.
       -1    1    3    3    0  502 -0.23751536500E+03 -0.34893469840E+03 -0.16246570849E+04  0.16785945359E+04  0.50400001928E-02 0. -1.
</event>
<event>
 5   0  0.7941434E-06  0.3162813E+04  0.7818609E-02  0.8198708E-01
        2   -1    0    0  501    0  0.00000000000E+00  0.00000000000E+00  0.22302348924E+04  0.22302348924E+04  0.25500000920E-02 0.  1.
       -2   -1    0    0    0  501  0.00000000000E+00  0.00000000000E+00 -0.11213379017E+04  0.11213379017E+04  0.25500000920E-02 0. -1.
    10030    2    1    2    0    0  0.00000000000E+00  0.00000000000E+00  0.11088969907E+04  0.33515727941E+04  0.31628132506E+04 0.  0.
        4    1    3    3  502    0  0.61269731490E+01 -0.63666699652E+03 -0.97951524735E+03  0.11682611596E+04  0.12699999809E+01 0. -1.
       -4    1    3    3    0  502 -0.61269731490E+01  0.63666699652E+03  0.20884122381E+04  0.21833116345E+04  0.12699999809E+01 0.  1.
</event>
<event>
 5   0  0.8237664E-06  0.3176358E+04  0.7818609E-02  0.8195089E-01
        2   -1    0    0  501    0  0.00000000000E+00  0.00000000000E+00  0.25608355468E+04  0.25608355468E+04  0.25500000920E-02 0.  1.
       -2   -1    0    0    0  501  0.00000000000E+00  0.00000000000E+00 -0.98495707030E+03  0.98495707030E+03  0.25500000920E-02 0. -1.
    10030    2    1    2    0    0  0.00000000000E+00  0.00000000000E+00  0.15758784765E+04  0.35457926171E+04  0.31763583410E+04 0.  0.
        5    1    3    3  502    0  0.11723211918E+04 -0.34103638568E+03 -0.34589521933E+03  0.12689792692E+04  0.46999998093E+01 0. -1.
       -5    1    3    3    0  502 -0.11723211918E+04  0.34103638568E+03  0.19217736958E+04  0.22768133478E+04  0.46999998093E+01 0.  1.
</event>
<event>
 5   0  0.2933646E-06  0.3097990E+04  0.7818609E-02  0.8216290E-01
       -1   -1    0    0    0  501  0.00000000000E+00  0.00000000000E+00  0.18876079883E+04  0.18876079883E+04  0.50400001928E-02 0. -1.
        1   -1    0    0  501    0  0.00000000000E+00  0.00000000000E+00 -0.12711251439E+04  0.12711251439E+04  0.50400001928E-02 0.  1.
    10030    2    1    2    0    0  0.00000000000E+00  0.00000000000E+00  0.61648284445E+03  0.31587331322E+04  0.30979903007E+04 0.  0.
        2    1    3    3  502    0  0.12591441852E+04  0.89231129933E+03  0.17250554318E+03  0.15528752997E+04  0.25500000920E-02 0. -1.
       -2    1    3    3    0  502 -0.12591441852E+04 -0.89231129933E+03  0.44397730127E+03  0.16058578325E+04  0.25500000920E-02 0.  1.
</event>
<event>
 5   0  0.2788054E-06  0.3332034E+04  0.7818609E-02  0.8154792E-01
        1   -1    0    0  501    0  0.00000000000E+00  0.00000000000E+00  0.18108009619E+04  0.18108009619E+04  0.50400001928E-02 0.  1.
       -1   -1    0    0    0  501  0.00000000000E+00  0.00000000000E+00 -0.15328091344E+04  0.15328091344E+04  0.50400001928E-02 0. -1.
    10030    2    1    2    0    0  0.00000000000E+00  0.00000000000E+00  0.27799182751E+03  0.33436100963E+04  0.33320337663E+04 0.  0.
        3    1    3    3  502    0  0.70413287339E+02 -0.98281462561E+03  0.14870654913E+04  0.17838851994E+04  0.10100000352E+00 0.  1.
       -3    1    3    3    0  502 -0.70413287339E+02  0.98281462561E+03 -0.12090736637E+04  0.15597248969E+04  0.10100000352E+00 0. -1.
</event>
<event>
 5   0  0.7952307E-06  0.2721528E+04  0.7818609E-02  0.8328053E-01
        2   -1    0    0  501    0  0.00000000000E+00  0.00000000000E+00  0.20377168977E+04  0.20377168977E+04  0.25500000920E-02 0. -1.
       -2   -1    0    0    0  501  0.00000000000E+00  0.00000000000E+00 -0.90870279820E+03  0.90870279820E+03  0.25500000920E-02 0.  1.
    10030    2    1    2    0    0  0.00000000000E+00  0.00000000000E+00  0.11290140995E+04  0.29464196959E+04  0.27215282816E+04 0.  0.
        2    1    3    3  502    0  0.11486136745E+04 -0.70259727041E+03  0.35146523679E+03  0.13915761245E+04  0.25500000920E-02 0.  1.
       -2    1    3    3    0  502 -0.11486136745E+04  0.70259727041E+03  0.77754886273E+03  0.15548435714E+04  0.25500000920E-02 0. -1.
</event>
<event>
 5   0  0.7941434E-06  0.1767099E+04  0.7818609E-02  0.8723994E-01
        2   -1    0    0  501    0  0.00000000000E+00  0.00000000000E+00  0.11681760609E+04  0.11681760609E+04  0.25500000920E-02 0. -1.
       -2   -1    0    0    0  501  0.00000000000E+00  0.00000000000E+00 -0.66827196306E+03  0.66827196307E+03  0.25500000920E-02 0.  1.
    10030    2    1    2    0    0  0.00000000000E+00  0.00000000000E+00  0.49990409782E+03  0.18364480240E+04  0.17670985365E+04 0.  0.
        4    1    3    3  502    0  0.24825594816E+03 -0.31581816478E+03  0.10677826439E+04  0.11408477184E+04  0.12699999809E+01 0. -1.
       -4    1    3    3    0  502 -0.24825594816E+03  0.31581816478E+03 -0.56787854613E+03  0.69560030553E+03  0.12699999809E+01 0.  1.
</event>
<event>
 5   0  0.2635798E-06  0.1769944E+04  0.7818609E-02  0.8722448E-01
        1   -1    0    0  501    0  0.00000000000E+00  0.00000000000E+00  0.13287026014E+04  0.13287026014E+04  0.50400001928E-02 0.  1.
       -1   -1    0    0    0  501  0.00000000000E+00  0.00000000000E+00 -0.58942891285E+03  0.58942891288E+03  0.50400001928E-02 0. -1.
    10030    2    1    2    0    0  0.00000000000E+00  0.00000000000E+00  0.73927368854E+03  0.19181315143E+04  0.17699443267E+04 0.  0.
        1    1    3    3  502    0  0.33741021046E+03 -0.24333471881E+03  0.12161345757E+04  0.12853173700E+04  0.50400001928E-02 0.  1.
       -1    1    3    3    0  502 -0.33741021046E+03  0.24333471881E+03 -0.47686088712E+03  0.63281414427E+03  0.50400001928E-02 0. -1.
</event>
<event>
 5   0  0.2635798E-06  0.3184824E+04  0.7818609E-02  0.8192837E-01
        1   -1    0    0  501    0  0.00000000000E+00  0.00000000000E+00  0.24768987583E+04  0.24768987584E+04  0.50400001928E-02 0. -1.
       -1   -1    0    0    0  501  0.00000000000E+00  0.00000000000E+00 -0.10237703529E+04  0.10237703529E+04  0.50400001928E-02 0.  1.
    10030    2    1    2    0    0  0.00000000000E+00  0.00000000000E+00  0.14531284054E+04  0.35006691113E+04  0.31848237101E+04 0.  0.
        1    1    3    3  502    0  0.41915124577E+03 -0.42039702509E+03  0.23507202437E+04  0.24245220332E+04  0.50400001928E-02 0. -1.
       -1    1    3    3    0  502 -0.41915124577E+03  0.42039702509E+03 -0.89759183826E+03  0.10761470781E+04  0.50400001928E-02 0.  1.
</event>
<event>
 5   0  0.7510251E-06  0.3099535E+04  0.7818609E-02  0.8215866E-01
       -2   -1    0    0    0  501  0.00000000000E+00  0.00000000000E+00  0.11493858989E+04  0.11493858989E+04  0.25500000920E-02 0.  1.
        2   -1    0    0  501    0  0.00000000000E+00  0.00000000000E+00 -0.20896195576E+04  0.20896195576E+04  0.25500000920E-02 0. -1.
    10030    2    1    2    0    0  0.00000000000E+00  0.00000000000E+00 -0.94023365864E+03  0.32390054565E+04  0.30995349674E+04 0.  0.
        3    1    3    3  502    0  0.17021748053E+03  0.97345106099E+03  0.77741830324E+03  0.12573623930E+04  0.10100000352E+00 0.  1.
       -3    1    3    3    0  502 -0.17021748053E+03 -0.97345106099E+03 -0.17176519619E+04  0.19816430635E+04  0.10100000352E+00 0. -1.
</event>
<event>
 5   0  0.2635798E-06  0.3147071E+04  0.7818609E-02  0.8202937E-01
       -1   -1    0    0    0  501  0.00000000000E+00  0.00000000000E+00  0.96945275435E+03  0.96945275437E+03  0.50400001928E-02 0. -1.
        1   -1    0    0  501    0  0.00000000000E+00  0.00000000000E+00 -0.25540331608E+04  0.25540331609E+04  0.50400001928E-02 0.  1.
    10030    2    1    2    0    0  0.00000000000E+00  0.00000000000E+00 -0.15845804065E+04  0.35234859152E+04  0.31470713259E+04 0.  0.
        1    1    3    3  502    0  0.15113856170E+04 -0.36438464766E+03 -0.52044943335E+03  0.16394908561E+04  0.50400001928E-02 0.  1.
       -1    1    3    3    0  502 -0.15113856170E+04  0.36438464766E+03 -0.10641309731E+04  0.18839950591E+04  0.50400001928E-02 0. -1.
</event>
<event>
 5   0  0.2788054E-06  0.3229290E+04  0.7818609E-02  0.8181124E-01
        1   -1    0    0  501    0  0.00000000000E+00  0.00000000000E+00  0.14203046806E+04  0.14203046806E+04  0.50400001928E-02 0. -1.
       -1   -1    0    0    0  501  0.00000000000E+00  0.00000000000E+00 -0.18355771098E+04  0.18355771098E+04  0.50400001928E-02 0.  1.
    10030    2    1    2    0    0  0.00000000000E+00  0.00000000000E+00 -0.41527242914E+03  0.32558817904E+04  0.32292901763E+04 0.  0.
        3    1    3    3  502    0  0.83160349308E+03  0.13758515032E+04 -0.35902933868E+03  0.16472503771E+04  0.10100000352E+00 0.  1.
       -3    1    3    3    0  502 -0.83160349308E+03 -0.13758515032E+04 -0.56243090456E+02  0.16086314133E+04  0.10100000352E+00 0. -1.
</event>
<event>
 5   0  0.2635798E-06  0.2958539E+04  0.7818609E-02  0.8255670E-01
       -1   -1    0    0    0  501  0.00000000000E+00  0.00000000000E+00  0.86038695204E+03  0.86038695206E+03  0.50400001928E-02 0.  1.
        1   -1    0    0  501    0  0.00000000000E+00  0.00000000000E+00 -0.25433193375E+04  0.25433193375E+04  0.50400001928E-02 0. -1.
    10030    2    1    2    0    0  0.00000000000E+00  0.00000000000E+00 -0.16829323855E+04  0.34037062896E+04  0.29585393511E+04 0.  0.
        1    1    3    3  502    0 -0.12420764078E+04 -0.13708144944E+02  0.82709558508E+02  0.12449026416E+04  0.50400001928E-02 0.  1.
       -1    1    3    3    0  502  0.12420764078E+04  0.13708144944E+02 -0.17656419440E+04  0.21588036480E+04  0.50400001928E-02 0. -1.
</event>
<event>
 5   0  0.2788054E-06  0.3197435E+04  0.7818609E-02  0.8189495E-01
        1   -1    0    0  501    0  0.00000000000E+00  0.00000000000E+00  0.14144039687E+04  0.14144039687E+04  0.50400001928E-02 0.  1.
       -1   -1    0    0    0  501  0.00000000000E+00  0.00000000000E+00 -0.18070495998E+04  0.18070495998E+04  0.50400001928E-02 0. -1.
    10030    2    1    2    0    0  0.00000000000E+00  0.00000000000E+00 -0.39264563107E+03  0.32214535685E+04  0.31974353007E+04 0.  0.
        3    1    3    3  502    0  0.95108956726E+03 -0.22670292262E+03 -0.14707086805E+04  0.17660548160E+04  0.10100000352E+00 0. -1.
       -3    1    3    3    0  502 -0.95108956726E+03  0.22670292262E+03  0.10780630494E+04  0.14553987525E+04  0.10100000352E+00 0.  1.
</event>
<event>
 5   0  0.2580875E-06  0.2445185E+04  0.7818609E-02  0.8422778E-01
       -4   -1    0    0    0  501  0.00000000000E+00  0.00000000000E+00  0.98664518937E+03  0.98664600673E+03  0.12699999809E+01 0.  1.
        4   -1    0    0  501    0  0.00000000000E+00  0.00000000000E+00 -0.15149630033E+04  0.15149635356E+04  0.12699999809E+01 0. -1.
    10030    2    1    2    0    0  0.00000000000E+00  0.00000000000E+00 -0.52831781390E+03  0.25016095423E+04  0.24451851852E+04 0.  0.
        4    1    3    3  502    0  0.48925330181E+03 -0.47677349542E+03  0.77316583013E+03  0.10317309596E+04  0.12699999809E+01 0.  1.
       -4    1    3    3    0  502 -0.48925330181E+03  0.47677349542E+03 -0.13014836440E+04  0.14698785827E+04  0.12699999809E+01 0. -1.
</event>
<event>
 5   0  0.3938696E-06  0.3216794E+04  0.7818609E-02  0.8184396E-01
       -1   -1    0    0    0  501  0.00000000000E+00  0.00000000000E+00  0.99743180071E+03  0.99743180072E+03  0.50400001928E-02 0. -1.
        1   -1    0    0  501    0  0.00000000000E+00  0.00000000000E+00 -0.25936023388E+04  0.25936023388E+04  0.50400001928E-02 0.  1.
    10030    2    1    2    0    0  0.00000000000E+00  0.00000000000E+00 -0.15961705381E+04  0.35910341395E+04  0.32167943367E+04 0.  0.
        4    1    3    3  502    0 -0.67241076884E+03 -0.13593408259E+04 -0.20003974054E+03  0.15296931828E+04  0.12699999809E+01 0.  1.
       -4    1    3    3    0  502  0.67241076884E+03  0.13593408259E+04 -0.13961307975E+04  0.20613409567E+04  0.12699999809E+01 0. -1.
</event>
<event>
 5   0  0.2635798E-06  0.3163994E+04  0.7818609E-02  0.8198391E-01
       -1   -1    0    0    0  501  0.00000000000E+00  0.00000000000E+00  0.12838738523E+04  0.12838738524E+04  0.50400001928E-02 0. -1.
        1   -1    0    0  501    0  0.00000000000E+00  0.00000000000E+00 -0.19493467055E+04  0.19493467055E+04  0.50400001928E-02 0.  1.
    10030    2    1    2    0    0  0.00000000000E+00  0.00000000000E+00 -0.66547285313E+03  0.32332205578E+04  0.31639944781E+04 0.  0.
        1    1    3    3  502    0  0.13139306668E+04  0.74929277506E+03  0.14093722112E+03  0.15191170989E+04  0.50400001928E-02 0. -1.
       -1    1    3    3    0  502 -0.13139306668E+04 -0.74929277506E+03 -0.80641007425E+03  0.17141034589E+04  0.50400001928E-02 0.  1.
</event>
<event>
 5   0  0.2788054E-06  0.2089625E+04  0.7818609E-02  0.8565827E-01
       -1   -1    0    0    0  501  0.00000000000E+00  0.00000000000E+00  0.17033432282E+04  0.17033432282E+04  0.50400001928E-02 0.  1.
        1   -1    0    0  501    0  0.00000000000E+00  0.00000000000E+00 -0.64087703888E+03  0.64087703890E+03  0.50400001928E-02 0. -1.
    10030    2    1    2    0    0  0.00000000000E+00  0.00000000000E+00  0.10624661893E+04  0.23442202671E+04  0.20896253868E+04 0.  0.
        3    1    3    3  502    0  0.98645301756E+03  0.11580971477E+03  0.16748756287E+03  0.10072504851E+04  0.10100000352E+00 0. -1.
       -3    1    3    3    0  502 -0.98645301756E+03 -0.11580971477E+03  0.89497862641E+03  0.13369697819E+04  0.10100000352E+00 0.  1.
</event>
<event>
 5   0  0.8237664E-06  0.3377903E+04  0.7818609E-02  0.8143351E-01
       -2   -1    0    0    0  501  0.00000000000E+00  0.00000000000E+00  0.14119907794E+04  0.14119907794E+04  0.25500000920E-02 0. -1.
        2   -1    0    0  501    0  0.00000000000E+00  0.00000000000E+00 -0.20202381890E+04  0.20202381890E+04  0.25500000920E-02 0.  1.
    10030    2    1    2    0    0  0.00000000000E+00  0.00000000000E+00 -0.60824740959E+03  0.34322289685E+04  0.33779033113E+04 0.  0.
        5    1    3    3  502    0  0.17425367168E+03  0.10403812755E+04 -0.16443433010E+04  0.19536234340E+04  0.46999998093E+01 0.  1.
       -5    1    3    3    0  502 -0.17425367168E+03 -0.10403812755E+04  0.10360958914E+04  0.14786055345E+04  0.46999998093E+01 0. -1.
</event>
<event>
 5   0  0.7941434E-06  0.3131831E+04  0.7818609E-02  0.8207056E-01
       -2   -1    0    0    0  501  0.00000000000E+00  0.00000000000E+00  0.11905913836E+04  0.11905913836E+04  0.25500000920E-02 0. -1.
        2   -1    0    0  501    0  0.00000000000E+00  0.00000000000E+00 -0.20595573164E+04  0.20595573164E+04  0.25500000920E-02 0.  1.
    10030    2    1    2    0    0  0.00000000000E+00  0.00000000000E+00 -0.86896593279E+03  0.32501487001E+04  0.31318308991E+04 0.  0.
        4    1    3    3  502    0  0.10989291528E+04  0.68458984347E+02  0.72102602151E+03  0.13161352712E+04  0.12699999809E+01 0. -1.
       -4    1    3    3    0  502 -0.10989291528E+04 -0.68458984347E+02 -0.15899919543E+04  0.19340134289E+04  0.12699999809E+01 0.  1.
</event>
<event>
 5   0  0.7941434E-06  0.3174708E+04  0.7818609E-02  0.8195529E-01
       -2   -1    0    0    0  501  0.00000000000E+00  0.00000000000E+00  0.11632535671E+04  0.11632535671E+04  0.25500000920E-02 0.  1.
        2   -1    0    0  501    0  0.00000000000E+00  0.00000000000E+00 -0.21660728202E+04  0.21660728202E+04  0.25500000920E-02 0. -1.
    10030    2    1    2    0    0  0.00000000000E+00  0.00000000000E+00 -0.10028192530E+04  0.33293263873E+04  0.31747075045E+04 0.  0.
        4    1    3    3  502    0 -0.93754559015E+03  0.44979361809E+02 -0.18438627427E+04  0.20690206145E+04  0.12699999809E+01 0. -1.
       -4    1    3    3    0  502  0.93754559015E+03 -0.44979361809E+02  0.84104348964E+03  0.12603057728E+04  0.12699999809E+01 0.  1.
</event>
<event>
 5   0  0.4142886E-06  0.2998301E+04  0.7818609E-02  0.8244216E-01
        1   -1    0    0  501    0  0.00000000000E+00  0.00000000000E+00  0.14980405877E+04  0.14980405877E+04  0.50400001928E-02 0.  1.
       -1   -1    0    0    0  501  0.00000000000E+00  0.00000000000E+00 -0.15002613202E+04  0.15002613202E+04  0.50400001928E-02 0. -1.
    10030    2    1    2    0    0  0.00000000000E+00  0.00000000000E+00 -0.22207325134E+01  0.29983019080E+04  0.29983010856E+04 0.  0.
        5    1    3    3  502    0  0.13762878083E+04 -0.37429020247E+03 -0.46281274858E+03  0.14994929200E+04  0.46999998093E+01 0. -1.
       -5    1    3    3    0  502 -0.13762878083E+04  0.37429020247E+03  0.46059201607E+03  0.14988089879E+04  0.46999998093E+01 0.  1.
</event>
<event>
 5   0  0.7952307E-06  0.3477893E+04  0.7818609E-02  0.8119049E-01
       -2   -1    0    0    0  501  0.00000000000E+00  0.00000000000E+00  0.14887717449E+04  0.14887717449E+04  0.25500000920E-02 0. -1.
        2   -1    0    0  501    0  0.00000000000E+00  0.00000000000E+00 -0.20311612559E+04  0.20311612559E+04  0.25500000920E-02 0.  1.
    10030    2    1    2    0    0  0.00000000000E+00  0.00000000000E+00 -0.54238951097E+03  0.35199330008E+04  0.34778933204E+04 0.  0.
        2    1    3    3  502    0  0.13206882178E+04 -0.58406301754E+03  0.70932366578E+03  0.16088775714E+04  0.25500000920E-02 0. -1.
       -2    1    3    3    0  502 -0.13206882178E+04  0.58406301754E+03 -0.12517131767E+04  0.19110554293E+04  0.25500000920E-02 0.  1.
</event>
<event>
 5   0  0.7971763E-06  0.3128748E+04  0.7818609E-02  0.8207892E-01
       -2   -1    0    0    0  501  0.00000000000E+00  0.00000000000E+00  0.14262966273E+04  0.14262966273E+04  0.25500000920E-02 0. -1.
        2   -1    0    0  501    0  0.00000000000E+00  0.00000000000E+00 -0.17158187306E+04  0.17158187306E+04  0.25500000920E-02 0.  1.
    10030    2    1    2    0    0  0.00000000000E+00  0.00000000000E+00 -0.28952210330E+03  0.31421153579E+04  0.31287482919E+04 0.  0.
        1    1    3    3  502    0 -0.89010442740E+03 -0.13475674657E+03 -0.14296101382E+04  0.16894467792E+04  0.50400001928E-02 0.  1.
       -1    1    3    3    0  502  0.89010442740E+03  0.13475674657E+03  0.11400880349E+04  0.14526685788E+04  0.50400001928E-02 0. -1.
</event>
<event>
 5   0  0.3938696E-06  0.3177838E+04  0.7818609E-02  0.8194695E-01
        1   -1    0    0  501    0  0.00000000000E+00  0.00000000000E+00  0.14651110503E+04  0.14651110503E+04  0.50400001928E-02 0. -1.
       -1   -1    0    0    0  501  0.00000000000E+00  0.00000000000E+00 -0.17231889595E+04  0.17231889595E+04  0.50400001928E-02 0.  1.
    10030    2    1    2    0    0  0.00000000000E+00  0.00000000000E+00 -0.25807790918E+03  0.31883000098E+04  0.31778377468E+04 0.  0.
        4    1    3    3  502    0 -0.58320084484E+03 -0.14769004598E+04 -0.71374695970E+02  0.15894823540E+04  0.12699999809E+01 0. -1.
       -4    1    3    3    0  502  0.58320084484E+03  0.14769004598E+04 -0.18670321321E+03  0.15988176558E+04  0.12699999809E+01 0.  1.
</event>
<event>
 5   0  0.7971763E-06  0.1731138E+04  0.7818609E-02  0.8743802E-01
        2   -1    0    0  501    0  0.00000000000E+00  0.00000000000E+00  0.95474457945E+03  0.95474457945E+03  0.25500000920E-02 0.  1.
       -2   -1    0    0    0  501  0.00000000000E+00  0.00000000000E+00 -0.78472273268E+03  0.78472273269E+03  0.25500000920E-02 0. -1.
    10030    2    1    2    0    0  0.00000000000E+00  0.00000000000E+00  0.17002184677E+03  0.17394673121E+04  0.17311380943E+04 0.  0.
        1    1    3    3  502    0 -0.48727081372E+02  0.39121847445E+03 -0.68927014454E+03  0.79405261500E+03  0.50400001928E-02 0. -1.
       -1    1    3    3    0  502  0.48727081372E+02 -0.39121847445E+03  0.85929199131E+03  0.94541469714E+03  0.50400001928E-02 0.  1.
</event>
<event>
 5   0  0.2933646E-06  0.2081714E+04  0.7818609E-02  0.8569341E-01
       -1   -1    0    0    0  501  0.00000000000E+00  0.00000000000E+00  0.15549465245E+04  0.15549465245E+04  0.50400001928E-02 0.  1.
        1   -1    0    0  501    0  0.00000000000E+00  0.00000000000E+00 -0.69673376174E+03  0.69673376176E+03  0.50400001928E-02 0. -1.
    10030    2    1    2    0    0  0.00000000000E+00  0.00000000000E+00  0.85821276272E+03  0.22516802862E+04  0.20817144293E+04 0.  0.
        2    1    3    3  502    0  0.62080639751E+03 -0.57549811919E+03  0.10841819454E+04  0.13755177785E+04  0.25500000920E-02 0.  1.
       -2    1    3    3    0  502 -0.62080639751E+03  0.57549811919E+03 -0.22596918265E+03  0.87616250770E+03  0.25500000920E-02 0. -1.
</event>
<event>
 5   0  0.7941434E-06  0.3230553E+04  0.7818609E-02  0.8180795E-01
       -2   -1    0    0    0  501  0.00000000000E+00  0.00000000000E+00  0.14240285323E+04  0.14240285323E+04  0.25500000920E-02 0. -1.
        2   -1    0    0  501    0  0.00000000000E+00  0.00000000000E+00 -0.18322088588E+04  0.18322088588E+04  0.25500000920E-02 0.  1.
    10030    2    1    2    0    0  0.00000000000E+00  0.00000000000E+00 -0.40818032652E+03  0.32562373911E+04  0.32305527032E+04 0.  0.
        4    1    3    3  502    0  0.82587709479E+03  0.66498466346E+02  0.11935200824E+04  0.14529235430E+04  0.12699999809E+01 0. -1.
       -4    1    3    3    0  502 -0.82587709479E+03 -0.66498466346E+02 -0.16017004090E+04  0.18033138481E+04  0.12699999809E+01 0.  1.
</event>
<event>
 5   0  0.7510251E-06  0.2975367E+04  0.7818609E-02  0.8250800E-01
        2   -1    0    0  501    0  0.00000000000E+00  0.00000000000E+00  0.18153488379E+04  0.18153488379E+04  0.25500000920E-02 0.  1.
       -2   -1    0    0    0  501  0.00000000000E+00  0.00000000000E+00 -0.12191611122E+04  0.12191611122E+04  0.25500000920E-02 0. -1.
    10030    2    1    2    0    0  0.00000000000E+00  0.00000000000E+00  0.59618772570E+03  0.30345099501E+04  0.29753673442E+04 0.  0.
        3    1    3    3  502    0  0.79106489075E+03  0.44995648593E+03  0.14983289161E+04  0.17530641892E+04  0.10100000352E+00 0.  1.
       -3    1    3    3    0  502 -0.79106489075E+03 -0.44995648593E+03 -0.90214119036E+03  0.12814457609E+04  0.10100000352E+00 0. -1.
</event>
<event>
 5   0  0.2933646E-06  0.2989919E+04  0.7818609E-02  0.8246615E-01
       -1   -1    0    0    0  501  0.00000000000E+00  0.00000000000E+00  0.15922234499E+04  0.15922234499E+04  0.50400001928E-02 0.  1.
        1   -1    0    0  501    0  0.00000000000E+00  0.00000000000E+00 -0.14036375583E+04  0.14036375583E+04  0.50400001928E-02 0. -1.
    10030    2    1    2    0    0  0.00000000000E+00  0.00000000000E+00  0.18858589159E+03  0.29958610082E+04  0.29899194875E+04 0.  0.
        2    1    3    3  502    0  0.70691790853E+03  0.77327605291E+03 -0.97422942526E+03  0.14306682902E+04  0.25500000920E-02 0. -1.
       -2    1    3    3    0  502 -0.70691790853E+03 -0.77327605291E+03  0.11628153169E+04  0.15651927180E+04  0.25500000920E-02 0.  1.
</event>
<event>
 5   0  0.2635798E-06  0.3218492E+04  0.7818609E-02  0.8183950E-01
        1   -1    0    0  501    0  0.00000000000E+00  0.00000000000E+00  0.18969547702E+04  0.18969547702E+04  0.50400001928E-02 0.  1.
       -1   -1    0    0    0  501  0.00000000000E+00  0.00000000000E+00 -0.13651737163E+04  0.13651737163E+04  0.50400001928E-02 0. -1.
    10030    2    1    2    0    0  0.00000000000E+00  0.00000000000E+00  0.53178105389E+03  0.32621284866E+04  0.32184920652E+04 0.  0.
        1    1    3    3  502    0 -0.13311977631E+04  0.17511177229E+03  0.11650034424E+04  0.17776345625E+04  0.50400001928E-02 0.  1.
       -1    1    3    3    0  502  0.13311977631E+04 -0.17511177229E+03 -0.63322238848E+03  0.14844939240E+04  0.50400001928E-02 0. -1.
</event>
<event>
 5   0  0.4142886E-06  0.3349879E+04  0.7818609E-02  0.8150318E-01
        1   -1    0    0  501    0  0.00000000000E+00  0.00000000000E+00  0.20023103093E+04  0.20023103093E+04  0.50400001928E-02 0.  1.
       -1   -1    0    0    0  501  0.00000000000E+00  0.00000000000E+00 -0.14010928838E+04  0.14010928838E+04  0.50400001928E-02 0. -1.
    10030    2    1    2    0    0  0.00000000000E+00  0.00000000000E+00  0.60121742554E+03  0.34034031931E+04  0.33498792370E+04 0.  0.
        5    1    3    3  502    0 -0.54347347463E+03 -0.64630081111E+03  0.17702102559E+04  0.19613094086E+04  0.46999998093E+01 0.  1.
       -5    1    3    3    0  502  0.54347347463E+03  0.64630081111E+03 -0.11689928304E+04  0.14420937846E+04  0.46999998093E+01 0. -1.
</event>
<event>
 5   0  0.3429665E-06  0.1702583E+04  0.7818609E-02  0.8759893E-01
       -1   -1    0    0    0  501  0.00000000000E+00  0.00000000000E+00  0.81539986735E+03  0.81539986737E+03  0.50400001928E-02 0.  1.
        1   -1    0    0  501    0  0.00000000000E+00  0.00000000000E+00 -0.88876289912E+03  0.88876289913E+03  0.50400001928E-02 0. -1.
    10030    2    1    2    0    0  0.00000000000E+00  0.00000000000E+00 -0.73363031770E+02  0.17041627665E+04  0.17025829202E+04 0.  0.
        3    1    3    3  502    0 -0.26178836886E+03  0.43309055538E+02  0.77294995717E+03  0.81722730672E+03  0.10100000352E+00 0.  1.
       -3    1    3    3    0  502  0.26178836886E+03 -0.43309055538E+02 -0.84631298894E+03  0.88693545978E+03  0.10100000352E+00 0. -1.
</event>
<event>
 5   0  0.7510251E-06  0.3415633E+04  0.7818609E-02  0.8134080E-01
       -2   -1    0    0    0  501  0.00000000000E+00  0.00000000000E+00  0.15355219145E+04  0.15355219145E+04  0.25500000920E-02 0.  1.
        2   -1    0    0  501    0  0.00000000000E+00  0.00000000000E+00 -0.18994437175E+04  0.18994437175E+04  0.25500000920E-02 0. -1.
    10030    2    1    2    0    0  0.00000000000E+00  0.00000000000E+00 -0.36392180300E+03  0.34349656320E+04  0.34156331498E+04 0.  0.
        3    1    3    3  502    0 -0.46580462551E+03  0.86829167742E+03  0.12208295627E+04  0.15688623960E+04  0.10100000352E+00 0.  1.
       -3    1    3    3    0  502  0.46580462551E+03 -0.86829167742E+03 -0.15847513657E+04  0.18661032360E+04  0.10100000352E+00 0. -1.
</event>
<event>
 5   0  0.8237664E-06  0.3204777E+04  0.7818609E-02  0.8187557E-01
        2   -1    0    0  501    0  0.00000000000E+00  0.00000000000E+00  0.12800783050E+04  0.12800783050E+04  0.25500000920E-02 0. -1.
       -2   -1    0    0    0  501  0.00000000000E+00  0.00000000000E+00 -0.20058527785E+04  0.20058527785E+04  0.25500000920E-02 0.  1.
    10030    2    1    2    0    0  0.00000000000E+00  0.00000000000E+00 -0.72577447350E+03  0.32859310836E+04  0.32047768253E+04 0.  0.
        5    1    3    3  502    0 -0.10800367420E+04 -0.87513615344E+03  0.45434328510E+03  0.14624611317E+04  0.46999998093E+01 0. -1.
       -5    1    3    3    0  502  0.10800367420E+04  0.87513615344E+03 -0.11801177586E+04  0.18234699518E+04  0.46999998093E+01 0.  1.
</event>
<event>
 5   0  0.7952307E-06  0.3075544E+04  0.7818609E-02  0.8222482E-01
        2   -1    0    0  501    0  0.00000000000E+00  0.00000000000E+00  0.23540801781E+04  0.23540801781E+04  0.25500000920E-02 0.  1.
       -2   -1    0    0    0  501  0.00000000000E+00  0.00000000000E+00 -0.10045290695E+04  0.10045290695E+04  0.25500000920E-02 0. -1.
    10030    2    1    2    0    0  0.00000000000E+00  0.00000000000E+00  0.13495511086E+04  0.33586092476E+04  0.30755435103E+04 0.  0.
        2    1    3    3  502    0 -0.13391208796E+04 -0.66805569503E+03  0.10611761055E+04  0.18345674882E+04  0.25500000920E-02 0.  1.
       -2    1    3    3    0  502  0.13391208796E+04  0.66805569503E+03  0.28837500313E+03  0.15240417594E+04  0.25500000920E-02 0. -1.
</event>
<event>
 5   0  0.2788054E-06  0.3230216E+04  0.7818609E-02  0.8180882E-01
       -1   -1    0    0    0  501  0.00000000000E+00  0.00000000000E+00  0.85798291002E+03  0.85798291003E+03  0.50400001928E-02 0.  1.
        1   -1    0    0  501    0  0.00000000000E+00  0.00000000000E+00 -0.30403567384E+04  0.30403567385E+04  0.50400001928E-02 0. -1.
    10030    2    1    2    0    0  0.00000000000E+00  0.00000000000E+00 -0.21823738284E+04  0.38983396485E+04  0.32302161674E+04 0.  0.
        3    1    3    3  502    0 -0.97285226892E+03  0.12590966854E+04 -0.75672117932E+03  0.17619287595E+04  0.10100000352E+00 0. -1.
       -3    1    3    3    0  502  0.97285226892E+03 -0.12590966854E+04 -0.14256526491E+04  0.21364108889E+04  0.10100000352E+00 0.  1.
</event>
<event>
 5   0  0.7952307E-06  0.3215640E+04  0.7818609E-02  0.8184699E-01
       -2   -1    0    0    0  501  0.00000000000E+00  0.00000000000E+00  0.12768150541E+04  0.12768150541E+04  0.25500000920E-02 0.  1.
        2   -1    0    0  501    0  0.00000000000E+00  0.00000000000E+00 -0.20246355246E+04  0.20246355246E+04  0.25500000920E-02 0. -1.
    10030    2    1    2    0    0  0.00000000000E+00  0.00000000000E+00 -0.74782047053E+03  0.33014505788E+04  0.32156399780E+04 0.  0.
        2    1    3    3  502    0 -0.16797250115E+03  0.15443489015E+04  0.51708537177E+02  0.15543172339E+04  0.25500000920E-02 0.  1.
       -2    1    3    3    0  502  0.16797250115E+03 -0.15443489015E+04 -0.79952900771E+03  0.17471333449E+04  0.25500000920E-02 0. -1.
</event>
<event>
 5   0  0.2635798E-06  0.2190793E+04  0.7818609E-02  0.8522270E-01
       -1   -1    0    0    0  501  0.00000000000E+00  0.00000000000E+00  0.49707953312E+03  0.49707953315E+03  0.50400001928E-02 0. -1.
        1   -1    0    0  501    0  0.00000000000E+00  0.00000000000E+00 -0.24138864361E+04  0.24138864361E+04  0.50400001928E-02 0.  1.
    10030    2    1    2    0    0  0.00000000000E+00  0.00000000000E+00 -0.19168069030E+04  0.29109659693E+04  0.21907930461E+04 0.  0.
        1    1    3    3  502    0  0.13072743470E+03  0.75433582114E+03 -0.19993840095E+04  0.21409457281E+04  0.50400001928E-02 0.  1.
       -1    1    3    3    0  502 -0.13072743470E+03 -0.75433582114E+03  0.82577106515E+02  0.77002024115E+03  0.50400001928E-02 0. -1.
</event>
<event>
 5   0  0.7941434E-06  0.3108936E+04  0.7818609E-02  0.8213290E-01
       -2   -1    0    0    0  501  0.00000000000E+00  0.00000000000E+00  0.12737189115E+04  0.12737189115E+04  0.25500000920E-02 0.  1.
        2   -1    0    0  501    0  0.00000000000E+00  0.00000000000E+00 -0.18970991886E+04  0.18970991886E+04  0.25500000920E-02 0. -1.
    10030    2    1    2    0    0  0.00000000000E+00  0.00000000000E+00 -0.62338027706E+03  0.31708181001E+04  0.31089362255E+04 0.  0.
        4    1    3    3  502    0  0.21715472147E+03 -0.32149510170E+03 -0.18469273855E+04  0.18872354526E+04  0.12699999809E+01 0. -1.
       -4    1    3    3    0  502 -0.21715472147E+03  0.32149510170E+03  0.12235471084E+04  0.12835826475E+04  0.12699999809E+01 0.  1.
</event>
<event>
 5   0  0.2788054E-06  0.3050801E+04  0.7818609E-02  0.8229371E-01
        1   -1    0    0  501    0  0.00000000000E+00  0.00000000000E+00  0.22902080776E+04  0.22902080776E+04  0.50400001928E-02 0. -1.
       -1   -1    0    0    0  501  0.00000000000E+00  0.00000000000E+00 -0.10159980982E+04  0.10159980982E+04  0.50400001928E-02 0.  1.
    10030    2    1    2    0    0  0.00000000000E+00  0.00000000000E+00  0.12742099795E+04  0.33062061758E+04  0.30508012399E+04 0.  0.
        3    1    3    3  502    0 -0.79386001372E+03 -0.63533920971E+03  0.18693909115E+04  0.21280253812E+04  0.10100000352E+00 0. -1.
       -3    1    3    3    0  502  0.79386001372E+03  0.63533920971E+03 -0.59518093203E+03  0.11781807946E+04  0.10100000352E+00 0.  1.
</event>
<event>
 5   0  0.2635798E-06  0.3260728E+04  0.7818609E-02  0.8172961E-01
        1   -1    0    0  501    0  0.00000000000E+00  0.00000000000E+00  0.20003609525E+04  0.20003609526E+04  0.50400001928E-02 0. -1.
       -1   -1    0    0    0  501  0.00000000000E+00  0.00000000000E+00 -0.13288035334E+04  0.13288035334E+04  0.50400001928E-02 0.  1.
    10030    2    1    2    0    0  0.00000000000E+00  0.00000000000E+00  0.67155741918E+03  0.33291644859E+04  0.32607279566E+04 0.  0.
        1    1    3    3  502    0 -0.93446115635E+03 -0.48125468660E+03 -0.93667848399E+03  0.14079028051E+04  0.50400001928E-02 0.  1.
       -1    1    3    3    0  502  0.93446115635E+03  0.48125468660E+03  0.16082359032E+04  0.19212616809E+04  0.50400001928E-02 0. -1.
</event>
<event>
 5   0  0.2933646E-06  0.1624170E+04  0.7818609E-02  0.8805836E-01
        1   -1    0    0  501    0  0.00000000000E+00  0.00000000000E+00  0.13851419258E+04  0.13851419258E+04  0.50400001928E-02 0. -1.
       -1   -1    0    0    0  501  0.00000000000E+00  0.00000000000E+00 -0.47611150763E+03  0.47611150766E+03  0.50400001928E-02 0.  1.
    10030    2    1    2    0    0  0.00000000000E+00  0.00000000000E+00  0.90903041813E+03  0.18612534334E+04  0.16241699549E+04 0.  0.
        2    1    3    3  502    0  0.21057294622E+03 -0.73257122622E+03  0.77555196901E+03  0.10874200770E+04  0.25500000920E-02 0. -1.
       -2    1    3    3    0  502 -0.21057294622E+03  0.73257122622E+03  0.13347844912E+03  0.77383335645E+03  0.25500000920E-02 0.  1.
</event>
<event>
 5   0  0.3938696E-06  0.3448423E+04  0.7818609E-02  0.8126123E-01
        1   -1    0    0  501    0  0.00000000000E+00  0.00000000000E+00  0.20906823412E+04  0.20906823412E+04  0.50400001928E-02 0. -1.
       -1   -1    0    0    0  501  0.00000000000E+00  0.00000000000E+00 -0.14219787517E+04  0.14219787517E+04  0.50400001928E-02 0.  1.
    10030    2    1    2    0    0  0.00000000000E+00  0.00000000000E+00  0.66870358950E+03  0.35126610929E+04  0.34484233300E+04 0.  0.
        4    1    3    3  502    0 -0.28942547030E+03 -0.62563853141E+03 -0.12755040666E+04  0.14498630665E+04  0.12699999809E+01 0.  1.
       -4    1    3    3    0  502  0.28942547030E+03  0.62563853141E+03  0.19442076561E+04  0.20627980264E+04  0.12699999809E+01 0. -1.
</event>
<event>
 5   0  0.7971763E-06  0.3219731E+04  0.7818609E-02  0.8183626E-01
       -2   -1    0    0    0  501  0.00000000000E+00  0.00000000000E+00  0.11625775543E+04  0.11625775543E+04  0.25500000920E-02 0. -1.
        2   -1    0    0  501    0  0.00000000000E+00  0.00000000000E+00 -0.22292419508E+04  0.22292419508E+04  0.25500000920E-02 0.  1.
    10030    2    1    2    0    0  0.00000000000E+00  0.00000000000E+00 -0.10666643964E+04  0.33918195051E+04  0.32197308304E+04 0.  0.
        1    1    3    3  502    0 -0.55699873225E+03  0.13237631887E+04 -0.12995809345E+04  0.19368807843E+04  0.50400001928E-02 0.  1.
       -1    1    3    3    0  502  0.55699873225E+03 -0.13237631887E+04  0.23291653811E+03  0.14549387207E+04  0.50400001928E-02 0. -1.
</event>
<event>
 5   0  0.2933646E-06  0.3179855E+04  0.7818609E-02  0.8194158E-01
        1   -1    0    0  501    0  0.00000000000E+00  0.00000000000E+00  0.21177786834E+04  0.21177786834E+04  0.50400001928E-02 0.  1.
       -1   -1    0    0    0  501  0.00000000000E+00  0.00000000000E+00 -0.11936418429E+04  0.11936418430E+04  0.50400001928E-02 0. -1.
    10030    2    1    2    0    0  0.00000000000E+00  0.00000000000E+00  0.92413684046E+03  0.33114205264E+04  0.31798548713E+04 0.  0.
        2    1    3    3  502    0 -0.13082881017E+04  0.88537900951E+03  0.64938711180E+03  0.17079863491E+04  0.25500000920E-02 0.  1.
       -2    1    3    3    0  502  0.13082881017E+04 -0.88537900951E+03  0.27474972866E+03  0.16034341773E+04  0.25500000920E-02 0. -1.
</event>
<event>
 5   0  0.7510251E-06  0.3188932E+04  0.7818609E-02  0.8191746E-01
        2   -1    0    0  501    0  0.00000000000E+00  0.00000000000E+00  0.17003867210E+04  0.17003867210E+04  0.25500000920E-02 0.  1.
       -2   -1    0    0    0  501  0.00000000000E+00  0.00000000000E+00 -0.14951434642E+04  0.14951434642E+04  0.25500000920E-02 0. -1.
    10030    2    1    2    0    0  0.00000000000E+00  0.00000000000E+00  0.20524325678E+03  0.31955301853E+04  0.31889321677E+04 0.  0.
        3    1    3    3  502    0  0.31398104188E+03 -0.12232154052E+04 -0.87277924635E+03  0.15351168181E+04  0.10100000352E+00 0. -1.
       -3    1    3    3    0  502 -0.31398104188E+03  0.12232154052E+04  0.10780225031E+04  0.16604133671E+04  0.10100000352E+00 0.  1.
</event>
<event>
 5   0  0.2635798E-06  0.3221600E+04  0.7818609E-02  0.8183136E-01
       -1   -1    0    0    0  501  0.00000000000E+00  0.00000000000E+00  0.11509029478E+04  0.11509029478E+04  0.50400001928E-02 0. -1.
        1   -1    0    0  501    0  0.00000000000E+00  0.00000000000E+00 -0.22544706288E+04  0.22544706288E+04  0.50400001928E-02 0.  1.
    10030    2    1    2    0    0  0.00000000000E+00  0.00000000000E+00 -0.11035676810E+04  0.34053735766E+04  0.32216001567E+04 0.  0.
        1    1    3    3  502    0  0.92851260562E+03  0.20673762413E+03  0.82229255242E+03  0.12573945864E+04  0.50400001928E-02 0. -1.
       -1    1    3    3    0  502 -0.92851260562E+03 -0.20673762413E+03 -0.19258602334E+04  0.21479789903E+04  0.50400001928E-02 0.  1.
</event>
<event>
 5   0  0.7971763E-06  0.3378988E+04  0.7818609E-02  0.8143083E-01
        2   -1    0    0  501    0  0.00000000000E+00  0.00000000000E+00  0.22419565494E+04  0.22419565494E+04  0.25500000920E-02 0. -1.
       -2   -1    0    0    0  501  0.00000000000E+00  0.00000000000E+00 -0.12731689021E+04  0.12731689022E+04  0.25500000920E-02 0.  1.
    10030    2    1    2    0    0  0.00000000000E+00  0.00000000000E+00  0.96878764727E+03  0.35151254516E+04  0.33789876346E+04 0.  0.
        1    1    3    3  502    0 -0.12562536383E+04  0.35297148409E+03 -0.63198142704E+03  0.14498836493E+04  0.50400001928E-02 0.  1.
       -1    1    3    3    0  502  0.12562536383E+04 -0.35297148409E+03  0.16007690743E+04  0.20652418022E+04  0.50400001928E-02 0. -1.
</event>
<event>
 5   0  0.2788054E-06  0.2885922E+04  0.7818609E-02  0.8277078E-01
       -1   -1    0    0    0  501  0.00000000000E+00  0.00000000000E+00  0.92238869007E+03  0.92238869009E+03  0.50400001928E-02 0.  1.
        1   -1    0    0  501    0  0.00000000000E+00  0.00000000000E+00 -0.22573313852E+04  0.22573313852E+04  0.50400001928E-02 0. -1.
    10030    2    1    2    0    0  0.00000000000E+00  0.00000000000E+00 -0.13349426952E+04  0.31797200753E+04  0.28859223410E+04 0.  0.
        3    1    3    3  502    0 -0.76181573110E+03  0.56629398901E+02 -0.20162550408E+04  0.21561202417E+04  0.10100000352E+00 0. -1.
       -3    1    3    3    0  502  0.76181573110E+03 -0.56629398901E+02  0.68131234560E+03  0.10235998336E+04  0.10100000352E+00 0.  1.
</event>
<event>
 5   0  0.7941434E-06  0.3119944E+04  0.7818609E-02  0.8210286E-01
       -2   -1    0    0    0  501  0.00000000000E+00  0.00000000000E+00  0.11861245136E+04  0.11861245137E+04  0.25500000920E-02 0.  1.
        2   -1    0    0  501    0  0.00000000000E+00  0.00000000000E+00 -0.20516502210E+04  0.20516502210E+04  0.25500000920E-02 0. -1.
    10030    2    1    2    0    0  0.00000000000E+00  0.00000000000E+00 -0.86552570731E+03  0.32377747346E+04  0.31199439870E+04 0.  0.
        4    1    3    3  502    0 -0.35312755661E+03 -0.13150950517E+04 -0.12226507221E+04  0.18300411109E+04  0.12699999809E+01 0. -1.
       -4    1    3    3    0  502  0.35312755661E+03  0.13150950517E+04  0.35712501476E+03  0.14077336238E+04  0.12699999809E+01 0.  1.
</event>
<event>
 5   0  0.7941434E-06  0.3156092E+04  0.7818609E-02  0.8200510E-01
        2   -1    0    0  501    0  0.00000000000E+00  0.00000000000E+00  0.19366321207E+04  0.19366321207E+04  0.25500000920E-02 0. -1.
       -2   -1    0    0    0  501  0.00000000000E+00  0.00000000000E+00 -0.12858556641E+04  0.12858556641E+04  0.25500000920E-02 0.  1.
    10030    2    1    2    0    0  0.00000000000E+00  0.00000000000E+00  0.65077645664E+03  0.32224877848E+04  0.31560921290E+04 0.  0.
        4    1    3    3  502    0  0.11640600187E+04 -0.28823886923E+03  0.13726910258E+04  0.18227450831E+04  0.12699999809E+01 0. -1.
       -4    1    3    3    0  502 -0.11640600187E+04  0.28823886923E+03 -0.72191456921E+03  0.13997427017E+04  0.12699999809E+01 0.  1.
</event>
<event>
 5   0  0.8237664E-06  0.3233710E+04  0.7818609E-02  0.8179971E-01
        2   -1    0    0  501    0  0.00000000000E+00  0.00000000000E+00  0.15020339946E+04  0.15020339946E+04  0.25500000920E-02 0. -1.
       -2   -1    0    0    0  501  0.00000000000E+00  0.00000000000E+00 -0.17404532031E+04  0.17404532031E+04  0.25500000920E-02 0.  1.
    10030    2    1    2    0    0  0.00000000000E+00  0.00000000000E+00 -0.23841920851E+03  0.32424871977E+04  0.32337098677E+04 0.  0.
        5    1    3    3  502    0  0.28409290313E+03 -0.15362829116E+04  0.29824220776E+03  0.15905484798E+04  0.46999998093E+01 0.  1.
       -5    1    3    3    0  502 -0.28409290313E+03  0.15362829116E+04 -0.53666141627E+03  0.16519387179E+04  0.46999998093E+01 0. -1.
</event>
<event>
 5   0  0.7952307E-06  0.2801191E+04  0.7818609E-02  0.8302899E-01
        2   -1    0    0  501    0  0.00000000000E+00  0.00000000000E+00  0.14358392384E+04  0.14358392384E+04  0.25500000920E-02 0.  1.
       -2   -1    0    0    0  501  0.00000000000E+00  0.00000000000E+00 -0.13662164149E+04  0.13662164149E+04  0.25500000920E-02 0. -1.
    10030    2    1    2    0    0  0.00000000000E+00  0.00000000000E+00  0.69622823474E+02  0.28020556532E+04  0.28011905587E+04 0.  0.
        2    1    3    3  502    0  0.20689966741E+03 -0.12398918075E+03  0.14149064230E+04  0.14353191196E+04  0.25500000920E-02 0.  1.
       -2    1    3    3    0  502 -0.20689966741E+03  0.12398918075E+03 -0.13452835995E+04  0.13667365336E+04  0.25500000920E-02 0. -1.
</event>
<event>
 5   0  0.7510251E-06  0.3275101E+04  0.7818609E-02  0.8169260E-01
        2   -1    0    0  501    0  0.00000000000E+00  0.00000000000E+00  0.16149738943E+04  0.16149738943E+04  0.25500000920E-02 0. -1.
       -2   -1    0    0    0  501  0.00000000000E+00  0.00000000000E+00 -0.16604428349E+04  0.16604428349E+04  0.25500000920E-02 0.  1.
    10030    2    1    2    0    0  0.00000000000E+00  0.00000000000E+00 -0.45468940517E+02  0.32754167292E+04  0.32751011168E+04 0.  0.
        3    1    3    3  502    0  0.70563156644E+03  0.14150814755E+04  0.40298287324E+03  0.16317986077E+04  0.10100000352E+00 0. -1.
       -3    1    3    3    0  502 -0.70563156644E+03 -0.14150814755E+04 -0.44845181376E+03  0.16436181215E+04  0.10100000352E+00 0.  1.
</event>
<event>
 5   0  0.7510251E-06  0.3180422E+04  0.7818609E-02  0.8194007E-01
       -2   -1    0    0    0  501  0.00000000000E+00  0.00000000000E+00  0.10247285275E+04  0.10247285275E+04  0.25500000920E-02 0.  1.
        2   -1    0    0  501    0  0.00000000000E+00  0.00000000000E+00 -0.24677469435E+04  0.24677469435E+04  0.25500000920E-02 0. -1.
    10030    2    1    2    0    0  0.00000000000E+00  0.00000000000E+00 -0.14430184161E+04  0.34924754710E+04  0.31804217906E+04 0.  0.
        3    1    3    3  502    0  0.77592397219E+03 -0.13674387915E+04 -0.45974282898E+03  0.16380812978E+04  0.10100000352E+00 0.  1.
       -3    1    3    3    0  502 -0.77592397219E+03  0.13674387915E+04 -0.98327558708E+03  0.18543941732E+04  0.10100000352E+00 0. -1.
</event>
<event>
 5   0  0.7952307E-06  0.3158360E+04  0.7818609E-02  0.8199902E-01
        2   -1    0    0  501    0  0.00000000000E+00  0.00000000000E+00  0.24117564061E+04  0.24117564061E+04  0.25500000920E-02 0.  1.
       -2   -1    0    0    0  501  0.00000000000E+00  0.00000000000E+00 -0.10340219107E+04  0.10340219107E+04  0.25500000920E-02 0. -1.
    10030    2    1    2    0    0  0.00000000000E+00  0.00000000000E+00  0.13777344954E+04  0.34457783168E+04  0.31583596801E+04 0.  0.
        2    1    3    3  502    0 -0.80129877925E+03  0.14454952758E+03  0.21650846161E+04  0.23131289836E+04  0.25500000920E-02 0.  1.
       -2    1    3    3    0  502  0.80129877925E+03 -0.14454952758E+03 -0.78735012070E+03  0.11326493333E+04  0.25500000920E-02 0. -1.
</event>
<event>
 5   0  0.2933646E-06  0.3217930E+04  0.7818609E-02  0.8184098E-01
       -1   -1    0    0    0  501  0.00000000000E+00  0.00000000000E+00  0.18078383191E+04  0.18078383191E+04  0.50400001928E-02 0. -1.
        1   -1    0    0  501    0  0.00000000000E+00  0.00000000000E+00 -0.14319686029E+04  0.14319686029E+04  0.50400001928E-02 0.  1.
    10030    2    1    2    0    0  0.00000000000E+00  0.00000000000E+00  0.37586971625E+03  0.32398069220E+04  0.32179295903E+04 0.  0.
        2    1    3    3  502    0  0.62044096124E+03 -0.12173160744E+03 -0.13016514950E+04  0.14470874836E+04  0.25500000920E-02 0.  1.
       -2    1    3    3    0  502 -0.62044096124E+03  0.12173160744E+03  0.16775212113E+04  0.17927194384E+04  0.25500000920E-02 0. -1.
</event>
<event>
 5   0  0.7510251E-06  0.3216373E+04  0.7818609E-02  0.8184506E-01
        2   -1    0    0  501    0  0.00000000000E+00  0.00000000000E+00  0.14155752522E+04  0.14155752522E+04  0.25500000920E-02 0. -1.
       -2   -1    0    0    0  501  0.00000000000E+00  0.00000000000E+00 -0.18270054243E+04  0.18270054243E+04  0.25500000920E-02 0.  1.
    10030    2    1    2    0    0  0.00000000000E+00  0.00000000000E+00 -0.41143017205E+03  0.32425806766E+04  0.32163729040E+04 0.  0.
        3    1    3    3  502    0 -0.15032415508E+04  0.27082099251E+03  0.30155930619E+03  0.15569255587E+04  0.10100000352E+00 0. -1.
       -3    1    3    3    0  502  0.15032415508E+04 -0.27082099251E+03 -0.71298947824E+03  0.16856551178E+04  0.10100000352E+00 0.  1.
</event>
<event>
 5   0  0.2635798E-06  0.3067053E+04  0.7818609E-02  0.8224839E-01
       -1   -1    0    0    0  501  0.00000000000E+00  0.00000000000E+00  0.16684566390E+04  0.16684566391E+04  0.50400001928E-02 0. -1.
        1   -1    0    0  501    0  0.00000000000E+00  0.00000000000E+00 -0.14095081318E+04  0.14095081318E+04  0.50400001928E-02 0.  1.
    10030    2    1    2    0    0  0.00000000000E+00  0.00000000000E+00  0.25894850721E+03  0.30779647709E+04  0.30670527875E+04 0.  0.
        1    1    3    3  502    0 -0.12103905775E+04  0.79016834088E+03 -0.38449221524E+03  0.14957424981E+04  0.50400001928E-02 0.  1.
       -1    1    3    3    0  502  0.12103905775E+04 -0.79016834088E+03  0.64344072245E+03  0.15822222728E+04  0.50400001928E-02 0. -1.
</event>
<event>
 5   0  0.7971763E-06  0.3294754E+04  0.7818609E-02  0.8164231E-01
       -2   -1    0    0    0  501  0.00000000000E+00  0.00000000000E+00  0.11671392559E+04  0.11671392559E+04  0.25500000920E-02 0.  1.
        2   -1    0    0  501    0  0.00000000000E+00  0.00000000000E+00 -0.23252165876E+04  0.23252165876E+04  0.25500000920E-02 0. -1.
    10030    2    1    2    0    0  0.00000000000E+00  0.00000000000E+00 -0.11580773317E+04  0.34923558436E+04  0.32947543508E+04 0.  0.
        1    1    3    3  502    0  0.98736998380E+03 -0.75153035627E+03 -0.17276101128E+04  0.21270482042E+04  0.50400001928E-02 0. -1.
       -1    1    3    3    0  502 -0.98736998380E+03  0.75153035627E+03  0.56953278106E+03  0.13653076393E+04  0.50400001928E-02 0.  1.
</event>
<event>
 5   0  0.7952307E-06  0.2973753E+04  0.7818609E-02  0.8251266E-01
        2   -1    0    0  501    0  0.00000000000E+00  0.00000000000E+00  0.20798339766E+04  0.20798339766E+04  0.25500000920E-02 0.  1.
       -2   -1    0    0    0  501  0.00000000000E+00  0.00000000000E+00 -0.10629704551E+04  0.10629704551E+04  0.25500000920E-02 0. -1.
    10030    2    1    2    0    0  0.00000000000E+00  0.00000000000E+00  0.10168635216E+04  0.31428044317E+04  0.29737532303E+04 0.  0.
        2    1    3    3  502    0 -0.43997365726E+03  0.87574514218E+03 -0.67329970091E+03  0.11890495618E+04  0.25500000920E-02 0. -1.
       -2    1    3    3    0  502  0.43997365726E+03 -0.87574514218E+03  0.16901632225E+04  0.19537548699E+04  0.25500000920E-02 0.  1.
</event>
<event>
 5   0  0.2933646E-06  0.2937525E+04  0.7818609E-02  0.8261799E-01
       -1   -1    0    0    0  501  0.00000000000E+00  0.00000000000E+00  0.80294143275E+03  0.80294143277E+03  0.50400001928E-02 0.  1.
        1   -1    0    0  501    0  0.00000000000E+00  0.00000000000E+00 -0.26867005049E+04  0.26867005049E+04  0.50400001928E-02 0. -1.
    10030    2    1    2    0    0  0.00000000000E+00  0.00000000000E+00 -0.18837590722E+04  0.34896419377E+04  0.29375249125E+04 0.  0.
        2    1    3    3  502    0  0.92112177219E+03 -0.28960694628E+02 -0.23004944977E+04  0.24782209294E+04  0.25500000920E-02 0. -1.
       -2    1    3    3    0  502 -0.92112177219E+03  0.28960694628E+02  0.41673542555E+03  0.10114210083E+04  0.25500000920E-02 0.  1.
</event>
<event>
 5   0  0.8237664E-06  0.3227651E+04  0.7818609E-02  0.8181553E-01
        2   -1    0    0  501    0  0.00000000000E+00  0.00000000000E+00  0.18883570307E+04  0.18883570307E+04  0.25500000920E-02 0.  1.
       -2   -1    0    0    0  501  0.00000000000E+00  0.00000000000E+00 -0.13792058004E+04  0.13792058004E+04  0.25500000920E-02 0. -1.
    10030    2    1    2    0    0  0.00000000000E+00  0.00000000000E+00  0.50915123034E+03  0.32675628311E+04  0.32276511397E+04 0.  0.
        5    1    3    3  502    0 -0.15175560992E+04  0.56103358873E+02 -0.29833427891E+03  0.15476270652E+04  0.46999998093E+01 0. -1.
       -5    1    3    3    0  502  0.15175560992E+04 -0.56103358873E+02  0.80748550925E+03  0.17199357659E+04  0.46999998093E+01 0.  1.
</event>
<event>
 5   0  0.4142886E-06  0.3211581E+04  0.7818609E-02  0.8185765E-01
       -1   -1    0    0    0  501  0.00000000000E+00  0.00000000000E+00  0.11384958872E+04  0.11384958872E+04  0.50400001928E-02 0. -1.
        1   -1    0    0  501    0  0.00000000000E+00  0.00000000000E+00 -0.22648859247E+04  0.22648859247E+04  0.50400001928E-02 0.  1.
    10030    2    1    2    0    0  0.00000000000E+00  0.00000000000E+00 -0.11263900375E+04  0.34033818119E+04  0.32115811123E+04 0.  0.
        5    1    3    3  502    0  0.64957122775E+03  0.11923262837E+04  0.34530007908E+03  0.14010135550E+04  0.46999998093E+01 0. -1.
       -5    1    3    3    0  502 -0.64957122775E+03 -0.11923262837E+04 -0.14716901166E+04  0.20023682568E+04  0.46999998093E+01 0.  1.
</event>
<event>
 5   0  0.4142886E-06  0.3169085E+04  0.7818609E-02  0.8197030E-01
       -1   -1    0    0    0  501  0.00000000000E+00  0.00000000000E+00  0.18266420016E+04  0.18266420016E+04  0.50400001928E-02 0.  1.
        1   -1    0    0  501    0  0.00000000000E+00  0.00000000000E+00 -0.13745303438E+04  0.13745303438E+04  0.50400001928E-02 0. -1.
    10030    2    1    2    0    0  0.00000000000E+00  0.00000000000E+00  0.45211165777E+03  0.32011723454E+04  0.31690849521E+04 0.  0.
        5    1    3    3  502    0  0.48123554914E+02 -0.50012777372E+03  0.17440386880E+04  0.18149756753E+04  0.46999998093E+01 0.  1.
       -5    1    3    3    0  502 -0.48123554914E+02  0.50012777372E+03 -0.12919270303E+04  0.13861966701E+04  0.46999998093E+01 0. -1.
</event>
<event>
 5   0  0.3938696E-06  0.2057672E+04  0.7818609E-02  0.8580122E-01
       -1   -1    0    0    0  501  0.00000000000E+00  0.00000000000E+00  0.71559720287E+03  0.71559720289E+03  0.50400001928E-02 0. -1.
        1   -1    0    0  501    0  0.00000000000E+00  0.00000000000E+00 -0.14791895831E+04  0.14791895831E+04  0.50400001928E-02 0.  1.
    10030    2    1    2    0    0  0.00000000000E+00  0.00000000000E+00 -0.76359238020E+03  0.21947867860E+04  0.20576724017E+04 0.  0.
        4    1    3    3  502    0 -0.94457186210E+02 -0.16890435566E+03 -0.14596005161E+04  0.14723743141E+04  0.12699999809E+01 0.  1.
       -4    1    3    3    0  502  0.94457186210E+02  0.16890435566E+03  0.69600813588E+03  0.72241247186E+03  0.12699999809E+01 0. -1.
</event>
<event>
 5   0  0.7941434E-06  0.3181817E+04  0.7818609E-02  0.8193636E-01
        2   -1    0    0  501    0  0.00000000000E+00  0.00000000000E+00  0.11747569826E+04  0.11747569826E+04  0.25500000920E-02 0. -1.
       -2   -1    0    0    0  501  0.00000000000E+00  0.00000000000E+00 -0.21544792004E+04  0.21544792004E+04  0.25500000920E-02 0.  1.
    10030    2    1    2    0    0  0.00000000000E+00  0.00000000000E+00 -0.97972221781E+03  0.33292361830E+04  0.31818167669E+04 0.  0.
        4    1    3    3  502    0  0.79506017576E+03  0.13622357515E+04 -0.70728913113E+03  0.17286024568E+04  0.12699999809E+01 0.  1.
       -4    1    3    3    0  502 -0.79506017576E+03 -0.13622357515E+04 -0.27243308668E+03  0.16006337262E+04  0.12699999809E+01 0. -1.
</event>
<event>
 5   0  0.7952307E-06  0.3250174E+04  0.7818609E-02  0.8175691E-01
        2   -1    0    0  501    0  0.00000000000E+00  0.00000000000E+00  0.19230752653E+04  0.19230752653E+04  0.25500000920E-02 0. -1.
       -2   -1    0    0    0  501  0.00000000000E+00  0.00000000000E+00 -0.13732730111E+04  0.13732730111E+04  0.25500000920E-02 0.  1.
    10030    2    1    2    0    0  0.00000000000E+00  0.00000000000E+00  0.54980225417E+03  0.32963482764E+04  0.32501737555E+04 0.  0.
        2    1    3    3  502    0  0.65410492244E+02 -0.10843103354E+04  0.15007494721E+04  0.18526349921E+04  0.25500000920E-02 0. -1.
       -2    1    3    3    0  502 -0.65410492244E+02  0.10843103354E+04 -0.95094721797E+03  0.14437132843E+04  0.25500000920E-02 0.  1.
</event>
<event>
 5   0  0.7941434E-06  0.3222350E+04  0.7818609E-02  0.8182939E-01
       -2   -1    0    0    0  501  0.00000000000E+00  0.00000000000E+00  0.20168418050E+04  0.20168418050E+04  0.25500000920E-02 0.  1.
        2   -1    0    0  501    0  0.00000000000E+00  0.00000000000E+00 -0.12871039848E+04  0.12871039848E+04  0.25500000920E-02 0. -1.
    10030    2    1    2    0    0  0.00000000000E+00  0.00000000000E+00  0.72973782022E+03  0.33039457897E+04  0.32223501509E+04 0.  0.
        4    1    3    3  502    0  0.57378272615E+03 -0.13689768011E+04 -0.27754195825E+03  0.15100845176E+04  0.12699999809E+01 0. -1.
       -4    1    3    3    0  502 -0.57378272615E+03  0.13689768011E+04  0.10072797785E+04  0.17938612722E+04  0.12699999809E+01 0.  1.
</event>
<event>
 5   0  0.7971763E-06  0.3011269E+04  0.7818609E-02  0.8240520E-01
       -2   -1    0    0    0  501  0.00000000000E+00  0.00000000000E+00  0.13256958205E+04  0.13256958205E+04  0.25500000920E-02 0. -1.
        2   -1    0    0  501    0  0.00000000000E+00  0.00000000000E+00 -0.17099970629E+04  0.17099970629E+04  0.25500000920E-02 0.  1.
    10030    2    1    2    0    0  0.00000000000E+00  0.00000000000E+00 -0.38430124248E+03  0.30356928834E+04  0.30112694727E+04 0.  0.
        1    1    3    3  502    0  0.29552772220E+03 -0.11771511870E+03 -0.16757328354E+04  0.17056594090E+04  0.50400001928E-02 0.  1.
       -1    1    3    3    0  502 -0.29552772220E+03  0.11771511870E+03  0.12914315929E+04  0.13300334744E+04  0.50400001928E-02 0. -1.
</event>
<event>
 5   0  0.7510251E-06  0.1656054E+04  0.7818609E-02  0.8786833E-01
        2   -1    0    0  501    0  0.00000000000E+00  0.00000000000E+00  0.13056825966E+04  0.13056825966E+04  0.25500000920E-02 0.  1.
       -2   -1    0    0    0  501  0.00000000000E+00  0.00000000000E+00 -0.52511119549E+03  0.52511119550E+03  0.25500000920E-02 0. -1.
    10030    2    1    2    0    0  0.00000000000E+00  0.00000000000E+00  0.78057140112E+03  0.18307937921E+04  0.16560538026E+04 0.  0.
        3    1    3    3  502    0 -0.30187003133E+03 -0.63476306582E+03  0.87416695352E+03  0.11217029635E+04  0.10100000352E+00 0.  1.
       -3    1    3    3    0  502  0.30187003133E+03  0.63476306582E+03 -0.93595552405E+02  0.70909082858E+03  0.10100000352E+00 0. -1.
</event>
<event>
 5   0  0.2635798E-06  0.3200463E+04  0.7818609E-02  0.8188695E-01
        1   -1    0    0  501    0  0.00000000000E+00  0.00000000000E+00  0.13950102004E+04  0.13950102004E+04  0.50400001928E-02 0.  1.
       -1   -1    0    0    0  501  0.00000000000E+00  0.00000000000E+00 -0.18356433937E+04  0.18356433937E+04  0.50400001928E-02 0. -1.
    10030    2    1    2    0    0  0.00000000000E+00  0.00000000000E+00 -0.44063319325E+03  0.32306535941E+04  0.32004632531E+04 0.  0.
        1    1    3    3  502    0  0.40963468089E+03  0.89486753768E+03 -0.14940247170E+04  0.17890495625E+04  0.50400001928E-02 0. -1.
       -1    1    3    3    0  502 -0.40963468089E+03 -0.89486753768E+03  0.10533915238E+04  0.14416040317E+04  0.50400001928E-02 0.  1.
</event>
<event>
 5   0  0.7952307E-06  0.3196366E+04  0.7818609E-02  0.8189777E-01
       -2   -1    0    0    0  501  0.00000000000E+00  0.00000000000E+00  0.13618186359E+04  0.13618186359E+04  0.25500000920E-02 0.  1.
        2   -1    0    0  501    0  0.00000000000E+00  0.00000000000E+00 -0.18755723271E+04  0.18755723271E+04  0.25500000920E-02 0. -1.
    10030    2    1    2    0    0  0.00000000000E+00  0.00000000000E+00 -0.51375369124E+03  0.32373909630E+04  0.31963662794E+04 0.  0.
        2    1    3    3  502    0  0.26019249208E+03  0.13651810358E+04 -0.10561632683E+04  0.17455372361E+04  0.25500000920E-02 0. -1.
       -2    1    3    3    0  502 -0.26019249208E+03 -0.13651810358E+04  0.54240957701E+03  0.14918537269E+04  0.25500000920E-02 0.  1.
</event>
<event>
 5   0  0.3938696E-06  0.2529078E+04  0.7818609E-02  0.8392699E-01
       -1   -1    0    0    0  501  0.00000000000E+00  0.00000000000E+00  0.63953185619E+03  0.63953185621E+03  0.50400001928E-02 0. -1.
        1   -1    0    0  501    0  0.00000000000E+00  0.00000000000E+00 -0.25003589356E+04  0.25003589356E+04  0.50400001928E-02 0.  1.
    10030    2    1    2    0    0  0.00000000000E+00  0.00000000000E+00 -0.18608270794E+04  0.31398907918E+04  0.25290782442E+04 0.  0.
        4    1    3    3  502    0 -0.90955931114E+03 -0.34350218866E+03  0.73423781365E+02  0.97503054242E+03  0.12699999809E+01 0. -1.
       -4    1    3    3    0  502  0.90955931114E+03  0.34350218866E+03 -0.19342508608E+04  0.21648602494E+04  0.12699999809E+01 0.  1.
</event>
<event>
 5   0  0.7941434E-06  0.2902581E+04  0.7818609E-02  0.8272110E-01
       -2   -1    0    0    0  501  0.00000000000E+00  0.00000000000E+00  0.22876667540E+04  0.22876667540E+04  0.25500000920E-02 0. -1.
        2   -1    0    0  501    0  0.00000000000E+00  0.00000000000E+00 -0.92069537959E+03  0.92069537960E+03  0.25500000920E-02 0.  1.
    10030    2    1    2    0    0  0.00000000000E+00  0.00000000000E+00  0.13669713745E+04  0.32083621336E+04  0.29025810655E+04 0.  0.
        4    1    3    3  502    0  0.12951549834E+04 -0.23237929899E+03  0.13602042680E+04  0.18925072875E+04  0.12699999809E+01 0. -1.
       -4    1    3    3    0  502 -0.12951549834E+04  0.23237929899E+03  0.67671064359E+01  0.13158548462E+04  0.12699999809E+01 0.  1.
</event>
<event>
 5   0  0.7941434E-06  0.3746175E+04  0.7818609E-02  0.8057805E-01
        2   -1    0    0  501    0  0.00000000000E+00  0.00000000000E+00  0.10629756392E+04  0.10629756392E+04  0.25500000920E-02 0. -1.
       -2   -1    0    0    0  501  0.00000000000E+00  0.00000000000E+00 -0.33005999761E+04  0.33005999761E+04  0.25500000920E-02 0.  1.
    10030    2    1    2    0    0  0.00000000000E+00  0.00000000000E+00 -0.22376243369E+04  0.43635756154E+04  0.37461753133E+04 0.  0.
        4    1    3    3  502    0 -0.60165635282E+03 -0.13118607872E+04 -0.25095202808E+04  0.28949374336E+04  0.12699999809E+01 0.  1.
       -4    1    3    3    0  502  0.60165635282E+03  0.13118607872E+04  0.27189594389E+03  0.14686381818E+04  0.12699999809E+01 0. -1.
</event>
<event>
 5   0  0.2635798E-06  0.1785013E+04  0.7818609E-02  0.8714310E-01
       -1   -1    0    0    0  501  0.00000000000E+00  0.00000000000E+00  0.15213426657E+04  0.15213426657E+04  0.50400001928E-02 0. -1.
        1   -1    0    0  501    0  0.00000000000E+00  0.00000000000E+00 -0.52359526165E+03  0.52359526168E+03  0.50400001928E-02 0.  1.
    10030    2    1    2    0    0  0.00000000000E+00  0.00000000000E+00  0.99774740403E+03  0.20449379274E+04  0.17850129536E+04 0.  0.
        1    1    3    3  502    0 -0.25434705574E+03  0.67040745404E+02 -0.47818287300E+03  0.54575245887E+03  0.50400001928E-02 0.  1.
       -1    1    3    3    0  502  0.25434705574E+03 -0.67040745404E+02  0.14759302770E+04  0.14991854685E+04  0.50400001928E-02 0. -1.
</event>
<event>
 5   0  0.4142886E-06  0.3372358E+04  0.7818609E-02  0.8144724E-01
       -1   -1    0    0    0  501  0.00000000000E+00  0.00000000000E+00  0.14332179794E+04  0.14332179794E+04  0.50400001928E-02 0.  1.
        1   -1    0    0  501    0  0.00000000000E+00  0.00000000000E+00 -0.19837871739E+04  0.19837871739E+04  0.50400001928E-02 0. -1.
    10030    2    1    2    0    0  0.00000000000E+00  0.00000000000E+00 -0.55056919448E+03  0.34170051533E+04  0.33723578961E+04 0.  0.
        5    1    3    3  502    0  0.96295258714E+03 -0.13733219791E+04 -0.45045021373E+03  0.17367263539E+04  0.46999998093E+01 0. -1.
       -5    1    3    3    0  502 -0.96295258714E+03  0.13733219791E+04 -0.10011898075E+03  0.16802787994E+04  0.46999998093E+01 0.  1.
</event>
<event>
 5   0  0.7510251E-06  0.1846007E+04  0.7818609E-02  0.8682209E-01
        2   -1    0    0  501    0  0.00000000000E+00  0.00000000000E+00  0.16337911800E+04  0.16337911800E+04  0.25500000920E-02 0.  1.
       -2   -1    0    0    0  501  0.00000000000E+00  0.00000000000E+00 -0.52144713154E+03  0.52144713155E+03  0.25500000920E-02 0. -1.
    10030    2    1    2    0    0  0.00000000000E+00  0.00000000000E+00  0.11123440484E+04  0.21552383115E+04  0.18460072853E+04 0.  0.
        3    1    3    3  502    0 -0.75259504312E+02  0.16868724225E+03  0.16119917664E+04  0.16225402441E+04  0.10100000352E+00 0.  1.
       -3    1    3    3    0  502  0.75259504312E+02 -0.16868724225E+03 -0.49964771799E+03  0.53269806737E+03  0.10100000352E+00 0. -1.
</event>
<event>
 5   0  0.2635798E-06  0.3198938E+04  0.7818609E-02  0.8189098E-01
       -1   -1    0    0    0  501  0.00000000000E+00  0.00000000000E+00  0.11487420424E+04  0.11487420425E+04  0.50400001928E-02 0.  1.
        1   -1    0    0  501    0  0.00000000000E+00  0.00000000000E+00 -0.22270458016E+04  0.22270458016E+04  0.50400001928E-02 0. -1.
    10030    2    1    2    0    0  0.00000000000E+00  0.00000000000E+00 -0.10783037591E+04  0.33757878440E+04  0.31989380380E+04 0.  0.
        1    1    3    3  502    0  0.84075569388E+03 -0.65681814412E+03  0.71837330055E+03  0.12862116506E+04  0.50400001928E-02 0.  1.
       -1    1    3    3    0  502 -0.84075569388E+03  0.65681814412E+03 -0.17966770597E+04  0.20895761934E+04  0.50400001928E-02 0. -1.
</event>
<event>
 5   0  0.7941434E-06  0.2635989E+04  0.7818609E-02  0.8356078E-01
        2   -1    0    0  501    0  0.00000000000E+00  0.00000000000E+00  0.21992313720E+04  0.21992313720E+04  0.25500000920E-02 0.  1.
       -2   -1    0    0    0  501  0.00000000000E+00  0.00000000000E+00 -0.78987089551E+03  0.78987089552E+03  0.25500000920E-02 0. -1.
    10030    2    1    2    0    0  0.00000000000E+00  0.00000000000E+00  0.14093604765E+04  0.29891022676E+04  0.26359885078E+04 0.  0.
        4    1    3    3  502    0  0.12256991101E+04 -0.39856688858E+03  0.39224760484E+03  0.13472392770E+04  0.12699999809E+01 0.  1.
       -4    1    3    3    0  502 -0.12256991101E+04  0.39856688858E+03  0.10171128717E+04  0.16418629906E+04  0.12699999809E+01 0. -1.
</event>
<event>
 5   0  0.7971763E-06  0.3217940E+04  0.7818609E-02  0.8184095E-01
        2   -1    0    0  501    0  0.00000000000E+00  0.00000000000E+00  0.17487879954E+04  0.17487879954E+04  0.25500000920E-02 0.  1.
       -2   -1    0    0    0  501  0.00000000000E+00  0.00000000000E+00 -0.14803307911E+04  0.14803307911E+04  0.25500000920E-02 0. -1.
    10030    2    1    2    0    0  0.00000000000E+00  0.00000000000E+00  0.26845720439E+03  0.32291187865E+04  0.32179401590E+04 0.  0.
        1    1    3    3  502    0 -0.14337446088E+04  0.70480912624E+03 -0.57235703528E+02  0.15986417465E+04  0.50400001928E-02 0. -1.
       -1    1    3    3    0  502  0.14337446088E+04 -0.70480912624E+03  0.32569290792E+03  0.16304770400E+04  0.50400001928E-02 0.  1.
</event>
<event>
 5   0  0.2933646E-06  0.2997556E+04  0.7818609E-02  0.8244429E-01
        1   -1    0    0  501    0  0.00000000000E+00  0.00000000000E+00  0.21092750183E+04  0.21092750183E+04  0.50400001928E-02 0. -1.
       -1   -1    0    0    0  501  0.00000000000E+00  0.00000000000E+00 -0.10649797199E+04  0.10649797199E+04  0.50400001928E-02 0.  1.
    10030    2    1    2    0    0  0.00000000000E+00  0.00000000000E+00  0.10442952984E+04  0.31742547382E+04  0.29975557498E+04 0.  0.
        2    1    3    3  502    0  0.11962061054E+04 -0.45084432969E+03  0.13506789482E+04  0.18597051587E+04  0.25500000920E-02 0. -1.
       -2    1    3    3    0  502 -0.11962061054E+04  0.45084432969E+03 -0.30638364981E+03  0.13145495795E+04  0.25500000920E-02 0.  1.
</event>
<event>
 5   0  0.7952307E-06  0.3143267E+04  0.7818609E-02  0.8203963E-01
        2   -1    0    0  501    0  0.00000000000E+00  0.00000000000E+00  0.20574933264E+04  0.20574933265E+04  0.25500000920E-02 0.  1.
       -2   -1    0    0    0  501  0.00000000000E+00  0.00000000000E+00 -0.12005056610E+04  0.12005056610E+04  0.25500000920E-02 0. -1.
    10030    2    1    2    0    0  0.00000000000E+00  0.00000000000E+00  0.85698766544E+03  0.32579989875E+04  0.31432673357E+04 0.  0.
        2    1    3    3  502    0  0.14898460045E+03 -0.29710649680E+03  0.20206493241E+04  0.20478018392E+04  0.25500000920E-02 0.  1.
       -2    1    3    3    0  502 -0.14898460045E+03  0.29710649680E+03 -0.11636616587E+04  0.12101971482E+04  0.25500000920E-02 0. -1.
</event>
<event>
 5   0  0.7971763E-06  0.3279466E+04  0.7818609E-02  0.8168140E-01
        2   -1    0    0  501    0  0.00000000000E+00  0.00000000000E+00  0.21285675399E+04  0.21285675399E+04  0.25500000920E-02 0.  1.
       -2   -1    0    0    0  501  0.00000000000E+00  0.00000000000E+00 -0.12631613752E+04  0.12631613752E+04  0.25500000920E-02 0. -1.
    10030    2    1    2    0    0  0.00000000000E+00  0.00000000000E+00  0.86540616472E+03  0.33917289151E+04  0.32794659937E+04 0.  0.
        1    1    3    3  502    0  0.85570377469E+03  0.12382166873E+04  0.11056018319E+04  0.18675558694E+04  0.50400001928E-02 0.  1.
       -1    1    3    3    0  502 -0.85570377469E+03 -0.12382166873E+04 -0.24019566714E+03  0.15241730457E+04  0.50400001928E-02 0. -1.
</event>
<event>
 5   0  0.7510251E-06  0.3249766E+04  0.7818609E-02  0.8175796E-01
       -2   -1    0    0    0  501  0.00000000000E+00  0.00000000000E+00  0.12172429793E+04  0.12172429793E+04  0.25500000920E-02 0.  1.
        2   -1    0    0  501    0  0.00000000000E+00  0.00000000000E+00 -0.21690369214E+04  0.21690369214E+04  0.25500000920E-02 0. -1.
    10030    2    1    2    0    0  0.00000000000E+00  0.00000000000E+00 -0.95179394212E+03  0.33862799007E+04  0.32497661235E+04 0.  0.
        3    1    3    3  502    0 -0.97149335752E+03  0.12572807335E+04 -0.83031850208E+03  0.17927584923E+04  0.10100000352E+00 0. -1.
       -3    1    3    3    0  502  0.97149335752E+03 -0.12572807335E+04 -0.12147544004E+03  0.15935214085E+04  0.10100000352E+00 0.  1.
</event>
<event>
 5   0  0.7952307E-06  0.1997774E+04  0.7818609E-02  0.8607662E-01
        2   -1    0    0  501    0  0.00000000000E+00  0.00000000000E+00  0.12620546191E+04  0.12620546191E+04  0.25500000920E-02 0.  1.
       -2   -1    0    0    0  501  0.00000000000E+00  0.00000000000E+00 -0.79059572220E+03  0.79059572220E+03  0.25500000920E-02 0. -1.
    10030    2    1    2    0    0  0.00000000000E+00  0.00000000000E+00  0.47145889691E+03  0.20526503413E+04  0.19977737440E+04 0.  0.
        2    1    3    3  502    0 -0.62950633151E+03 -0.26027616223E+03 -0.51492294243E+03  0.85391307443E+03  0.25500000920E-02 0. -1.
       -2    1    3    3    0  502  0.62950633151E+03  0.26027616223E+03  0.98638183934E+03  0.11987372669E+04  0.25500000920E-02 0.  1.
</event>
<event>
 5   0  0.7941434E-06  0.3247540E+04  0.7818609E-02  0.8176374E-01
        2   -1    0    0  501    0  0.00000000000E+00  0.00000000000E+00  0.19870800071E+04  0.19870800071E+04  0.25500000920E-02 0. -1.
       -2   -1    0    0    0  501  0.00000000000E+00  0.00000000000E+00 -0.13268864701E+04  0.13268864701E+04  0.25500000920E-02 0.  1.
    10030    2    1    2    0    0  0.00000000000E+00  0.00000000000E+00  0.66019353695E+03  0.33139664772E+04  0.32475403471E+04 0.  0.
        4    1    3    3  502    0  0.43649298913E+03  0.39548918715E+03  0.18742198407E+04  0.19645965110E+04  0.12699999809E+01 0. -1.
       -4    1    3    3    0  502 -0.43649298913E+03 -0.39548918715E+03 -0.12140263038E+04  0.13493699663E+04  0.12699999809E+01 0.  1.
</event>
<event>
 5   0  0.2788054E-06  0.2596297E+04  0.7818609E-02  0.8369460E-01
        1   -1    0    0  501    0  0.00000000000E+00  0.00000000000E+00  0.11532987803E+04  0.11532987803E+04  0.50400001928E-02 0. -1.
       -1   -1    0    0    0  501  0.00000000000E+00  0.00000000000E+00 -0.14611907622E+04  0.14611907623E+04  0.50400001928E-02 0.  1.
    10030    2    1    2    0    0  0.00000000000E+00  0.00000000000E+00 -0.30789198193E+03  0.26144895426E+04  0.25962969968E+04 0.  0.
        3    1    3    3  502    0  0.10528677966E+04  0.67169921684E+03  0.20276640257E+03  0.12652369973E+04  0.10100000352E+00 0. -1.
       -3    1    3    3    0  502 -0.10528677966E+04 -0.67169921684E+03 -0.51065838450E+03  0.13492525453E+04  0.10100000352E+00 0.  1.
</event>
<event>
 5   0  0.2788054E-06  0.2983620E+04  0.7818609E-02  0.8248424E-01
        1   -1    0    0  501    0  0.00000000000E+00  0.00000000000E+00  0.12284469134E+04  0.12284469135E+04  0.50400001928E-02 0. -1.
       -1   -1    0    0    0  501  0.00000000000E+00  0.00000000000E+00 -0.18116343869E+04  0.18116343869E+04  0.50400001928E-02 0.  1.
    10030    2    1    2    0    0  0.00000000000E+00  0.00000000000E+00 -0.58318747346E+03  0.30400813004E+04  0.29836197284E+04 0.  0.
        3    1    3    3  502    0  0.58376250220E+03  0.13703498721E+04 -0.20720598753E+03  0.15038523074E+04  0.10100000352E+00 0. -1.
       -3    1    3    3    0  502 -0.58376250220E+03 -0.13703498721E+04 -0.37598148593E+03  0.15362289930E+04  0.10100000352E+00 0.  1.
</event>
<event>
 5   0  0.7510251E-06  0.3235846E+04  0.7818609E-02  0.8179414E-01
        2   -1    0    0  501    0  0.00000000000E+00  0.00000000000E+00  0.22950292981E+04  0.22950292981E+04  0.25500000920E-02 0.  1.
       -2   -1    0    0    0  501  0.00000000000E+00  0.00000000000E+00 -0.11405843829E+04  0.11405843829E+04  0.25500000920E-02 0. -1.
    10030    2    1    2    0    0  0.00000000000E+00  0.00000000000E+00  0.11544449152E+04  0.34356136810E+04  0.32358458404E+04 0.  0.
        3    1    3    3  502    0 -0.68007695158E+03 -0.11825197054E+04 -0.34643715569E+03  0.14074360471E+04  0.10100000352E+00 0. -1.
       -3    1    3    3    0  502  0.68007695158E+03  0.11825197054E+04  0.15008820709E+04  0.20281776339E+04  0.10100000352E+00 0.  1.
</event>
<event>
 5   0  0.2788054E-06  0.3133514E+04  0.7818609E-02  0.8206600E-01
       -1   -1    0    0    0  501  0.00000000000E+00  0.00000000000E+00  0.15659295437E+04  0.15659295437E+04  0.50400001928E-02 0. -1.
        1   -1    0    0  501    0  0.00000000000E+00  0.00000000000E+00 -0.15675845268E+04  0.15675845269E+04  0.50400001928E-02 0.  1.
    10030    2    1    2    0    0  0.00000000000E+00  0.00000000000E+00 -0.16549831539E+01  0.31335140706E+04  0.31335136335E+04 0.  0.
        3    1    3    3  502    0 -0.10387307809E+04 -0.97410937840E+02  0.11680509314E+04  0.15661396855E+04  0.10100000352E+00 0. -1.
       -3    1    3    3    0  502  0.10387307809E+04  0.97410937840E+02 -0.11697059146E+04  0.15673743850E+04  0.10100000352E+00 0.  1.
</event>
<event>
 5   0  0.3938696E-06  0.3329832E+04  0.7818609E-02  0.8155346E-01
        1   -1    0    0  501    0  0.00000000000E+00  0.00000000000E+00  0.30095708080E+04  0.30095708080E+04  0.50400001928E-02 0. -1.
       -1   -1    0    0    0  501  0.00000000000E+00  0.00000000000E+00 -0.92104321426E+03  0.92104321427E+03  0.50400001928E-02 0.  1.
    10030    2    1    2    0    0  0.00000000000E+00  0.00000000000E+00  0.20885275937E+04  0.39306140222E+04  0.33298316898E+04 0.  0.
        4    1    3    3  502    0 -0.76091583476E+02 -0.53253247558E+03  0.29041578377E+04  0.29535597380E+04  0.12699999809E+01 0. -1.
       -4    1    3    3    0  502  0.76091583476E+02  0.53253247558E+03 -0.81563024398E+03  0.97705428428E+03  0.12699999809E+01 0.  1.
</event>
<event>
 5   0  0.2635798E-06  0.3002358E+04  0.7818609E-02  0.8243058E-01
        1   -1    0    0  501    0  0.00000000000E+00  0.00000000000E+00  0.20058739354E+04  0.20058739354E+04  0.50400001928E-02 0.  1.
       -1   -1    0    0    0  501  0.00000000000E+00  0.00000000000E+00 -0.11234693393E+04  0.11234693393E+04  0.50400001928E-02 0. -1.
    10030    2    1    2    0    0  0.00000000000E+00  0.00000000000E+00  0.88240459613E+03  0.31293432747E+04  0.30023576502E+04 0.  0.
        1    1    3    3  502    0 -0.28942013722E+03 -0.13832288055E+04 -0.86627322804E+02  0.14158355262E+04  0.50400001928E-02 0. -1.
       -1    1    3    3    0  502  0.28942013722E+03  0.13832288055E+04  0.96903191894E+03  0.17135077485E+04  0.50400001928E-02 0.  1.
</event>
<event>
 5   0  0.7510251E-06  0.2034767E+04  0.7818609E-02  0.8590537E-01
       -2   -1    0    0    0  501  0.00000000000E+00  0.00000000000E+00  0.11984598459E+04  0.11984598459E+04  0.25500000920E-02 0.  1.
        2   -1    0    0  501    0  0.00000000000E+00  0.00000000000E+00 -0.86366574534E+03  0.86366574534E+03  0.25500000920E-02 0. -1.
    10030    2    1    2    0    0  0.00000000000E+00  0.00000000000E+00  0.33479410054E+03  0.20621255912E+04  0.20347665380E+04 0.  0.
        3    1    3    3  502    0 -0.94306515295E+03 -0.45466208723E+02  0.55147782721E+03  0.10934198018E+04  0.10100000352E+00 0.  1.
       -3    1    3    3    0  502  0.94306515295E+03  0.45466208723E+02 -0.21668372668E+03  0.96870578942E+03  0.10100000352E+00 0. -1.
</event>
<event>
 5   0  0.2635798E-06  0.3199867E+04  0.7818609E-02  0.8188852E-01
        1   -1    0    0  501    0  0.00000000000E+00  0.00000000000E+00  0.18656849135E+04  0.18656849135E+04  0.50400001928E-02 0. -1.
       -1   -1    0    0    0  501  0.00000000000E+00  0.00000000000E+00 -0.13720360659E+04  0.13720360659E+04  0.50400001928E-02 0.  1.
    10030    2    1    2    0    0  0.00000000000E+00  0.00000000000E+00  0.49364884755E+03  0.32377209794E+04  0.31998668653E+04 0.  0.
        1    1    3    3  502    0 -0.12396293192E+04 -0.80052321877E+03  0.87241743589E+03  0.17142434061E+04  0.50400001928E-02 0. -1.
       -1    1    3    3    0  502  0.12396293192E+04  0.80052321877E+03 -0.37876858834E+03  0.15234775733E+04  0.50400001928E-02 0.  1.
</event>
<event>
 5   0  0.7510251E-06  0.2239456E+04  0.7818609E-02  0.8502183E-01
       -2   -1    0    0    0  501  0.00000000000E+00  0.00000000000E+00  0.79777356542E+03  0.79777356542E+03  0.25500000920E-02 0. -1.
        2   -1    0    0  501    0  0.00000000000E+00  0.00000000000E+00 -0.15716119194E+04  0.15716119194E+04  0.25500000920E-02 0.  1.
    10030    2    1    2    0    0  0.00000000000E+00  0.00000000000E+00 -0.77383835402E+03  0.23693854849E+04  0.22394556878E+04 0.  0.
        3    1    3    3  502    0  0.95576203029E+03 -0.32635091589E+03 -0.89850634370E+03  0.13517764751E+04  0.10100000352E+00 0.  1.
       -3    1    3    3    0  502 -0.95576203029E+03  0.32635091589E+03  0.12466798968E+03  0.10176090097E+04  0.10100000352E+00 0. -1.
</event>
<event>
 5   0  0.7941434E-06  0.3163058E+04  0.7818609E-02  0.8198642E-01
       -2   -1    0    0    0  501  0.00000000000E+00  0.00000000000E+00  0.10705892246E+04  0.10705892246E+04  0.25500000920E-02 0. -1.
        2   -1    0    0  501    0  0.00000000000E+00  0.00000000000E+00 -0.23363147760E+04  0.23363147760E+04  0.25500000920E-02 0.  1.
    10030    2    1    2    0    0  0.00000000000E+00  0.00000000000E+00 -0.12657255515E+04  0.34069040006E+04  0.31630576501E+04 0.  0.
        4    1    3    3  502    0 -0.12217899460E+04  0.91914664012E+02 -0.17099616589E+04  0.21036134306E+04  0.12699999809E+01 0. -1.
       -4    1    3    3    0  502  0.12217899460E+04 -0.91914664012E+02  0.44423610744E+03  0.13032905700E+04  0.12699999809E+01 0.  1.
</event>
<event>
 5   0  0.2635798E-06  0.3282282E+04  0.7818609E-02  0.8167418E-01
        1   -1    0    0  501    0  0.00000000000E+00  0.00000000000E+00  0.14094196181E+04  0.14094196181E+04  0.50400001928E-02 0. -1.
       -1   -1    0    0    0  501  0.00000000000E+00  0.00000000000E+00 -0.19109597225E+04  0.19109597225E+04  0.50400001928E-02 0.  1.
    10030    2    1    2    0    0  0.00000000000E+00  0.00000000000E+00 -0.50154010438E+03  0.33203793406E+04  0.32822822074E+04 0.  0.
        1    1    3    3  502    0 -0.11754080416E+04 -0.60140923978E+03 -0.12367972573E+04  0.18091281308E+04  0.50400001928E-02 0.  1.
       -1    1    3    3    0  502  0.11754080416E+04  0.60140923978E+03  0.73525715292E+03  0.15112512098E+04  0.50400001928E-02 0. -1.
</event>
<event>
 5   0  0.2788054E-06  0.3151391E+04  0.7818609E-02  0.8201774E-01
        1   -1    0    0  501    0  0.00000000000E+00  0.00000000000E+00  0.84710636542E+03  0.84710636544E+03  0.50400001928E-02 0.  1.
       -1   -1    0    0    0  501  0.00000000000E+00  0.00000000000E+00 -0.29309376416E+04  0.29309376416E+04  0.50400001928E-02 0. -1.
    10030    2    1    2    0    0  0.00000000000E+00  0.00000000000E+00 -0.20838312762E+04  0.37780440070E+04  0.31513907615E+04 0.  0.
        3    1    3    3  502    0  0.14646117291E+04 -0.14757824974E+03 -0.36805002884E+03  0.15173423116E+04  0.10100000352E+00 0. -1.
       -3    1    3    3    0  502 -0.14646117291E+04  0.14757824974E+03 -0.17157812473E+04  0.22607016954E+04  0.10100000352E+00 0.  1.
</event>
<event>
 5   0  0.7952307E-06  0.2183088E+04  0.7818609E-02  0.8525501E-01
       -2   -1    0    0    0  501  0.00000000000E+00  0.00000000000E+00  0.85115739362E+03  0.85115739362E+03  0.25500000920E-02 0. -1.
        2   -1    0    0  501    0  0.00000000000E+00  0.00000000000E+00 -0.13998208928E+04  0.13998208928E+04  0.25500000920E-02 0.  1.
    10030    2    1    2    0    0  0.00000000000E+00  0.00000000000E+00 -0.54866349914E+03  0.22509782864E+04  0.21830876323E+04 0.  0.
        2    1    3    3  502    0  0.18666091345E+03 -0.25121599824E+03  0.80390153163E+03  0.86267574844E+03  0.25500000920E-02 0. -1.
       -2    1    3    3    0  502 -0.18666091345E+03  0.25121599824E+03 -0.13525650308E+04  0.13883025379E+04  0.25500000920E-02 0.  1.
</event>
<event>
 5   0  0.7510251E-06  0.3224151E+04  0.7818609E-02  0.8182468E-01
        2   -1    0    0  501    0  0.00000000000E+00  0.00000000000E+00  0.24263353532E+04  0.24263353532E+04  0.25500000920E-02 0.  1.
       -2   -1    0    0    0  501  0.00000000000E+00  0.00000000000E+00 -0.10710750201E+04  0.10710750201E+04  0.25500000920E-02 0. -1.
    10030    2    1    2    0    0  0.00000000000E+00  0.00000000000E+00  0.13552603330E+04  0.34974103733E+04  0.32241508571E+04 0.  0.
        3    1    3    3  502    0  0.13551411125E+04  0.77630325514E+03  0.11111695560E+04  0.19167034124E+04  0.10100000352E+00 0.  1.
       -3    1    3    3    0  502 -0.13551411125E+04 -0.77630325514E+03  0.24409077701E+03  0.15807069609E+04  0.10100000352E+00 0. -1.
</event>
<event>
 5   0  0.2635798E-06  0.3150380E+04  0.7818609E-02  0.8202046E-01
        1   -1    0    0  501    0  0.00000000000E+00  0.00000000000E+00  0.13269230029E+04  0.13269230029E+04  0.50400001928E-02 0. -1.
       -1   -1    0    0    0  501  0.00000000000E+00  0.00000000000E+00 -0.18699077311E+04  0.18699077311E+04  0.50400001928E-02 0.  1.
    10030    2    1    2    0    0  0.00000000000E+00  0.00000000000E+00 -0.54298472823E+03  0.31968307341E+04  0.31503800290E+04 0.  0.
        1    1    3    3  502    0  0.51477448269E+03 -0.39811815329E+03 -0.17271229784E+04  0.18456556056E+04  0.50400001928E-02 0.  1.
       -1    1    3    3    0  502 -0.51477448269E+03  0.39811815329E+03  0.11841382502E+04  0.13511751284E+04  0.50400001928E-02 0. -1.
</event>
<event>
 5   0  0.2933646E-06  0.3462559E+04  0.7818609E-02  0.8122721E-01
        1   -1    0    0  501    0  0.00000000000E+00  0.00000000000E+00  0.17228976845E+04  0.17228976845E+04  0.50400001928E-02 0.  1.
       -1   -1    0    0    0  501  0.00000000000E+00  0.00000000000E+00 -0.17397018441E+04  0.17397018441E+04  0.50400001928E-02 0. -1.
    10030    2    1    2    0    0  0.00000000000E+00  0.00000000000E+00 -0.16804159634E+02  0.34625995286E+04  0.34625587527E+04 0.  0.
        2    1    3    3  502    0 -0.18132594171E+03 -0.13821195373E+04 -0.10351540438E+04  0.17362826403E+04  0.25500000920E-02 0. -1.
       -2    1    3    3    0  502  0.18132594171E+03  0.13821195373E+04  0.10183498842E+04  0.17263168884E+04  0.25500000920E-02 0.  1.
</event>
<event>
 5   0  0.2635798E-06  0.1664903E+04  0.7818609E-02  0.8781638E-01
        1   -1    0    0  501    0  0.00000000000E+00  0.00000000000E+00  0.12253405816E+04  0.12253405816E+04  0.50400001928E-02 0.  1.
       -1   -1    0    0    0  501  0.00000000000E+00  0.00000000000E+00 -0.56553722597E+03  0.56553722599E+03  0.50400001928E-02 0. -1.
    10030    2    1    2    0    0  0.00000000000E+00  0.00000000000E+00  0.65980335564E+03  0.17908778076E+04  0.16649032565E+04 0.  0.
        1    1    3    3  502    0 -0.74449889627E+03  0.14794487979E+03  0.69753585983E+03  0.10308843630E+04  0.50400001928E-02 0.  1.
       -1    1    3    3    0  502  0.74449889627E+03 -0.14794487979E+03 -0.37732504197E+02  0.75999344465E+03  0.50400001928E-02 0. -1.
</event>
<event>
 5   0  0.7952307E-06  0.3276800E+04  0.7818609E-02  0.8168824E-01
       -2   -1    0    0    0  501  0.00000000000E+00  0.00000000000E+00  0.20192228311E+04  0.20192228311E+04  0.25500000920E-02 0.  1.
        2   -1    0    0  501    0  0.00000000000E+00  0.00000000000E+00 -0.13293996869E+04  0.13293996869E+04  0.25500000920E-02 0. -1.
    10030    2    1    2    0    0  0.00000000000E+00  0.00000000000E+00  0.68982314421E+03  0.33486225181E+04  0.32767997800E+04 0.  0.
        2    1    3    3  502    0 -0.10077089200E+04  0.80312014946E+02  0.16625236526E+04  0.19457420648E+04  0.25500000920E-02 0.  1.
       -2    1    3    3    0  502  0.10077089200E+04 -0.80312014946E+02 -0.97270050843E+03  0.14028804533E+04  0.25500000920E-02 0. -1.
</event>
<event>
 5   0  0.4142886E-06  0.2836804E+04  0.7818609E-02  0.8291932E-01
       -1   -1    0    0    0  501  0.00000000000E+00  0.00000000000E+00  0.11758606927E+04  0.11758606927E+04  0.50400001928E-02 0.  1.
        1   -1    0    0  501    0  0.00000000000E+00  0.00000000000E+00 -0.17109717744E+04  0.17109717744E+04  0.50400001928E-02 0. -1.
    10030    2    1    2    0    0  0.00000000000E+00  0.00000000000E+00 -0.53511108168E+03  0.28868324671E+04  0.28368041566E+04 0.  0.
        5    1    3    3  502    0 -0.65942520756E+03 -0.24631942297E+03 -0.15206642044E+04  0.16756958480E+04  0.46999998093E+01 0. -1.
       -5    1    3    3    0  502  0.65942520756E+03  0.24631942297E+03  0.98555312267E+03  0.12111366191E+04  0.46999998093E+01 0.  1.
</event>
<event>
 5   0  0.2788054E-06  0.3227940E+04  0.7818609E-02  0.8181477E-01
        1   -1    0    0  501    0  0.00000000000E+00  0.00000000000E+00  0.24168098142E+04  0.24168098142E+04  0.50400001928E-02 0.  1.
       -1   -1    0    0    0  501  0.00000000000E+00  0.00000000000E+00 -0.10778257409E+04  0.10778257409E+04  0.50400001928E-02 0. -1.
    10030    2    1    2    0    0  0.00000000000E+00  0.00000000000E+00  0.13389840733E+04  0.34946355550E+04  0.32279404136E+04 0.  0.
        3    1    3    3  502    0  0.21384487439E+00  0.14991476554E+04  0.13167653862E+04  0.19953232397E+04  0.10100000352E+00 0.  1.
       -3    1    3    3    0  502 -0.21384487439E+00 -0.14991476554E+04  0.22218687105E+02  0.14993123153E+04  0.10100000352E+00 0. -1.
</event>
<event>
 5   0  0.7510251E-06  0.3236027E+04  0.7818609E-02  0.8179367E-01
        2   -1    0    0  501    0  0.00000000000E+00  0.00000000000E+00  0.23785098759E+04  0.23785098759E+04  0.25500000920E-02 0. -1.
       -2   -1    0    0    0  501  0.00000000000E+00  0.00000000000E+00 -0.11006757234E+04  0.11006757234E+04  0.25500000920E-02 0.  1.
    10030    2    1    2    0    0  0.00000000000E+00  0.00000000000E+00  0.12778341526E+04  0.34791855993E+04  0.32360272423E+04 0.  0.
        3    1    3    3  502    0  0.15564142042E+04 -0.27188658170E+02  0.11134474271E+04  0.19138781522E+04  0.10100000352E+00 0. -1.
       -3    1    3    3    0  502 -0.15564142042E+04  0.27188658170E+02  0.16438672548E+03  0.15653074471E+04  0.10100000352E+00 0.  1.
</event>
<event>
 5   0  0.7510251E-06  0.2606400E+04  0.7818609E-02  0.8366030E-01
        2   -1    0    0  501    0  0.00000000000E+00  0.00000000000E+00  0.14523300473E+04  0.14523300473E+04  0.25500000920E-02 0.  1.
       -2   -1    0    0    0  501  0.00000000000E+00  0.00000000000E+00 -0.11693835531E+04  0.11693835532E+04  0.25500000920E-02 0. -1.
    10030    2    1    2    0    0  0.00000000000E+00  0.00000000000E+00  0.28294649418E+03  0.26217136005E+04  0.26064004843E+04 0.  0.
        3    1    3    3  502    0 -0.10741891167E+04  0.70684701695E+03  0.35441466755E+03  0.13338383450E+04  0.10100000352E+00 0.  1.
       -3    1    3    3    0  502  0.10741891167E+04 -0.70684701695E+03 -0.71468173372E+02  0.12878752555E+04  0.10100000352E+00 0. -1.
</event>
<event>
 5   0  0.2635798E-06  0.3195248E+04  0.7818609E-02  0.8190073E-01
        1   -1    0    0  501    0  0.00000000000E+00  0.00000000000E+00  0.15605135082E+04  0.15605135082E+04  0.50400001928E-02 0. -1.
       -1   -1    0    0    0  501  0.00000000000E+00  0.00000000000E+00 -0.16356166901E+04  0.16356166901E+04  0.50400001928E-02 0.  1.
    10030    2    1    2    0    0  0.00000000000E+00  0.00000000000E+00 -0.75103181904E+02  0.31961301984E+04  0.31952476832E+04 0.  0.
        1    1    3    3  502    0 -0.52113724834E+03  0.53224726281E+03  0.13761790524E+04  0.15648450290E+04  0.50400001928E-02 0. -1.
       -1    1    3    3    0  502  0.52113724834E+03 -0.53224726281E+03 -0.14512822343E+04  0.16312851694E+04  0.50400001928E-02 0.  1.
</event>
<event>
 5   0  0.7971763E-06  0.1718550E+04  0.7818609E-02  0.8750855E-01
       -2   -1    0    0    0  501  0.00000000000E+00  0.00000000000E+00  0.73854399131E+03  0.73854399132E+03  0.25500000920E-02 0.  1.
        2   -1    0    0  501    0  0.00000000000E+00  0.00000000000E+00 -0.99974166865E+03  0.99974166865E+03  0.25500000920E-02 0. -1.
    10030    2    1    2    0    0  0.00000000000E+00  0.00000000000E+00 -0.26119767733E+03  0.17382856600E+04  0.17185496237E+04 0.  0.
        1    1    3    3  502    0 -0.76480409672E+03 -0.16657919595E+03  0.22798514738E+03  0.81526140736E+03  0.50400001928E-02 0.  1.
       -1    1    3    3    0  502  0.76480409672E+03  0.16657919595E+03 -0.48918282472E+03  0.92302425261E+03  0.50400001928E-02 0. -1.
</event>
<event>
 5   0  0.3938696E-06  0.2230441E+04  0.7818609E-02  0.8505864E-01
        1   -1    0    0  501    0  0.00000000000E+00  0.00000000000E+00  0.27127440243E+04  0.27127440243E+04  0.50400001928E-02 0. -1.
       -1   -1    0    0    0  501  0.00000000000E+00  0.00000000000E+00 -0.45847194635E+03  0.45847194637E+03  0.50400001928E-02 0.  1.
    10030    2    1    2    0    0  0.00000000000E+00  0.00000000000E+00  0.22542720780E+04  0.31712159707E+04  0.22304412414E+04 0.  0.
        4    1    3    3  502    0  0.43876538378E+03 -0.43865339087E+02 -0.32926151976E+03  0.55032171616E+03  0.12699999809E+01 0.  1.
       -4    1    3    3    0  502 -0.43876538378E+03  0.43865339087E+02  0.25835335977E+04  0.26208942545E+04  0.12699999809E+01 0. -1.
</event>
<event>
 5   0  0.2635798E-06  0.3198527E+04  0.7818609E-02  0.8189206E-01
       -1   -1    0    0    0  501  0.00000000000E+00  0.00000000000E+00  0.20982832346E+04  0.20982832346E+04  0.50400001928E-02 0.  1.
        1   -1    0    0  501    0  0.00000000000E+00  0.00000000000E+00 -0.12189219395E+04  0.12189219395E+04  0.50400001928E-02 0. -1.
    10030    2    1    2    0    0  0.00000000000E+00  0.00000000000E+00  0.87936129506E+03  0.33172051741E+04  0.31985268297E+04 0.  0.
        1    1    3    3  502    0 -0.29331353671E+03  0.68577553204E+03  0.19068521453E+04  0.20475365723E+04  0.50400001928E-02 0.  1.
       -1    1    3    3    0  502  0.29331353671E+03 -0.68577553204E+03 -0.10274908502E+04  0.12696686018E+04  0.50400001928E-02 0. -1.
</event>
<event>
 5   0  0.2933646E-06  0.1811110E+04  0.7818609E-02  0.8700414E-01
        1   -1    0    0  501    0  0.00000000000E+00  0.00000000000E+00  0.12901601147E+04  0.12901601147E+04  0.50400001928E-02 0. -1.
       -1   -1    0    0    0  501  0.00000000000E+00  0.00000000000E+00 -0.63560303786E+03  0.63560303788E+03  0.50400001928E-02 0.  1.
    10030    2    1    2    0    0  0.00000000000E+00  0.00000000000E+00  0.65455707685E+03  0.19257631526E+04  0.18111098125E+04 0.  0.
        2    1    3    3  502    0  0.64874216779E+03  0.66010744049E+02 -0.34083441123E+03  0.73579339116E+03  0.25500000920E-02 0.  1.
       -2    1    3    3    0  502 -0.64874216779E+03 -0.66010744049E+02  0.99539148808E+03  0.11899697614E+04  0.25500000920E-02 0. -1.
</event>
<event>
 5   0  0.7510251E-06  0.3065944E+04  0.7818609E-02  0.8225147E-01
        2   -1    0    0  501    0  0.00000000000E+00  0.00000000000E+00  0.15639689552E+04  0.15639689552E+04  0.25500000920E-02 0. -1.
       -2   -1    0    0    0  501  0.00000000000E+00  0.00000000000E+00 -0.15025891943E+04  0.15025891943E+04  0.25500000920E-02 0.  1.
    10030    2    1    2    0    0  0.00000000000E+00  0.00000000000E+00  0.61379760972E+02  0.30665581495E+04  0.30659438040E+04 0.  0.
        3    1    3    3  502    0 -0.85728484023E+03  0.79135374541E+03 -0.96390607276E+03  0.15133713936E+04  0.10100000352E+00 0.  1.
       -3    1    3    3    0  502  0.85728484023E+03 -0.79135374541E+03  0.10252858337E+04  0.15531867559E+04  0.10100000352E+00 0. -1.
</event>
<event>
 5   0  0.3938696E-06  0.2653563E+04  0.7818609E-02  0.8350231E-01
        1   -1    0    0  501    0  0.00000000000E+00  0.00000000000E+00  0.22283624887E+04  0.22283624887E+04  0.50400001928E-02 0.  1.
       -1   -1    0    0    0  501  0.00000000000E+00  0.00000000000E+00 -0.78997451372E+03  0.78997451373E+03  0.50400001928E-02 0. -1.
    10030    2    1    2    0    0  0.00000000000E+00  0.00000000000E+00  0.14383879750E+04  0.30183370024E+04  0.26535633201E+04 0.  0.
        4    1    3    3  502    0  0.12397323279E+04 -0.28685215440E+03  0.11465050976E+04  0.17128035366E+04  0.12699999809E+01 0.  1.
       -4    1    3    3    0  502 -0.12397323279E+04  0.28685215440E+03  0.29188287742E+03  0.13055334658E+04  0.12699999809E+01 0. -1.
</event>
<event>
 5   0  0.2933646E-06  0.2874026E+04  0.7818609E-02  0.8280648E-01
        1   -1    0    0  501    0  0.00000000000E+00  0.00000000000E+00  0.13898969940E+04  0.13898969941E+04  0.50400001928E-02 0.  1.
       -1   -1    0    0    0  501  0.00000000000E+00  0.00000000000E+00 -0.14857265897E+04  0.14857265897E+04  0.50400001928E-02 0. -1.
    10030    2    1    2    0    0  0.00000000000E+00  0.00000000000E+00 -0.95829595678E+02  0.28756235838E+04  0.28740263889E+04 0.  0.
        2    1    3    3  502    0 -0.51430456605E+03  0.10671977507E+04 -0.86174661857E+03  0.14649325788E+04  0.25500000920E-02 0. -1.
       -2    1    3    3    0  502  0.51430456605E+03 -0.10671977507E+04  0.76591702289E+03  0.14106910050E+04  0.25500000920E-02 0.  1.
</event>
<event>
 5   0  0.7952307E-06  0.3159440E+04  0.7818609E-02  0.8199612E-01
       -2   -1    0    0    0  501  0.00000000000E+00  0.00000000000E+00  0.96071734830E+03  0.96071734830E+03  0.25500000920E-02 0.  1.
        2   -1    0    0  501    0  0.00000000000E+00  0.00000000000E+00 -0.25975548347E+04  0.25975548347E+04  0.25500000920E-02 0. -1.
    10030    2    1    2    0    0  0.00000000000E+00  0.00000000000E+00 -0.16368374864E+04  0.35582721830E+04  0.31594404523E+04 0.  0.
        2    1    3    3  502    0 -0.34835998561E+03 -0.13806400510E+04 -0.47960152347E+02  0.14247181498E+04  0.25500000920E-02 0.  1.
       -2    1    3    3    0  502  0.34835998561E+03  0.13806400510E+04 -0.15888773340E+04  0.21335540332E+04  0.25500000920E-02 0. -1.
</event>
<event>
 5   0  0.2788054E-06  0.3088249E+04  0.7818609E-02  0.8218970E-01
       -1   -1    0    0    0  501  0.00000000000E+00  0.00000000000E+00  0.12218618769E+04  0.12218618769E+04  0.50400001928E-02 0. -1.
        1   -1    0    0  501    0  0.00000000000E+00  0.00000000000E+00 -0.19513833167E+04  0.19513833167E+04  0.50400001928E-02 0.  1.
    10030    2    1    2    0    0  0.00000000000E+00  0.00000000000E+00 -0.72952143986E+03  0.31732451936E+04  0.30882492658E+04 0.  0.
        3    1    3    3  502    0 -0.85416038072E+03  0.78278976882E+03 -0.14136245752E+04  0.18277538751E+04  0.10100000352E+00 0.  1.
       -3    1    3    3    0  502  0.85416038072E+03 -0.78278976882E+03  0.68410313533E+03  0.13454913185E+04  0.10100000352E+00 0. -1.
</event>
<event>
 5   0  0.8237664E-06  0.2872206E+04  0.7818609E-02  0.8281195E-01
        2   -1    0    0  501    0  0.00000000000E+00  0.00000000000E+00  0.22424076939E+04  0.22424076939E+04  0.25500000920E-02 0.  1.
       -2   -1    0    0    0  501  0.00000000000E+00  0.00000000000E+00 -0.91972176723E+03  0.91972176724E+03  0.25500000920E-02 0. -1.
    10030    2    1    2    0    0  0.00000000000E+00  0.00000000000E+00  0.13226859267E+04  0.31621294612E+04  0.28722055408E+04 0.  0.
        5    1    3    3  502    0  0.88792161494E+03  0.24548316224E+03 -0.55154369327E+03  0.10737268334E+04  0.46999998093E+01 0. -1.
       -5    1    3    3    0  502 -0.88792161494E+03 -0.24548316224E+03  0.18742296200E+04  0.20884026277E+04  0.46999998093E+01 0.  1.
</event>
<event>
 5   0  0.2788054E-06  0.3270119E+04  0.7818609E-02  0.8170541E-01
       -1   -1    0    0    0  501  0.00000000000E+00  0.00000000000E+00  0.14651047488E+04  0.14651047488E+04  0.50400001928E-02 0. -1.
        1   -1    0    0  501    0  0.00000000000E+00  0.00000000000E+00 -0.18247290571E+04  0.18247290572E+04  0.50400001928E-02 0.  1.
    10030    2    1    2    0    0  0.00000000000E+00  0.00000000000E+00 -0.35962430837E+03  0.32898338059E+04  0.32701187788E+04 0.  0.
        3    1    3    3  502    0  0.10130376731E+04  0.81653209557E+03 -0.11759581214E+04  0.17538094263E+04  0.10100000352E+00 0.  1.
       -3    1    3    3    0  502 -0.10130376731E+04 -0.81653209557E+03  0.81633381307E+03  0.15360243796E+04  0.10100000352E+00 0. -1.
</event>
<event>
 5   0  0.7952307E-06  0.3250556E+04  0.7818609E-02  0.8175592E-01
        2   -1    0    0  501    0  0.00000000000E+00  0.00000000000E+00  0.21925469807E+04  0.21925469807E+04  0.25500000920E-02 0. -1.
       -2   -1    0    0    0  501  0.00000000000E+00  0.00000000000E+00 -0.12047764235E+04  0.12047764235E+04  0.25500000920E-02 0.  1.
    10030    2    1    2    0    0  0.00000000000E+00  0.00000000000E+00  0.98777055722E+03  0.33973234042E+04  0.32505562046E+04 0.  0.
        2    1    3    3  502    0 -0.38151476206E+03  0.10086267521E+03 -0.11539450355E+04  0.12195556313E+04  0.25500000920E-02 0.  1.
       -2    1    3    3    0  502  0.38151476206E+03 -0.10086267521E+03  0.21417155927E+04  0.21777677729E+04  0.25500000920E-02 0. -1.
</event>
<event>
 5   0  0.7952307E-06  0.3242962E+04  0.7818609E-02  0.8177562E-01
        2   -1    0    0  501    0  0.00000000000E+00  0.00000000000E+00  0.20421679594E+04  0.20421679594E+04  0.25500000920E-02 0. -1.
       -2   -1    0    0    0  501  0.00000000000E+00  0.00000000000E+00 -0.12874558336E+04  0.12874558336E+04  0.25500000920E-02 0.  1.
    10030    2    1    2    0    0  0.00000000000E+00  0.00000000000E+00  0.75471212580E+03  0.33296237930E+04  0.32429622585E+04 0.  0.
        2    1    3    3  502    0  0.13532018205E+04  0.45710776947E+03 -0.41068197927E+03  0.14861905558E+04  0.25500000920E-02 0.  1.
       -2    1    3    3    0  502 -0.13532018205E+04 -0.45710776947E+03  0.11653941051E+04  0.18434332372E+04  0.25500000920E-02 0. -1.
</event>
<event>
 5   0  0.2635798E-06  0.3360003E+04  0.7818609E-02  0.8147793E-01
       -1   -1    0    0    0  501  0.00000000000E+00  0.00000000000E+00  0.10518341906E+04  0.10518341906E+04  0.50400001928E-02 0. -1.
        1   -1    0    0  501    0  0.00000000000E+00  0.00000000000E+00 -0.26833176942E+04  0.26833176942E+04  0.50400001928E-02 0.  1.
    10030    2    1    2    0    0  0.00000000000E+00  0.00000000000E+00 -0.16314835035E+04  0.37351518848E+04  0.33600031518E+04 0.  0.
        1    1    3    3  502    0 -0.15524560655E+03  0.94876869231E+03  0.71581445131E+03  0.11986048384E+04  0.50400001928E-02 0. -1.
       -1    1    3    3    0  502  0.15524560655E+03 -0.94876869231E+03 -0.23472979549E+04  0.25365470464E+04  0.50400001928E-02 0.  1.
</event>
<event>
 5   0  0.7510251E-06  0.3411213E+04  0.7818609E-02  0.8135160E-01
       -2   -1    0    0    0  501  0.00000000000E+00  0.00000000000E+00  0.18010673860E+04  0.18010673860E+04  0.25500000920E-02 0. -1.
        2   -1    0    0  501    0  0.00000000000E+00  0.00000000000E+00 -0.16152055648E+04  0.16152055648E+04  0.25500000920E-02 0.  1.
    10030    2    1    2    0    0  0.00000000000E+00  0.00000000000E+00  0.18586182117E+03  0.34162729507E+04  0.34112133116E+04 0.  0.
        3    1    3    3  502    0  0.87381062144E+03  0.13725404185E+04 -0.41937632130E+03  0.16802644767E+04  0.10100000352E+00 0.  1.
       -3    1    3    3    0  502 -0.87381062144E+03 -0.13725404185E+04  0.60523814247E+03  0.17360084740E+04  0.10100000352E+00 0. -1.
</event>
<event>
 5   0  0.7952307E-06  0.2288566E+04  0.7818609E-02  0.8482443E-01
       -2   -1    0    0    0  501  0.00000000000E+00  0.00000000000E+00  0.75658813085E+03  0.75658813085E+03  0.25500000920E-02 0.  1.
        2   -1    0    0  501    0  0.00000000000E+00  0.00000000000E+00 -0.17306422378E+04  0.17306422379E+04  0.25500000920E-02 0. -1.
    10030    2    1    2    0    0  0.00000000000E+00  0.00000000000E+00 -0.97405410700E+03  0.24872303687E+04  0.22885658181E+04 0.  0.
        2    1    3    3  502    0 -0.20941825925E+02  0.59245497707E+03  0.57668037719E+03  0.82704396338E+03  0.25500000920E-02 0.  1.
       -2    1    3    3    0  502  0.20941825925E+02 -0.59245497707E+03 -0.15507344842E+04  0.16601864053E+04  0.25500000920E-02 0. -1.
</event>
<event>
 5   0  0.2788054E-06  0.3287647E+04  0.7818609E-02  0.8166046E-01
       -1   -1    0    0    0  501  0.00000000000E+00  0.00000000000E+00  0.11762719931E+04  0.11762719931E+04  0.50400001928E-02 0.  1.
        1   -1    0    0  501    0  0.00000000000E+00  0.00000000000E+00 -0.22972206027E+04  0.22972206027E+04  0.50400001928E-02 0. -1.
    10030    2    1    2    0    0  0.00000000000E+00  0.00000000000E+00 -0.11209486096E+04  0.34734925957E+04  0.32876473392E+04 0.  0.
        3    1    3    3  502    0 -0.69751855586E+03  0.14614458303E+04 -0.26201636910E+03  0.16404294068E+04  0.10100000352E+00 0.  1.
       -3    1    3    3    0  502  0.69751855586E+03 -0.14614458303E+04 -0.85893224050E+03  0.18330631890E+04  0.10100000352E+00 0. -1.
</event>
<event>
 5   0  0.4142886E-06  0.3227321E+04  0.7818609E-02  0.8181639E-01
       -1   -1    0    0    0  501  0.00000000000E+00  0.00000000000E+00  0.18022375770E+04  0.18022375770E+04  0.50400001928E-02 0.  1.
        1   -1    0    0  501    0  0.00000000000E+00  0.00000000000E+00 -0.14448153629E+04  0.14448153629E+04  0.50400001928E-02 0. -1.
    10030    2    1    2    0    0  0.00000000000E+00  0.00000000000E+00  0.35742221403E+03  0.32470529399E+04  0.32273212043E+04 0.  0.
        5    1    3    3  502    0  0.39147761943E+03  0.15589171167E+04  0.35005253942E+02  0.16077079215E+04  0.46999998093E+01 0.  1.
       -5    1    3    3    0  502 -0.39147761943E+03 -0.15589171167E+04  0.32241696009E+03  0.16393450184E+04  0.46999998093E+01 0. -1.
</event>
<event>
 5   0  0.3938696E-06  0.3071044E+04  0.7818609E-02  0.8223730E-01
        1   -1    0    0  501    0  0.00000000000E+00  0.00000000000E+00  0.16362994548E+04  0.16362994548E+04  0.50400001928E-02 0. -1.
       -1   -1    0    0    0  501  0.00000000000E+00  0.00000000000E+00 -0.14409514231E+04  0.14409514231E+04  0.50400001928E-02 0.  1.
    10030    2    1    2    0    0  0.00000000000E+00  0.00000000000E+00  0.19534803171E+03  0.30772508779E+04  0.30710441404E+04 0.  0.
        4    1    3    3  502    0 -0.73300359868E+03 -0.92219322156E+03 -0.88924896722E+03  0.14759742383E+04  0.12699999809E+01 0.  1.
       -4    1    3    3    0  502  0.73300359868E+03  0.92219322156E+03  0.10845969989E+04  0.16012766396E+04  0.12699999809E+01 0. -1.
</event>
<event>
 5   0  0.7510251E-06  0.3009842E+04  0.7818609E-02  0.8240926E-01
        2   -1    0    0  501    0  0.00000000000E+00  0.00000000000E+00  0.12253339783E+04  0.12253339783E+04  0.25500000920E-02 0. -1.
       -2   -1    0    0    0  501  0.00000000000E+00  0.00000000000E+00 -0.18483020364E+04  0.18483020364E+04  0.25500000920E-02 0.  1.
    10030    2    1    2    0    0  0.00000000000E+00  0.00000000000E+00 -0.62296805805E+03  0.30736360147E+04  0.30098420473E+04 0.  0.
        3    1    3    3  502    0  0.87403644903E+03  0.11647518451E+04 -0.69927029076E+03  0.16154149698E+04  0.10100000352E+00 0. -1.
       -3    1    3    3    0  502 -0.87403644903E+03 -0.11647518451E+04  0.76302232707E+02  0.14582210449E+04  0.10100000352E+00 0.  1.
</event>
<event>
 5   0  0.7952307E-06  0.1736690E+04  0.7818609E-02  0.8740711E-01
        2   -1    0    0  501    0  0.00000000000E+00  0.00000000000E+00  0.81080576741E+03  0.81080576742E+03  0.25500000920E-02 0.  1.
       -2   -1    0    0    0  501  0.00000000000E+00  0.00000000000E+00 -0.92996792650E+03  0.92996792650E+03  0.25500000920E-02 0. -1.
    10030    2    1    2    0    0  0.00000000000E+00  0.00000000000E+00 -0.11916215909E+03  0.17407736939E+04  0.17366903677E+04 0.  0.
        2    1    3    3  502    0 -0.84672355410E+03 -0.12338914518E+03  0.88610030419E+02  0.86024263770E+03  0.25500000920E-02 0.  1.
       -2    1    3    3    0  502  0.84672355410E+03  0.12338914518E+03 -0.20777218951E+03  0.88053105622E+03  0.25500000920E-02 0. -1.
</event>
<event>
 5   0  0.7941434E-06  0.2038272E+04  0.7818609E-02  0.8588933E-01
       -2   -1    0    0    0  501  0.00000000000E+00  0.00000000000E+00  0.16143366767E+04  0.16143366767E+04  0.25500000920E-02 0. -1.
        2   -1    0    0  501    0  0.00000000000E+00  0.00000000000E+00 -0.64338409196E+03  0.64338409197E+03  0.25500000920E-02 0.  1.
    10030    2    1    2    0    0  0.00000000000E+00  0.00000000000E+00  0.97095258470E+03  0.22577207686E+04  0.20382723438E+04 0.  0.
        4    1    3    3  502    0 -0.86109849644E+03 -0.31859432250E+03 -0.44618371002E+01  0.91815820194E+03  0.12699999809E+01 0.  1.
       -4    1    3    3    0  502  0.86109849644E+03  0.31859432250E+03  0.97541442180E+03  0.13395625667E+04  0.12699999809E+01 0. -1.
</event>
<event>
 5   0  0.2933646E-06  0.3171552E+04  0.7818609E-02  0.8196371E-01
       -1   -1    0    0    0  501  0.00000000000E+00  0.00000000000E+00  0.11123500479E+04  0.11123500479E+04  0.50400001928E-02 0.  1.
        1   -1    0    0  501    0  0.00000000000E+00  0.00000000000E+00 -0.22606967768E+04  0.22606967768E+04  0.50400001928E-02 0. -1.
    10030    2    1    2    0    0  0.00000000000E+00  0.00000000000E+00 -0.11483467289E+04  0.33730468247E+04  0.31715524072E+04 0.  0.
        2    1    3    3  502    0  0.14165086683E+04 -0.64840737173E+03 -0.25911431555E+03  0.15792622188E+04  0.25500000920E-02 0. -1.
       -2    1    3    3    0  502 -0.14165086683E+04  0.64840737173E+03 -0.88923241336E+03  0.17937846058E+04  0.25500000920E-02 0.  1.
</event>
<event>
 5   0  0.7510251E-06  0.3164654E+04  0.7818609E-02  0.8198215E-01
        2   -1    0    0  501    0  0.00000000000E+00  0.00000000000E+00  0.22539600611E+04  0.22539600611E+04  0.25500000920E-02 0. -1.
       -2   -1    0    0    0  501  0.00000000000E+00  0.00000000000E+00 -0.11108263335E+04  0.11108263335E+04  0.25500000920E-02 0.  1.
    10030    2    1    2    0    0  0.00000000000E+00  0.00000000000E+00  0.11431337276E+04  0.33647863946E+04  0.31646536560E+04 0.  0.
        3    1    3    3  502    0  0.15547364430E+04  0.29262409159E+03  0.60388506004E+03  0.16933728007E+04  0.10100000352E+00 0. -1.
       -3    1    3    3    0  502 -0.15547364430E+04 -0.29262409159E+03  0.53924866759E+03  0.16714135939E+04  0.10100000352E+00 0.  1.
</event>
<event>
 5   0  0.7952307E-06  0.3197231E+04  0.7818609E-02  0.8189549E-01
        2   -1    0    0  501    0  0.00000000000E+00  0.00000000000E+00  0.26425013470E+04  0.26425013470E+04  0.25500000920E-02 0.  1.
       -2   -1    0    0    0  501  0.00000000000E+00  0.00000000000E+00 -0.96710343013E+03  0.96710343013E+03  0.25500000920E-02 0. -1.
    10030    2    1    2    0    0  0.00000000000E+00  0.00000000000E+00  0.16753979169E+04  0.36096047772E+04  0.31972313753E+04 0.  0.
        2    1    3    3  502    0  0.15735543966E+04  0.92096367207E+02  0.11385604158E+04  0.19444472223E+04  0.25500000920E-02 0. -1.
       -2    1    3    3    0  502 -0.15735543966E+04 -0.92096367207E+02  0.53683750107E+03  0.16651575548E+04  0.25500000920E-02 0.  1.
</event>
<event>
 5   0  0.2635798E-06  0.3114482E+04  0.7818609E-02  0.8211775E-01
        1   -1    0    0  501    0  0.00000000000E+00  0.00000000000E+00  0.18184222690E+04  0.18184222690E+04  0.50400001928E-02 0. -1.
       -1   -1    0    0    0  501  0.00000000000E+00  0.00000000000E+00 -0.13335732997E+04  0.13335732997E+04  0.50400001928E-02 0.  1.
    10030    2    1    2    0    0  0.00000000000E+00  0.00000000000E+00  0.48484896926E+03  0.31519955687E+04  0.31144819058E+04 0.  0.
        1    1    3    3  502    0 -0.16055012513E+03 -0.80312502290E+03 -0.10979957600E+04  0.13698105103E+04  0.50400001928E-02 0.  1.
       -1    1    3    3    0  502  0.16055012513E+03  0.80312502290E+03  0.15828447293E+04  0.17821850583E+04  0.50400001928E-02 0. -1.
</event>
<event>
 5   0  0.4142886E-06  0.1998496E+04  0.7818609E-02  0.8607324E-01
        1   -1    0    0  501    0  0.00000000000E+00  0.00000000000E+00  0.60383207068E+03  0.60383207070E+03  0.50400001928E-02 0.  1.
       -1   -1    0    0    0  501  0.00000000000E+00  0.00000000000E+00 -0.16535990978E+04  0.16535990978E+04  0.50400001928E-02 0. -1.
    10030    2    1    2    0    0  0.00000000000E+00  0.00000000000E+00 -0.10497670271E+04  0.22574311685E+04  0.19984956015E+04 0.  0.
        5    1    3    3  502    0 -0.21207990525E+03  0.35063925980E+03 -0.15543062765E+04  0.16074252294E+04  0.46999998093E+01 0. -1.
       -5    1    3    3    0  502  0.21207990525E+03 -0.35063925980E+03  0.50453924942E+03  0.65000593915E+03  0.46999998093E+01 0.  1.
</event>
<event>
 5   0  0.3938696E-06  0.3119706E+04  0.7818609E-02  0.8210350E-01
       -1   -1    0    0    0  501  0.00000000000E+00  0.00000000000E+00  0.17187700592E+04  0.17187700592E+04  0.50400001928E-02 0.  1.
        1   -1    0    0  501    0  0.00000000000E+00  0.00000000000E+00 -0.14156295607E+04  0.14156295607E+04  0.50400001928E-02 0. -1.
    10030    2    1    2    0    0  0.00000000000E+00  0.00000000000E+00  0.30314049850E+03  0.31343996200E+04  0.31197062067E+04 0.  0.
        4    1    3    3  502    0 -0.33551641031E+02  0.62202247941E+03  0.15883764701E+04  0.17061591664E+04  0.12699999809E+01 0.  1.
       -4    1    3    3    0  502  0.33551641031E+02 -0.62202247941E+03 -0.12852359716E+04  0.14282404535E+04  0.12699999809E+01 0. -1.
</event>
<event>
 5   0  0.2788054E-06  0.3286141E+04  0.7818609E-02  0.8166431E-01
        1   -1    0    0  501    0  0.00000000000E+00  0.00000000000E+00  0.20725242255E+04  0.20725242255E+04  0.50400001928E-02 0. -1.
       -1   -1    0    0    0  501  0.00000000000E+00  0.00000000000E+00 -0.13026054781E+04  0.13026054781E+04  0.50400001928E-02 0.  1.
    10030    2    1    2    0    0  0.00000000000E+00  0.00000000000E+00  0.76991874740E+03  0.33751297037E+04  0.32861414515E+04 0.  0.
        3    1    3    3  502    0  0.56342140858E+03 -0.13396245886E+04  0.11722974367E+04  0.18671687155E+04  0.10100000352E+00 0. -1.
       -3    1    3    3    0  502 -0.56342140858E+03  0.13396245886E+04 -0.40237868932E+03  0.15079609881E+04  0.10100000352E+00 0.  1.
</event>
<event>
 5   0  0.7510251E-06  0.2859441E+04  0.7818609E-02  0.8285048E-01
       -2   -1    0    0    0  501  0.00000000000E+00  0.00000000000E+00  0.14604515556E+04  0.14604515556E+04  0.25500000920E-02 0. -1.
        2   -1    0    0  501    0  0.00000000000E+00  0.00000000000E+00 -0.13996362939E+04  0.13996362939E+04  0.25500000920E-02 0.  1.
    10030    2    1    2    0    0  0.00000000000E+00  0.00000000000E+00  0.60815261709E+02  0.28600878495E+04  0.28594412060E+04 0.  0.
        3    1    3    3  502    0  0.83928661881E+03 -0.11391440165E+04 -0.17469940068E+03  0.14256826469E+04  0.10100000352E+00 0. -1.
       -3    1    3    3    0  502 -0.83928661881E+03  0.11391440165E+04  0.23551466239E+03  0.14344052026E+04  0.10100000352E+00 0.  1.
</event>
<event>
 5   0  0.3938696E-06  0.3210703E+04  0.7818609E-02  0.8185996E-01
        1   -1    0    0  501    0  0.00000000000E+00  0.00000000000E+00  0.15309969342E+04  0.15309969342E+04  0.50400001928E-02 0. -1.
       -1   -1    0    0    0  501  0.00000000000E+00  0.00000000000E+00 -0.16833172589E+04  0.16833172589E+04  0.50400001928E-02 0.  1.
    10030    2    1    2    0    0  0.00000000000E+00  0.00000000000E+00 -0.15232032462E+03  0.32143141931E+04  0.32107030773E+04 0.  0.
        4    1    3    3  502    0  0.46809707946E+03  0.89844005730E+03 -0.13228890828E+04  0.16662372432E+04  0.12699999809E+01 0.  1.
       -4    1    3    3    0  502 -0.46809707946E+03 -0.89844005730E+03  0.11705687582E+04  0.15480769499E+04  0.12699999809E+01 0. -1.
</event>
<event>
 5   0  0.7971763E-06  0.1735144E+04  0.7818609E-02  0.8741570E-01
        2   -1    0    0  501    0  0.00000000000E+00  0.00000000000E+00  0.60987891601E+03  0.60987891602E+03  0.25500000920E-02 0. -1.
       -2   -1    0    0    0  501  0.00000000000E+00  0.00000000000E+00 -0.12341487237E+04  0.12341487237E+04  0.25500000920E-02 0.  1.
    10030    2    1    2    0    0  0.00000000000E+00  0.00000000000E+00 -0.62426980773E+03  0.18440276398E+04  0.17351441276E+04 0.  0.
        1    1    3    3  502    0  0.84356578921E+03  0.13243758171E+02 -0.52707012262E+03  0.99477713687E+03  0.50400001928E-02 0.  1.
       -1    1    3    3    0  502 -0.84356578921E+03 -0.13243758171E+02 -0.97199685116E+02  0.84925050290E+03  0.50400001928E-02 0. -1.
</event>
<event>
 5   0  0.2933646E-06  0.3198901E+04  0.7818609E-02  0.8189107E-01
        1   -1    0    0  501    0  0.00000000000E+00  0.00000000000E+00  0.13066470507E+04  0.13066470507E+04  0.50400001928E-02 0. -1.
       -1   -1    0    0    0  501  0.00000000000E+00  0.00000000000E+00 -0.19578675270E+04  0.19578675270E+04  0.50400001928E-02 0.  1.
    10030    2    1    2    0    0  0.00000000000E+00  0.00000000000E+00 -0.65122047633E+03  0.32645145777E+04  0.31989009549E+04 0.  0.
        2    1    3    3  502    0 -0.62555214732E+03 -0.82425244013E+03  0.91905140639E+03  0.13839664236E+04  0.25500000920E-02 0. -1.
       -2    1    3    3    0  502  0.62555214732E+03  0.82425244013E+03 -0.15702718827E+04  0.18805481541E+04  0.25500000920E-02 0.  1.
</event>
<event>
 5   0  0.4142886E-06  0.2863923E+04  0.7818609E-02  0.8283693E-01
       -1   -1    0    0    0  501  0.00000000000E+00  0.00000000000E+00  0.19852849858E+04  0.19852849858E+04  0.50400001928E-02 0. -1.
        1   -1    0    0  501    0  0.00000000000E+00  0.00000000000E+00 -0.10328562979E+04  0.10328562979E+04  0.50400001928E-02 0.  1.
    10030    2    1    2    0    0  0.00000000000E+00  0.00000000000E+00  0.95242868797E+03  0.30181412837E+04  0.28639232536E+04 0.  0.
        5    1    3    3  502    0 -0.36462227693E+03  0.96252132729E+03 -0.57293158205E+03  0.11779938022E+04  0.46999998093E+01 0.  1.
       -5    1    3    3    0  502  0.36462227693E+03 -0.96252132729E+03  0.15253602700E+04  0.18401474815E+04  0.46999998093E+01 0. -1.
</event>
<event>
 5   0  0.7971763E-06  0.3175823E+04  0.7818609E-02  0.8195232E-01
       -2   -1    0    0    0  501  0.00000000000E+00  0.00000000000E+00  0.94722554328E+03  0.94722554328E+03  0.25500000920E-02 0. -1.
        2   -1    0    0  501    0  0.00000000000E+00  0.00000000000E+00 -0.26619453324E+04  0.26619453324E+04  0.25500000920E-02 0.  1.
    10030    2    1    2    0    0  0.00000000000E+00  0.00000000000E+00 -0.17147197891E+04  0.36091708757E+04  0.31758227996E+04 0.  0.
        1    1    3    3  502    0  0.85548481619E+03 -0.16289109934E+03  0.65163077676E+03  0.10876628385E+04  0.50400001928E-02 0. -1.
       -1    1    3    3    0  502 -0.85548481619E+03  0.16289109934E+03 -0.23663505659E+04  0.25215080372E+04  0.50400001928E-02 0.  1.
</event>
<event>
 5   0  0.2635798E-06  0.3254918E+04  0.7818609E-02  0.8174462E-01
        1   -1    0    0  501    0  0.00000000000E+00  0.00000000000E+00  0.22729877989E+04  0.22729877989E+04  0.50400001928E-02 0. -1.
       -1   -1    0    0    0  501  0.00000000000E+00  0.00000000000E+00 -0.11652604056E+04  0.11652604057E+04  0.50400001928E-02 0.  1.
    10030    2    1    2    0    0  0.00000000000E+00  0.00000000000E+00  0.11077273932E+04  0.34382482045E+04  0.32549179311E+04 0.  0.
        1    1    3    3  502    0  0.56355684855E+02 -0.98552124366E+03 -0.81292113497E+03  0.12787763122E+04  0.50400001928E-02 0.  1.
       -1    1    3    3    0  502 -0.56355684855E+02  0.98552124366E+03  0.19206485282E+04  0.21594718923E+04  0.50400001928E-02 0. -1.
</event>
<event>
 5   0  0.7952307E-06  0.3071472E+04  0.7818609E-02  0.8223611E-01
       -2   -1    0    0    0  501  0.00000000000E+00  0.00000000000E+00  0.17252860832E+04  0.17252860832E+04  0.25500000920E-02 0. -1.
        2   -1    0    0  501    0  0.00000000000E+00  0.00000000000E+00 -0.13670111780E+04  0.13670111780E+04  0.25500000920E-02 0.  1.
    10030    2    1    2    0    0  0.00000000000E+00  0.00000000000E+00  0.35827490518E+03  0.30922972612E+04  0.30714721949E+04 0.  0.
        2    1    3    3  502    0  0.35493380750E+03 -0.14879258193E+04  0.41889610092E+02  0.15302470359E+04  0.25500000920E-02 0.  1.
       -2    1    3    3    0  502 -0.35493380750E+03  0.14879258193E+04  0.31638529509E+03  0.15620502253E+04  0.25500000920E-02 0. -1.
</event>
<event>
 5   0  0.4142886E-06  0.2527362E+04  0.7818609E-02  0.8393302E-01
       -1   -1    0    0    0  501  0.00000000000E+00  0.00000000000E+00  0.64216002718E+03  0.64216002720E+03  0.50400001928E-02 0. -1.
        1   -1    0    0  501    0  0.00000000000E+00  0.00000000000E+00 -0.24867472264E+04  0.24867472264E+04  0.50400001928E-02 0.  1.
    10030    2    1    2    0    0  0.00000000000E+00  0.00000000000E+00 -0.18445871992E+04  0.31289072536E+04  0.25273619974E+04 0.  0.
        5    1    3    3  502    0  0.68065462291E+03 -0.74342919275E+01 -0.22403686450E+04  0.23414994640E+04  0.46999998093E+01 0.  1.
       -5    1    3    3    0  502 -0.68065462291E+03  0.74342919275E+01  0.39578144575E+03  0.78740778964E+03  0.46999998093E+01 0. -1.
</event>
<event>
 5   0  0.7510251E-06  0.3185926E+04  0.7818609E-02  0.8192544E-01
        2   -1    0    0  501    0  0.00000000000E+00  0.00000000000E+00  0.19923376680E+04  0.19923376680E+04  0.25500000920E-02 0. -1.
       -2   -1    0    0    0  501  0.00000000000E+00  0.00000000000E+00 -0.12736452638E+04  0.12736452638E+04  0.25500000920E-02 0.  1.
    10030    2    1    2    0    0  0.00000000000E+00  0.00000000000E+00  0.71869240416E+03  0.32659829318E+04  0.31859261980E+04 0.  0.
        3    1    3    3  502    0  0.38010330201E+03 -0.11247607533E+04  0.14480913522E+04  0.18725741232E+04  0.10100000352E+00 0. -1.
       -3    1    3    3    0  502 -0.38010330201E+03  0.11247607533E+04 -0.72939894806E+03  0.13934088086E+04  0.10100000352E+00 0.  1.
</event>
<event>
 5   0  0.2933646E-06  0.3120129E+04  0.7818609E-02  0.8210235E-01
       -1   -1    0    0    0  501  0.00000000000E+00  0.00000000000E+00  0.17010392255E+04  0.17010392255E+04  0.50400001928E-02 0. -1.
        1   -1    0    0  501    0  0.00000000000E+00  0.00000000000E+00 -0.14307731124E+04  0.14307731125E+04  0.50400001928E-02 0.  1.
    10030    2    1    2    0    0  0.00000000000E+00  0.00000000000E+00  0.27026611303E+03  0.31318123379E+04  0.31201289634E+04 0.  0.
        2    1    3    3  502    0  0.61481175970E+03  0.12306859917E+04 -0.60329803560E+03  0.15021817566E+04  0.25500000920E-02 0.  1.
       -2    1    3    3    0  502 -0.61481175970E+03 -0.12306859917E+04  0.87356414863E+03  0.16296305814E+04  0.25500000920E-02 0. -1.
</event>
<event>
 5   0  0.7952307E-06  0.3215448E+04  0.7818609E-02  0.8184749E-01
        2   -1    0    0  501    0  0.00000000000E+00  0.00000000000E+00  0.18182084562E+04  0.18182084562E+04  0.25500000920E-02 0.  1.
       -2   -1    0    0    0  501  0.00000000000E+00  0.00000000000E+00 -0.14216061739E+04  0.14216061739E+04  0.25500000920E-02 0. -1.
    10030    2    1    2    0    0  0.00000000000E+00  0.00000000000E+00  0.39660228228E+03  0.32398146301E+04  0.32154479419E+04 0.  0.
        2    1    3    3  502    0 -0.22611966860E+03  0.14349506818E+04  0.89240670666E+03  0.17048763280E+04  0.25500000920E-02 0. -1.
       -2    1    3    3    0  502  0.22611966860E+03 -0.14349506818E+04 -0.49580442438E+03  0.15349383020E+04  0.25500000920E-02 0.  1.
</event>
<event>
 5   0  0.7971763E-06  0.3140056E+04  0.7818609E-02  0.8204830E-01
        2   -1    0    0  501    0  0.00000000000E+00  0.00000000000E+00  0.19105691945E+04  0.19105691945E+04  0.25500000920E-02 0.  1.
       -2   -1    0    0    0  501  0.00000000000E+00  0.00000000000E+00 -0.12901849479E+04  0.12901849479E+04  0.25500000920E-02 0. -1.
    10030    2    1    2    0    0  0.00000000000E+00  0.00000000000E+00  0.62038424661E+03  0.32007541423E+04  0.31400558062E+04 0.  0.
        1    1    3    3  502    0 -0.97475094557E+03  0.43172860759E+03 -0.86467557962E+03  0.13726590453E+04  0.50400001928E-02 0. -1.
       -1    1    3    3    0  502  0.97475094557E+03 -0.43172860759E+03  0.14850598262E+04  0.18280950971E+04  0.50400001928E-02 0.  1.
</event>
<event>
 5   0  0.2788054E-06  0.3154313E+04  0.7818609E-02  0.8200988E-01
       -1   -1    0    0    0  501  0.00000000000E+00  0.00000000000E+00  0.15022828704E+04  0.15022828704E+04  0.50400001928E-02 0.  1.
        1   -1    0    0  501    0  0.00000000000E+00  0.00000000000E+00 -0.16557616198E+04  0.16557616198E+04  0.50400001928E-02 0. -1.
    10030    2    1    2    0    0  0.00000000000E+00  0.00000000000E+00 -0.15347874942E+03  0.31580444901E+04  0.31543128055E+04 0.  0.
        3    1    3    3  502    0  0.48364250386E+03  0.50353733212E+03 -0.14926126990E+04  0.16478326965E+04  0.10100000352E+00 0. -1.
       -3    1    3    3    0  502 -0.48364250386E+03 -0.50353733212E+03  0.13391339496E+04  0.15102117936E+04  0.10100000352E+00 0.  1.
</event>
<event>
 5   0  0.3938696E-06  0.1711208E+04  0.7818609E-02  0.8754998E-01
       -1   -1    0    0    0  501  0.00000000000E+00  0.00000000000E+00  0.40327357700E+03  0.40327357703E+03  0.50400001928E-02 0.  1.
        1   -1    0    0  501    0  0.00000000000E+00  0.00000000000E+00 -0.18152887987E+04  0.18152887987E+04  0.50400001928E-02 0. -1.
    10030    2    1    2    0    0  0.00000000000E+00  0.00000000000E+00 -0.14120152217E+04  0.22185623757E+04  0.17112077690E+04 0.  0.
        4    1    3    3  502    0  0.24239910821E+03  0.58295728011E+03 -0.14546780620E+04  0.15857762752E+04  0.12699999809E+01 0. -1.
       -4    1    3    3    0  502 -0.24239910821E+03 -0.58295728011E+03  0.42662840340E+02  0.63278610047E+03  0.12699999809E+01 0.  1.
</event>
<event>
 5   0  0.7952307E-06  0.3180559E+04  0.7818609E-02  0.8193970E-01
        2   -1    0    0  501    0  0.00000000000E+00  0.00000000000E+00  0.14700074009E+04  0.14700074009E+04  0.25500000920E-02 0. -1.
       -2   -1    0    0    0  501  0.00000000000E+00  0.00000000000E+00 -0.17203922282E+04  0.17203922282E+04  0.25500000920E-02 0.  1.
    10030    2    1    2    0    0  0.00000000000E+00  0.00000000000E+00 -0.25038482735E+03  0.31903996291E+04  0.31805592639E+04 0.  0.
        2    1    3    3  502    0 -0.13529849081E+04 -0.82420463816E+03 -0.26385127396E+03  0.16060818603E+04  0.25500000920E-02 0.  1.
       -2    1    3    3    0  502  0.13529849081E+04  0.82420463816E+03  0.13466446615E+02  0.15843177688E+04  0.25500000920E-02 0. -1.
</event>
<event>
 5   0  0.7941434E-06  0.2932470E+04  0.7818609E-02  0.8263282E-01
       -2   -1    0    0    0  501  0.00000000000E+00  0.00000000000E+00  0.10426698305E+04  0.10426698305E+04  0.25500000920E-02 0.  1.
        2   -1    0    0  501    0  0.00000000000E+00  0.00000000000E+00 -0.20618653774E+04  0.20618653774E+04  0.25500000920E-02 0. -1.
    10030    2    1    2    0    0  0.00000000000E+00  0.00000000000E+00 -0.10191955470E+04  0.31045352079E+04  0.29324698283E+04 0.  0.
        4    1    3    3  502    0  0.11603088684E+03 -0.38039200548E+03  0.98447940648E+03  0.10617733088E+04  0.12699999809E+01 0.  1.
       -4    1    3    3    0  502 -0.11603088684E+03  0.38039200548E+03 -0.20036749535E+04  0.20427618991E+04  0.12699999809E+01 0. -1.
</event>
<event>
 5   0  0.7510251E-06  0.3487592E+04  0.7818609E-02  0.8116737E-01
        2   -1    0    0  501    0  0.00000000000E+00  0.00000000000E+00  0.14649015159E+04  0.14649015159E+04  0.25500000920E-02 0.  1.
       -2   -1    0    0    0  501  0.00000000000E+00  0.00000000000E+00 -0.20757880397E+04  0.20757880397E+04  0.25500000920E-02 0. -1.
    10030    2    1    2    0    0  0.00000000000E+00  0.00000000000E+00 -0.61088652383E+03  0.35406895556E+04  0.34875923191E+04 0.  0.
        3    1    3    3  502    0 -0.99052786952E+03 -0.33483526772E+03  0.11113553051E+04  0.15258999774E+04  0.10100000352E+00 0.  1.
       -3    1    3    3    0  502  0.99052786952E+03  0.33483526772E+03 -0.17222418289E+04  0.20147895782E+04  0.10100000352E+00 0. -1.
</event>
<event>
 5   0  0.8237664E-06  0.3229024E+04  0.7818609E-02  0.8181194E-01
       -2   -1    0    0    0  501  0.00000000000E+00  0.00000000000E+00  0.13411503074E+04  0.13411503074E+04  0.25500000920E-02 0. -1.
        2   -1    0    0  501    0  0.00000000000E+00  0.00000000000E+00 -0.19435914744E+04  0.19435914744E+04  0.25500000920E-02 0.  1.
    10030    2    1    2    0    0  0.00000000000E+00  0.00000000000E+00 -0.60244116702E+03  0.32847417817E+04  0.32290235696E+04 0.  0.
        5    1    3    3  502    0 -0.13950283865E+04  0.13837106347E+03 -0.11158989618E+04  0.17917877478E+04  0.46999998093E+01 0.  1.
       -5    1    3    3    0  502  0.13950283865E+04 -0.13837106347E+03  0.51345779476E+03  0.14929540339E+04  0.46999998093E+01 0. -1.
</event>
<event>
 5   0  0.2635798E-06  0.3190184E+04  0.7818609E-02  0.8191414E-01
       -1   -1    0    0    0  501  0.00000000000E+00  0.00000000000E+00  0.11928114248E+04  0.11928114248E+04  0.50400001928E-02 0.  1.
        1   -1    0    0  501    0  0.00000000000E+00  0.00000000000E+00 -0.21330427594E+04  0.21330427594E+04  0.50400001928E-02 0. -1.
    10030    2    1    2    0    0  0.00000000000E+00  0.00000000000E+00 -0.94023133459E+03  0.33258541842E+04  0.31901835514E+04 0.  0.
        1    1    3    3  502    0  0.67990073413E+03 -0.13487157455E+04  0.64548114603E+02  0.15117756545E+04  0.50400001928E-02 0.  1.
       -1    1    3    3    0  502 -0.67990073413E+03  0.13487157455E+04 -0.10047794492E+04  0.18140785297E+04  0.50400001928E-02 0. -1.
</event>
<event>
 5   0  0.4142886E-06  0.2409470E+04  0.7818609E-02  0.8435967E-01
       -1   -1    0    0    0  501  0.00000000000E+00  0.00000000000E+00  0.68217654679E+03  0.68217654681E+03  0.50400001928E-02 0.  1.
        1   -1    0    0  501    0  0.00000000000E+00  0.00000000000E+00 -0.21275821228E+04  0.21275821228E+04  0.50400001928E-02 0. -1.
    10030    2    1    2    0    0  0.00000000000E+00  0.00000000000E+00 -0.14454055760E+04  0.28097586696E+04  0.24094701704E+04 0.  0.
        5    1    3    3  502    0 -0.73556546410E+03 -0.45125024554E+03  0.25759773566E+03  0.90058981756E+03  0.46999998093E+01 0. -1.
       -5    1    3    3    0  502  0.73556546410E+03  0.45125024554E+03 -0.17030033117E+04  0.19091688520E+04  0.46999998093E+01 0.  1.
</event>
<event>
 5   0  0.2635798E-06  0.3147749E+04  0.7818609E-02  0.8202755E-01
        1   -1    0    0  501    0  0.00000000000E+00  0.00000000000E+00  0.17785224430E+04  0.17785224430E+04  0.50400001928E-02 0.  1.
       -1   -1    0    0    0  501  0.00000000000E+00  0.00000000000E+00 -0.13927741969E+04  0.13927741969E+04  0.50400001928E-02 0. -1.
    10030    2    1    2    0    0  0.00000000000E+00  0.00000000000E+00  0.38574824615E+03  0.31712966399E+04  0.31477485079E+04 0.  0.
        1    1    3    3  502    0  0.16109718390E+03  0.50640663987E+03  0.16854020341E+04  0.17671955195E+04  0.50400001928E-02 0.  1.
       -1    1    3    3    0  502 -0.16109718390E+03 -0.50640663987E+03 -0.12996537880E+04  0.14041011204E+04  0.50400001928E-02 0. -1.
</event>
<event>
 5   0  0.7941434E-06  0.3214487E+04  0.7818609E-02  0.8185002E-01
        2   -1    0    0  501    0  0.00000000000E+00  0.00000000000E+00  0.17092067545E+04  0.17092067545E+04  0.25500000920E-02 0.  1.
       -2   -1    0    0    0  501  0.00000000000E+00  0.00000000000E+00 -0.15113626689E+04  0.15113626689E+04  0.25500000920E-02 0. -1.
    10030    2    1    2    0    0  0.00000000000E+00  0.00000000000E+00  0.19784408558E+03  0.32205694233E+04  0.32144867597E+04 0.  0.
        4    1    3    3  502    0 -0.82326216689E+03  0.89927299274E+03  0.11481750502E+04  0.16747417919E+04  0.12699999809E+01 0.  1.
       -4    1    3    3    0  502  0.82326216689E+03 -0.89927299274E+03 -0.95033096458E+03  0.15458276314E+04  0.12699999809E+01 0. -1.
</event>
<event>
 5   0  0.7941434E-06  0.2980789E+04  0.7818609E-02  0.8249238E-01
        2   -1    0    0  501    0  0.00000000000E+00  0.00000000000E+00  0.11388027443E+04  0.11388027443E+04  0.25500000920E-02 0. -1.
       -2   -1    0    0    0  501  0.00000000000E+00  0.00000000000E+00 -0.19505365514E+04  0.19505365514E+04  0.25500000920E-02 0.  1.
    10030    2    1    2    0    0  0.00000000000E+00  0.00000000000E+00 -0.81173380714E+03  0.30893392957E+04  0.29807894106E+04 0.  0.
        4    1    3    3  502    0 -0.90590822869E+03  0.11402991851E+04 -0.73413915035E+03  0.16309242334E+04  0.12699999809E+01 0. -1.
       -4    1    3    3    0  502  0.90590822869E+03 -0.11402991851E+04 -0.77594656787E+02  0.14584150623E+04  0.12699999809E+01 0.  1.
</event>
<event>
 5   0  0.7952307E-06  0.1759309E+04  0.7818609E-02  0.8728243E-01
        2   -1    0    0  501    0  0.00000000000E+00  0.00000000000E+00  0.16779683144E+04  0.16779683144E+04  0.25500000920E-02 0. -1.
       -2   -1    0    0    0  501  0.00000000000E+00  0.00000000000E+00 -0.46114839633E+03  0.46114839633E+03  0.25500000920E-02 0.  1.
    10030    2    1    2    0    0  0.00000000000E+00  0.00000000000E+00  0.12168199181E+04  0.21391167107E+04  0.17593094069E+04 0.  0.
        2    1    3    3  502    0 -0.19852827706E+03 -0.84931110278E+03  0.74730616277E+03  0.11485683815E+04  0.25500000920E-02 0.  1.
       -2    1    3    3    0  502  0.19852827706E+03  0.84931110278E+03  0.46951375531E+03  0.99054832922E+03  0.25500000920E-02 0. -1.
</event>
<event>
 5   0  0.2933646E-06  0.3252342E+04  0.7818609E-02  0.8175129E-01
       -1   -1    0    0    0  501  0.00000000000E+00  0.00000000000E+00  0.10800213347E+04  0.10800213347E+04  0.50400001928E-02 0.  1.
        1   -1    0    0  501    0  0.00000000000E+00  0.00000000000E+00 -0.24484995021E+04  0.24484995021E+04  0.50400001928E-02 0. -1.
    10030    2    1    2    0    0  0.00000000000E+00  0.00000000000E+00 -0.13684781674E+04  0.35285208368E+04  0.32523417412E+04 0.  0.
        2    1    3    3  502    0  0.13346388829E+03  0.39285426029E+03  0.10216301914E+04  0.11026673693E+04  0.25500000920E-02 0.  1.
       -2    1    3    3    0  502 -0.13346388829E+03 -0.39285426029E+03 -0.23901083588E+04  0.24258534675E+04  0.25500000920E-02 0. -1.
</event>
<event>
 5   0  0.2788054E-06  0.2029116E+04  0.7818609E-02  0.8593128E-01
        1   -1    0    0  501    0  0.00000000000E+00  0.00000000000E+00  0.17870074579E+04  0.17870074579E+04  0.50400001928E-02 0. -1.
       -1   -1    0    0    0  501  0.00000000000E+00  0.00000000000E+00 -0.57600653240E+03  0.57600653243E+03  0.50400001928E-02 0.  1.
    10030    2    1    2    0    0  0.00000000000E+00  0.00000000000E+00  0.12110009255E+04  0.23630139904E+04  0.20291160334E+04 0.  0.
        3    1    3    3  502    0 -0.52096534886E+03  0.77916742936E+03  0.10577629632E+04  0.14132831543E+04  0.10100000352E+00 0.  1.
       -3    1    3    3    0  502  0.52096534886E+03 -0.77916742936E+03  0.15323796233E+03  0.94973083607E+03  0.10100000352E+00 0. -1.
</event>
<event>
 5   0  0.8237664E-06  0.3210385E+04  0.7818609E-02  0.8186080E-01
       -2   -1    0    0    0  501  0.00000000000E+00  0.00000000000E+00  0.20315085464E+04  0.20315085464E+04  0.25500000920E-02 0. -1.
        2   -1    0    0  501    0  0.00000000000E+00  0.00000000000E+00 -0.12683394909E+04  0.12683394909E+04  0.25500000920E-02 0.  1.
    10030    2    1    2    0    0  0.00000000000E+00  0.00000000000E+00  0.76316905551E+03  0.32998480373E+04  0.32103847218E+04 0.  0.
        5    1    3    3  502    0 -0.29906334770E+03 -0.46431463114E+03  0.19307655410E+04  0.20082093086E+04  0.46999998093E+01 0. -1.
       -5    1    3    3    0  502  0.29906334770E+03  0.46431463114E+03 -0.11675964855E+04  0.12916387288E+04  0.46999998093E+01 0.  1.
</event>
<event>
 5   0  0.7971763E-06  0.3186684E+04  0.7818609E-02  0.8192343E-01
       -2   -1    0    0    0  501  0.00000000000E+00  0.00000000000E+00  0.13174065999E+04  0.13174065999E+04  0.25500000920E-02 0. -1.
        2   -1    0    0  501    0  0.00000000000E+00  0.00000000000E+00 -0.19270734042E+04  0.19270734042E+04  0.25500000920E-02 0.  1.
    10030    2    1    2    0    0  0.00000000000E+00  0.00000000000E+00 -0.60966680422E+03  0.32444800041E+04  0.31866843089E+04 0.  0.
        1    1    3    3  502    0  0.52292414741E+03  0.72569737855E+03 -0.16473278588E+04  0.18745067148E+04  0.50400001928E-02 0.  1.
       -1    1    3    3    0  502 -0.52292414741E+03 -0.72569737855E+03  0.10376610546E+04  0.13699732893E+04  0.50400001928E-02 0. -1.
</event>
<event>
 5   0  0.3938696E-06  0.1830793E+04  0.7818609E-02  0.8690093E-01
       -1   -1    0    0    0  501  0.00000000000E+00  0.00000000000E+00  0.88486052344E+03  0.88486052345E+03  0.50400001928E-02 0.  1.
        1   -1    0    0  501    0  0.00000000000E+00  0.00000000000E+00 -0.94698676697E+03  0.94698676699E+03  0.50400001928E-02 0. -1.
    10030    2    1    2    0    0  0.00000000000E+00  0.00000000000E+00 -0.62126243536E+02  0.18318472904E+04  0.18307934961E+04 0.  0.
        4    1    3    3  502    0  0.70780017488E+03  0.57921589853E+03 -0.69522842006E+02  0.91722798863E+03  0.12699999809E+01 0.  1.
       -4    1    3    3    0  502 -0.70780017488E+03 -0.57921589853E+03  0.73965984699E+01  0.91461930181E+03  0.12699999809E+01 0. -1.
</event>
<event>
 5   0  0.3938696E-06  0.3076934E+04  0.7818609E-02  0.8222097E-01
       -1   -1    0    0    0  501  0.00000000000E+00  0.00000000000E+00  0.21196068807E+04  0.21196068807E+04  0.50400001928E-02 0. -1.
        1   -1    0    0  501    0  0.00000000000E+00  0.00000000000E+00 -0.11166605373E+04  0.11166605373E+04  0.50400001928E-02 0.  1.
    10030    2    1    2    0    0  0.00000000000E+00  0.00000000000E+00  0.10029463434E+04  0.32362674181E+04  0.30769344214E+04 0.  0.
        4    1    3    3  502    0 -0.56606759215E+03  0.46190690483E+03  0.19254993216E+04  0.20594513245E+04  0.12699999809E+01 0. -1.
       -4    1    3    3    0  502  0.56606759215E+03 -0.46190690483E+03 -0.92255297820E+03  0.11768160936E+04  0.12699999809E+01 0.  1.
</event>
<event>
 5   0  0.4142886E-06  0.3079531E+04  0.7818609E-02  0.8221378E-01
        1   -1    0    0  501    0  0.00000000000E+00  0.00000000000E+00  0.18063183745E+04  0.18063183745E+04  0.50400001928E-02 0.  1.
       -1   -1    0    0    0  501  0.00000000000E+00  0.00000000000E+00 -0.13125471803E+04  0.13125471803E+04  0.50400001928E-02 0. -1.
    10030    2    1    2    0    0  0.00000000000E+00  0.00000000000E+00  0.49377119418E+03  0.31188655548E+04  0.30795311910E+04 0.  0.
        5    1    3    3  502    0 -0.81965685070E+03 -0.93762713606E+03  0.11639199476E+04  0.17046154210E+04  0.46999998093E+01 0.  1.
       -5    1    3    3    0  502  0.81965685070E+03  0.93762713606E+03 -0.67014875339E+03  0.14142501338E+04  0.46999998093E+01 0. -1.
</event>
<event>
 5   0  0.7941434E-06  0.3129731E+04  0.7818609E-02  0.8207626E-01
       -2   -1    0    0    0  501  0.00000000000E+00  0.00000000000E+00  0.89935915272E+03  0.89935915272E+03  0.25500000920E-02 0.  1.
        2   -1    0    0  501    0  0.00000000000E+00  0.00000000000E+00 -0.27228320824E+04  0.27228320824E+04  0.25500000920E-02 0. -1.
    10030    2    1    2    0    0  0.00000000000E+00  0.00000000000E+00 -0.18234729296E+04  0.36221912351E+04  0.31297309498E+04 0.  0.
        4    1    3    3  502    0 -0.10220690994E+04  0.93092253413E+03 -0.17602875201E+04  0.22382707108E+04  0.12699999809E+01 0. -1.
       -4    1    3    3    0  502  0.10220690994E+04 -0.93092253413E+03 -0.63185409499E+02  0.13839205242E+04  0.12699999809E+01 0.  1.
</event>
<event>
 5   0  0.7510251E-06  0.2428684E+04  0.7818609E-02  0.8428842E-01
       -2   -1    0    0    0  501  0.00000000000E+00  0.00000000000E+00  0.93587679731E+03  0.93587679731E+03  0.25500000920E-02 0.  1.
        2   -1    0    0  501    0  0.00000000000E+00  0.00000000000E+00 -0.15756633818E+04  0.15756633818E+04  0.25500000920E-02 0. -1.
    10030    2    1    2    0    0  0.00000000000E+00  0.00000000000E+00 -0.63978658444E+03  0.25115401791E+04  0.24286842523E+04 0.  0.
        3    1    3    3  502    0 -0.89334780615E+03  0.45299819510E+03 -0.10298639897E+04  0.14366271315E+04  0.10100000352E+00 0. -1.
       -3    1    3    3    0  502  0.89334780615E+03 -0.45299819510E+03  0.39007740525E+03  0.10749130476E+04  0.10100000352E+00 0.  1.
</event>
<event>
 5   0  0.7510251E-06  0.3123209E+04  0.7818609E-02  0.8209397E-01
        2   -1    0    0  501    0  0.00000000000E+00  0.00000000000E+00  0.16460774318E+04  0.16460774318E+04  0.25500000920E-02 0. -1.
       -2   -1    0    0    0  501  0.00000000000E+00  0.00000000000E+00 -0.14814668240E+04  0.14814668240E+04  0.25500000920E-02 0.  1.
    10030    2    1    2    0    0  0.00000000000E+00  0.00000000000E+00  0.16461060782E+03  0.31275442558E+04  0.31232093142E+04 0.  0.
        3    1    3    3  502    0  0.11277722344E+04 -0.96820751673E+03  0.56183641947E+03  0.15890110700E+04  0.10100000352E+00 0. -1.
       -3    1    3    3    0  502 -0.11277722344E+04  0.96820751673E+03 -0.39722581165E+03  0.15385331858E+04  0.10100000352E+00 0.  1.
</event>
<event>
 5   0  0.7510251E-06  0.3423715E+04  0.7818609E-02  0.8132110E-01
       -2   -1    0    0    0  501  0.00000000000E+00  0.00000000000E+00  0.12590404871E+04  0.12590404871E+04  0.25500000920E-02 0. -1.
        2   -1    0    0  501    0  0.00000000000E+00  0.00000000000E+00 -0.23275314328E+04  0.23275314328E+04  0.25500000920E-02 0.  1.
    10030    2    1    2    0    0  0.00000000000E+00  0.00000000000E+00 -0.10684909458E+04  0.35865719199E+04  0.34237151218E+04 0.  0.
        3    1    3    3  502    0  0.29783388191E+03  0.15665811405E+04 -0.11864137847E+04  0.19875762047E+04  0.10100000352E+00 0.  1.
       -3    1    3    3    0  502 -0.29783388191E+03 -0.15665811405E+04  0.11792283898E+03  0.15989957151E+04  0.10100000352E+00 0. -1.
</event>
<event>
 5   0  0.7952307E-06  0.3199783E+04  0.7818609E-02  0.8188874E-01
        2   -1    0    0  501    0  0.00000000000E+00  0.00000000000E+00  0.14069024246E+04  0.14069024246E+04  0.25500000920E-02 0.  1.
       -2   -1    0    0    0  501  0.00000000000E+00  0.00000000000E+00 -0.18193538293E+04  0.18193538293E+04  0.25500000920E-02 0. -1.
    10030    2    1    2    0    0  0.00000000000E+00  0.00000000000E+00 -0.41245140476E+03  0.32262562539E+04  0.31997833137E+04 0.  0.
        2    1    3    3  502    0 -0.14124586396E+04  0.74312954702E+03 -0.31837716425E+03  0.16274658064E+04  0.25500000920E-02 0. -1.
       -2    1    3    3    0  502  0.14124586396E+04 -0.74312954702E+03 -0.94074240511E+02  0.15987904475E+04  0.25500000920E-02 0.  1.
</event>
<event>
 5   0  0.7971763E-06  0.3205388E+04  0.7818609E-02  0.8187396E-01
       -2   -1    0    0    0  501  0.00000000000E+00  0.00000000000E+00  0.12777087624E+04  0.12777087624E+04  0.25500000920E-02 0. -1.
        2   -1    0    0  501    0  0.00000000000E+00  0.00000000000E+00 -0.20103387895E+04  0.20103387895E+04  0.25500000920E-02 0.  1.
    10030    2    1    2    0    0  0.00000000000E+00  0.00000000000E+00 -0.73263002709E+03  0.32880475519E+04  0.32053876438E+04 0.  0.
        1    1    3    3  502    0  0.65859340386E+03  0.41597640736E+03  0.10704639828E+04  0.13238862419E+04  0.50400001928E-02 0. -1.
       -1    1    3    3    0  502 -0.65859340386E+03 -0.41597640736E+03 -0.18030940099E+04  0.19641613100E+04  0.50400001928E-02 0.  1.
</event>
<event>
 5   0  0.2788054E-06  0.3242334E+04  0.7818609E-02  0.8177725E-01
        1   -1    0    0  501    0  0.00000000000E+00  0.00000000000E+00  0.18596423312E+04  0.18596423312E+04  0.50400001928E-02 0.  1.
       -1   -1    0    0    0  501  0.00000000000E+00  0.00000000000E+00 -0.14132734725E+04  0.14132734725E+04  0.50400001928E-02 0. -1.
    10030    2    1    2    0    0  0.00000000000E+00  0.00000000000E+00  0.44636885864E+03  0.32729158037E+04  0.32423344522E+04 0.  0.
        3    1    3    3  502    0 -0.99306628398E+02  0.77935219578E+03 -0.12082638542E+04  0.14412332230E+04  0.10100000352E+00 0. -1.
       -3    1    3    3    0  502  0.99306628398E+02 -0.77935219578E+03  0.16546327129E+04  0.18316825807E+04  0.10100000352E+00 0.  1.
</event>
<event>
 5   0  0.7941434E-06  0.3036834E+04  0.7818609E-02  0.8233290E-01
       -2   -1    0    0    0  501  0.00000000000E+00  0.00000000000E+00  0.12749451228E+04  0.12749451228E+04  0.25500000920E-02 0. -1.
        2   -1    0    0  501    0  0.00000000000E+00  0.00000000000E+00 -0.18083837467E+04  0.18083837467E+04  0.25500000920E-02 0.  1.
    10030    2    1    2    0    0  0.00000000000E+00  0.00000000000E+00 -0.53343862389E+03  0.30833288695E+04  0.30368339026E+04 0.  0.
        4    1    3    3  502    0 -0.10284475690E+04  0.22405740428E+03  0.84442284794E+03  0.13494286500E+04  0.12699999809E+01 0. -1.
       -4    1    3    3    0  502  0.10284475690E+04 -0.22405740428E+03 -0.13778614718E+04  0.17339002194E+04  0.12699999809E+01 0.  1.
</event>
<event>
 5   0  0.7941434E-06  0.3230544E+04  0.7818609E-02  0.8180797E-01
       -2   -1    0    0    0  501  0.00000000000E+00  0.00000000000E+00  0.14880758037E+04  0.14880758037E+04  0.25500000920E-02 0.  1.
        2   -1    0    0  501    0  0.00000000000E+00  0.00000000000E+00 -0.17533410824E+04  0.17533410824E+04  0.25500000920E-02 0. -1.
    10030    2    1    2    0    0  0.00000000000E+00  0.00000000000E+00 -0.26526527867E+03  0.32414168861E+04  0.32305444992E+04 0.  0.
        4    1    3    3  502    0 -0.58731071366E+03 -0.14700682980E+04  0.18949011785E+03  0.15943471369E+04  0.12699999809E+01 0.  1.
       -4    1    3    3    0  502  0.58731071366E+03  0.14700682980E+04 -0.45475539652E+03  0.16470697492E+04  0.12699999809E+01 0. -1.
</event>
<event>
 5   0  0.8237664E-06  0.2629254E+04  0.7818609E-02  0.8358332E-01
       -2   -1    0    0    0  501  0.00000000000E+00  0.00000000000E+00  0.15001658753E+04  0.15001658753E+04  0.25500000920E-02 0. -1.
        2   -1    0    0  501    0  0.00000000000E+00  0.00000000000E+00 -0.11520352418E+04  0.11520352418E+04  0.25500000920E-02 0.  1.
    10030    2    1    2    0    0  0.00000000000E+00  0.00000000000E+00  0.34813063352E+03  0.26522011171E+04  0.26292538538E+04 0.  0.
        5    1    3    3  502    0  0.86821437734E+03 -0.89003524132E+03 -0.25658335256E+03  0.12695731734E+04  0.46999998093E+01 0.  1.
       -5    1    3    3    0  502 -0.86821437734E+03  0.89003524132E+03  0.60471398609E+03  0.13826279437E+04  0.46999998093E+01 0. -1.
</event>
<event>
 5   0  0.4416407E-06  0.1765483E+04  0.7818609E-02  0.8724874E-01
       -1   -1    0    0    0  501  0.00000000000E+00  0.00000000000E+00  0.72816201691E+03  0.72816201693E+03  0.50400001928E-02 0.  1.
        1   -1    0    0  501    0  0.00000000000E+00  0.00000000000E+00 -0.10701356616E+04  0.10701356616E+04  0.50400001928E-02 0. -1.
    10030    2    1    2    0    0  0.00000000000E+00  0.00000000000E+00 -0.34197364467E+03  0.17982976785E+04  0.17654825309E+04 0.  0.
        4    1    3    3  502    0  0.35863413393E+03 -0.38113891177E+03  0.55310265899E+03  0.76145221542E+03  0.12699999809E+01 0.  1.
       -4    1    3    3    0  502 -0.35863413393E+03  0.38113891177E+03 -0.89507630366E+03  0.10368454631E+04  0.12699999809E+01 0. -1.
</event>
<event>
 5   0  0.2933646E-06  0.3205527E+04  0.7818609E-02  0.8187359E-01
        1   -1    0    0  501    0  0.00000000000E+00  0.00000000000E+00  0.19179788383E+04  0.19179788383E+04  0.50400001928E-02 0. -1.
       -1   -1    0    0    0  501  0.00000000000E+00  0.00000000000E+00 -0.13393529012E+04  0.13393529012E+04  0.50400001928E-02 0.  1.
    10030    2    1    2    0    0  0.00000000000E+00  0.00000000000E+00  0.57862593716E+03  0.32573317395E+04  0.32055268032E+04 0.  0.
        2    1    3    3  502    0 -0.20681720160E+03  0.54495716259E+03  0.18064585030E+04  0.18981685876E+04  0.25500000920E-02 0. -1.
       -2    1    3    3    0  502  0.20681720160E+03 -0.54495716259E+03 -0.12278325658E+04  0.13591631519E+04  0.25500000920E-02 0.  1.
</event>
<event>
 5   0  0.7510251E-06  0.2925533E+04  0.7818609E-02  0.8265321E-01
       -2   -1    0    0    0  501  0.00000000000E+00  0.00000000000E+00  0.12758249254E+04  0.12758249254E+04  0.25500000920E-02 0. -1.
        2   -1    0    0  501    0  0.00000000000E+00  0.00000000000E+00 -0.16770999500E+04  0.16770999500E+04  0.25500000920E-02 0.  1.
    10030    2    1    2    0    0  0.00000000000E+00  0.00000000000E+00 -0.40127502453E+03  0.29529248754E+04  0.29255330581E+04 0.  0.
        3    1    3    3  502    0 -0.56250836346E+03 -0.79017852572E+03 -0.13058269395E+04  0.16266474012E+04  0.10100000352E+00 0.  1.
       -3    1    3    3    0  502  0.56250836346E+03  0.79017852572E+03  0.90455191501E+03  0.13262774742E+04  0.10100000352E+00 0. -1.
</event>
<event>
 5   0  0.7971763E-06  0.3300529E+04  0.7818609E-02  0.8162761E-01
       -2   -1    0    0    0  501  0.00000000000E+00  0.00000000000E+00  0.14548669297E+04  0.14548669297E+04  0.25500000920E-02 0.  1.
        2   -1    0    0  501    0  0.00000000000E+00  0.00000000000E+00 -0.18719048404E+04  0.18719048404E+04  0.25500000920E-02 0. -1.
    10030    2    1    2    0    0  0.00000000000E+00  0.00000000000E+00 -0.41703791076E+03  0.33267717701E+04  0.33005287139E+04 0.  0.
        1    1    3    3  502    0  0.58593290882E+02  0.10849638099E+04  0.10434492350E+04  0.15064414853E+04  0.50400001928E-02 0.  1.
       -1    1    3    3    0  502 -0.58593290882E+02 -0.10849638099E+04 -0.14604871458E+04  0.18203302848E+04  0.50400001928E-02 0. -1.
</event>
<event>
 5   0  0.7941434E-06  0.3158137E+04  0.7818609E-02  0.8199961E-01
        2   -1    0    0  501    0  0.00000000000E+00  0.00000000000E+00  0.24447540175E+04  0.24447540175E+04  0.25500000920E-02 0. -1.
       -2   -1    0    0    0  501  0.00000000000E+00  0.00000000000E+00 -0.10199215643E+04  0.10199215643E+04  0.25500000920E-02 0.  1.
    10030    2    1    2    0    0  0.00000000000E+00  0.00000000000E+00  0.14248324532E+04  0.34646755818E+04  0.31581370089E+04 0.  0.
        4    1    3    3  502    0  0.55753368408E+03 -0.80726291747E+03  0.20698244659E+04  0.22905659037E+04  0.12699999809E+01 0. -1.
       -4    1    3    3    0  502 -0.55753368408E+03  0.80726291747E+03 -0.64499201267E+03  0.11741096781E+04  0.12699999809E+01 0.  1.
</event>
<event>
 5   0  0.2788054E-06  0.3088874E+04  0.7818609E-02  0.8218798E-01
        1   -1    0    0  501    0  0.00000000000E+00  0.00000000000E+00  0.98509522419E+03  0.98509522420E+03  0.50400001928E-02 0.  1.
       -1   -1    0    0    0  501  0.00000000000E+00  0.00000000000E+00 -0.24213755911E+04  0.24213755911E+04  0.50400001928E-02 0. -1.
    10030    2    1    2    0    0  0.00000000000E+00  0.00000000000E+00 -0.14362803669E+04  0.34064708153E+04  0.30888739248E+04 0.  0.
        3    1    3    3  502    0  0.86608671717E+03 -0.11619480722E+04 -0.12933777127E+03  0.14549769048E+04  0.10100000352E+00 0.  1.
       -3    1    3    3    0  502 -0.86608671717E+03  0.11619480722E+04 -0.13069425956E+04  0.19514939105E+04  0.10100000352E+00 0. -1.
</event>
<event>
 5   0  0.2635798E-06  0.3229592E+04  0.7818609E-02  0.8181045E-01
        1   -1    0    0  501    0  0.00000000000E+00  0.00000000000E+00  0.24751576915E+04  0.24751576915E+04  0.50400001928E-02 0. -1.
       -1   -1    0    0    0  501  0.00000000000E+00  0.00000000000E+00 -0.10534950215E+04  0.10534950215E+04  0.50400001928E-02 0.  1.
    10030    2    1    2    0    0  0.00000000000E+00  0.00000000000E+00  0.14216626700E+04  0.35286527130E+04  0.32295921138E+04 0.  0.
        1    1    3    3  502    0 -0.13895580750E+04 -0.70706253110E+03  0.25147485644E+03  0.15792557330E+04  0.50400001928E-02 0.  1.
       -1    1    3    3    0  502  0.13895580750E+04  0.70706253110E+03  0.11701878136E+04  0.19493969800E+04  0.50400001928E-02 0. -1.
</event>
<event>
 5   0  0.3938696E-06  0.3212607E+04  0.7818609E-02  0.8185496E-01
        1   -1    0    0  501    0  0.00000000000E+00  0.00000000000E+00  0.17097097136E+04  0.17097097136E+04  0.50400001928E-02 0.  1.
       -1   -1    0    0    0  501  0.00000000000E+00  0.00000000000E+00 -0.15091510287E+04  0.15091510287E+04  0.50400001928E-02 0. -1.
    10030    2    1    2    0    0  0.00000000000E+00  0.00000000000E+00  0.20055868497E+03  0.32188607423E+04  0.32126065262E+04 0.  0.
        4    1    3    3  502    0 -0.33912878681E+03  0.14378711190E+04 -0.53160430711E+03  0.15700593750E+04  0.12699999809E+01 0.  1.
       -4    1    3    3    0  502  0.33912878681E+03 -0.14378711190E+04  0.73216299208E+03  0.16488013673E+04  0.12699999809E+01 0. -1.
</event>
<event>
 5   0  0.7971763E-06  0.3102298E+04  0.7818609E-02  0.8215108E-01
       -2   -1    0    0    0  501  0.00000000000E+00  0.00000000000E+00  0.19324013799E+04  0.19324013799E+04  0.25500000920E-02 0. -1.
        2   -1    0    0  501    0  0.00000000000E+00  0.00000000000E+00 -0.12451156973E+04  0.12451156973E+04  0.25500000920E-02 0.  1.
    10030    2    1    2    0    0  0.00000000000E+00  0.00000000000E+00  0.68728568255E+03  0.31775170772E+04  0.31022980460E+04 0.  0.
        1    1    3    3  502    0 -0.85664469350E+03 -0.92311416793E+03 -0.58389872908E+03  0.13881345842E+04  0.50400001928E-02 0.  1.
       -1    1    3    3    0  502  0.85664469350E+03  0.92311416793E+03  0.12711844116E+04  0.17893824930E+04  0.50400001928E-02 0. -1.
</event>
<event>
 5   0  0.7941434E-06  0.3192964E+04  0.7818609E-02  0.8190678E-01
        2   -1    0    0  501    0  0.00000000000E+00  0.00000000000E+00  0.26108207250E+04  0.26108207250E+04  0.25500000920E-02 0. -1.
       -2   -1    0    0    0  501  0.00000000000E+00  0.00000000000E+00 -0.97622766035E+03  0.97622766035E+03  0.25500000920E-02 0.  1.
    10030    2    1    2    0    0  0.00000000000E+00  0.00000000000E+00  0.16345930646E+04  0.35870483853E+04  0.31929643956E+04 0.  0.
        4    1    3    3  502    0  0.13297779921E+02 -0.14631048384E+04  0.99798609037E+02  0.14665653665E+04  0.12699999809E+01 0.  1.
       -4    1    3    3    0  502 -0.13297779921E+02  0.14631048384E+04  0.15347944556E+04  0.21204830188E+04  0.12699999809E+01 0. -1.
</event>
<event>
 5   0  0.2580875E-06  0.3344604E+04  0.7818609E-02  0.8151638E-01
       -3   -1    0    0    0  501  0.00000000000E+00  0.00000000000E+00  0.13144843700E+04  0.13144843739E+04  0.10100000352E+00 0. -1.
        3   -1    0    0  501    0  0.00000000000E+00  0.00000000000E+00 -0.21275221959E+04  0.21275221983E+04  0.10100000352E+00 0.  1.
    10030    2    1    2    0    0  0.00000000000E+00  0.00000000000E+00 -0.81303782590E+03  0.34420065723E+04  0.33446044216E+04 0.  0.
        1    1    3    3  502    0  0.12185392764E+04 -0.11210587307E+04 -0.16520339356E+03  0.16640020454E+04  0.50400001928E-02 0. -1.
       -1    1    3    3    0  502 -0.12185392764E+04  0.11210587307E+04 -0.64783443234E+03  0.17780045269E+04  0.50400001928E-02 0.  1.
</event>
<event>
 5   0  0.7971763E-06  0.3192659E+04  0.7818609E-02  0.8190759E-01
       -2   -1    0    0    0  501  0.00000000000E+00  0.00000000000E+00  0.80904077514E+03  0.80904077515E+03  0.25500000920E-02 0. -1.
        2   -1    0    0  501    0  0.00000000000E+00  0.00000000000E+00 -0.31497388925E+04  0.31497388925E+04  0.25500000920E-02 0.  1.
    10030    2    1    2    0    0  0.00000000000E+00  0.00000000000E+00 -0.23406981174E+04  0.39587796677E+04  0.31926585756E+04 0.  0.
        1    1    3    3  502    0  0.31619903882E+03  0.13580431071E+04 -0.20667789743E+03  0.14096023078E+04  0.50400001928E-02 0. -1.
       -1    1    3    3    0  502 -0.31619903882E+03 -0.13580431071E+04 -0.21340202200E+04  0.25491773599E+04  0.50400001928E-02 0.  1.
</event>
<event>
 5   0  0.2788054E-06  0.3219312E+04  0.7818609E-02  0.8183735E-01
        1   -1    0    0  501    0  0.00000000000E+00  0.00000000000E+00  0.17941615728E+04  0.17941615728E+04  0.50400001928E-02 0. -1.
       -1   -1    0    0    0  501  0.00000000000E+00  0.00000000000E+00 -0.14441246261E+04  0.14441246261E+04  0.50400001928E-02 0.  1.
    10030    2    1    2    0    0  0.00000000000E+00  0.00000000000E+00  0.35003694671E+03  0.32382861989E+04  0.32193122933E+04 0.  0.
        3    1    3    3  502    0  0.11023601446E+04  0.18617501028E+03  0.13399172455E+04  0.17450608178E+04  0.10100000352E+00 0.  1.
       -3    1    3    3    0  502 -0.11023601446E+04 -0.18617501028E+03 -0.98988029876E+03  0.14932253811E+04  0.10100000352E+00 0. -1.
</event>
<event>
 5   0  0.2580875E-06  0.3115759E+04  0.7818609E-02  0.8211426E-01
        3   -1    0    0  501    0  0.00000000000E+00  0.00000000000E+00  0.24108016046E+04  0.24108016067E+04  0.10100000352E+00 0. -1.
       -3   -1    0    0    0  501  0.00000000000E+00  0.00000000000E+00 -0.10067142809E+04  0.10067142860E+04  0.10100000352E+00 0.  1.
    10030    2    1    2    0    0  0.00000000000E+00  0.00000000000E+00  0.14040873237E+04  0.34175158927E+04  0.31157589227E+04 0.  0.
        3    1    3    3  502    0 -0.13314985368E+04  0.44666622436E+03 -0.37487225360E+02  0.14049214825E+04  0.10100000352E+00 0.  1.
       -3    1    3    3    0  502  0.13314985368E+04 -0.44666622436E+03  0.14415745491E+04  0.20125944103E+04  0.10100000352E+00 0. -1.
</event>
<event>
 5   0  0.2933646E-06  0.3232281E+04  0.7818609E-02  0.8180343E-01
        1   -1    0    0  501    0  0.00000000000E+00  0.00000000000E+00  0.10288375960E+04  0.10288375960E+04  0.50400001928E-02 0. -1.
       -1   -1    0    0    0  501  0.00000000000E+00  0.00000000000E+00 -0.25387007757E+04  0.25387007757E+04  0.50400001928E-02 0.  1.
    10030    2    1    2    0    0  0.00000000000E+00  0.00000000000E+00 -0.15098631798E+04  0.35675383717E+04  0.32322814252E+04 0.  0.
        2    1    3    3  502    0 -0.40978782772E+03  0.37958556081E+03 -0.24287715042E+04  0.24921762139E+04  0.25500000920E-02 0.  1.
       -2    1    3    3    0  502  0.40978782772E+03 -0.37958556081E+03  0.91890832440E+03  0.10753621578E+04  0.25500000920E-02 0. -1.
</event>
<event>
 5   0  0.8237664E-06  0.3085963E+04  0.7818609E-02  0.8219601E-01
        2   -1    0    0  501    0  0.00000000000E+00  0.00000000000E+00  0.23198680470E+04  0.23198680470E+04  0.25500000920E-02 0.  1.
       -2   -1    0    0    0  501  0.00000000000E+00  0.00000000000E+00 -0.10262618909E+04  0.10262618909E+04  0.25500000920E-02 0. -1.
    10030    2    1    2    0    0  0.00000000000E+00  0.00000000000E+00  0.12936061561E+04  0.33461299379E+04  0.30859631680E+04 0.  0.
        5    1    3    3  502    0 -0.71794718068E+03  0.11174014358E+04 -0.20473034226E+03  0.13438641025E+04  0.46999998093E+01 0. -1.
       -5    1    3    3    0  502  0.71794718068E+03 -0.11174014358E+04  0.14983364984E+04  0.20022658353E+04  0.46999998093E+01 0.  1.
</event>
<event>
 5   0  0.7941434E-06  0.3086126E+04  0.7818609E-02  0.8219556E-01
       -2   -1    0    0    0  501  0.00000000000E+00  0.00000000000E+00  0.12388061004E+04  0.12388061004E+04  0.25500000920E-02 0.  1.
        2   -1    0    0  501    0  0.00000000000E+00  0.00000000000E+00 -0.19220466455E+04  0.19220466455E+04  0.25500000920E-02 0. -1.
    10030    2    1    2    0    0  0.00000000000E+00  0.00000000000E+00 -0.68324054505E+03  0.31608527459E+04  0.30861257976E+04 0.  0.
        4    1    3    3  502    0 -0.23773770906E+03  0.67780529374E+03  0.10571357305E+04  0.12780754282E+04  0.12699999809E+01 0.  1.
       -4    1    3    3    0  502  0.23773770906E+03 -0.67780529374E+03 -0.17403762756E+04  0.18827773177E+04  0.12699999809E+01 0. -1.
</event>
<event>
 5   0  0.2635798E-06  0.2583520E+04  0.7818609E-02  0.8373821E-01
       -1   -1    0    0    0  501  0.00000000000E+00  0.00000000000E+00  0.14188706505E+04  0.14188706505E+04  0.50400001928E-02 0. -1.
        1   -1    0    0  501    0  0.00000000000E+00  0.00000000000E+00 -0.11760368681E+04  0.11760368681E+04  0.50400001928E-02 0.  1.
    10030    2    1    2    0    0  0.00000000000E+00  0.00000000000E+00  0.24283378245E+03  0.25949075186E+04  0.25835202311E+04 0.  0.
        1    1    3    3  502    0 -0.63013065744E+03 -0.79713853306E+03 -0.67968855509E+03  0.12224855902E+04  0.50400001928E-02 0.  1.
       -1    1    3    3    0  502  0.63013065744E+03  0.79713853306E+03  0.92252233754E+03  0.13724219284E+04  0.50400001928E-02 0. -1.
</event>
<event>
 5   0  0.8237664E-06  0.2043677E+04  0.7818609E-02  0.8586468E-01
       -2   -1    0    0    0  501  0.00000000000E+00  0.00000000000E+00  0.93125427729E+03  0.93125427729E+03  0.25500000920E-02 0.  1.
        2   -1    0    0  501    0  0.00000000000E+00  0.00000000000E+00 -0.11212342612E+04  0.11212342612E+04  0.25500000920E-02 0. -1.
    10030    2    1    2    0    0  0.00000000000E+00  0.00000000000E+00 -0.18997998394E+03  0.20524885385E+04  0.20436772755E+04 0.  0.
        5    1    3    3  502    0  0.67135258878E+03  0.65159818423E+03  0.31768013807E+03  0.98804719132E+03  0.46999998093E+01 0.  1.
       -5    1    3    3    0  502 -0.67135258878E+03 -0.65159818423E+03 -0.50766012201E+03  0.10644413472E+04  0.46999998093E+01 0. -1.
</event>
<event>
 5   0  0.4142886E-06  0.3384992E+04  0.7818609E-02  0.8141600E-01
       -1   -1    0    0    0  501  0.00000000000E+00  0.00000000000E+00  0.16935857889E+04  0.16935857889E+04  0.50400001928E-02 0. -1.
        1   -1    0    0  501    0  0.00000000000E+00  0.00000000000E+00 -0.16914068818E+04  0.16914068818E+04  0.50400001928E-02 0.  1.
    10030    2    1    2    0    0  0.00000000000E+00  0.00000000000E+00  0.21789071238E+01  0.33849926707E+04  0.33849919694E+04 0.  0.
        5    1    3    3  502    0  0.64746369605E+02 -0.17617646343E+03 -0.16809603382E+04  0.16914136062E+04  0.46999998093E+01 0.  1.
       -5    1    3    3    0  502 -0.64746369605E+02  0.17617646343E+03  0.16831392453E+04  0.16935790645E+04  0.46999998093E+01 0. -1.
</event>
<event>
 5   0  0.7510251E-06  0.3146694E+04  0.7818609E-02  0.8203039E-01
       -2   -1    0    0    0  501  0.00000000000E+00  0.00000000000E+00  0.20163699495E+04  0.20163699495E+04  0.25500000920E-02 0. -1.
        2   -1    0    0  501    0  0.00000000000E+00  0.00000000000E+00 -0.12276617677E+04  0.12276617677E+04  0.25500000920E-02 0.  1.
    10030    2    1    2    0    0  0.00000000000E+00  0.00000000000E+00  0.78870818179E+03  0.32440317171E+04  0.31466936911E+04 0.  0.
        3    1    3    3  502    0  0.93787851048E+03  0.90283298260E+03  0.13052564346E+04  0.18434798250E+04  0.10100000352E+00 0. -1.
       -3    1    3    3    0  502 -0.93787851048E+03 -0.90283298260E+03 -0.51654825282E+03  0.14005518921E+04  0.10100000352E+00 0.  1.
</event>
<event>
 5   0  0.8237664E-06  0.3310253E+04  0.7818609E-02  0.8160291E-01
       -2   -1    0    0    0  501  0.00000000000E+00  0.00000000000E+00  0.18810832708E+04  0.18810832708E+04  0.25500000920E-02 0. -1.
        2   -1    0    0  501    0  0.00000000000E+00  0.00000000000E+00 -0.14563117067E+04  0.14563117068E+04  0.25500000920E-02 0.  1.
    10030    2    1    2    0    0  0.00000000000E+00  0.00000000000E+00  0.42477156407E+03  0.33373949776E+04  0.33102529140E+04 0.  0.
        5    1    3    3  502    0  0.14750671065E+04 -0.19075107274E+03 -0.51966179046E+03  0.15755251210E+04  0.46999998093E+01 0.  1.
       -5    1    3    3    0  502 -0.14750671065E+04  0.19075107274E+03  0.94443335453E+03  0.17618698566E+04  0.46999998093E+01 0. -1.
</event>
<event>
 5   0  0.3938696E-06  0.3194941E+04  0.7818609E-02  0.8190155E-01
       -1   -1    0    0    0  501  0.00000000000E+00  0.00000000000E+00  0.12726416059E+04  0.12726416059E+04  0.50400001928E-02 0. -1.
        1   -1    0    0  501    0  0.00000000000E+00  0.00000000000E+00 -0.20052083114E+04  0.20052083114E+04  0.50400001928E-02 0.  1.
    10030    2    1    2    0    0  0.00000000000E+00  0.00000000000E+00 -0.73256670553E+03  0.32778499173E+04  0.31949407040E+04 0.  0.
        4    1    3    3  502    0  0.69518789996E+03  0.48508530683E+03 -0.17554198434E+04  0.19493830846E+04  0.12699999809E+01 0.  1.
       -4    1    3    3    0  502 -0.69518789996E+03 -0.48508530683E+03  0.10228531378E+04  0.13284668327E+04  0.12699999809E+01 0. -1.
</event>
<event>
 5   0  0.7510251E-06  0.3005463E+04  0.7818609E-02  0.8242173E-01
        2   -1    0    0  501    0  0.00000000000E+00  0.00000000000E+00  0.18996130615E+04  0.18996130615E+04  0.25500000920E-02 0. -1.
       -2   -1    0    0    0  501  0.00000000000E+00  0.00000000000E+00 -0.11887692442E+04  0.11887692442E+04  0.25500000920E-02 0.  1.
    10030    2    1    2    0    0  0.00000000000E+00  0.00000000000E+00  0.71084381730E+03  0.30883823057E+04  0.30054627486E+04 0.  0.
        3    1    3    3  502    0 -0.96979030389E+03  0.79074149439E+03  0.12105075175E+04  0.17410036774E+04  0.10100000352E+00 0. -1.
       -3    1    3    3    0  502  0.96979030389E+03 -0.79074149439E+03 -0.49966370020E+03  0.13473786283E+04  0.10100000352E+00 0.  1.
</event>
<event>
 5   0  0.7952307E-06  0.2861717E+04  0.7818609E-02  0.8284360E-01
       -2   -1    0    0    0  501  0.00000000000E+00  0.00000000000E+00  0.12990412206E+04  0.12990412206E+04  0.25500000920E-02 0.  1.
        2   -1    0    0  501    0  0.00000000000E+00  0.00000000000E+00 -0.15760516077E+04  0.15760516077E+04  0.25500000920E-02 0. -1.
    10030    2    1    2    0    0  0.00000000000E+00  0.00000000000E+00 -0.27701038710E+03  0.28750928284E+04  0.28617169702E+04 0.  0.
        2    1    3    3  502    0  0.82098989668E+03 -0.72513440325E+03  0.78640175326E+03  0.13484331762E+04  0.25500000920E-02 0.  1.
       -2    1    3    3    0  502 -0.82098989668E+03  0.72513440325E+03 -0.10634121404E+04  0.15266596521E+04  0.25500000920E-02 0. -1.
</event>
<event>
 5   0  0.7941434E-06  0.3219948E+04  0.7818609E-02  0.8183569E-01
        2   -1    0    0  501    0  0.00000000000E+00  0.00000000000E+00  0.26721312341E+04  0.26721312341E+04  0.25500000920E-02 0.  1.
       -2   -1    0    0    0  501  0.00000000000E+00  0.00000000000E+00 -0.97001818544E+03  0.97001818544E+03  0.25500000920E-02 0. -1.
    10030    2    1    2    0    0  0.00000000000E+00  0.00000000000E+00  0.17021130487E+04  0.36421494196E+04  0.32199477580E+04 0.  0.
        4    1    3    3  502    0  0.49158862415E+03 -0.51620727086E+03  0.24839046911E+04  0.25841659098E+04  0.12699999809E+01 0.  1.
       -4    1    3    3    0  502 -0.49158862415E+03  0.51620727086E+03 -0.78179164243E+03  0.10579835098E+04  0.12699999809E+01 0. -1.
</event>
<event>
 5   0  0.8237664E-06  0.2993360E+04  0.7818609E-02  0.8245630E-01
        2   -1    0    0  501    0  0.00000000000E+00  0.00000000000E+00  0.17637780652E+04  0.17637780652E+04  0.25500000920E-02 0.  1.
       -2   -1    0    0    0  501  0.00000000000E+00  0.00000000000E+00 -0.12700295908E+04  0.12700295908E+04  0.25500000920E-02 0. -1.
    10030    2    1    2    0    0  0.00000000000E+00  0.00000000000E+00  0.49374847447E+03  0.30338076560E+04  0.29933595403E+04 0.  0.
        5    1    3    3  502    0  0.10270312980E+04 -0.82576195409E+03  0.96593422631E+03  0.16339299591E+04  0.46999998093E+01 0.  1.
       -5    1    3    3    0  502 -0.10270312980E+04  0.82576195409E+03 -0.47218575184E+03  0.13998776968E+04  0.46999998093E+01 0. -1.
</event>
<event>
 5   0  0.7971763E-06  0.3164710E+04  0.7818609E-02  0.8198200E-01
       -2   -1    0    0    0  501  0.00000000000E+00  0.00000000000E+00  0.24903880231E+04  0.24903880231E+04  0.25500000920E-02 0. -1.
        2   -1    0    0  501    0  0.00000000000E+00  0.00000000000E+00 -0.10054043884E+04  0.10054043885E+04  0.25500000920E-02 0.  1.
    10030    2    1    2    0    0  0.00000000000E+00  0.00000000000E+00  0.14849836346E+04  0.34957924115E+04  0.31647098112E+04 0.  0.
        1    1    3    3  502    0 -0.75548089822E+03 -0.15970597509E+03  0.22681393880E+04  0.23959786454E+04  0.50400001928E-02 0. -1.
       -1    1    3    3    0  502  0.75548089822E+03  0.15970597509E+03 -0.78315575335E+03  0.10998137661E+04  0.50400001928E-02 0.  1.
</event>
<event>
 5   0  0.7971763E-06  0.3254526E+04  0.7818609E-02  0.8174564E-01
        2   -1    0    0  501    0  0.00000000000E+00  0.00000000000E+00  0.79968560235E+03  0.79968560235E+03  0.25500000920E-02 0. -1.
       -2   -1    0    0    0  501  0.00000000000E+00  0.00000000000E+00 -0.33112826648E+04  0.33112826648E+04  0.25500000920E-02 0.  1.
    10030    2    1    2    0    0  0.00000000000E+00  0.00000000000E+00 -0.25115970625E+04  0.41109682672E+04  0.32545261236E+04 0.  0.
        1    1    3    3  502    0 -0.72049621468E+03  0.77875092496E+03 -0.28143574116E+04  0.30076860605E+04  0.50400001928E-02 0.  1.
       -1    1    3    3    0  502  0.72049621468E+03 -0.77875092496E+03  0.30276034911E+03  0.11032822066E+04  0.50400001928E-02 0. -1.
</event>
<event>
 5   0  0.2635798E-06  0.3216614E+04  0.7818609E-02  0.8184443E-01
       -1   -1    0    0    0  501  0.00000000000E+00  0.00000000000E+00  0.12953259822E+04  0.12953259822E+04  0.50400001928E-02 0. -1.
        1   -1    0    0  501    0  0.00000000000E+00  0.00000000000E+00 -0.19969116311E+04  0.19969116311E+04  0.50400001928E-02 0.  1.
    10030    2    1    2    0    0  0.00000000000E+00  0.00000000000E+00 -0.70158564890E+03  0.32922376133E+04  0.32166140706E+04 0.  0.
        1    1    3    3  502    0  0.10837865483E+04  0.39228819129E+03 -0.14988448503E+04  0.18907721155E+04  0.50400001928E-02 0.  1.
       -1    1    3    3    0  502 -0.10837865483E+04 -0.39228819129E+03  0.79725920145E+03  0.14014654978E+04  0.50400001928E-02 0. -1.
</event>
<event>
 5   0  0.2933646E-06  0.3132537E+04  0.7818609E-02  0.8206865E-01
       -1   -1    0    0    0  501  0.00000000000E+00  0.00000000000E+00  0.16171342029E+04  0.16171342029E+04  0.50400001928E-02 0. -1.
        1   -1    0    0  501    0  0.00000000000E+00  0.00000000000E+00 -0.15170025472E+04  0.15170025472E+04  0.50400001928E-02 0.  1.
    10030    2    1    2    0    0  0.00000000000E+00  0.00000000000E+00  0.10013165568E+03  0.31341367500E+04  0.31325368026E+04 0.  0.
        2    1    3    3  502    0  0.69219114530E+03 -0.13134543273E+04 -0.44909364200E+03  0.15511208692E+04  0.25500000920E-02 0.  1.
       -2    1    3    3    0  502 -0.69219114530E+03  0.13134543273E+04  0.54922529768E+03  0.15830158809E+04  0.25500000920E-02 0. -1.
</event>
<event>
 5   0  0.7971763E-06  0.3131537E+04  0.7818609E-02  0.8207136E-01
        2   -1    0    0  501    0  0.00000000000E+00  0.00000000000E+00  0.14427412300E+04  0.14427412300E+04  0.25500000920E-02 0.  1.
       -2   -1    0    0    0  501  0.00000000000E+00  0.00000000000E+00 -0.16992867520E+04  0.16992867520E+04  0.25500000920E-02 0. -1.
    10030    2    1    2    0    0  0.00000000000E+00  0.00000000000E+00 -0.25654552197E+03  0.31420279820E+04  0.31315370403E+04 0.  0.
        1    1    3    3  502    0 -0.44398836907E+03  0.62544465983E+02  0.13769508878E+04  0.14481129892E+04  0.50400001928E-02 0.  1.
       -1    1    3    3    0  502  0.44398836907E+03 -0.62544465983E+02 -0.16334964097E+04  0.16939149928E+04  0.50400001928E-02 0. -1.
</event>
<event>
 5   0  0.4142886E-06  0.3223898E+04  0.7818609E-02  0.8182534E-01
       -1   -1    0    0    0  501  0.00000000000E+00  0.00000000000E+00  0.28241477892E+04  0.28241477892E+04  0.50400001928E-02 0. -1.
        1   -1    0    0  501    0  0.00000000000E+00  0.00000000000E+00 -0.92005775734E+03  0.92005775735E+03  0.50400001928E-02 0.  1.
    10030    2    1    2    0    0  0.00000000000E+00  0.00000000000E+00  0.19040900319E+04  0.37442055466E+04  0.32238976915E+04 0.  0.
        5    1    3    3  502    0 -0.10552064214E+04 -0.10478449462E+04  0.16744613279E+04  0.22394826303E+04  0.46999998093E+01 0. -1.
       -5    1    3    3    0  502  0.10552064214E+04  0.10478449462E+04  0.22962870402E+03  0.15047229163E+04  0.46999998093E+01 0.  1.
</event>
<event>
 5   0  0.8237664E-06  0.3102156E+04  0.7818609E-02  0.8215146E-01
        2   -1    0    0  501    0  0.00000000000E+00  0.00000000000E+00  0.18903218203E+04  0.18903218203E+04  0.25500000920E-02 0.  1.
       -2   -1    0    0    0  501  0.00000000000E+00  0.00000000000E+00 -0.12727163062E+04  0.12727163062E+04  0.25500000920E-02 0. -1.
    10030    2    1    2    0    0  0.00000000000E+00  0.00000000000E+00  0.61760551420E+03  0.31630381265E+04  0.31021562853E+04 0.  0.
        5    1    3    3  502    0  0.13173826531E+04 -0.14277673472E+03 -0.51320719110E+03  0.14210158203E+04  0.46999998093E+01 0. -1.
       -5    1    3    3    0  502 -0.13173826531E+04  0.14277673472E+03  0.11308127053E+04  0.17420223062E+04  0.46999998093E+01 0.  1.
</event>
<event>
 5   0  0.2788054E-06  0.2711861E+04  0.7818609E-02  0.8331167E-01
       -1   -1    0    0    0  501  0.00000000000E+00  0.00000000000E+00  0.13242061319E+04  0.13242061319E+04  0.50400001928E-02 0. -1.
        1   -1    0    0  501    0  0.00000000000E+00  0.00000000000E+00 -0.13884145869E+04  0.13884145869E+04  0.50400001928E-02 0.  1.
    10030    2    1    2    0    0  0.00000000000E+00  0.00000000000E+00 -0.64208454978E+02  0.27126207188E+04  0.27118606967E+04 0.  0.
        3    1    3    3  502    0 -0.95307740362E+03  0.47912882036E+03 -0.86937294392E+03  0.13761287329E+04  0.10100000352E+00 0.  1.
       -3    1    3    3    0  502  0.95307740362E+03 -0.47912882036E+03  0.80516448894E+03  0.13364919859E+04  0.10100000352E+00 0. -1.
</event>
<event>
 5   0  0.7952307E-06  0.3162183E+04  0.7818609E-02  0.8198877E-01
        2   -1    0    0  501    0  0.00000000000E+00  0.00000000000E+00  0.21976988805E+04  0.21976988805E+04  0.25500000920E-02 0.  1.
       -2   -1    0    0    0  501  0.00000000000E+00  0.00000000000E+00 -0.11374854606E+04  0.11374854606E+04  0.25500000920E-02 0. -1.
    10030    2    1    2    0    0  0.00000000000E+00  0.00000000000E+00  0.10602134198E+04  0.33351843411E+04  0.31621831214E+04 0.  0.
        2    1    3    3  502    0 -0.41640105073E+03  0.10905551342E+04 -0.59460635625E+03  0.13100599431E+04  0.25500000920E-02 0. -1.
       -2    1    3    3    0  502  0.41640105073E+03 -0.10905551342E+04  0.16548197761E+04  0.20251243979E+04  0.25500000920E-02 0.  1.
</event>
<event>
 5   0  0.3938696E-06  0.2545360E+04  0.7818609E-02  0.8387002E-01
        1   -1    0    0  501    0  0.00000000000E+00  0.00000000000E+00  0.17269038774E+04  0.17269038774E+04  0.50400001928E-02 0.  1.
       -1   -1    0    0    0  501  0.00000000000E+00  0.00000000000E+00 -0.93793003357E+03  0.93793003358E+03  0.50400001928E-02 0. -1.
    10030    2    1    2    0    0  0.00000000000E+00  0.00000000000E+00  0.78897384380E+03  0.26648339110E+04  0.25453604945E+04 0.  0.
        4    1    3    3  502    0  0.11702371104E+04  0.27804399171E+03  0.82987966276E+03  0.14613231072E+04  0.12699999809E+01 0.  1.
       -4    1    3    3    0  502 -0.11702371104E+04 -0.27804399171E+03 -0.40905818962E+02  0.12035108038E+04  0.12699999809E+01 0. -1.
</event>
<event>
 5   0  0.2788054E-06  0.3300324E+04  0.7818609E-02  0.8162813E-01
        1   -1    0    0  501    0  0.00000000000E+00  0.00000000000E+00  0.16586414324E+04  0.16586414324E+04  0.50400001928E-02 0. -1.
       -1   -1    0    0    0  501  0.00000000000E+00  0.00000000000E+00 -0.16417254784E+04  0.16417254784E+04  0.50400001928E-02 0.  1.
    10030    2    1    2    0    0  0.00000000000E+00  0.00000000000E+00  0.16915954010E+02  0.33003669108E+04  0.33003235594E+04 0.  0.
        3    1    3    3  502    0 -0.44870098092E+03 -0.10840953734E+04 -0.11519186483E+04  0.16442359720E+04  0.10100000352E+00 0.  1.
       -3    1    3    3    0  502  0.44870098092E+03  0.10840953734E+04  0.11688346023E+04  0.16561309389E+04  0.10100000352E+00 0. -1.
</event>
<event>
 5   0  0.2933646E-06  0.1640500E+04  0.7818609E-02  0.8796046E-01
       -1   -1    0    0    0  501  0.00000000000E+00  0.00000000000E+00  0.90958484412E+03  0.90958484414E+03  0.50400001928E-02 0. -1.
        1   -1    0    0  501    0  0.00000000000E+00  0.00000000000E+00 -0.73968913276E+03  0.73968913278E+03  0.50400001928E-02 0.  1.
    10030    2    1    2    0    0  0.00000000000E+00  0.00000000000E+00  0.16989571136E+03  0.16492739769E+04  0.16404999537E+04 0.  0.
        2    1    3    3  502    0 -0.68778744774E+03  0.17575973143E+00  0.53428170023E+03  0.87092395728E+03  0.25500000920E-02 0. -1.
       -2    1    3    3    0  502  0.68778744774E+03 -0.17575973143E+00 -0.36438598887E+03  0.77835001963E+03  0.25500000920E-02 0.  1.
</event>
<event>
 5   0  0.7510251E-06  0.2738946E+04  0.7818609E-02  0.8322478E-01
        2   -1    0    0  501    0  0.00000000000E+00  0.00000000000E+00  0.17613636872E+04  0.17613636872E+04  0.25500000920E-02 0.  1.
       -2   -1    0    0    0  501  0.00000000000E+00  0.00000000000E+00 -0.10647753693E+04  0.10647753693E+04  0.25500000920E-02 0. -1.
    10030    2    1    2    0    0  0.00000000000E+00  0.00000000000E+00  0.69658831794E+03  0.28261390565E+04  0.27389462722E+04 0.  0.
        3    1    3    3  502    0  0.36231859952E+03 -0.12776243407E+04  0.69339293274E+03  0.14981296649E+04  0.10100000352E+00 0.  1.
       -3    1    3    3    0  502 -0.36231859952E+03  0.12776243407E+04  0.31953852086E+01  0.13280093916E+04  0.10100000352E+00 0. -1.
</event>
<event>
 5   0  0.7971763E-06  0.3344391E+04  0.7818609E-02  0.8151691E-01
        2   -1    0    0  501    0  0.00000000000E+00  0.00000000000E+00  0.15950723404E+04  0.15950723404E+04  0.25500000920E-02 0.  1.
       -2   -1    0    0    0  501  0.00000000000E+00  0.00000000000E+00 -0.17530475102E+04  0.17530475102E+04  0.25500000920E-02 0. -1.
    10030    2    1    2    0    0  0.00000000000E+00  0.00000000000E+00 -0.15797516982E+03  0.33481198505E+04  0.33443908831E+04 0.  0.
        1    1    3    3  502    0 -0.69613694657E+03 -0.97346757512E+03 -0.12481903906E+04  0.17292267114E+04  0.50400001928E-02 0. -1.
       -1    1    3    3    0  502  0.69613694657E+03  0.97346757512E+03  0.10902152208E+04  0.16188931391E+04  0.50400001928E-02 0.  1.
</event>
<event>
 5   0  0.2933646E-06  0.3177499E+04  0.7818609E-02  0.8194785E-01
       -1   -1    0    0    0  501  0.00000000000E+00  0.00000000000E+00  0.17039582585E+04  0.17039582585E+04  0.50400001928E-02 0. -1.
        1   -1    0    0  501    0  0.00000000000E+00  0.00000000000E+00 -0.14813300160E+04  0.14813300160E+04  0.50400001928E-02 0.  1.
    10030    2    1    2    0    0  0.00000000000E+00  0.00000000000E+00  0.22262824248E+03  0.31852882746E+04  0.31774987109E+04 0.  0.
        2    1    3    3  502    0 -0.12676238763E+04 -0.26799799628E+03  0.10330415687E+04  0.16570661123E+04  0.25500000920E-02 0. -1.
       -2    1    3    3    0  502  0.12676238763E+04  0.26799799628E+03 -0.81041332626E+03  0.15282221623E+04  0.25500000920E-02 0.  1.
</event>
<event>
 5   0  0.3938696E-06  0.2430679E+04  0.7818609E-02  0.8428106E-01
       -1   -1    0    0    0  501  0.00000000000E+00  0.00000000000E+00  0.75321667329E+03  0.75321667331E+03  0.50400001928E-02 0. -1.
        1   -1    0    0  501    0  0.00000000000E+00  0.00000000000E+00 -0.19609892429E+04  0.19609892430E+04  0.50400001928E-02 0.  1.
    10030    2    1    2    0    0  0.00000000000E+00  0.00000000000E+00 -0.12077725697E+04  0.27142059163E+04  0.24306787480E+04 0.  0.
        4    1    3    3  502    0  0.16750249575E+03 -0.10583546863E+04 -0.12442572299E+04  0.16420564531E+04  0.12699999809E+01 0.  1.
       -4    1    3    3    0  502 -0.16750249575E+03  0.10583546863E+04  0.36484660248E+02  0.10721494632E+04  0.12699999809E+01 0. -1.
</event>
<event>
 5   0  0.2788054E-06  0.3230718E+04  0.7818609E-02  0.8180752E-01
       -1   -1    0    0    0  501  0.00000000000E+00  0.00000000000E+00  0.10131731574E+04  0.10131731575E+04  0.50400001928E-02 0. -1.
        1   -1    0    0  501    0  0.00000000000E+00  0.00000000000E+00 -0.25754571169E+04  0.25754571169E+04  0.50400001928E-02 0.  1.
    10030    2    1    2    0    0  0.00000000000E+00  0.00000000000E+00 -0.15622839594E+04  0.35886302744E+04  0.32307175791E+04 0.  0.
        3    1    3    3  502    0 -0.89900430550E+03 -0.11790969534E+04 -0.69107910678E+02  0.14843363097E+04  0.10100000352E+00 0. -1.
       -3    1    3    3    0  502  0.89900430550E+03  0.11790969534E+04 -0.14931760488E+04  0.21042939646E+04  0.10100000352E+00 0.  1.
</event>
<event>
 5   0  0.2635798E-06  0.1737375E+04  0.7818609E-02  0.8740331E-01
        1   -1    0    0  501    0  0.00000000000E+00  0.00000000000E+00  0.20425400169E+04  0.20425400169E+04  0.50400001928E-02 0.  1.
       -1   -1    0    0    0  501  0.00000000000E+00  0.00000000000E+00 -0.36945072999E+03  0.36945073002E+03  0.50400001928E-02 0. -1.
    10030    2    1    2    0    0  0.00000000000E+00  0.00000000000E+00  0.16730892869E+04  0.24119907469E+04  0.17373749167E+04 0.  0.
        1    1    3    3  502    0  0.76336644669E+03 -0.51931649328E+02  0.26549631443E+03  0.80988488141E+03  0.50400001928E-02 0. -1.
       -1    1    3    3    0  502 -0.76336644669E+03  0.51931649328E+02  0.14075929725E+04  0.16021058655E+04  0.50400001928E-02 0.  1.
</event>
<event>
 5   0  0.7952307E-06  0.3422794E+04  0.7818609E-02  0.8132335E-01
        2   -1    0    0  501    0  0.00000000000E+00  0.00000000000E+00  0.12392498689E+04  0.12392498689E+04  0.25500000920E-02 0.  1.
       -2   -1    0    0    0  501  0.00000000000E+00  0.00000000000E+00 -0.23634291339E+04  0.23634291339E+04  0.25500000920E-02 0. -1.
    10030    2    1    2    0    0  0.00000000000E+00  0.00000000000E+00 -0.11241792650E+04  0.36026790028E+04  0.34227937386E+04 0.  0.
        2    1    3    3  502    0  0.16333202964E+04 -0.62293626522E+02 -0.10959577371E+04  0.19679276023E+04  0.25500000920E-02 0. -1.
       -2    1    3    3    0  502 -0.16333202964E+04  0.62293626522E+02 -0.28221527950E+02  0.16347514004E+04  0.25500000920E-02 0.  1.
</event>
<event>
 5   0  0.7971763E-06  0.3222997E+04  0.7818609E-02  0.8182770E-01
       -2   -1    0    0    0  501  0.00000000000E+00  0.00000000000E+00  0.19430476646E+04  0.19430476646E+04  0.25500000920E-02 0.  1.
        2   -1    0    0  501    0  0.00000000000E+00  0.00000000000E+00 -0.13365231446E+04  0.13365231446E+04  0.25500000920E-02 0. -1.
    10030    2    1    2    0    0  0.00000000000E+00  0.00000000000E+00  0.60652452005E+03  0.32795708092E+04  0.32229974711E+04 0.  0.
        1    1    3    3  502    0  0.15284680076E+04  0.39518793396E+03 -0.25739904137E+02  0.15789396747E+04  0.50400001928E-02 0. -1.
       -1    1    3    3    0  502 -0.15284680076E+04 -0.39518793396E+03  0.63226442419E+03  0.17006311345E+04  0.50400001928E-02 0.  1.
</event>
<event>
 5   0  0.2635798E-06  0.3287416E+04  0.7818609E-02  0.8166105E-01
       -1   -1    0    0    0  501  0.00000000000E+00  0.00000000000E+00  0.12516707764E+04  0.12516707764E+04  0.50400001928E-02 0. -1.
        1   -1    0    0  501    0  0.00000000000E+00  0.00000000000E+00 -0.21585356183E+04  0.21585356183E+04  0.50400001928E-02 0.  1.
    10030    2    1    2    0    0  0.00000000000E+00  0.00000000000E+00 -0.90686484185E+03  0.34102063947E+04  0.32874159781E+04 0.  0.
        1    1    3    3  502    0 -0.64355706218E+03 -0.14210174739E+03  0.11086060865E+04  0.12897154935E+04  0.50400001928E-02 0. -1.
       -1    1    3    3    0  502  0.64355706218E+03  0.14210174739E+03 -0.20154709284E+04  0.21204909012E+04  0.50400001928E-02 0.  1.
</event>
<event>
 5   0  0.7952307E-06  0.2978904E+04  0.7818609E-02  0.8249781E-01
        2   -1    0    0  501    0  0.00000000000E+00  0.00000000000E+00  0.17302706828E+04  0.17302706828E+04  0.25500000920E-02 0.  1.
       -2   -1    0    0    0  501  0.00000000000E+00  0.00000000000E+00 -0.12821501071E+04  0.12821501071E+04  0.25500000920E-02 0. -1.
    10030    2    1    2    0    0  0.00000000000E+00  0.00000000000E+00  0.44812057577E+03  0.30124207899E+04  0.29789036515E+04 0.  0.
        2    1    3    3  502    0 -0.30565813051E+03  0.14453541099E+04  0.41590870555E+03  0.15347493108E+04  0.25500000920E-02 0. -1.
       -2    1    3    3    0  502  0.30565813051E+03 -0.14453541099E+04  0.32211870221E+02  0.14776714791E+04  0.25500000920E-02 0.  1.
</event>
<event>
 5   0  0.2788054E-06  0.1979417E+04  0.7818609E-02  0.8616305E-01
       -1   -1    0    0    0  501  0.00000000000E+00  0.00000000000E+00  0.21272956229E+04  0.21272956229E+04  0.50400001928E-02 0. -1.
        1   -1    0    0  501    0  0.00000000000E+00  0.00000000000E+00 -0.46045457700E+03  0.46045457703E+03  0.50400001928E-02 0.  1.
    10030    2    1    2    0    0  0.00000000000E+00  0.00000000000E+00  0.16668410459E+04  0.25877502000E+04  0.19794170922E+04 0.  0.
        3    1    3    3  502    0  0.68579495451E+03 -0.47448684164E+03  0.15302044321E+04  0.17426927718E+04  0.10100000352E+00 0.  1.
       -3    1    3    3    0  502 -0.68579495451E+03  0.47448684164E+03  0.13663661381E+03  0.84505742820E+03  0.10100000352E+00 0. -1.
</event>
<event>
 5   0  0.7971763E-06  0.3228315E+04  0.7818609E-02  0.8181379E-01
        2   -1    0    0  501    0  0.00000000000E+00  0.00000000000E+00  0.23879668271E+04  0.23879668271E+04  0.25500000920E-02 0. -1.
       -2   -1    0    0    0  501  0.00000000000E+00  0.00000000000E+00 -0.10910975699E+04  0.10910975699E+04  0.25500000920E-02 0.  1.
    10030    2    1    2    0    0  0.00000000000E+00  0.00000000000E+00  0.12968692572E+04  0.34790643971E+04  0.32283152276E+04 0.  0.
        1    1    3    3  502    0 -0.10685774758E+04 -0.78314610715E+03  0.16421913244E+04  0.21099687185E+04  0.50400001928E-02 0. -1.
       -1    1    3    3    0  502  0.10685774758E+04  0.78314610715E+03 -0.34532206725E+03  0.13690956786E+04  0.50400001928E-02 0.  1.
</event>
<event>
 5   0  0.2788054E-06  0.2981395E+04  0.7818609E-02  0.8249064E-01
        1   -1    0    0  501    0  0.00000000000E+00  0.00000000000E+00  0.21197160657E+04  0.21197160657E+04  0.50400001928E-02 0.  1.
       -1   -1    0    0    0  501  0.00000000000E+00  0.00000000000E+00 -0.10483383858E+04  0.10483383858E+04  0.50400001928E-02 0. -1.
    10030    2    1    2    0    0  0.00000000000E+00  0.00000000000E+00  0.10713776799E+04  0.31680544515E+04  0.29813954576E+04 0.  0.
        3    1    3    3  502    0 -0.13890565982E+04 -0.39357774768E+03  0.93014120064E+03  0.17174237508E+04  0.10100000352E+00 0.  1.
       -3    1    3    3    0  502  0.13890565982E+04  0.39357774768E+03  0.14123647924E+03  0.14506307007E+04  0.10100000352E+00 0. -1.
</event>
<event>
 5   0  0.8237664E-06  0.2799962E+04  0.7818609E-02  0.8303280E-01
       -2   -1    0    0    0  501  0.00000000000E+00  0.00000000000E+00  0.12519410581E+04  0.12519410581E+04  0.25500000920E-02 0. -1.
        2   -1    0    0  501    0  0.00000000000E+00  0.00000000000E+00 -0.15655262176E+04  0.15655262176E+04  0.25500000920E-02 0.  1.
    10030    2    1    2    0    0  0.00000000000E+00  0.00000000000E+00 -0.31358515946E+03  0.28174672757E+04  0.27999618207E+04 0.  0.
        5    1    3    3  502    0 -0.51786442778E+03 -0.33619676675E+03  0.11075312177E+04  0.12680139273E+04  0.46999998093E+01 0. -1.
       -5    1    3    3    0  502  0.51786442778E+03  0.33619676675E+03 -0.14211163772E+04  0.15494533485E+04  0.46999998093E+01 0.  1.
</event>
<event>
 5   0  0.7971763E-06  0.3028505E+04  0.7818609E-02  0.8235638E-01
        2   -1    0    0  501    0  0.00000000000E+00  0.00000000000E+00  0.14297149071E+04  0.14297149071E+04  0.25500000920E-02 0. -1.
       -2   -1    0    0    0  501  0.00000000000E+00  0.00000000000E+00 -0.16037883083E+04  0.16037883083E+04  0.25500000920E-02 0.  1.
    10030    2    1    2    0    0  0.00000000000E+00  0.00000000000E+00 -0.17407340124E+03  0.30335032154E+04  0.30285046160E+04 0.  0.
        1    1    3    3  502    0  0.10317909028E+04 -0.10981853987E+04 -0.23680410455E+03  0.15253458038E+04  0.50400001928E-02 0.  1.
       -1    1    3    3    0  502 -0.10317909028E+04  0.10981853987E+04  0.62730703302E+02  0.15081574116E+04  0.50400001928E-02 0. -1.
</event>
<event>
 5   0  0.2933646E-06  0.2113116E+04  0.7818609E-02  0.8555488E-01
       -1   -1    0    0    0  501  0.00000000000E+00  0.00000000000E+00  0.13659839609E+04  0.13659839609E+04  0.50400001928E-02 0.  1.
        1   -1    0    0  501    0  0.00000000000E+00  0.00000000000E+00 -0.81722364878E+03  0.81722364879E+03  0.50400001928E-02 0. -1.
    10030    2    1    2    0    0  0.00000000000E+00  0.00000000000E+00  0.54876031210E+03  0.21832076097E+04  0.21131156113E+04 0.  0.
        2    1    3    3  502    0 -0.73330727964E+03  0.31877868368E+03  0.98790725584E+03  0.12709524624E+04  0.25500000920E-02 0.  1.
       -2    1    3    3    0  502  0.73330727964E+03 -0.31877868368E+03 -0.43914694374E+03  0.91225514728E+03  0.25500000920E-02 0. -1.
</event>
<event>
 5   0  0.7952307E-06  0.3171310E+04  0.7818609E-02  0.8196435E-01
       -2   -1    0    0    0  501  0.00000000000E+00  0.00000000000E+00  0.15161710737E+04  0.15161710737E+04  0.25500000920E-02 0.  1.
        2   -1    0    0  501    0  0.00000000000E+00  0.00000000000E+00 -0.16583235595E+04  0.16583235595E+04  0.25500000920E-02 0. -1.
    10030    2    1    2    0    0  0.00000000000E+00  0.00000000000E+00 -0.14215248582E+03  0.31744946332E+04  0.31713102729E+04 0.  0.
        2    1    3    3  502    0 -0.45163143742E+03  0.49665417290E+03 -0.15090652156E+04  0.16516398359E+04  0.25500000920E-02 0. -1.
       -2    1    3    3    0  502  0.45163143742E+03 -0.49665417290E+03  0.13669127297E+04  0.15228547972E+04  0.25500000920E-02 0.  1.
</event>
<event>
 5   0  0.7971763E-06  0.2877904E+04  0.7818609E-02  0.8279482E-01
        2   -1    0    0  501    0  0.00000000000E+00  0.00000000000E+00  0.16545470116E+04  0.16545470116E+04  0.25500000920E-02 0. -1.
       -2   -1    0    0    0  501  0.00000000000E+00  0.00000000000E+00 -0.12514495669E+04  0.12514495669E+04  0.25500000920E-02 0.  1.
    10030    2    1    2    0    0  0.00000000000E+00  0.00000000000E+00  0.40309744466E+03  0.29059965785E+04  0.28779035016E+04 0.  0.
        1    1    3    3  502    0 -0.12730470753E+04 -0.64930117046E+03  0.37154075410E+03  0.14765782735E+04  0.50400001928E-02 0. -1.
       -1    1    3    3    0  502  0.12730470753E+04  0.64930117046E+03  0.31556690556E+02  0.14294183050E+04  0.50400001928E-02 0.  1.
</event>
<event>
 5   0  0.2933646E-06  0.1704658E+04  0.7818609E-02  0.8758712E-01
        1   -1    0    0  501    0  0.00000000000E+00  0.00000000000E+00  0.68542247929E+03  0.68542247931E+03  0.50400001928E-02 0. -1.
       -1   -1    0    0    0  501  0.00000000000E+00  0.00000000000E+00 -0.10598782980E+04  0.10598782980E+04  0.50400001928E-02 0.  1.
    10030    2    1    2    0    0  0.00000000000E+00  0.00000000000E+00 -0.37445581874E+03  0.17453007773E+04  0.17046576323E+04 0.  0.
        2    1    3    3  502    0 -0.61037652351E+03 -0.46421969476E+03 -0.56812616317E+03  0.95437244445E+03  0.25500000920E-02 0.  1.
       -2    1    3    3    0  502  0.61037652351E+03  0.46421969476E+03  0.19367034443E+03  0.79092833289E+03  0.25500000920E-02 0. -1.
</event>
<event>
 5   0  0.3938696E-06  0.3222700E+04  0.7818609E-02  0.8182848E-01
        1   -1    0    0  501    0  0.00000000000E+00  0.00000000000E+00  0.33564858674E+04  0.33564858674E+04  0.50400001928E-02 0. -1.
       -1   -1    0    0    0  501  0.00000000000E+00  0.00000000000E+00 -0.77356155115E+03  0.77356155117E+03  0.50400001928E-02 0.  1.
    10030    2    1    2    0    0  0.00000000000E+00  0.00000000000E+00  0.25829243163E+04  0.41300474186E+04  0.32226997465E+04 0.  0.
        4    1    3    3  502    0  0.92349954623E+02  0.49458003457E+03  0.32532406187E+04  0.32919164724E+04  0.12699999809E+01 0. -1.
       -4    1    3    3    0  502 -0.92349954623E+02 -0.49458003457E+03 -0.67031630249E+03  0.83813094621E+03  0.12699999809E+01 0.  1.
</event>
<event>
 5   0  0.8237664E-06  0.3263544E+04  0.7818609E-02  0.8172234E-01
        2   -1    0    0  501    0  0.00000000000E+00  0.00000000000E+00  0.15260464714E+04  0.15260464714E+04  0.25500000920E-02 0. -1.
       -2   -1    0    0    0  501  0.00000000000E+00  0.00000000000E+00 -0.17448227177E+04  0.17448227177E+04  0.25500000920E-02 0.  1.
    10030    2    1    2    0    0  0.00000000000E+00  0.00000000000E+00 -0.21877624628E+03  0.32708691891E+04  0.32635444238E+04 0.  0.
        5    1    3    3  502    0  0.89897254521E+03  0.45833330509E+03 -0.13946224625E+04  0.17213991281E+04  0.46999998093E+01 0.  1.
       -5    1    3    3    0  502 -0.89897254521E+03 -0.45833330509E+03  0.11758462162E+04  0.15494700609E+04  0.46999998093E+01 0. -1.
</event>
<event>
 5   0  0.4142886E-06  0.2912244E+04  0.7818609E-02  0.8269244E-01
       -1   -1    0    0    0  501  0.00000000000E+00  0.00000000000E+00  0.12467140063E+04  0.12467140063E+04  0.50400001928E-02 0. -1.
        1   -1    0    0  501    0  0.00000000000E+00  0.00000000000E+00 -0.17007036963E+04  0.17007036963E+04  0.50400001928E-02 0.  1.
    10030    2    1    2    0    0  0.00000000000E+00  0.00000000000E+00 -0.45398968999E+03  0.29474177026E+04  0.29122438900E+04 0.  0.
        5    1    3    3  502    0  0.57213340646E+03 -0.70854181361E+03 -0.13768956959E+04  0.16508276663E+04  0.46999998093E+01 0.  1.
       -5    1    3    3    0  502 -0.57213340646E+03  0.70854181361E+03  0.92290600592E+03  0.12965900363E+04  0.46999998093E+01 0. -1.
</event>
<event>
 5   0  0.2788054E-06  0.3169192E+04  0.7818609E-02  0.8197001E-01
       -1   -1    0    0    0  501  0.00000000000E+00  0.00000000000E+00  0.10137329566E+04  0.10137329566E+04  0.50400001928E-02 0.  1.
        1   -1    0    0  501    0  0.00000000000E+00  0.00000000000E+00 -0.24769289746E+04  0.24769289746E+04  0.50400001928E-02 0. -1.
    10030    2    1    2    0    0  0.00000000000E+00  0.00000000000E+00 -0.14631960180E+04  0.34906619312E+04  0.31691920313E+04 0.  0.
        3    1    3    3  502    0 -0.13133014536E+04  0.86148286488E+03 -0.50047725618E+03  0.16484510695E+04  0.10100000352E+00 0.  1.
       -3    1    3    3    0  502  0.13133014536E+04 -0.86148286488E+03 -0.96271876178E+03  0.18422108617E+04  0.10100000352E+00 0. -1.
</event>
<event>
 5   0  0.7510251E-06  0.1717263E+04  0.7818609E-02  0.8751580E-01
        2   -1    0    0  501    0  0.00000000000E+00  0.00000000000E+00  0.19609725745E+04  0.19609725745E+04  0.25500000920E-02 0. -1.
       -2   -1    0    0    0  501  0.00000000000E+00  0.00000000000E+00 -0.37596033381E+03  0.37596033382E+03  0.25500000920E-02 0.  1.
    10030    2    1    2    0    0  0.00000000000E+00  0.00000000000E+00  0.15850122407E+04  0.23369329084E+04  0.17172628264E+04 0.  0.
        3    1    3    3  502    0 -0.42531799795E+03  0.29532642443E+03  0.17245970870E+04  0.18006521649E+04  0.10100000352E+00 0. -1.
       -3    1    3    3    0  502  0.42531799795E+03 -0.29532642443E+03 -0.13958484622E+03  0.53628074349E+03  0.10100000352E+00 0.  1.
</event>
<event>
 5   0  0.8237664E-06  0.3167222E+04  0.7818609E-02  0.8197528E-01
        2   -1    0    0  501    0  0.00000000000E+00  0.00000000000E+00  0.17914005054E+04  0.17914005054E+04  0.25500000920E-02 0. -1.
       -2   -1    0    0    0  501  0.00000000000E+00  0.00000000000E+00 -0.13999238686E+04  0.13999238686E+04  0.25500000920E-02 0.  1.
    10030    2    1    2    0    0  0.00000000000E+00  0.00000000000E+00  0.39147663684E+03  0.31913243740E+04  0.31672223324E+04 0.  0.
        5    1    3    3  502    0 -0.59256113746E+03  0.14225574292E+04  0.56321059289E+03  0.16407396512E+04  0.46999998093E+01 0. -1.
       -5    1    3    3    0  502  0.59256113746E+03 -0.14225574292E+04 -0.17173395605E+03  0.15505847228E+04  0.46999998093E+01 0.  1.
</event>
<event>
 5   0  0.2580875E-06  0.3210420E+04  0.7818609E-02  0.8186071E-01
       -3   -1    0    0    0  501  0.00000000000E+00  0.00000000000E+00  0.15465690640E+04  0.15465690673E+04  0.10100000352E+00 0.  1.
        3   -1    0    0  501    0  0.00000000000E+00  0.00000000000E+00 -0.16660747122E+04  0.16660747153E+04  0.10100000352E+00 0. -1.
    10030    2    1    2    0    0  0.00000000000E+00  0.00000000000E+00 -0.11950564819E+03  0.32126437826E+04  0.32104202955E+04 0.  0.
        5    1    3    3  502    0 -0.28520399857E+03 -0.76600388006E+03 -0.14422212239E+04  0.16577476930E+04  0.46999998093E+01 0. -1.
       -5    1    3    3    0  502  0.28520399857E+03  0.76600388006E+03  0.13227155757E+04  0.15548960896E+04  0.46999998093E+01 0.  1.
</event>
<event>
 5   0  0.2933646E-06  0.1968336E+04  0.7818609E-02  0.8621569E-01
       -1   -1    0    0    0  501  0.00000000000E+00  0.00000000000E+00  0.50030230706E+03  0.50030230708E+03  0.50400001928E-02 0. -1.
        1   -1    0    0  501    0  0.00000000000E+00  0.00000000000E+00 -0.19360023659E+04  0.19360023659E+04  0.50400001928E-02 0.  1.
    10030    2    1    2    0    0  0.00000000000E+00  0.00000000000E+00 -0.14357000588E+04  0.24363046730E+04  0.19683357947E+04 0.  0.
        2    1    3    3  502    0  0.24076072043E+03  0.41531026393E+03  0.34556115148E+03  0.59149036276E+03  0.25500000920E-02 0. -1.
       -2    1    3    3    0  502 -0.24076072043E+03 -0.41531026393E+03 -0.17812612103E+04  0.18448143102E+04  0.25500000920E-02 0.  1.
</event>
<event>
 5   0  0.7941434E-06  0.2212096E+04  0.7818609E-02  0.8513410E-01
        2   -1    0    0  501    0  0.00000000000E+00  0.00000000000E+00  0.13471455934E+04  0.13471455934E+04  0.25500000920E-02 0.  1.
       -2   -1    0    0    0  501  0.00000000000E+00  0.00000000000E+00 -0.90809968590E+03  0.90809968591E+03  0.25500000920E-02 0. -1.
    10030    2    1    2    0    0  0.00000000000E+00  0.00000000000E+00  0.43904590752E+03  0.22552452793E+04  0.22120962821E+04 0.  0.
        4    1    3    3  502    0  0.72063145936E+02  0.88841867826E+03  0.88717094041E+03  0.12575987974E+04  0.12699999809E+01 0.  1.
       -4    1    3    3    0  502 -0.72063145936E+02 -0.88841867826E+03 -0.44812503288E+03  0.99764648191E+03  0.12699999809E+01 0. -1.
</event>
<event>
 5   0  0.8237664E-06  0.3210359E+04  0.7818609E-02  0.8186087E-01
       -2   -1    0    0    0  501  0.00000000000E+00  0.00000000000E+00  0.12182232253E+04  0.12182232253E+04  0.25500000920E-02 0.  1.
        2   -1    0    0  501    0  0.00000000000E+00  0.00000000000E+00 -0.21150485265E+04  0.21150485265E+04  0.25500000920E-02 0. -1.
    10030    2    1    2    0    0  0.00000000000E+00  0.00000000000E+00 -0.89682530121E+03  0.33332717518E+04  0.32103590065E+04 0.  0.
        5    1    3    3  502    0  0.13507290867E+03 -0.16434681855E+03  0.12035150616E+04  0.12221804944E+04  0.46999998093E+01 0.  1.
       -5    1    3    3    0  502 -0.13507290867E+03  0.16434681855E+03 -0.21003403628E+04  0.21110912574E+04  0.46999998093E+01 0. -1.
</event>
<event>
 5   0  0.2635798E-06  0.1713903E+04  0.7818609E-02  0.8753474E-01
        1   -1    0    0  501    0  0.00000000000E+00  0.00000000000E+00  0.42529905406E+03  0.42529905409E+03  0.50400001928E-02 0. -1.
       -1   -1    0    0    0  501  0.00000000000E+00  0.00000000000E+00 -0.17267045914E+04  0.17267045914E+04  0.50400001928E-02 0.  1.
    10030    2    1    2    0    0  0.00000000000E+00  0.00000000000E+00 -0.13014055373E+04  0.21520036455E+04  0.17139029487E+04 0.  0.
        1    1    3    3  502    0  0.16374255567E+03  0.62372159153E+03  0.57942570482E+02  0.64745470094E+03  0.50400001928E-02 0. -1.
       -1    1    3    3    0  502 -0.16374255567E+03 -0.62372159153E+03 -0.13593481078E+04  0.15045489445E+04  0.50400001928E-02 0.  1.
</event>
<event>
 5   0  0.7952307E-06  0.1650471E+04  0.7818609E-02  0.8790128E-01
        2   -1    0    0  501    0  0.00000000000E+00  0.00000000000E+00  0.18874288581E+04  0.18874288581E+04  0.25500000920E-02 0.  1.
       -2   -1    0    0    0  501  0.00000000000E+00  0.00000000000E+00 -0.36081556463E+03  0.36081556464E+03  0.25500000920E-02 0. -1.
    10030    2    1    2    0    0  0.00000000000E+00  0.00000000000E+00  0.15266132935E+04  0.22482444228E+04  0.16504710954E+04 0.  0.
        2    1    3    3  502    0  0.67886428663E+03 -0.32667579527E+03  0.30451178372E+03  0.81258920822E+03  0.25500000920E-02 0. -1.
       -2    1    3    3    0  502 -0.67886428663E+03  0.32667579527E+03  0.12221015098E+04  0.14356552146E+04  0.25500000920E-02 0.  1.
</event>
<event>
 5   0  0.2933646E-06  0.1712262E+04  0.7818609E-02  0.8754401E-01
       -1   -1    0    0    0  501  0.00000000000E+00  0.00000000000E+00  0.66555917812E+03  0.66555917814E+03  0.50400001928E-02 0.  1.
        1   -1    0    0  501    0  0.00000000000E+00  0.00000000000E+00 -0.11012702206E+04  0.11012702206E+04  0.50400001928E-02 0. -1.
    10030    2    1    2    0    0  0.00000000000E+00  0.00000000000E+00 -0.43571104243E+03  0.17668293987E+04  0.17122622497E+04 0.  0.
        2    1    3    3  502    0  0.37417061892E+03  0.43823042391E+03 -0.87120912699E+03  0.10445357339E+04  0.25500000920E-02 0. -1.
       -2    1    3    3    0  502 -0.37417061892E+03 -0.43823042391E+03  0.43549808455E+03  0.72229366477E+03  0.25500000920E-02 0.  1.
</event>
<event>
 5   0  0.7971763E-06  0.3291906E+04  0.7818609E-02  0.8164958E-01
       -2   -1    0    0    0  501  0.00000000000E+00  0.00000000000E+00  0.24371937133E+04  0.24371937133E+04  0.25500000920E-02 0. -1.
        2   -1    0    0  501    0  0.00000000000E+00  0.00000000000E+00 -0.11115906761E+04  0.11115906761E+04  0.25500000920E-02 0.  1.
    10030    2    1    2    0    0  0.00000000000E+00  0.00000000000E+00  0.13256030372E+04  0.35487843893E+04  0.32919063215E+04 0.  0.
        1    1    3    3  502    0 -0.41567740612E+03  0.13739379236E+04 -0.20544612220E+03  0.14500693890E+04  0.50400001928E-02 0.  1.
       -1    1    3    3    0  502  0.41567740612E+03 -0.13739379236E+04  0.15310491594E+04  0.20987150003E+04  0.50400001928E-02 0. -1.
</event>
<event>
 5   0  0.2788054E-06  0.2867659E+04  0.7818609E-02  0.8282565E-01
        1   -1    0    0  501    0  0.00000000000E+00  0.00000000000E+00  0.10088626770E+04  0.10088626770E+04  0.50400001928E-02 0. -1.
       -1   -1    0    0    0  501  0.00000000000E+00  0.00000000000E+00 -0.20378072863E+04  0.20378072864E+04  0.50400001928E-02 0.  1.
    10030    2    1    2    0    0  0.00000000000E+00  0.00000000000E+00 -0.10289446094E+04  0.30466699633E+04  0.28676594736E+04 0.  0.
        3    1    3    3  502    0  0.35094673247E+03 -0.12513277669E+04 -0.11579916038E+04  0.17406692259E+04  0.10100000352E+00 0.  1.
       -3    1    3    3    0  502 -0.35094673247E+03  0.12513277669E+04  0.12904699440E+03  0.13060007375E+04  0.10100000352E+00 0. -1.
</event>
<event>
 5   0  0.2788054E-06  0.2186062E+04  0.7818609E-02  0.8524252E-01
       -1   -1    0    0    0  501  0.00000000000E+00  0.00000000000E+00  0.87924918676E+03  0.87924918678E+03  0.50400001928E-02 0.  1.
        1   -1    0    0  501    0  0.00000000000E+00  0.00000000000E+00 -0.13587923594E+04  0.13587923594E+04  0.50400001928E-02 0. -1.
    10030    2    1    2    0    0  0.00000000000E+00  0.00000000000E+00 -0.47954317266E+03  0.22380415462E+04  0.21860622837E+04 0.  0.
        3    1    3    3  502    0  0.97055836379E+02  0.10886161907E+04 -0.22486442528E+03  0.11158266290E+04  0.10100000352E+00 0. -1.
       -3    1    3    3    0  502 -0.97055836379E+02 -0.10886161907E+04 -0.25467874738E+03  0.11222149173E+04  0.10100000352E+00 0.  1.
</event>
<event>
 5   0  0.7941434E-06  0.2977152E+04  0.7818609E-02  0.8250286E-01
        2   -1    0    0  501    0  0.00000000000E+00  0.00000000000E+00  0.14801477049E+04  0.14801477049E+04  0.25500000920E-02 0. -1.
       -2   -1    0    0    0  501  0.00000000000E+00  0.00000000000E+00 -0.14970522779E+04  0.14970522779E+04  0.25500000920E-02 0.  1.
    10030    2    1    2    0    0  0.00000000000E+00  0.00000000000E+00 -0.16904572928E+02  0.29771999828E+04  0.29771519902E+04 0.  0.
        4    1    3    3  502    0 -0.51274229456E+02  0.91189439345E+03 -0.11839185749E+04  0.14952743014E+04  0.12699999809E+01 0.  1.
       -4    1    3    3    0  502  0.51274229456E+02 -0.91189439345E+03  0.11670140020E+04  0.14819256814E+04  0.12699999809E+01 0. -1.
</event>
<event>
 5   0  0.7971763E-06  0.2820893E+04  0.7818609E-02  0.8296811E-01
       -2   -1    0    0    0  501  0.00000000000E+00  0.00000000000E+00  0.11925253657E+04  0.11925253657E+04  0.25500000920E-02 0.  1.
        2   -1    0    0  501    0  0.00000000000E+00  0.00000000000E+00 -0.16681904283E+04  0.16681904283E+04  0.25500000920E-02 0. -1.
    10030    2    1    2    0    0  0.00000000000E+00  0.00000000000E+00 -0.47566506257E+03  0.28607157940E+04  0.28208930505E+04 0.  0.
        1    1    3    3  502    0 -0.47007306243E+03  0.13067830573E+04  0.12037266864E+02  0.13888108361E+04  0.50400001928E-02 0. -1.
       -1    1    3    3    0  502  0.47007306243E+03 -0.13067830573E+04 -0.48770232943E+03  0.14719049578E+04  0.50400001928E-02 0.  1.
</event>
<event>
 5   0  0.2933646E-06  0.1970384E+04  0.7818609E-02  0.8620594E-01
        1   -1    0    0  501    0  0.00000000000E+00  0.00000000000E+00  0.11989441776E+04  0.11989441776E+04  0.50400001928E-02 0. -1.
       -1   -1    0    0    0  501  0.00000000000E+00  0.00000000000E+00 -0.80954839569E+03  0.80954839571E+03  0.50400001928E-02 0.  1.
    10030    2    1    2    0    0  0.00000000000E+00  0.00000000000E+00  0.38939578192E+03  0.20084925733E+04  0.19703840596E+04 0.  0.
        2    1    3    3  502    0 -0.31870234099E+03 -0.29248675625E+03  0.10969633130E+04  0.11791726738E+04  0.25500000920E-02 0. -1.
       -2    1    3    3    0  502  0.31870234099E+03  0.29248675625E+03 -0.70756753104E+03  0.82931989951E+03  0.25500000920E-02 0.  1.
</event>
<event>
 5   0  0.2635798E-06  0.3199739E+04  0.7818609E-02  0.8188886E-01
        1   -1    0    0  501    0  0.00000000000E+00  0.00000000000E+00  0.16872223357E+04  0.16872223357E+04  0.50400001928E-02 0. -1.
       -1   -1    0    0    0  501  0.00000000000E+00  0.00000000000E+00 -0.15170392236E+04  0.15170392236E+04  0.50400001928E-02 0.  1.
    10030    2    1    2    0    0  0.00000000000E+00  0.00000000000E+00  0.17018311211E+03  0.32042615593E+04  0.31997390282E+04 0.  0.
        1    1    3    3  502    0 -0.11490339798E+03  0.46254118259E+03  0.16144814156E+04  0.16833589569E+04  0.50400001928E-02 0. -1.
       -1    1    3    3    0  502  0.11490339798E+03 -0.46254118259E+03 -0.14442983035E+04  0.15209026024E+04  0.50400001928E-02 0.  1.
</event>
<event>
 5   0  0.2580875E-06  0.3181479E+04  0.7818609E-02  0.8193726E-01
       -3   -1    0    0    0  501  0.00000000000E+00  0.00000000000E+00  0.17083793737E+04  0.17083793767E+04  0.10100000352E+00 0. -1.
        3   -1    0    0  501    0  0.00000000000E+00  0.00000000000E+00 -0.14811999558E+04  0.14811999592E+04  0.10100000352E+00 0.  1.
    10030    2    1    2    0    0  0.00000000000E+00  0.00000000000E+00  0.22717941795E+03  0.31895793360E+04  0.31814785639E+04 0.  0.
        1    1    3    3  502    0  0.11882119574E+04  0.83460112574E+03 -0.53771417521E+03  0.15484002160E+04  0.50400001928E-02 0.  1.
       -1    1    3    3    0  502 -0.11882119574E+04 -0.83460112574E+03  0.76489359316E+03  0.16411791199E+04  0.50400001928E-02 0. -1.
</event>
<event>
 5   0  0.7952307E-06  0.2863410E+04  0.7818609E-02  0.8283848E-01
        2   -1    0    0  501    0  0.00000000000E+00  0.00000000000E+00  0.23434578195E+04  0.23434578195E+04  0.25500000920E-02 0. -1.
       -2   -1    0    0    0  501  0.00000000000E+00  0.00000000000E+00 -0.87468126175E+03  0.87468126175E+03  0.25500000920E-02 0.  1.
    10030    2    1    2    0    0  0.00000000000E+00  0.00000000000E+00  0.14687765578E+04  0.32181390813E+04  0.28634096057E+04 0.  0.
        2    1    3    3  502    0 -0.81540354433E+03 -0.16151530803E+03 -0.57569969691E+03  0.10111381092E+04  0.25500000920E-02 0. -1.
       -2    1    3    3    0  502  0.81540354433E+03  0.16151530803E+03  0.20444762547E+04  0.22070009721E+04  0.25500000920E-02 0.  1.
</event>
<event>
 5   0  0.2635798E-06  0.2968121E+04  0.7818609E-02  0.8252893E-01
       -1   -1    0    0    0  501  0.00000000000E+00  0.00000000000E+00  0.10303150378E+04  0.10303150378E+04  0.50400001928E-02 0. -1.
        1   -1    0    0  501    0  0.00000000000E+00  0.00000000000E+00 -0.21376330333E+04  0.21376330333E+04  0.50400001928E-02 0.  1.
    10030    2    1    2    0    0  0.00000000000E+00  0.00000000000E+00 -0.11073179955E+04  0.31679480712E+04  0.29681209272E+04 0.  0.
        1    1    3    3  502    0  0.13139112100E+04  0.38381059973E+03  0.58321259799E+02  0.13700637262E+04  0.50400001928E-02 0.  1.
       -1    1    3    3    0  502 -0.13139112100E+04 -0.38381059973E+03 -0.11656392553E+04  0.17978843450E+04  0.50400001928E-02 0. -1.
</event>
<event>
 5   0  0.8237664E-06  0.3180825E+04  0.7818609E-02  0.8193900E-01
        2   -1    0    0  501    0  0.00000000000E+00  0.00000000000E+00  0.14236789096E+04  0.14236789096E+04  0.25500000920E-02 0. -1.
       -2   -1    0    0    0  501  0.00000000000E+00  0.00000000000E+00 -0.17766732928E+04  0.17766732928E+04  0.25500000920E-02 0.  1.
    10030    2    1    2    0    0  0.00000000000E+00  0.00000000000E+00 -0.35299438324E+03  0.32003522024E+04  0.31808252364E+04 0.  0.
        5    1    3    3  502    0  0.10194081149E+03  0.10135548164E+04 -0.14053487568E+04  0.17357167145E+04  0.46999998093E+01 0.  1.
       -5    1    3    3    0  502 -0.10194081149E+03 -0.10135548164E+04  0.10523543735E+04  0.14646354879E+04  0.46999998093E+01 0. -1.
</event>
<event>
 5   0  0.2580875E-06  0.3296648E+04  0.7818609E-02  0.8163749E-01
        3   -1    0    0  501    0  0.00000000000E+00  0.00000000000E+00  0.15223666323E+04  0.15223666356E+04  0.10100000352E+00 0.  1.
       -3   -1    0    0    0  501  0.00000000000E+00  0.00000000000E+00 -0.17847024961E+04  0.17847024990E+04  0.10100000352E+00 0. -1.
    10030    2    1    2    0    0  0.00000000000E+00  0.00000000000E+00 -0.26233586386E+03  0.33070691346E+04  0.32966477148E+04 0.  0.
        1    1    3    3  502    0 -0.25428755052E+03 -0.88007936048E+03  0.12434813110E+04  0.15444894334E+04  0.50400001928E-02 0.  1.
       -1    1    3    3    0  502  0.25428755052E+03  0.88007936048E+03 -0.15058171748E+04  0.17625797012E+04  0.50400001928E-02 0. -1.
</event>
<event>
 5   0  0.2635798E-06  0.3184825E+04  0.7818609E-02  0.8192836E-01
       -1   -1    0    0    0  501  0.00000000000E+00  0.00000000000E+00  0.94354356101E+03  0.94354356103E+03  0.50400001928E-02 0. -1.
        1   -1    0    0  501    0  0.00000000000E+00  0.00000000000E+00 -0.26875045462E+04  0.26875045462E+04  0.50400001928E-02 0.  1.
    10030    2    1    2    0    0  0.00000000000E+00  0.00000000000E+00 -0.17439609852E+04  0.36310481072E+04  0.31848250249E+04 0.  0.
        1    1    3    3  502    0  0.12570376908E+04  0.47267562500E+03  0.10360364510E+03  0.13469594343E+04  0.50400001928E-02 0. -1.
       -1    1    3    3    0  502 -0.12570376908E+04 -0.47267562500E+03 -0.18475646303E+04  0.22840886729E+04  0.50400001928E-02 0.  1.
</event>
<event>
 5   0  0.7952307E-06  0.3046233E+04  0.7818609E-02  0.8230651E-01
       -2   -1    0    0    0  501  0.00000000000E+00  0.00000000000E+00  0.84451520402E+03  0.84451520402E+03  0.25500000920E-02 0.  1.
        2   -1    0    0  501    0  0.00000000000E+00  0.00000000000E+00 -0.27470012129E+04  0.27470012129E+04  0.25500000920E-02 0. -1.
    10030    2    1    2    0    0  0.00000000000E+00  0.00000000000E+00 -0.19024860089E+04  0.35915164170E+04  0.30462332739E+04 0.  0.
        2    1    3    3  502    0 -0.70527834401E+03 -0.12859990520E+04 -0.14354574281E+04  0.20522546460E+04  0.25500000920E-02 0. -1.
       -2    1    3    3    0  502  0.70527834401E+03  0.12859990520E+04 -0.46702858087E+03  0.15392617710E+04  0.25500000920E-02 0.  1.
</event>
<event>
 5   0  0.7971763E-06  0.3164916E+04  0.7818609E-02  0.8198145E-01
        2   -1    0    0  501    0  0.00000000000E+00  0.00000000000E+00  0.26242262158E+04  0.26242262158E+04  0.25500000920E-02 0. -1.
       -2   -1    0    0    0  501  0.00000000000E+00  0.00000000000E+00 -0.95425188570E+03  0.95425188570E+03  0.25500000920E-02 0.  1.
    10030    2    1    2    0    0  0.00000000000E+00  0.00000000000E+00  0.16699743301E+04  0.35784781015E+04  0.31649156797E+04 0.  0.
        1    1    3    3  502    0  0.12112347106E+04  0.94038784831E+03  0.39307852288E+03  0.15830128094E+04  0.50400001928E-02 0.  1.
       -1    1    3    3    0  502 -0.12112347106E+04 -0.94038784831E+03  0.12768958072E+04  0.19954652921E+04  0.50400001928E-02 0. -1.
</event>
<event>
 5   0  0.2860856E-06  0.1776946E+04  0.7818609E-02  0.8718656E-01
       -1   -1    0    0    0  501  0.00000000000E+00  0.00000000000E+00  0.76899809714E+03  0.76899809716E+03  0.50400001928E-02 0. -1.
        1   -1    0    0  501    0  0.00000000000E+00  0.00000000000E+00 -0.10265105487E+04  0.10265105487E+04  0.50400001928E-02 0.  1.
    10030    2    1    2    0    0  0.00000000000E+00  0.00000000000E+00 -0.25751245157E+03  0.17955086459E+04  0.17769464355E+04 0.  0.
        1    1    3    3  502    0  0.33664233656E+03 -0.11699522981E+02 -0.95948780854E+03  0.10168981249E+04  0.50400001928E-02 0.  1.
       -1    1    3    3    0  502 -0.33664233656E+03  0.11699522981E+02  0.70197535697E+03  0.77861052101E+03  0.50400001928E-02 0. -1.
</event>
<event>
 5   0  0.2933646E-06  0.3239270E+04  0.7818609E-02  0.8178522E-01
       -1   -1    0    0    0  501  0.00000000000E+00  0.00000000000E+00  0.13767780137E+04  0.13767780137E+04  0.50400001928E-02 0. -1.
        1   -1    0    0  501    0  0.00000000000E+00  0.00000000000E+00 -0.19053313212E+04  0.19053313212E+04  0.50400001928E-02 0.  1.
    10030    2    1    2    0    0  0.00000000000E+00  0.00000000000E+00 -0.52855330747E+03  0.32821093349E+04  0.32392704560E+04 0.  0.
        2    1    3    3  502    0  0.13916220188E+04  0.50166491311E+03  0.40394398023E+03  0.15334439238E+04  0.25500000920E-02 0. -1.
       -2    1    3    3    0  502 -0.13916220188E+04 -0.50166491311E+03 -0.93249728771E+03  0.17486654111E+04  0.25500000920E-02 0.  1.
</event>
<event>
 5   0  0.7941434E-06  0.2422157E+04  0.7818609E-02  0.8431255E-01
        2   -1    0    0  501    0  0.00000000000E+00  0.00000000000E+00  0.10157818460E+04  0.10157818460E+04  0.25500000920E-02 0. -1.
       -2   -1    0    0    0  501  0.00000000000E+00  0.00000000000E+00 -0.14439234332E+04  0.14439234332E+04  0.25500000920E-02 0.  1.
    10030    2    1    2    0    0  0.00000000000E+00  0.00000000000E+00 -0.42814158721E+03  0.24597052793E+04  0.24221570639E+04 0.  0.
        4    1    3    3  502    0 -0.27887630337E+03  0.53182947367E+03 -0.12820849016E+04  0.14157534706E+04  0.12699999809E+01 0.  1.
       -4    1    3    3    0  502  0.27887630337E+03 -0.53182947367E+03  0.85394331443E+03  0.10439518087E+04  0.12699999809E+01 0. -1.
</event>
<event>
 5   0  0.7952307E-06  0.3251516E+04  0.7818609E-02  0.8175343E-01
       -2   -1    0    0    0  501  0.00000000000E+00  0.00000000000E+00  0.11547617143E+04  0.11547617143E+04  0.25500000920E-02 0.  1.
        2   -1    0    0  501    0  0.00000000000E+00  0.00000000000E+00 -0.22888612553E+04  0.22888612553E+04  0.25500000920E-02 0. -1.
    10030    2    1    2    0    0  0.00000000000E+00  0.00000000000E+00 -0.11340995410E+04  0.34436229696E+04  0.32515161676E+04 0.  0.
        2    1    3    3  502    0 -0.25675372196E+03 -0.59878296300E+03 -0.21445582823E+04  0.22413374884E+04  0.25500000920E-02 0. -1.
       -2    1    3    3    0  502  0.25675372196E+03  0.59878296300E+03  0.10104587413E+04  0.12022854812E+04  0.25500000920E-02 0.  1.
</event>
<event>
 5   0  0.7941434E-06  0.1685664E+04  0.7818609E-02  0.8769583E-01
       -2   -1    0    0    0  501  0.00000000000E+00  0.00000000000E+00  0.54047269906E+03  0.54047269906E+03  0.25500000920E-02 0.  1.
        2   -1    0    0  501    0  0.00000000000E+00  0.00000000000E+00 -0.13143412931E+04  0.13143412931E+04  0.25500000920E-02 0. -1.
    10030    2    1    2    0    0  0.00000000000E+00  0.00000000000E+00 -0.77386859407E+03  0.18548139922E+04  0.16856637698E+04 0.  0.
        4    1    3    3  502    0  0.63427930317E+03 -0.45323749620E+03 -0.73943950726E+03  0.10744798091E+04  0.12699999809E+01 0. -1.
       -4    1    3    3    0  502 -0.63427930317E+03  0.45323749620E+03 -0.34429086818E+02  0.78033418309E+03  0.12699999809E+01 0.  1.
</event>
<event>
 5   0  0.2933646E-06  0.3144504E+04  0.7818609E-02  0.8203629E-01
       -1   -1    0    0    0  501  0.00000000000E+00  0.00000000000E+00  0.13014144770E+04  0.13014144770E+04  0.50400001928E-02 0. -1.
        1   -1    0    0  501    0  0.00000000000E+00  0.00000000000E+00 -0.18994540630E+04  0.18994540630E+04  0.50400001928E-02 0.  1.
    10030    2    1    2    0    0  0.00000000000E+00  0.00000000000E+00 -0.59803958608E+03  0.32008685400E+04  0.31445044226E+04 0.  0.
        2    1    3    3  502    0  0.14929598460E+04  0.20680603978E+03 -0.75456714481E+03  0.16855472155E+04  0.25500000920E-02 0.  1.
       -2    1    3    3    0  502 -0.14929598460E+04 -0.20680603978E+03  0.15652755873E+03  0.15153213245E+04  0.25500000920E-02 0. -1.
</event>
<event>
 5   0  0.7971763E-06  0.3181183E+04  0.7818609E-02  0.8193804E-01
        2   -1    0    0  501    0  0.00000000000E+00  0.00000000000E+00  0.23902599614E+04  0.23902599614E+04  0.25500000920E-02 0.  1.
       -2   -1    0    0    0  501  0.00000000000E+00  0.00000000000E+00 -0.10584544813E+04  0.10584544813E+04  0.25500000920E-02 0. -1.
    10030    2    1    2    0    0  0.00000000000E+00  0.00000000000E+00  0.13318054801E+04  0.34487144427E+04  0.31811830300E+04 0.  0.
        1    1    3    3  502    0  0.13590540902E+03 -0.83367090805E+03  0.21270256372E+04  0.22886055851E+04  0.50400001928E-02 0.  1.
       -1    1    3    3    0  502 -0.13590540902E+03  0.83367090805E+03 -0.79522015706E+03  0.11601088575E+04  0.50400001928E-02 0. -1.
</event>
<event>
 5   0  0.3938696E-06  0.1831121E+04  0.7818609E-02  0.8689923E-01
        1   -1    0    0  501    0  0.00000000000E+00  0.00000000000E+00  0.17594880717E+04  0.17594880717E+04  0.50400001928E-02 0. -1.
       -1   -1    0    0    0  501  0.00000000000E+00  0.00000000000E+00 -0.47641758293E+03  0.47641758296E+03  0.50400001928E-02 0.  1.
    10030    2    1    2    0    0  0.00000000000E+00  0.00000000000E+00  0.12830704888E+04  0.22359056547E+04  0.18311210275E+04 0.  0.
        4    1    3    3  502    0  0.87259853266E+03  0.20489230102E+03  0.41361761917E+03  0.98716270290E+03  0.12699999809E+01 0. -1.
       -4    1    3    3    0  502 -0.87259853266E+03 -0.20489230102E+03  0.86945286963E+03  0.12487429518E+04  0.12699999809E+01 0.  1.
</event>
<event>
 5   0  0.2933646E-06  0.3227600E+04  0.7818609E-02  0.8181566E-01
       -1   -1    0    0    0  501  0.00000000000E+00  0.00000000000E+00  0.15202896101E+04  0.15202896101E+04  0.50400001928E-02 0.  1.
        1   -1    0    0  501    0  0.00000000000E+00  0.00000000000E+00 -0.17130625136E+04  0.17130625136E+04  0.50400001928E-02 0. -1.
    10030    2    1    2    0    0  0.00000000000E+00  0.00000000000E+00 -0.19277290353E+03  0.32333521237E+04  0.32276004343E+04 0.  0.
        2    1    3    3  502    0 -0.41117562931E+03 -0.14935483947E+04  0.35674574642E+03  0.15896602571E+04  0.25500000920E-02 0.  1.
       -2    1    3    3    0  502  0.41117562931E+03  0.14935483947E+04 -0.54951864995E+03  0.16436918665E+04  0.25500000920E-02 0. -1.
</event>
<event>
 5   0  0.2635798E-06  0.3074684E+04  0.7818609E-02  0.8222720E-01
        1   -1    0    0  501    0  0.00000000000E+00  0.00000000000E+00  0.20028351939E+04  0.20028351939E+04  0.50400001928E-02 0. -1.
       -1   -1    0    0    0  501  0.00000000000E+00  0.00000000000E+00 -0.11800370806E+04  0.11800370806E+04  0.50400001928E-02 0.  1.
    10030    2    1    2    0    0  0.00000000000E+00  0.00000000000E+00  0.82279811327E+03  0.31828722745E+04  0.30746835903E+04 0.  0.
        1    1    3    3  502    0 -0.13927757040E+04 -0.28166931777E+03 -0.19598140873E+03  0.14344233960E+04  0.50400001928E-02 0.  1.
       -1    1    3    3    0  502  0.13927757040E+04  0.28166931777E+03  0.10187795220E+04  0.17484488785E+04  0.50400001928E-02 0. -1.
</event>
<event>
 5   0  0.7971763E-06  0.2731606E+04  0.7818609E-02  0.8324822E-01
        2   -1    0    0  501    0  0.00000000000E+00  0.00000000000E+00  0.20715233397E+04  0.20715233397E+04  0.25500000920E-02 0.  1.
       -2   -1    0    0    0  501  0.00000000000E+00  0.00000000000E+00 -0.90050535934E+03  0.90050535934E+03  0.25500000920E-02 0. -1.
    10030    2    1    2    0    0  0.00000000000E+00  0.00000000000E+00  0.11710179804E+04  0.29720286990E+04  0.27316060253E+04 0.  0.
        1    1    3    3  502    0  0.73162067441E+03 -0.11379872818E+04  0.38157070446E+03  0.14056600112E+04  0.50400001928E-02 0. -1.
       -1    1    3    3    0  502 -0.73162067441E+03  0.11379872818E+04  0.78944727590E+03  0.15663686878E+04  0.50400001928E-02 0.  1.
</event>
<event>
 5   0  0.2788054E-06  0.2326603E+04  0.7818609E-02  0.8467505E-01
        1   -1    0    0  501    0  0.00000000000E+00  0.00000000000E+00  0.86935961810E+03  0.86935961812E+03  0.50400001928E-02 0. -1.
       -1   -1    0    0    0  501  0.00000000000E+00  0.00000000000E+00 -0.15566288622E+04  0.15566288622E+04  0.50400001928E-02 0.  1.
    10030    2    1    2    0    0  0.00000000000E+00  0.00000000000E+00 -0.68726924407E+03  0.24259884803E+04  0.23266029083E+04 0.  0.
        3    1    3    3  502    0 -0.11231497990E+04 -0.22018372006E+03 -0.12659933626E+03  0.11515093329E+04  0.10100000352E+00 0.  1.
       -3    1    3    3    0  502  0.11231497990E+04  0.22018372006E+03 -0.56066990781E+03  0.12744791474E+04  0.10100000352E+00 0. -1.
</event>
<event>
 5   0  0.2580875E-06  0.2331391E+04  0.7818609E-02  0.8465646E-01
        3   -1    0    0  501    0  0.00000000000E+00  0.00000000000E+00  0.93915361571E+03  0.93915362114E+03  0.10100000352E+00 0.  1.
       -3   -1    0    0    0  501  0.00000000000E+00  0.00000000000E+00 -0.14468835759E+04  0.14468835794E+04  0.10100000352E+00 0. -1.
    10030    2    1    2    0    0  0.00000000000E+00  0.00000000000E+00 -0.50772996019E+03  0.23860372006E+04  0.23313909604E+04 0.  0.
        5    1    3    3  502    0 -0.52617197748E+03  0.11539104014E+03 -0.13118517020E+04  0.14181498581E+04  0.46999998093E+01 0. -1.
       -5    1    3    3    0  502  0.52617197748E+03 -0.11539104014E+03  0.80412174182E+03  0.96788734246E+03  0.46999998093E+01 0.  1.
</event>
<event>
 5   0  0.2788054E-06  0.3182334E+04  0.7818609E-02  0.8193498E-01
        1   -1    0    0  501    0  0.00000000000E+00  0.00000000000E+00  0.15244593720E+04  0.15244593720E+04  0.50400001928E-02 0.  1.
       -1   -1    0    0    0  501  0.00000000000E+00  0.00000000000E+00 -0.16607933545E+04  0.16607933545E+04  0.50400001928E-02 0. -1.
    10030    2    1    2    0    0  0.00000000000E+00  0.00000000000E+00 -0.13633398251E+03  0.31852527264E+04  0.31823337312E+04 0.  0.
        3    1    3    3  502    0 -0.67855087108E+03 -0.12626584298E+04  0.62317227647E+03  0.15630359213E+04  0.10100000352E+00 0.  1.
       -3    1    3    3    0  502  0.67855087108E+03  0.12626584298E+04 -0.75950625898E+03  0.16222168051E+04  0.10100000352E+00 0. -1.
</event>
<event>
 5   0  0.7952307E-06  0.2749849E+04  0.7818609E-02  0.8319010E-01
       -2   -1    0    0    0  501  0.00000000000E+00  0.00000000000E+00  0.94554663265E+03  0.94554663265E+03  0.25500000920E-02 0.  1.
        2   -1    0    0  501    0  0.00000000000E+00  0.00000000000E+00 -0.19992846226E+04  0.19992846226E+04  0.25500000920E-02 0. -1.
    10030    2    1    2    0    0  0.00000000000E+00  0.00000000000E+00 -0.10537379900E+04  0.29448312553E+04  0.27498486086E+04 0.  0.
        2    1    3    3  502    0 -0.13877168606E+03 -0.34600604765E+03 -0.19441277445E+04  0.19795480425E+04  0.25500000920E-02 0. -1.
       -2    1    3    3    0  502  0.13877168606E+03  0.34600604765E+03  0.89038975450E+03  0.96528321274E+03  0.25500000920E-02 0.  1.
</event>
<event>
 5   0  0.7952307E-06  0.1715359E+04  0.7818609E-02  0.8752653E-01
        2   -1    0    0  501    0  0.00000000000E+00  0.00000000000E+00  0.16224754834E+04  0.16224754834E+04  0.25500000920E-02 0. -1.
       -2   -1    0    0    0  501  0.00000000000E+00  0.00000000000E+00 -0.45339005190E+03  0.45339005191E+03  0.25500000920E-02 0.  1.
    10030    2    1    2    0    0  0.00000000000E+00  0.00000000000E+00  0.11690854315E+04  0.20758655353E+04  0.17153591386E+04 0.  0.
        2    1    3    3  502    0 -0.60313151619E+03  0.37538504038E+03  0.29929776192E+01  0.71041573200E+03  0.25500000920E-02 0. -1.
       -2    1    3    3    0  502  0.60313151619E+03 -0.37538504038E+03  0.11660924539E+04  0.13654498033E+04  0.25500000920E-02 0.  1.
</event>
<event>
 5   0  0.7941434E-06  0.3236693E+04  0.7818609E-02  0.8179193E-01
       -2   -1    0    0    0  501  0.00000000000E+00  0.00000000000E+00  0.15131821528E+04  0.15131821528E+04  0.25500000920E-02 0. -1.
        2   -1    0    0  501    0  0.00000000000E+00  0.00000000000E+00 -0.17308196086E+04  0.17308196086E+04  0.25500000920E-02 0.  1.
    10030    2    1    2    0    0  0.00000000000E+00  0.00000000000E+00 -0.21763745582E+03  0.32440017614E+04  0.32366929675E+04 0.  0.
        4    1    3    3  502    0 -0.76183805770E+03 -0.80265846399E+03  0.10746889160E+04  0.15426003096E+04  0.12699999809E+01 0. -1.
       -4    1    3    3    0  502  0.76183805770E+03  0.80265846399E+03 -0.12923263718E+04  0.17014014518E+04  0.12699999809E+01 0.  1.
</event>
<event>
 5   0  0.2788054E-06  0.3040116E+04  0.7818609E-02  0.8232367E-01
       -1   -1    0    0    0  501  0.00000000000E+00  0.00000000000E+00  0.22996461204E+04  0.22996461204E+04  0.50400001928E-02 0. -1.
        1   -1    0    0  501    0  0.00000000000E+00  0.00000000000E+00 -0.10047532012E+04  0.10047532012E+04  0.50400001928E-02 0.  1.
    10030    2    1    2    0    0  0.00000000000E+00  0.00000000000E+00  0.12948929192E+04  0.33043993216E+04  0.30401163142E+04 0.  0.
        3    1    3    3  502    0  0.12685846238E+04 -0.80393060351E+03  0.39261846836E+03  0.15523403734E+04  0.10100000352E+00 0. -1.
       -3    1    3    3    0  502 -0.12685846238E+04  0.80393060351E+03  0.90227445087E+03  0.17520589482E+04  0.10100000352E+00 0.  1.
</event>
<event>
 5   0  0.3938696E-06  0.2663408E+04  0.7818609E-02  0.8346976E-01
        1   -1    0    0  501    0  0.00000000000E+00  0.00000000000E+00  0.22607668988E+04  0.22607668988E+04  0.50400001928E-02 0.  1.
       -1   -1    0    0    0  501  0.00000000000E+00  0.00000000000E+00 -0.78443998524E+03  0.78443998525E+03  0.50400001928E-02 0. -1.
    10030    2    1    2    0    0  0.00000000000E+00  0.00000000000E+00  0.14763269136E+04  0.30452068841E+04  0.26634083073E+04 0.  0.
        4    1    3    3  502    0 -0.45061025132E+03 -0.12266195857E+04  0.44490122524E+03  0.13804288898E+04  0.12699999809E+01 0. -1.
       -4    1    3    3    0  502  0.45061025132E+03  0.12266195857E+04  0.10314256884E+04  0.16647779943E+04  0.12699999809E+01 0.  1.
</event>
<event>
 5   0  0.8237664E-06  0.2899304E+04  0.7818609E-02  0.8273085E-01
       -2   -1    0    0    0  501  0.00000000000E+00  0.00000000000E+00  0.14709606963E+04  0.14709606963E+04  0.25500000920E-02 0. -1.
        2   -1    0    0  501    0  0.00000000000E+00  0.00000000000E+00 -0.14286519876E+04  0.14286519876E+04  0.25500000920E-02 0.  1.
    10030    2    1    2    0    0  0.00000000000E+00  0.00000000000E+00  0.42308708711E+02  0.28996126839E+04  0.28993040009E+04 0.  0.
        5    1    3    3  502    0 -0.10059849509E+04 -0.10364678500E+04  0.14444564898E+03  0.14516053048E+04  0.46999998093E+01 0. -1.
       -5    1    3    3    0  502  0.10059849509E+04  0.10364678500E+04 -0.10213694027E+03  0.14480073791E+04  0.46999998093E+01 0.  1.
</event>
<event>
 5   0  0.4142886E-06  0.3040076E+04  0.7818609E-02  0.8232379E-01
        1   -1    0    0  501    0  0.00000000000E+00  0.00000000000E+00  0.15618248518E+04  0.15618248518E+04  0.50400001928E-02 0.  1.
       -1   -1    0    0    0  501  0.00000000000E+00  0.00000000000E+00 -0.14793692997E+04  0.14793692997E+04  0.50400001928E-02 0. -1.
    10030    2    1    2    0    0  0.00000000000E+00  0.00000000000E+00  0.82455552112E+02  0.30411941515E+04  0.30400761419E+04 0.  0.
        5    1    3    3  502    0  0.64094291043E+03 -0.54560484738E+03 -0.12249395488E+04  0.14862676247E+04  0.46999998093E+01 0. -1.
       -5    1    3    3    0  502 -0.64094291043E+03  0.54560484738E+03  0.13073951009E+04  0.15549265268E+04  0.46999998093E+01 0.  1.
</event>
<event>
 5   0  0.2933646E-06  0.1692726E+04  0.7818609E-02  0.8765524E-01
       -1   -1    0    0    0  501  0.00000000000E+00  0.00000000000E+00  0.93155293063E+03  0.93155293064E+03  0.50400001928E-02 0. -1.
        1   -1    0    0  501    0  0.00000000000E+00  0.00000000000E+00 -0.76896354946E+03  0.76896354948E+03  0.50400001928E-02 0.  1.
    10030    2    1    2    0    0  0.00000000000E+00  0.00000000000E+00  0.16258938117E+03  0.17005164801E+04  0.16927259058E+04 0.  0.
        2    1    3    3  502    0  0.74439044781E+03 -0.25752161093E+03 -0.22980088690E+03  0.82051384298E+03  0.25500000920E-02 0.  1.
       -2    1    3    3    0  502 -0.74439044781E+03  0.25752161093E+03  0.39239026807E+03  0.88000263714E+03  0.25500000920E-02 0. -1.
</event>
<event>
 5   0  0.7510251E-06  0.3044116E+04  0.7818609E-02  0.8231244E-01
        2   -1    0    0  501    0  0.00000000000E+00  0.00000000000E+00  0.24636395549E+04  0.24636395549E+04  0.25500000920E-02 0. -1.
       -2   -1    0    0    0  501  0.00000000000E+00  0.00000000000E+00 -0.94034070066E+03  0.94034070066E+03  0.25500000920E-02 0.  1.
    10030    2    1    2    0    0  0.00000000000E+00  0.00000000000E+00  0.15232988542E+04  0.34039802556E+04  0.30441159934E+04 0.  0.
        3    1    3    3  502    0  0.10962115690E+04  0.27661513417E+02 -0.41869960250E+03  0.11737778030E+04  0.10100000352E+00 0.  1.
       -3    1    3    3    0  502 -0.10962115690E+04 -0.27661513417E+02  0.19419984567E+04  0.22302024526E+04  0.10100000352E+00 0. -1.
</event>
<event>
 5   0  0.4142886E-06  0.2935667E+04  0.7818609E-02  0.8262344E-01
        1   -1    0    0  501    0  0.00000000000E+00  0.00000000000E+00  0.15379398609E+04  0.15379398610E+04  0.50400001928E-02 0.  1.
       -1   -1    0    0    0  501  0.00000000000E+00  0.00000000000E+00 -0.14009230260E+04  0.14009230260E+04  0.50400001928E-02 0. -1.
    10030    2    1    2    0    0  0.00000000000E+00  0.00000000000E+00  0.13701683495E+03  0.29388628870E+04  0.29356671227E+04 0.  0.
        5    1    3    3  502    0  0.10447346035E+04 -0.88302770698E+03  0.60135182544E+03  0.14942738809E+04  0.46999998093E+01 0.  1.
       -5    1    3    3    0  502 -0.10447346035E+04  0.88302770698E+03 -0.46433499050E+03  0.14445890061E+04  0.46999998093E+01 0. -1.
</event>
<event>
 5   0  0.4142886E-06  0.2468075E+04  0.7818609E-02  0.8414448E-01
        1   -1    0    0  501    0  0.00000000000E+00  0.00000000000E+00  0.23858780186E+04  0.23858780186E+04  0.50400001928E-02 0.  1.
       -1   -1    0    0    0  501  0.00000000000E+00  0.00000000000E+00 -0.63827589639E+03  0.63827589641E+03  0.50400001928E-02 0. -1.
    10030    2    1    2    0    0  0.00000000000E+00  0.00000000000E+00  0.17476021222E+04  0.30241539150E+04  0.24680749025E+04 0.  0.
        5    1    3    3  502    0 -0.11175204026E+04 -0.25387285634E+03  0.31293201412E+03  0.11879612001E+04  0.46999998093E+01 0.  1.
       -5    1    3    3    0  502  0.11175204026E+04  0.25387285634E+03  0.14346701081E+04  0.18361927150E+04  0.46999998093E+01 0. -1.
</event>
<event>
 5   0  0.2877379E-06  0.1619204E+04  0.7818609E-02  0.8808837E-01
        1   -1    0    0  501    0  0.00000000000E+00  0.00000000000E+00  0.14734925193E+04  0.14734925193E+04  0.50400001928E-02 0. -1.
       -1   -1    0    0    0  501  0.00000000000E+00  0.00000000000E+00 -0.44483103053E+03  0.44483103056E+03  0.50400001928E-02 0.  1.
    10030    2    1    2    0    0  0.00000000000E+00  0.00000000000E+00  0.10286614888E+04  0.19183235499E+04  0.16192037499E+04 0.  0.
        3    1    3    3  502    0  0.20621180574E+03 -0.74750027089E+03  0.23857745183E+03  0.81129475194E+03  0.10100000352E+00 0. -1.
       -3    1    3    3    0  502 -0.20621180574E+03  0.74750027089E+03  0.79008403696E+03  0.11070287979E+04  0.10100000352E+00 0.  1.
</event>
<event>
 5   0  0.2933646E-06  0.1716773E+04  0.7818609E-02  0.8751856E-01
       -1   -1    0    0    0  501  0.00000000000E+00  0.00000000000E+00  0.52260672745E+03  0.52260672748E+03  0.50400001928E-02 0. -1.
        1   -1    0    0  501    0  0.00000000000E+00  0.00000000000E+00 -0.14099079525E+04  0.14099079525E+04  0.50400001928E-02 0.  1.
    10030    2    1    2    0    0  0.00000000000E+00  0.00000000000E+00 -0.88730122501E+03  0.19325146799E+04  0.17167729973E+04 0.  0.
        2    1    3    3  502    0 -0.65234047524E+03  0.35194195107E+03  0.43668486085E+02  0.74250802638E+03  0.25500000920E-02 0. -1.
       -2    1    3    3    0  502  0.65234047524E+03 -0.35194195107E+03 -0.93096971110E+03  0.11900066536E+04  0.25500000920E-02 0.  1.
</event>
<event>
 5   0  0.3938696E-06  0.3088694E+04  0.7818609E-02  0.8218848E-01
        1   -1    0    0  501    0  0.00000000000E+00  0.00000000000E+00  0.19703760457E+04  0.19703760457E+04  0.50400001928E-02 0. -1.
       -1   -1    0    0    0  501  0.00000000000E+00  0.00000000000E+00 -0.12104323957E+04  0.12104323957E+04  0.50400001928E-02 0.  1.
    10030    2    1    2    0    0  0.00000000000E+00  0.00000000000E+00  0.75994364998E+03  0.31808084414E+04  0.30886935733E+04 0.  0.
        4    1    3    3  502    0  0.43035283388E+03  0.58284383437E+03  0.17844993039E+04  0.19259672571E+04  0.12699999809E+01 0. -1.
       -4    1    3    3    0  502 -0.43035283388E+03 -0.58284383437E+03 -0.10245556539E+04  0.12548411843E+04  0.12699999809E+01 0.  1.
</event>
<event>
 5   0  0.3938696E-06  0.3098484E+04  0.7818609E-02  0.8216154E-01
       -1   -1    0    0    0  501  0.00000000000E+00  0.00000000000E+00  0.12684227957E+04  0.12684227957E+04  0.50400001928E-02 0.  1.
        1   -1    0    0  501    0  0.00000000000E+00  0.00000000000E+00 -0.18922321450E+04  0.18922321450E+04  0.50400001928E-02 0. -1.
    10030    2    1    2    0    0  0.00000000000E+00  0.00000000000E+00 -0.62380934937E+03  0.31606549407E+04  0.30984837501E+04 0.  0.
        4    1    3    3  502    0  0.64966300821E+03 -0.75637219648E+02 -0.17444936005E+04  0.18630734146E+04  0.12699999809E+01 0. -1.
       -4    1    3    3    0  502 -0.64966300821E+03  0.75637219648E+02  0.11206842511E+04  0.12975815261E+04  0.12699999809E+01 0.  1.
</event>
<event>
 5   0  0.7510251E-06  0.2932488E+04  0.7818609E-02  0.8263276E-01
        2   -1    0    0  501    0  0.00000000000E+00  0.00000000000E+00  0.16047536134E+04  0.16047536134E+04  0.25500000920E-02 0.  1.
       -2   -1    0    0    0  501  0.00000000000E+00  0.00000000000E+00 -0.13396896427E+04  0.13396896427E+04  0.25500000920E-02 0. -1.
    10030    2    1    2    0    0  0.00000000000E+00  0.00000000000E+00  0.26506397063E+03  0.29444432561E+04  0.29324882233E+04 0.  0.
        3    1    3    3  502    0  0.14587964958E+04 -0.84188426130E+02  0.10807078311E+02  0.14612637374E+04  0.10100000352E+00 0. -1.
       -3    1    3    3    0  502 -0.14587964958E+04  0.84188426130E+02  0.25425689232E+03  0.14831795187E+04  0.10100000352E+00 0.  1.
</event>
<event>
 5   0  0.7941434E-06  0.3221158E+04  0.7818609E-02  0.8183252E-01
        2   -1    0    0  501    0  0.00000000000E+00  0.00000000000E+00  0.15902076833E+04  0.15902076833E+04  0.25500000920E-02 0.  1.
       -2   -1    0    0    0  501  0.00000000000E+00  0.00000000000E+00 -0.16312113676E+04  0.16312113676E+04  0.25500000920E-02 0. -1.
    10030    2    1    2    0    0  0.00000000000E+00  0.00000000000E+00 -0.41003684290E+02  0.32214190509E+04  0.32211580836E+04 0.  0.
        4    1    3    3  502    0 -0.73249380985E+03  0.64863105497E+02 -0.14535201723E+04  0.16289496334E+04  0.12699999809E+01 0. -1.
       -4    1    3    3    0  502  0.73249380985E+03 -0.64863105497E+02  0.14125164880E+04  0.15924694175E+04  0.12699999809E+01 0.  1.
</event>
<event>
 5   0  0.7941434E-06  0.3210937E+04  0.7818609E-02  0.8185935E-01
       -2   -1    0    0    0  501  0.00000000000E+00  0.00000000000E+00  0.16638530870E+04  0.16638530870E+04  0.25500000920E-02 0. -1.
        2   -1    0    0  501    0  0.00000000000E+00  0.00000000000E+00 -0.15491329021E+04  0.15491329021E+04  0.25500000920E-02 0.  1.
    10030    2    1    2    0    0  0.00000000000E+00  0.00000000000E+00  0.11472018485E+03  0.32129859891E+04  0.32109372846E+04 0.  0.
        4    1    3    3  502    0 -0.13904865541E+04 -0.15553137482E+02 -0.74554403335E+03  0.15778251728E+04  0.12699999809E+01 0. -1.
       -4    1    3    3    0  502  0.13904865541E+04  0.15553137482E+02  0.86026421820E+03  0.16351608163E+04  0.12699999809E+01 0.  1.
</event>
<event>
 5   0  0.2580875E-06  0.3208089E+04  0.7818609E-02  0.8186684E-01
       -3   -1    0    0    0  501  0.00000000000E+00  0.00000000000E+00  0.17235155198E+04  0.17235155227E+04  0.10100000352E+00 0.  1.
        3   -1    0    0  501    0  0.00000000000E+00  0.00000000000E+00 -0.14928545506E+04  0.14928545540E+04  0.10100000352E+00 0. -1.
    10030    2    1    2    0    0  0.00000000000E+00  0.00000000000E+00  0.23066096916E+03  0.32163700767E+04  0.32080885256E+04 0.  0.
        1    1    3    3  502    0  0.34003814631E+03  0.10959726289E+04  0.12390163657E+04  0.16887698182E+04  0.50400001928E-02 0.  1.
       -1    1    3    3    0  502 -0.34003814631E+03 -0.10959726289E+04 -0.10083553966E+04  0.15276002586E+04  0.50400001928E-02 0. -1.
</event>
<event>
 5   0  0.2788054E-06  0.3109490E+04  0.7818609E-02  0.8213138E-01
        1   -1    0    0  501    0  0.00000000000E+00  0.00000000000E+00  0.13743306936E+04  0.13743306936E+04  0.50400001928E-02 0. -1.
       -1   -1    0    0    0  501  0.00000000000E+00  0.00000000000E+00 -0.17588427460E+04  0.17588427460E+04  0.50400001928E-02 0.  1.
    10030    2    1    2    0    0  0.00000000000E+00  0.00000000000E+00 -0.38451205245E+03  0.31331734396E+04  0.31094897144E+04 0.  0.
        3    1    3    3  502    0 -0.32511290009E+03 -0.14210680649E+04  0.35232202964E+03  0.14997545351E+04  0.10100000352E+00 0. -1.
       -3    1    3    3    0  502  0.32511290009E+03  0.14210680649E+04 -0.73683408209E+03  0.16334189045E+04  0.10100000352E+00 0.  1.
</event>
<event>
 5   0  0.7941434E-06  0.3215018E+04  0.7818609E-02  0.8184862E-01
        2   -1    0    0  501    0  0.00000000000E+00  0.00000000000E+00  0.14865884757E+04  0.14865884757E+04  0.25500000920E-02 0.  1.
       -2   -1    0    0    0  501  0.00000000000E+00  0.00000000000E+00 -0.17382655120E+04  0.17382655120E+04  0.25500000920E-02 0. -1.
    10030    2    1    2    0    0  0.00000000000E+00  0.00000000000E+00 -0.25167703627E+03  0.32248539876E+04  0.32150181821E+04 0.  0.
        4    1    3    3  502    0 -0.14326050657E+03 -0.68061003554E+03  0.13278468473E+04  0.14989771366E+04  0.12699999809E+01 0.  1.
       -4    1    3    3    0  502  0.14326050657E+03  0.68061003554E+03 -0.15795238836E+04  0.17258768510E+04  0.12699999809E+01 0. -1.
</event>
<event>
 5   0  0.8237664E-06  0.2593759E+04  0.7818609E-02  0.8370324E-01
       -2   -1    0    0    0  501  0.00000000000E+00  0.00000000000E+00  0.85666655125E+03  0.85666655126E+03  0.25500000920E-02 0. -1.
        2   -1    0    0  501    0  0.00000000000E+00  0.00000000000E+00 -0.19633029325E+04  0.19633029325E+04  0.25500000920E-02 0.  1.
    10030    2    1    2    0    0  0.00000000000E+00  0.00000000000E+00 -0.11066363812E+04  0.28199694838E+04  0.25937586258E+04 0.  0.
        5    1    3    3  502    0  0.42226541589E+02  0.11372926575E+04 -0.12293658841E+04  0.16752851210E+04  0.46999998093E+01 0.  1.
       -5    1    3    3    0  502 -0.42226541589E+02 -0.11372926575E+04  0.12272950285E+03  0.11446843628E+04  0.46999998093E+01 0. -1.
</event>
<event>
 5   0  0.4142886E-06  0.3220635E+04  0.7818609E-02  0.8183389E-01
        1   -1    0    0  501    0  0.00000000000E+00  0.00000000000E+00  0.12860960047E+04  0.12860960047E+04  0.50400001928E-02 0. -1.
       -1   -1    0    0    0  501  0.00000000000E+00  0.00000000000E+00 -0.20162741796E+04  0.20162741796E+04  0.50400001928E-02 0.  1.
    10030    2    1    2    0    0  0.00000000000E+00  0.00000000000E+00 -0.73017817485E+03  0.33023701843E+04  0.32206348236E+04 0.  0.
        5    1    3    3  502    0 -0.90079288694E+03 -0.12165516877E+04  0.19809890361E+03  0.15266601127E+04  0.46999998093E+01 0. -1.
       -5    1    3    3    0  502  0.90079288694E+03  0.12165516877E+04 -0.92827707846E+03  0.17757100716E+04  0.46999998093E+01 0.  1.
</event>
<event>
 5   0  0.2788054E-06  0.3146547E+04  0.7818609E-02  0.8203078E-01
       -1   -1    0    0    0  501  0.00000000000E+00  0.00000000000E+00  0.13655137329E+04  0.13655137329E+04  0.50400001928E-02 0.  1.
        1   -1    0    0  501    0  0.00000000000E+00  0.00000000000E+00 -0.18126429336E+04  0.18126429336E+04  0.50400001928E-02 0. -1.
    10030    2    1    2    0    0  0.00000000000E+00  0.00000000000E+00 -0.44712920077E+03  0.31781566665E+04  0.31465465632E+04 0.  0.
        3    1    3    3  502    0  0.12253510681E+03 -0.13730603667E+04 -0.98938940918E+03  0.16968208616E+04  0.10100000352E+00 0. -1.
       -3    1    3    3    0  502 -0.12253510681E+03  0.13730603667E+04  0.54226020841E+03  0.14813358049E+04  0.10100000352E+00 0.  1.
</event>
<event>
 5   0  0.7952307E-06  0.3169203E+04  0.7818609E-02  0.8196998E-01
        2   -1    0    0  501    0  0.00000000000E+00  0.00000000000E+00  0.10852950944E+04  0.10852950944E+04  0.25500000920E-02 0. -1.
       -2   -1    0    0    0  501  0.00000000000E+00  0.00000000000E+00 -0.23136215714E+04  0.23136215714E+04  0.25500000920E-02 0.  1.
    10030    2    1    2    0    0  0.00000000000E+00  0.00000000000E+00 -0.12283264770E+04  0.33989166658E+04  0.31692031438E+04 0.  0.
        2    1    3    3  502    0 -0.13840384637E+04  0.47477175940E+03 -0.12665216737E+04  0.19352126091E+04  0.25500000920E-02 0.  1.
       -2    1    3    3    0  502  0.13840384637E+04 -0.47477175940E+03  0.38195196690E+02  0.14637040567E+04  0.25500000920E-02 0. -1.
</event>
<event>
 5   0  0.8237664E-06  0.3337261E+04  0.7818609E-02  0.8153479E-01
        2   -1    0    0  501    0  0.00000000000E+00  0.00000000000E+00  0.26512675311E+04  0.26512675311E+04  0.25500000920E-02 0.  1.
       -2   -1    0    0    0  501  0.00000000000E+00  0.00000000000E+00 -0.10501874161E+04  0.10501874161E+04  0.25500000920E-02 0. -1.
    10030    2    1    2    0    0  0.00000000000E+00  0.00000000000E+00  0.16010801150E+04  0.37014549472E+04  0.33372610313E+04 0.  0.
        5    1    3    3  502    0  0.14651366279E+04 -0.65444228033E+03  0.13080631055E+04  0.20702587313E+04  0.46999998093E+01 0.  1.
       -5    1    3    3    0  502 -0.14651366279E+04  0.65444228033E+03  0.29301700947E+03  0.16311962158E+04  0.46999998093E+01 0. -1.
</event>
<event>
 5   0  0.7971763E-06  0.3151255E+04  0.7818609E-02  0.8201810E-01
        2   -1    0    0  501    0  0.00000000000E+00  0.00000000000E+00  0.19598104366E+04  0.19598104366E+04  0.25500000920E-02 0. -1.
       -2   -1    0    0    0  501  0.00000000000E+00  0.00000000000E+00 -0.12667563462E+04  0.12667563462E+04  0.25500000920E-02 0.  1.
    10030    2    1    2    0    0  0.00000000000E+00  0.00000000000E+00  0.69305409048E+03  0.32265667828E+04  0.31512551835E+04 0.  0.
        1    1    3    3  502    0  0.64208173880E+03 -0.17846955848E+03 -0.11153489075E+04  0.12992780796E+04  0.50400001928E-02 0.  1.
       -1    1    3    3    0  502 -0.64208173880E+03  0.17846955848E+03  0.18084029980E+04  0.19272887032E+04  0.50400001928E-02 0. -1.
</event>
<event>
 5   0  0.7941434E-06  0.3007562E+04  0.7818609E-02  0.8241575E-01
       -2   -1    0    0    0  501  0.00000000000E+00  0.00000000000E+00  0.88094000385E+03  0.88094000385E+03  0.25500000920E-02 0.  1.
        2   -1    0    0  501    0  0.00000000000E+00  0.00000000000E+00 -0.25669819564E+04  0.25669819564E+04  0.25500000920E-02 0. -1.
    10030    2    1    2    0    0  0.00000000000E+00  0.00000000000E+00 -0.16860419525E+04  0.34479219602E+04  0.30075618661E+04 0.  0.
        4    1    3    3  502    0  0.41416073592E+02 -0.32604099280E+03 -0.25253033935E+04  0.25466010411E+04  0.12699999809E+01 0. -1.
       -4    1    3    3    0  502 -0.41416073592E+02  0.32604099280E+03  0.83926144098E+03  0.90132091918E+03  0.12699999809E+01 0.  1.
</event>
<event>
 5   0  0.8237664E-06  0.1612493E+04  0.7818609E-02  0.8812909E-01
       -2   -1    0    0    0  501  0.00000000000E+00  0.00000000000E+00  0.47822768851E+03  0.47822768851E+03  0.25500000920E-02 0. -1.
        2   -1    0    0  501    0  0.00000000000E+00  0.00000000000E+00 -0.13592557740E+04  0.13592557740E+04  0.25500000920E-02 0.  1.
    10030    2    1    2    0    0  0.00000000000E+00  0.00000000000E+00 -0.88102808547E+03  0.18374834625E+04  0.16124934070E+04 0.  0.
        5    1    3    3  502    0 -0.93414878604E+01 -0.21038006306E+03  0.44631844596E+03  0.49352738478E+03  0.46999998093E+01 0. -1.
       -5    1    3    3    0  502  0.93414878604E+01  0.21038006306E+03 -0.13273465314E+04  0.13439560777E+04  0.46999998093E+01 0.  1.
</event>
<event>
 5   0  0.7510251E-06  0.3207000E+04  0.7818609E-02  0.8186971E-01
        2   -1    0    0  501    0  0.00000000000E+00  0.00000000000E+00  0.18513810595E+04  0.18513810595E+04  0.25500000920E-02 0.  1.
       -2   -1    0    0    0  501  0.00000000000E+00  0.00000000000E+00 -0.13888077814E+04  0.13888077814E+04  0.25500000920E-02 0. -1.
    10030    2    1    2    0    0  0.00000000000E+00  0.00000000000E+00  0.46257327803E+03  0.32401888409E+04  0.32070001072E+04 0.  0.
        3    1    3    3  502    0  0.13968555299E+04  0.28148567819E+03  0.97426948777E+03  0.17261635506E+04  0.10100000352E+00 0.  1.
       -3    1    3    3    0  502 -0.13968555299E+04 -0.28148567819E+03 -0.51169620974E+03  0.15140252903E+04  0.10100000352E+00 0. -1.
</event>
<event>
 5   0  0.3938696E-06  0.3087865E+04  0.7818609E-02  0.8219076E-01
       -1   -1    0    0    0  501  0.00000000000E+00  0.00000000000E+00  0.19004942373E+04  0.19004942373E+04  0.50400001928E-02 0. -1.
        1   -1    0    0  501    0  0.00000000000E+00  0.00000000000E+00 -0.12542673439E+04  0.12542673439E+04  0.50400001928E-02 0.  1.
    10030    2    1    2    0    0  0.00000000000E+00  0.00000000000E+00  0.64622689344E+03  0.31547615813E+04  0.30878651908E+04 0.  0.
        4    1    3    3  502    0 -0.11879139590E+03  0.92524467820E+03  0.15800250984E+04  0.18348487771E+04  0.12699999809E+01 0. -1.
       -4    1    3    3    0  502  0.11879139590E+03 -0.92524467820E+03 -0.93379820493E+03  0.13199128042E+04  0.12699999809E+01 0.  1.
</event>
<event>
 5   0  0.8237664E-06  0.2099192E+04  0.7818609E-02  0.8561599E-01
        2   -1    0    0  501    0  0.00000000000E+00  0.00000000000E+00  0.12547000282E+04  0.12547000282E+04  0.25500000920E-02 0. -1.
       -2   -1    0    0    0  501  0.00000000000E+00  0.00000000000E+00 -0.87802009990E+03  0.87802009991E+03  0.25500000920E-02 0.  1.
    10030    2    1    2    0    0  0.00000000000E+00  0.00000000000E+00  0.37667992831E+03  0.21327201281E+04  0.20991920771E+04 0.  0.
        5    1    3    3  502    0 -0.30630499749E+03  0.98489339710E+03 -0.91666397116E+01  0.10314765496E+04  0.46999998093E+01 0.  1.
       -5    1    3    3    0  502  0.30630499749E+03 -0.98489339710E+03  0.38584656802E+03  0.11012435785E+04  0.46999998093E+01 0. -1.
</event>
<event>
 5   0  0.2580875E-06  0.3225942E+04  0.7818609E-02  0.8181999E-01
        3   -1    0    0  501    0  0.00000000000E+00  0.00000000000E+00  0.11185470518E+04  0.11185470563E+04  0.10100000352E+00 0. -1.
       -3   -1    0    0    0  501  0.00000000000E+00  0.00000000000E+00 -0.23259423629E+04  0.23259423651E+04  0.10100000352E+00 0.  1.
    10030    2    1    2    0    0  0.00000000000E+00  0.00000000000E+00 -0.12073953111E+04  0.34444894214E+04  0.32259423331E+04 0.  0.
        5    1    3    3  502    0  0.83559116966E+02  0.15169191836E+04 -0.25112937532E+02  0.15194336725E+04  0.46999998093E+01 0. -1.
       -5    1    3    3    0  502 -0.83559116966E+02 -0.15169191836E+04 -0.11822823736E+04  0.19250557489E+04  0.46999998093E+01 0.  1.
</event>
<event>
 5   0  0.4142886E-06  0.3231266E+04  0.7818609E-02  0.8180608E-01
        1   -1    0    0  501    0  0.00000000000E+00  0.00000000000E+00  0.22714862700E+04  0.22714862700E+04  0.50400001928E-02 0. -1.
       -1   -1    0    0    0  501  0.00000000000E+00  0.00000000000E+00 -0.11491464484E+04  0.11491464484E+04  0.50400001928E-02 0.  1.
    10030    2    1    2    0    0  0.00000000000E+00  0.00000000000E+00  0.11223398216E+04  0.34206327184E+04  0.32312662409E+04 0.  0.
        5    1    3    3  502    0 -0.12667729160E+04  0.54392599437E+03  0.14529642985E+04  0.20029219782E+04  0.46999998093E+01 0.  1.
       -5    1    3    3    0  502  0.12667729160E+04 -0.54392599437E+03 -0.33062447695E+03  0.14177107402E+04  0.46999998093E+01 0. -1.
</event>
<event>
 5   0  0.4142886E-06  0.3175602E+04  0.7818609E-02  0.8195290E-01
        1   -1    0    0  501    0  0.00000000000E+00  0.00000000000E+00  0.18850284596E+04  0.18850284596E+04  0.50400001928E-02 0.  1.
       -1   -1    0    0    0  501  0.00000000000E+00  0.00000000000E+00 -0.13374400629E+04  0.13374400629E+04  0.50400001928E-02 0. -1.
    10030    2    1    2    0    0  0.00000000000E+00  0.00000000000E+00  0.54758839668E+03  0.32224685225E+04  0.31756023564E+04 0.  0.
        5    1    3    3  502    0 -0.86854951642E+03 -0.36367573059E+03  0.15711188758E+04  0.18316863572E+04  0.46999998093E+01 0.  1.
       -5    1    3    3    0  502  0.86854951642E+03  0.36367573059E+03 -0.10235304791E+04  0.13907821652E+04  0.46999998093E+01 0. -1.
</event>
<event>
 5   0  0.2635798E-06  0.3198366E+04  0.7818609E-02  0.8189249E-01
       -1   -1    0    0    0  501  0.00000000000E+00  0.00000000000E+00  0.21781201176E+04  0.21781201176E+04  0.50400001928E-02 0. -1.
        1   -1    0    0  501    0  0.00000000000E+00  0.00000000000E+00 -0.11741251797E+04  0.11741251798E+04  0.50400001928E-02 0.  1.
    10030    2    1    2    0    0  0.00000000000E+00  0.00000000000E+00  0.10039949379E+04  0.33522452974E+04  0.31983656293E+04 0.  0.
        1    1    3    3  502    0  0.15278355877E+04  0.30742392000E+03  0.87785139285E+03  0.17886906154E+04  0.50400001928E-02 0. -1.
       -1    1    3    3    0  502 -0.15278355877E+04 -0.30742392000E+03  0.12614354503E+03  0.15635546820E+04  0.50400001928E-02 0.  1.
</event>
<event>
 5   0  0.7510251E-06  0.3416874E+04  0.7818609E-02  0.8133777E-01
       -2   -1    0    0    0  501  0.00000000000E+00  0.00000000000E+00  0.11098996565E+04  0.11098996565E+04  0.25500000920E-02 0. -1.
        2   -1    0    0  501    0  0.00000000000E+00  0.00000000000E+00 -0.26297480178E+04  0.26297480178E+04  0.25500000920E-02 0.  1.
    10030    2    1    2    0    0  0.00000000000E+00  0.00000000000E+00 -0.15198483613E+04  0.37396476743E+04  0.34168736715E+04 0.  0.
        3    1    3    3  502    0  0.23890239686E+03  0.13182021647E+04  0.40042786375E+03  0.13982395311E+04  0.10100000352E+00 0. -1.
       -3    1    3    3    0  502 -0.23890239686E+03 -0.13182021647E+04 -0.19202762251E+04  0.23414081432E+04  0.10100000352E+00 0.  1.
</event>
<event>
 5   0  0.2933646E-06  0.3081600E+04  0.7818609E-02  0.8220806E-01
       -1   -1    0    0    0  501  0.00000000000E+00  0.00000000000E+00  0.95870887017E+03  0.95870887019E+03  0.50400001928E-02 0. -1.
        1   -1    0    0  501    0  0.00000000000E+00  0.00000000000E+00 -0.24763148808E+04  0.24763148808E+04  0.50400001928E-02 0.  1.
    10030    2    1    2    0    0  0.00000000000E+00  0.00000000000E+00 -0.15176060106E+04  0.34350237510E+04  0.30816002606E+04 0.  0.
        2    1    3    3  502    0  0.31299417809E+03 -0.57392288162E+03  0.79646170849E+03  0.10303902575E+04  0.25500000920E-02 0. -1.
       -2    1    3    3    0  502 -0.31299417809E+03  0.57392288162E+03 -0.23140677191E+04  0.24046334935E+04  0.25500000920E-02 0.  1.
</event>
<event>
 5   0  0.3938696E-06  0.3190705E+04  0.7818609E-02  0.8191276E-01
       -1   -1    0    0    0  501  0.00000000000E+00  0.00000000000E+00  0.99733809981E+03  0.99733809982E+03  0.50400001928E-02 0. -1.
        1   -1    0    0  501    0  0.00000000000E+00  0.00000000000E+00 -0.25519432521E+04  0.25519432521E+04  0.50400001928E-02 0.  1.
    10030    2    1    2    0    0  0.00000000000E+00  0.00000000000E+00 -0.15546051523E+04  0.35492813519E+04  0.31907053978E+04 0.  0.
        4    1    3    3  502    0  0.96418312702E+03 -0.87054713701E+03 -0.18074705813E+04  0.22258600440E+04  0.12699999809E+01 0.  1.
       -4    1    3    3    0  502 -0.96418312702E+03  0.87054713701E+03  0.25286542905E+03  0.13234213079E+04  0.12699999809E+01 0. -1.
</event>
<event>
 5   0  0.7952307E-06  0.2792375E+04  0.7818609E-02  0.8305639E-01
        2   -1    0    0  501    0  0.00000000000E+00  0.00000000000E+00  0.16655019179E+04  0.16655019179E+04  0.25500000920E-02 0.  1.
       -2   -1    0    0    0  501  0.00000000000E+00  0.00000000000E+00 -0.11704217960E+04  0.11704217960E+04  0.25500000920E-02 0. -1.
    10030    2    1    2    0    0  0.00000000000E+00  0.00000000000E+00  0.49508012188E+03  0.28359237140E+04  0.27923751511E+04 0.  0.
        2    1    3    3  502    0  0.11733473974E+04  0.16987567244E+03  0.99642582883E+03  0.15486982570E+04  0.25500000920E-02 0. -1.
       -2    1    3    3    0  502 -0.11733473974E+04 -0.16987567244E+03 -0.50134570695E+03  0.12872254569E+04  0.25500000920E-02 0.  1.
</event>
<event>
 5   0  0.7952307E-06  0.2975462E+04  0.7818609E-02  0.8250773E-01
       -2   -1    0    0    0  501  0.00000000000E+00  0.00000000000E+00  0.10609597886E+04  0.10609597886E+04  0.25500000920E-02 0.  1.
        2   -1    0    0  501    0  0.00000000000E+00  0.00000000000E+00 -0.20861707382E+04  0.20861707382E+04  0.25500000920E-02 0. -1.
    10030    2    1    2    0    0  0.00000000000E+00  0.00000000000E+00 -0.10252109495E+04  0.31471305268E+04  0.29754618233E+04 0.  0.
        2    1    3    3  502    0  0.64899075480E+03  0.62874002744E+03  0.73746282621E+03  0.11663423348E+04  0.25500000920E-02 0.  1.
       -2    1    3    3    0  502 -0.64899075480E+03 -0.62874002744E+03 -0.17626737757E+04  0.19807881920E+04  0.25500000920E-02 0. -1.
</event>
<event>
 5   0  0.2635798E-06  0.3134673E+04  0.7818609E-02  0.8206286E-01
       -1   -1    0    0    0  501  0.00000000000E+00  0.00000000000E+00  0.97870045120E+03  0.97870045121E+03  0.50400001928E-02 0.  1.
        1   -1    0    0  501    0  0.00000000000E+00  0.00000000000E+00 -0.25100060840E+04  0.25100060840E+04  0.50400001928E-02 0. -1.
    10030    2    1    2    0    0  0.00000000000E+00  0.00000000000E+00 -0.15313056328E+04  0.34887065352E+04  0.31346732442E+04 0.  0.
        1    1    3    3  502    0  0.14015808226E+04 -0.50755433539E+03 -0.13046012071E+04  0.19809150702E+04  0.50400001928E-02 0. -1.
       -1    1    3    3    0  502 -0.14015808226E+04  0.50755433539E+03 -0.22670442571E+03  0.15077914651E+04  0.50400001928E-02 0.  1.
</event>
<event>
 5   0  0.8237664E-06  0.3218287E+04  0.7818609E-02  0.8184004E-01
       -2   -1    0    0    0  501  0.00000000000E+00  0.00000000000E+00  0.16272669400E+04  0.16272669400E+04  0.25500000920E-02 0. -1.
        2   -1    0    0  501    0  0.00000000000E+00  0.00000000000E+00 -0.15912220086E+04  0.15912220086E+04  0.25500000920E-02 0.  1.
    10030    2    1    2    0    0  0.00000000000E+00  0.00000000000E+00  0.36044931399E+02  0.32184889486E+04  0.32182871027E+04 0.  0.
        5    1    3    3  502    0  0.88809503560E+03 -0.23173223821E+03  0.13398119308E+04  0.16240476355E+04  0.46999998093E+01 0. -1.
       -5    1    3    3    0  502 -0.88809503560E+03  0.23173223821E+03 -0.13037669994E+04  0.15944413132E+04  0.46999998093E+01 0.  1.
</event>
<event>
 5   0  0.2788054E-06  0.2290821E+04  0.7818609E-02  0.8481549E-01
        1   -1    0    0  501    0  0.00000000000E+00  0.00000000000E+00  0.11490309450E+04  0.11490309450E+04  0.50400001928E-02 0. -1.
       -1   -1    0    0    0  501  0.00000000000E+00  0.00000000000E+00 -0.11418011381E+04  0.11418011382E+04  0.50400001928E-02 0.  1.
    10030    2    1    2    0    0  0.00000000000E+00  0.00000000000E+00  0.72298068301E+01  0.22908320831E+04  0.22908206746E+04 0.  0.
        3    1    3    3  502    0 -0.73130350145E+03 -0.87144709180E+03 -0.12957729688E+03  0.11449956904E+04  0.10100000352E+00 0. -1.
       -3    1    3    3    0  502  0.73130350145E+03  0.87144709180E+03  0.13680710371E+03  0.11458363927E+04  0.10100000352E+00 0.  1.
</event>
<event>
 5   0  0.7941434E-06  0.2408545E+04  0.7818609E-02  0.8436311E-01
       -2   -1    0    0    0  501  0.00000000000E+00  0.00000000000E+00  0.86244024935E+03  0.86244024935E+03  0.25500000920E-02 0.  1.
        2   -1    0    0  501    0  0.00000000000E+00  0.00000000000E+00 -0.16815912067E+04  0.16815912067E+04  0.25500000920E-02 0. -1.
    10030    2    1    2    0    0  0.00000000000E+00  0.00000000000E+00 -0.81915095732E+03  0.25440314560E+04  0.24085447387E+04 0.  0.
        4    1    3    3  502    0 -0.11171638690E+04 -0.62427804861E+02 -0.87995543814E+03  0.14234730511E+04  0.12699999809E+01 0. -1.
       -4    1    3    3    0  502  0.11171638690E+04  0.62427804861E+02  0.60804480824E+02  0.11205584049E+04  0.12699999809E+01 0.  1.
</event>
<event>
 5   0  0.2933646E-06  0.3269275E+04  0.7818609E-02  0.8170758E-01
        1   -1    0    0  501    0  0.00000000000E+00  0.00000000000E+00  0.23226527534E+04  0.23226527534E+04  0.50400001928E-02 0.  1.
       -1   -1    0    0    0  501  0.00000000000E+00  0.00000000000E+00 -0.11504260313E+04  0.11504260313E+04  0.50400001928E-02 0. -1.
    10030    2    1    2    0    0  0.00000000000E+00  0.00000000000E+00  0.11722267221E+04  0.34730787848E+04  0.32692752648E+04 0.  0.
        2    1    3    3  502    0 -0.54625748784E+03  0.80421423389E+03 -0.80991592707E+03  0.12653543322E+04  0.25500000920E-02 0. -1.
       -2    1    3    3    0  502  0.54625748784E+03 -0.80421423389E+03  0.19821426492E+04  0.22077244526E+04  0.25500000920E-02 0.  1.
</event>
<event>
 5   0  0.2788054E-06  0.3185712E+04  0.7818609E-02  0.8192601E-01
        1   -1    0    0  501    0  0.00000000000E+00  0.00000000000E+00  0.13052272872E+04  0.13052272873E+04  0.50400001928E-02 0. -1.
       -1   -1    0    0    0  501  0.00000000000E+00  0.00000000000E+00 -0.19438680806E+04  0.19438680807E+04  0.50400001928E-02 0.  1.
    10030    2    1    2    0    0  0.00000000000E+00  0.00000000000E+00 -0.63864079340E+03  0.32490953679E+04  0.31857116390E+04 0.  0.
        3    1    3    3  502    0  0.32797521012E+01 -0.65875254002E+03 -0.17984245609E+04  0.19152797647E+04  0.10100000352E+00 0.  1.
       -3    1    3    3    0  502 -0.32797521012E+01  0.65875254002E+03  0.11597837675E+04  0.13338156032E+04  0.10100000352E+00 0. -1.
</event>
<event>
 5   0  0.2635798E-06  0.3216751E+04  0.7818609E-02  0.8184407E-01
        1   -1    0    0  501    0  0.00000000000E+00  0.00000000000E+00  0.82270140657E+03  0.82270140659E+03  0.50400001928E-02 0. -1.
       -1   -1    0    0    0  501  0.00000000000E+00  0.00000000000E+00 -0.31443626591E+04  0.31443626591E+04  0.50400001928E-02 0.  1.
    10030    2    1    2    0    0  0.00000000000E+00  0.00000000000E+00 -0.23216612525E+04  0.39670640657E+04  0.32167508964E+04 0.  0.
        1    1    3    3  502    0  0.25967254254E+03 -0.11471743357E+04 -0.25137213062E+04  0.27752898211E+04  0.50400001928E-02 0.  1.
       -1    1    3    3    0  502 -0.25967254254E+03  0.11471743357E+04  0.19206005371E+03  0.11917742446E+04  0.50400001928E-02 0. -1.
</event>
<event>
 5   0  0.3669960E-06  0.1604773E+04  0.7818609E-02  0.8817621E-01
       -1   -1    0    0    0  501  0.00000000000E+00  0.00000000000E+00  0.42280813542E+03  0.42280813545E+03  0.50400001928E-02 0. -1.
        1   -1    0    0  501    0  0.00000000000E+00  0.00000000000E+00 -0.15227333844E+04  0.15227333844E+04  0.50400001928E-02 0.  1.
    10030    2    1    2    0    0  0.00000000000E+00  0.00000000000E+00 -0.10999252490E+04  0.19455415199E+04  0.16047729597E+04 0.  0.
        3    1    3    3  502    0  0.39622909966E+03  0.15973116463E+03 -0.13733885203E+04  0.14383002407E+04  0.10100000352E+00 0.  1.
       -3    1    3    3    0  502 -0.39622909966E+03 -0.15973116463E+03  0.27346327133E+03  0.50724127921E+03  0.10100000352E+00 0. -1.
</event>
<event>
 5   0  0.7941434E-06  0.3223018E+04  0.7818609E-02  0.8182765E-01
       -2   -1    0    0    0  501  0.00000000000E+00  0.00000000000E+00  0.18588787513E+04  0.18588787513E+04  0.25500000920E-02 0. -1.
        2   -1    0    0  501    0  0.00000000000E+00  0.00000000000E+00 -0.13970577087E+04  0.13970577087E+04  0.25500000920E-02 0.  1.
    10030    2    1    2    0    0  0.00000000000E+00  0.00000000000E+00  0.46182104254E+03  0.32559364600E+04  0.32230177716E+04 0.  0.
        4    1    3    3  502    0 -0.12449748357E+04  0.10020336816E+04  0.44021117068E+03  0.16576553708E+04  0.12699999809E+01 0. -1.
       -4    1    3    3    0  502  0.12449748357E+04 -0.10020336816E+04  0.21609871867E+02  0.15982810892E+04  0.12699999809E+01 0.  1.
</event>
<event>
 5   0  0.7971763E-06  0.3195951E+04  0.7818609E-02  0.8189887E-01
       -2   -1    0    0    0  501  0.00000000000E+00  0.00000000000E+00  0.12498381536E+04  0.12498381536E+04  0.25500000920E-02 0. -1.
        2   -1    0    0  501    0  0.00000000000E+00  0.00000000000E+00 -0.20430847216E+04  0.20430847216E+04  0.25500000920E-02 0.  1.
    10030    2    1    2    0    0  0.00000000000E+00  0.00000000000E+00 -0.79324656804E+03  0.32929228752E+04  0.31959507105E+04 0.  0.
        1    1    3    3  502    0  0.10168234676E+04  0.26681526216E+03 -0.16366369661E+04  0.19451737473E+04  0.50400001928E-02 0.  1.
       -1    1    3    3    0  502 -0.10168234676E+04 -0.26681526216E+03  0.84339039803E+03  0.13477491279E+04  0.50400001928E-02 0. -1.
</event>
<event>
 5   0  0.2933646E-06  0.2703953E+04  0.7818609E-02  0.8333724E-01
        1   -1    0    0  501    0  0.00000000000E+00  0.00000000000E+00  0.88059008586E+03  0.88059008588E+03  0.50400001928E-02 0.  1.
       -1   -1    0    0    0  501  0.00000000000E+00  0.00000000000E+00 -0.20756991243E+04  0.20756991243E+04  0.50400001928E-02 0. -1.
    10030    2    1    2    0    0  0.00000000000E+00  0.00000000000E+00 -0.11951090385E+04  0.29562892102E+04  0.27039527142E+04 0.  0.
        2    1    3    3  502    0  0.11381655477E+04 -0.57258735982E+03 -0.10306016475E+03  0.12782403906E+04  0.25500000920E-02 0.  1.
       -2    1    3    3    0  502 -0.11381655477E+04  0.57258735982E+03 -0.10920488737E+04  0.16780488196E+04  0.25500000920E-02 0. -1.
</event>
<event>
 5   0  0.2933646E-06  0.3323704E+04  0.7818609E-02  0.8156890E-01
        1   -1    0    0  501    0  0.00000000000E+00  0.00000000000E+00  0.10524899507E+04  0.10524899507E+04  0.50400001928E-02 0.  1.
       -1   -1    0    0    0  501  0.00000000000E+00  0.00000000000E+00 -0.26240179616E+04  0.26240179616E+04  0.50400001928E-02 0. -1.
    10030    2    1    2    0    0  0.00000000000E+00  0.00000000000E+00 -0.15715280109E+04  0.36765079124E+04  0.33237042800E+04 0.  0.
        2    1    3    3  502    0  0.10772966184E+04 -0.10289881920E+04  0.28865414472E+02  0.14900395684E+04  0.25500000920E-02 0.  1.
       -2    1    3    3    0  502 -0.10772966184E+04  0.10289881920E+04 -0.16003934254E+04  0.21864683440E+04  0.25500000920E-02 0. -1.
</event>
<event>
 5   0  0.7941434E-06  0.3149492E+04  0.7818609E-02  0.8202285E-01
        2   -1    0    0  501    0  0.00000000000E+00  0.00000000000E+00  0.18348291191E+04  0.18348291191E+04  0.25500000920E-02 0.  1.
       -2   -1    0    0    0  501  0.00000000000E+00  0.00000000000E+00 -0.13515290279E+04  0.13515290279E+04  0.25500000920E-02 0. -1.
    10030    2    1    2    0    0  0.00000000000E+00  0.00000000000E+00  0.48330009118E+03  0.31863581469E+04  0.31494919054E+04 0.  0.
        4    1    3    3  502    0  0.13552743694E+03 -0.54992977136E+03  0.17282143794E+04  0.18186580199E+04  0.12699999809E+01 0.  1.
       -4    1    3    3    0  502 -0.13552743694E+03  0.54992977136E+03 -0.12449142882E+04  0.13677001270E+04  0.12699999809E+01 0. -1.
</event>
<event>
 5   0  0.2875194E-06  0.1689654E+04  0.7818609E-02  0.8767287E-01
        1   -1    0    0  501    0  0.00000000000E+00  0.00000000000E+00  0.10201266989E+04  0.10201266989E+04  0.50400001928E-02 0.  1.
       -1   -1    0    0    0  501  0.00000000000E+00  0.00000000000E+00 -0.69965073153E+03  0.69965073155E+03  0.50400001928E-02 0. -1.
    10030    2    1    2    0    0  0.00000000000E+00  0.00000000000E+00  0.32047596740E+03  0.17197774305E+04  0.16896536819E+04 0.  0.
        3    1    3    3  502    0 -0.73046929311E+03 -0.38021426259E+03 -0.31762615446E+02  0.82410991233E+03  0.10100000352E+00 0. -1.
       -3    1    3    3    0  502  0.73046929311E+03  0.38021426259E+03  0.35223858285E+03  0.89566751817E+03  0.10100000352E+00 0.  1.
</event>
<event>
 5   0  0.7941434E-06  0.2329781E+04  0.7818609E-02  0.8466271E-01
        2   -1    0    0  501    0  0.00000000000E+00  0.00000000000E+00  0.13312970443E+04  0.13312970443E+04  0.25500000920E-02 0.  1.
       -2   -1    0    0    0  501  0.00000000000E+00  0.00000000000E+00 -0.10192837898E+04  0.10192837898E+04  0.25500000920E-02 0. -1.
    10030    2    1    2    0    0  0.00000000000E+00  0.00000000000E+00  0.31201325451E+03  0.23505808341E+04  0.23297806735E+04 0.  0.
        4    1    3    3  502    0  0.62642679942E+03 -0.69038411878E+03  0.86076075805E+03  0.12688386272E+04  0.12699999809E+01 0.  1.
       -4    1    3    3    0  502 -0.62642679942E+03  0.69038411878E+03 -0.54874750354E+03  0.10817422068E+04  0.12699999809E+01 0. -1.
</event>
<event>
 5   0  0.2788054E-06  0.2172609E+04  0.7818609E-02  0.8529916E-01
       -1   -1    0    0    0  501  0.00000000000E+00  0.00000000000E+00  0.14051763443E+04  0.14051763443E+04  0.50400001928E-02 0.  1.
        1   -1    0    0  501    0  0.00000000000E+00  0.00000000000E+00 -0.83979349681E+03  0.83979349682E+03  0.50400001928E-02 0. -1.
    10030    2    1    2    0    0  0.00000000000E+00  0.00000000000E+00  0.56538284751E+03  0.22449698412E+04  0.21726094503E+04 0.  0.
        3    1    3    3  502    0 -0.86642818613E+02  0.69865687456E+03  0.11375479258E+04  0.13377756539E+04  0.10100000352E+00 0.  1.
       -3    1    3    3    0  502  0.86642818613E+02 -0.69865687456E+03 -0.57216507830E+03  0.90719418727E+03  0.10100000352E+00 0. -1.
</event>
<event>
 5   0  0.2788054E-06  0.3250244E+04  0.7818609E-02  0.8175672E-01
       -1   -1    0    0    0  501  0.00000000000E+00  0.00000000000E+00  0.14179415748E+04  0.14179415748E+04  0.50400001928E-02 0. -1.
        1   -1    0    0  501    0  0.00000000000E+00  0.00000000000E+00 -0.18625747231E+04  0.18625747231E+04  0.50400001928E-02 0.  1.
    10030    2    1    2    0    0  0.00000000000E+00  0.00000000000E+00 -0.44463314824E+03  0.32805162979E+04  0.32502443822E+04 0.  0.
        3    1    3    3  502    0  0.19661217526E+03  0.15155428059E+04 -0.78018115970E+03  0.17158697492E+04  0.10100000352E+00 0.  1.
       -3    1    3    3    0  502 -0.19661217526E+03 -0.15155428059E+04  0.33554801145E+03  0.15646465487E+04  0.10100000352E+00 0. -1.
</event>
<event>
 5   0  0.7941434E-06  0.3157809E+04  0.7818609E-02  0.8200049E-01
       -2   -1    0    0    0  501  0.00000000000E+00  0.00000000000E+00  0.14613052921E+04  0.14613052921E+04  0.25500000920E-02 0. -1.
        2   -1    0    0  501    0  0.00000000000E+00  0.00000000000E+00 -0.17059673175E+04  0.17059673175E+04  0.25500000920E-02 0.  1.
    10030    2    1    2    0    0  0.00000000000E+00  0.00000000000E+00 -0.24466202543E+03  0.31672726096E+04  0.31578087778E+04 0.  0.
        4    1    3    3  502    0  0.50887166870E+03 -0.13401817588E+04  0.54139227781E+03  0.15323657308E+04  0.12699999809E+01 0. -1.
       -4    1    3    3    0  502 -0.50887166870E+03  0.13401817588E+04 -0.78605430324E+03  0.16349068788E+04  0.12699999809E+01 0.  1.
</event>
<event>
 5   0  0.7971763E-06  0.3508579E+04  0.7818609E-02  0.8111760E-01
       -2   -1    0    0    0  501  0.00000000000E+00  0.00000000000E+00  0.13718920411E+04  0.13718920411E+04  0.25500000920E-02 0.  1.
        2   -1    0    0  501    0  0.00000000000E+00  0.00000000000E+00 -0.22432751953E+04  0.22432751953E+04  0.25500000920E-02 0. -1.
    10030    2    1    2    0    0  0.00000000000E+00  0.00000000000E+00 -0.87138315418E+03  0.36151672363E+04  0.35085788498E+04 0.  0.
        1    1    3    3  502    0  0.68840644478E+03 -0.89845005725E+03 -0.18167134015E+04  0.21404587176E+04  0.50400001928E-02 0. -1.
       -1    1    3    3    0  502 -0.68840644478E+03  0.89845005725E+03  0.94533024734E+03  0.14747085187E+04  0.50400001928E-02 0.  1.
</event>
<event>
 5   0  0.7952307E-06  0.3216235E+04  0.7818609E-02  0.8184543E-01
        2   -1    0    0  501    0  0.00000000000E+00  0.00000000000E+00  0.15406371286E+04  0.15406371286E+04  0.25500000920E-02 0. -1.
       -2   -1    0    0    0  501  0.00000000000E+00  0.00000000000E+00 -0.16785532591E+04  0.16785532591E+04  0.25500000920E-02 0.  1.
    10030    2    1    2    0    0  0.00000000000E+00  0.00000000000E+00 -0.13791613049E+03  0.32191903877E+04  0.32162347385E+04 0.  0.
        2    1    3    3  502    0  0.28054163781E+03  0.81368789088E+03 -0.14286061541E+04  0.16678450581E+04  0.25500000920E-02 0.  1.
       -2    1    3    3    0  502 -0.28054163781E+03 -0.81368789088E+03  0.12906900237E+04  0.15513453295E+04  0.25500000920E-02 0. -1.
</event>
<event>
 5   0  0.7941434E-06  0.3032409E+04  0.7818609E-02  0.8234536E-01
        2   -1    0    0  501    0  0.00000000000E+00  0.00000000000E+00  0.20546064451E+04  0.20546064451E+04  0.25500000920E-02 0.  1.
       -2   -1    0    0    0  501  0.00000000000E+00  0.00000000000E+00 -0.11188889698E+04  0.11188889698E+04  0.25500000920E-02 0. -1.
    10030    2    1    2    0    0  0.00000000000E+00  0.00000000000E+00  0.93571747529E+03  0.31734954148E+04  0.30324092656E+04 0.  0.
        4    1    3    3  502    0 -0.35249549328E+03 -0.52662811588E+02 -0.10744269094E+04  0.11319987813E+04  0.12699999809E+01 0. -1.
       -4    1    3    3    0  502  0.35249549328E+03  0.52662811588E+02  0.20101443846E+04  0.20414966335E+04  0.12699999809E+01 0.  1.
</event>
<event>
 5   0  0.2635798E-06  0.3212656E+04  0.7818609E-02  0.8185483E-01
       -1   -1    0    0    0  501  0.00000000000E+00  0.00000000000E+00  0.16004060201E+04  0.16004060201E+04  0.50400001928E-02 0. -1.
        1   -1    0    0  501    0  0.00000000000E+00  0.00000000000E+00 -0.16122719545E+04  0.16122719545E+04  0.50400001928E-02 0.  1.
    10030    2    1    2    0    0  0.00000000000E+00  0.00000000000E+00 -0.11865934364E+02  0.32126779747E+04  0.32126560613E+04 0.  0.
        1    1    3    3  502    0  0.21884069997E+03  0.15579747887E+04 -0.33014660317E+03  0.16075364611E+04  0.50400001928E-02 0.  1.
       -1    1    3    3    0  502 -0.21884069997E+03 -0.15579747887E+04  0.31828066881E+03  0.16051415135E+04  0.50400001928E-02 0. -1.
</event>
<event>
 5   0  0.2788054E-06  0.3685550E+04  0.7818609E-02  0.8071172E-01
       -1   -1    0    0    0  501  0.00000000000E+00  0.00000000000E+00  0.14154254960E+04  0.14154254960E+04  0.50400001928E-02 0. -1.
        1   -1    0    0  501    0  0.00000000000E+00  0.00000000000E+00 -0.23991507619E+04  0.23991507619E+04  0.50400001928E-02 0.  1.
    10030    2    1    2    0    0  0.00000000000E+00  0.00000000000E+00 -0.98372526587E+03  0.38145762579E+04  0.36855497051E+04 0.  0.
        3    1    3    3  502    0  0.40489668541E+03 -0.23636468082E+03  0.13526639948E+04  0.14316107995E+04  0.10100000352E+00 0. -1.
       -3    1    3    3    0  502 -0.40489668541E+03  0.23636468082E+03 -0.23363892607E+04  0.23829654584E+04  0.10100000352E+00 0.  1.
</event>
<event>
 5   0  0.7952307E-06  0.3230920E+04  0.7818609E-02  0.8180699E-01
       -2   -1    0    0    0  501  0.00000000000E+00  0.00000000000E+00  0.97391820490E+03  0.97391820490E+03  0.25500000920E-02 0. -1.
        2   -1    0    0  501    0  0.00000000000E+00  0.00000000000E+00 -0.26795993262E+04  0.26795993262E+04  0.25500000920E-02 0.  1.
    10030    2    1    2    0    0  0.00000000000E+00  0.00000000000E+00 -0.17056811213E+04  0.36535175311E+04  0.32309197240E+04 0.  0.
        2    1    3    3  502    0  0.52369436014E+02 -0.10206663127E+03  0.96930642666E+03  0.97607125960E+03  0.25500000920E-02 0. -1.
       -2    1    3    3    0  502 -0.52369436014E+02  0.10206663127E+03 -0.26749875480E+04  0.26774462715E+04  0.25500000920E-02 0.  1.
</event>
<event>
 5   0  0.2933646E-06  0.3207188E+04  0.7818609E-02  0.8186921E-01
        1   -1    0    0  501    0  0.00000000000E+00  0.00000000000E+00  0.85853279291E+03  0.85853279292E+03  0.50400001928E-02 0.  1.
       -1   -1    0    0    0  501  0.00000000000E+00  0.00000000000E+00 -0.29952430618E+04  0.29952430618E+04  0.50400001928E-02 0. -1.
    10030    2    1    2    0    0  0.00000000000E+00  0.00000000000E+00 -0.21367102689E+04  0.38537758547E+04  0.32071884206E+04 0.  0.
        2    1    3    3  502    0 -0.15488623333E+04  0.28611106541E+03 -0.14301967413E+04  0.21275095271E+04  0.25500000920E-02 0. -1.
       -2    1    3    3    0  502  0.15488623333E+04 -0.28611106541E+03 -0.70651352760E+03  0.17262663276E+04  0.25500000920E-02 0.  1.
</event>
<event>
 5   0  0.3938696E-06  0.3203859E+04  0.7818609E-02  0.8187799E-01
       -1   -1    0    0    0  501  0.00000000000E+00  0.00000000000E+00  0.11382553484E+04  0.11382553484E+04  0.50400001928E-02 0. -1.
        1   -1    0    0  501    0  0.00000000000E+00  0.00000000000E+00 -0.22544837230E+04  0.22544837230E+04  0.50400001928E-02 0.  1.
    10030    2    1    2    0    0  0.00000000000E+00  0.00000000000E+00 -0.11162283746E+04  0.33927390714E+04  0.32038590203E+04 0.  0.
        4    1    3    3  502    0  0.83678421802E+02 -0.80027825606E+03  0.90872972423E+03  0.12137704437E+04  0.12699999809E+01 0. -1.
       -4    1    3    3    0  502 -0.83678421802E+02  0.80027825606E+03 -0.20249580988E+04  0.21789686277E+04  0.12699999809E+01 0.  1.
</event>
<event>
 5   0  0.3938696E-06  0.3143402E+04  0.7818609E-02  0.8203926E-01
        1   -1    0    0  501    0  0.00000000000E+00  0.00000000000E+00  0.24923358914E+04  0.24923358914E+04  0.50400001928E-02 0.  1.
       -1   -1    0    0    0  501  0.00000000000E+00  0.00000000000E+00 -0.99113634684E+03  0.99113634685E+03  0.50400001928E-02 0. -1.
    10030    2    1    2    0    0  0.00000000000E+00  0.00000000000E+00  0.15011995446E+04  0.34834722383E+04  0.31434024181E+04 0.  0.
        4    1    3    3  502    0  0.15433282268E+04  0.27647697842E+03  0.87169933791E+03  0.17939238790E+04  0.12699999809E+01 0. -1.
       -4    1    3    3    0  502 -0.15433282268E+04 -0.27647697842E+03  0.62950020669E+03  0.16895483593E+04  0.12699999809E+01 0.  1.
</event>
<event>
 5   0  0.7952307E-06  0.3036923E+04  0.7818609E-02  0.8233265E-01
        2   -1    0    0  501    0  0.00000000000E+00  0.00000000000E+00  0.22662341745E+04  0.22662341745E+04  0.25500000920E-02 0.  1.
       -2   -1    0    0    0  501  0.00000000000E+00  0.00000000000E+00 -0.10174259713E+04  0.10174259714E+04  0.25500000920E-02 0. -1.
    10030    2    1    2    0    0  0.00000000000E+00  0.00000000000E+00  0.12488082031E+04  0.32836601458E+04  0.30369231181E+04 0.  0.
        2    1    3    3  502    0  0.11535100838E+04 -0.43846982896E+03  0.15810983632E+04  0.20056702965E+04  0.25500000920E-02 0.  1.
       -2    1    3    3    0  502 -0.11535100838E+04  0.43846982896E+03 -0.33229016004E+03  0.12779898493E+04  0.25500000920E-02 0. -1.
</event>
<event>
 5   0  0.2788054E-06  0.3194573E+04  0.7818609E-02  0.8190252E-01
       -1   -1    0    0    0  501  0.00000000000E+00  0.00000000000E+00  0.14305324923E+04  0.14305324923E+04  0.50400001928E-02 0.  1.
        1   -1    0    0  501    0  0.00000000000E+00  0.00000000000E+00 -0.17834781584E+04  0.17834781584E+04  0.50400001928E-02 0. -1.
    10030    2    1    2    0    0  0.00000000000E+00  0.00000000000E+00 -0.35294566615E+03  0.32140106507E+04  0.31945725566E+04 0.  0.
        3    1    3    3  502    0  0.15271132574E+04 -0.42919830570E+03 -0.36479447456E+03  0.16276858129E+04  0.10100000352E+00 0. -1.
       -3    1    3    3    0  502 -0.15271132574E+04  0.42919830570E+03  0.11848808415E+02  0.15863248378E+04  0.10100000352E+00 0.  1.
</event>
<event>
 5   0  0.7952307E-06  0.1706171E+04  0.7818609E-02  0.8757853E-01
       -2   -1    0    0    0  501  0.00000000000E+00  0.00000000000E+00  0.62135090951E+03  0.62135090952E+03  0.25500000920E-02 0. -1.
        2   -1    0    0  501    0  0.00000000000E+00  0.00000000000E+00 -0.11712462044E+04  0.11712462044E+04  0.25500000920E-02 0.  1.
    10030    2    1    2    0    0  0.00000000000E+00  0.00000000000E+00 -0.54989529489E+03  0.17925971139E+04  0.17061710282E+04 0.  0.
        2    1    3    3  502    0  0.29172467760E+03 -0.55206645102E+03  0.33576606448E+03  0.70895663049E+03  0.25500000920E-02 0. -1.
       -2    1    3    3    0  502 -0.29172467760E+03  0.55206645102E+03 -0.88566135937E+03  0.10836404834E+04  0.25500000920E-02 0.  1.
</event>
<event>
 5   0  0.7952307E-06  0.3117749E+04  0.7818609E-02  0.8210884E-01
        2   -1    0    0  501    0  0.00000000000E+00  0.00000000000E+00  0.21667998028E+04  0.21667998028E+04  0.25500000920E-02 0. -1.
       -2   -1    0    0    0  501  0.00000000000E+00  0.00000000000E+00 -0.11215111468E+04  0.11215111468E+04  0.25500000920E-02 0.  1.
    10030    2    1    2    0    0  0.00000000000E+00  0.00000000000E+00  0.10452886560E+04  0.32883109496E+04  0.31177492726E+04 0.  0.
        2    1    3    3  502    0  0.41163334828E+03 -0.10419943853E+04 -0.62057977234E+03  0.12807472687E+04  0.25500000920E-02 0.  1.
       -2    1    3    3    0  502 -0.41163334828E+03  0.10419943853E+04  0.16658684283E+04  0.20075636809E+04  0.25500000920E-02 0. -1.
</event>
<event>
 5   0  0.7952307E-06  0.3294025E+04  0.7818609E-02  0.8164417E-01
        2   -1    0    0  501    0  0.00000000000E+00  0.00000000000E+00  0.17224053484E+04  0.17224053484E+04  0.25500000920E-02 0.  1.
       -2   -1    0    0    0  501  0.00000000000E+00  0.00000000000E+00 -0.15749196110E+04  0.15749196110E+04  0.25500000920E-02 0. -1.
    10030    2    1    2    0    0  0.00000000000E+00  0.00000000000E+00  0.14748573738E+03  0.32973249594E+04  0.32940248701E+04 0.  0.
        2    1    3    3  502    0  0.13500639950E+04 -0.90693538057E+03 -0.18621980738E+03  0.16370346337E+04  0.25500000920E-02 0. -1.
       -2    1    3    3    0  502 -0.13500639950E+04  0.90693538057E+03  0.33370554476E+03  0.16602903257E+04  0.25500000920E-02 0.  1.
</event>
<event>
 5   0  0.7971763E-06  0.3175726E+04  0.7818609E-02  0.8195257E-01
        2   -1    0    0  501    0  0.00000000000E+00  0.00000000000E+00  0.12196934485E+04  0.12196934485E+04  0.25500000920E-02 0.  1.
       -2   -1    0    0    0  501  0.00000000000E+00  0.00000000000E+00 -0.20671661467E+04  0.20671661467E+04  0.25500000920E-02 0. -1.
    10030    2    1    2    0    0  0.00000000000E+00  0.00000000000E+00 -0.84747269827E+03  0.32868595952E+04  0.31757260625E+04 0.  0.
        1    1    3    3  502    0  0.94406163106E+03  0.50377797544E+03 -0.16379330727E+04  0.19564941509E+04  0.50400001928E-02 0. -1.
       -1    1    3    3    0  502 -0.94406163106E+03 -0.50377797544E+03  0.79046037445E+03  0.13303654443E+04  0.50400001928E-02 0.  1.
</event>
<event>
 5   0  0.2933646E-06  0.3197162E+04  0.7818609E-02  0.8189567E-01
        1   -1    0    0  501    0  0.00000000000E+00  0.00000000000E+00  0.25637923902E+04  0.25637923902E+04  0.50400001928E-02 0. -1.
       -1   -1    0    0    0  501  0.00000000000E+00  0.00000000000E+00 -0.99675029178E+03  0.99675029180E+03  0.50400001928E-02 0.  1.
    10030    2    1    2    0    0  0.00000000000E+00  0.00000000000E+00  0.15670420984E+04  0.35605426820E+04  0.31971617494E+04 0.  0.
        2    1    3    3  502    0 -0.12838642051E+04 -0.59522177572E+03 -0.44537339115E+02  0.14158318523E+04  0.25500000920E-02 0.  1.
       -2    1    3    3    0  502  0.12838642051E+04  0.59522177572E+03  0.16115794375E+04  0.21447108296E+04  0.25500000920E-02 0. -1.
</event>
<event>
 5   0  0.7941434E-06  0.3067576E+04  0.7818609E-02  0.8224693E-01
       -2   -1    0    0    0  501  0.00000000000E+00  0.00000000000E+00  0.12575195259E+04  0.12575195259E+04  0.25500000920E-02 0. -1.
        2   -1    0    0  501    0  0.00000000000E+00  0.00000000000E+00 -0.18707506175E+04  0.18707506175E+04  0.25500000920E-02 0.  1.
    10030    2    1    2    0    0  0.00000000000E+00  0.00000000000E+00 -0.61323109158E+03  0.31282701433E+04  0.30675758700E+04 0.  0.
        4    1    3    3  502    0 -0.60536878919E+03 -0.10296140611E+04  0.67467448913E+03  0.13717739482E+04  0.12699999809E+01 0. -1.
       -4    1    3    3    0  502  0.60536878919E+03  0.10296140611E+04 -0.12879055807E+04  0.17564961951E+04  0.12699999809E+01 0.  1.
</event>
<event>
 5   0  0.8237664E-06  0.2857724E+04  0.7818609E-02  0.8285568E-01
        2   -1    0    0  501    0  0.00000000000E+00  0.00000000000E+00  0.16590142834E+04  0.16590142834E+04  0.25500000920E-02 0. -1.
       -2   -1    0    0    0  501  0.00000000000E+00  0.00000000000E+00 -0.12306381887E+04  0.12306381887E+04  0.25500000920E-02 0.  1.
    10030    2    1    2    0    0  0.00000000000E+00  0.00000000000E+00  0.42837609467E+03  0.28896524721E+04  0.28577238024E+04 0.  0.
        5    1    3    3  502    0 -0.27286306728E+02 -0.26818817247E+03  0.16330601062E+04  0.16551667103E+04  0.46999998093E+01 0. -1.
       -5    1    3    3    0  502  0.27286306728E+02  0.26818817247E+03 -0.12046840115E+04  0.12344857618E+04  0.46999998093E+01 0.  1.
</event>
<event>
 5   0  0.4142886E-06  0.3272645E+04  0.7818609E-02  0.8169891E-01
       -1   -1    0    0    0  501  0.00000000000E+00  0.00000000000E+00  0.22671297246E+04  0.22671297246E+04  0.50400001928E-02 0.  1.
        1   -1    0    0  501    0  0.00000000000E+00  0.00000000000E+00 -0.11810314113E+04  0.11810314113E+04  0.50400001928E-02 0. -1.
    10030    2    1    2    0    0  0.00000000000E+00  0.00000000000E+00  0.10860983133E+04  0.34481611359E+04  0.32726450576E+04 0.  0.
        5    1    3    3  502    0 -0.12144217215E+04 -0.81685519271E+03 -0.22794461251E+03  0.14812337289E+04  0.46999998093E+01 0. -1.
       -5    1    3    3    0  502  0.12144217215E+04  0.81685519271E+03  0.13140429258E+04  0.19669274070E+04  0.46999998093E+01 0.  1.
</event>
<event>
 5   0  0.8237664E-06  0.1978366E+04  0.7818609E-02  0.8616803E-01
        2   -1    0    0  501    0  0.00000000000E+00  0.00000000000E+00  0.17520793654E+04  0.17520793654E+04  0.25500000920E-02 0. -1.
       -2   -1    0    0    0  501  0.00000000000E+00  0.00000000000E+00 -0.55846931899E+03  0.55846931899E+03  0.25500000920E-02 0.  1.
    10030    2    1    2    0    0  0.00000000000E+00  0.00000000000E+00  0.11936100465E+04  0.23105486844E+04  0.19783655578E+04 0.  0.
        5    1    3    3  502    0 -0.44858652444E+03 -0.20067817088E+03  0.15994108167E+04  0.16732120753E+04  0.46999998093E+01 0. -1.
       -5    1    3    3    0  502  0.44858652444E+03  0.20067817088E+03 -0.40580077029E+03  0.63733660914E+03  0.46999998093E+01 0.  1.
</event>
<event>
 5   0  0.4142886E-06  0.2294025E+04  0.7818609E-02  0.8480281E-01
        1   -1    0    0  501    0  0.00000000000E+00  0.00000000000E+00  0.11920957960E+04  0.11920957960E+04  0.50400001928E-02 0.  1.
       -1   -1    0    0    0  501  0.00000000000E+00  0.00000000000E+00 -0.11036340244E+04  0.11036340244E+04  0.50400001928E-02 0. -1.
    10030    2    1    2    0    0  0.00000000000E+00  0.00000000000E+00  0.88461771595E+02  0.22957298204E+04  0.22940248306E+04 0.  0.
        5    1    3    3  502    0 -0.57379437952E+03  0.36569854745E+03 -0.87984046466E+03  0.11122575020E+04  0.46999998093E+01 0. -1.
       -5    1    3    3    0  502  0.57379437952E+03 -0.36569854745E+03  0.96830223626E+03  0.11834723184E+04  0.46999998093E+01 0.  1.
</event>
<event>
 5   0  0.8237664E-06  0.2131367E+04  0.7818609E-02  0.8547551E-01
       -2   -1    0    0    0  501  0.00000000000E+00  0.00000000000E+00  0.71316792520E+03  0.71316792520E+03  0.25500000920E-02 0. -1.
        2   -1    0    0  501    0  0.00000000000E+00  0.00000000000E+00 -0.15924454325E+04  0.15924454325E+04  0.25500000920E-02 0.  1.
    10030    2    1    2    0    0  0.00000000000E+00  0.00000000000E+00 -0.87927750732E+03  0.23056133577E+04  0.21313667025E+04 0.  0.
        5    1    3    3  502    0  0.31787753013E+03  0.43650486271E+03 -0.14334848929E+04  0.15318236346E+04  0.46999998093E+01 0.  1.
       -5    1    3    3    0  502 -0.31787753013E+03 -0.43650486271E+03  0.55420738560E+03  0.77378972311E+03  0.46999998093E+01 0. -1.
</event>
<event>
 5   0  0.7952307E-06  0.3168740E+04  0.7818609E-02  0.8197122E-01
        2   -1    0    0  501    0  0.00000000000E+00  0.00000000000E+00  0.32343290169E+04  0.32343290169E+04  0.25500000920E-02 0.  1.
       -2   -1    0    0    0  501  0.00000000000E+00  0.00000000000E+00 -0.77612008657E+03  0.77612008658E+03  0.25500000920E-02 0. -1.
    10030    2    1    2    0    0  0.00000000000E+00  0.00000000000E+00  0.24582089303E+04  0.40104491035E+04  0.31687396337E+04 0.  0.
        2    1    3    3  502    0  0.43042980541E+02  0.14601479516E+04  0.45268151953E+03  0.15293153033E+04  0.25500000920E-02 0. -1.
       -2    1    3    3    0  502 -0.43042980541E+02 -0.14601479516E+04  0.20055274108E+04  0.24811338002E+04  0.25500000920E-02 0.  1.
</event>
<event>
 5   0  0.2635798E-06  0.2592382E+04  0.7818609E-02  0.8370793E-01
        1   -1    0    0  501    0  0.00000000000E+00  0.00000000000E+00  0.10094528290E+04  0.10094528290E+04  0.50400001928E-02 0.  1.
       -1   -1    0    0    0  501  0.00000000000E+00  0.00000000000E+00 -0.16643783572E+04  0.16643783572E+04  0.50400001928E-02 0. -1.
    10030    2    1    2    0    0  0.00000000000E+00  0.00000000000E+00 -0.65492552814E+03  0.26738311862E+04  0.25923822567E+04 0.  0.
        1    1    3    3  502    0  0.67697114397E+03 -0.72755518494E+03 -0.11857647515E+04  0.15471472208E+04  0.50400001928E-02 0. -1.
       -1    1    3    3    0  502 -0.67697114397E+03  0.72755518494E+03  0.53083922334E+03  0.11266839654E+04  0.50400001928E-02 0.  1.
</event>
<event>
 5   0  0.2788054E-06  0.3185995E+04  0.7818609E-02  0.8192526E-01
       -1   -1    0    0    0  501  0.00000000000E+00  0.00000000000E+00  0.14264047335E+04  0.14264047335E+04  0.50400001928E-02 0. -1.
        1   -1    0    0  501    0  0.00000000000E+00  0.00000000000E+00 -0.17790474892E+04  0.17790474892E+04  0.50400001928E-02 0.  1.
    10030    2    1    2    0    0  0.00000000000E+00  0.00000000000E+00 -0.35264275577E+03  0.32054522227E+04  0.31859954550E+04 0.  0.
        3    1    3    3  502    0  0.34558992027E+03  0.81531657623E+02  0.13860827123E+04  0.14308406969E+04  0.10100000352E+00 0. -1.
       -3    1    3    3    0  502 -0.34558992027E+03 -0.81531657623E+02 -0.17387254681E+04  0.17746115259E+04  0.10100000352E+00 0.  1.
</event>
<event>
 5   0  0.7941434E-06  0.2843556E+04  0.7818609E-02  0.8289872E-01
       -2   -1    0    0    0  501  0.00000000000E+00  0.00000000000E+00  0.20490733544E+04  0.20490733544E+04  0.25500000920E-02 0. -1.
        2   -1    0    0  501    0  0.00000000000E+00  0.00000000000E+00 -0.98652041515E+03  0.98652041515E+03  0.25500000920E-02 0.  1.
    10030    2    1    2    0    0  0.00000000000E+00  0.00000000000E+00  0.10625529393E+04  0.30355937696E+04  0.28435560105E+04 0.  0.
        4    1    3    3  502    0  0.11926882068E+04  0.21175189308E+03 -0.26337869020E+03  0.12396426784E+04  0.12699999809E+01 0.  1.
       -4    1    3    3    0  502 -0.11926882068E+04 -0.21175189308E+03  0.13259316295E+04  0.17959510911E+04  0.12699999809E+01 0. -1.
</event>
<event>
 5   0  0.7941434E-06  0.3190269E+04  0.7818609E-02  0.8191392E-01
        2   -1    0    0  501    0  0.00000000000E+00  0.00000000000E+00  0.22611929220E+04  0.22611929220E+04  0.25500000920E-02 0. -1.
       -2   -1    0    0    0  501  0.00000000000E+00  0.00000000000E+00 -0.11252703357E+04  0.11252703357E+04  0.25500000920E-02 0.  1.
    10030    2    1    2    0    0  0.00000000000E+00  0.00000000000E+00  0.11359225862E+04  0.33864632577E+04  0.31902685269E+04 0.  0.
        4    1    3    3  502    0 -0.14866916957E+04 -0.44568280750E+03  0.95879775048E+03  0.18243300420E+04  0.12699999809E+01 0. -1.
       -4    1    3    3    0  502  0.14866916957E+04  0.44568280750E+03  0.17712483575E+03  0.15621332156E+04  0.12699999809E+01 0.  1.
</event>
<event>
 5   0  0.7971763E-06  0.3208261E+04  0.7818609E-02  0.8186639E-01
        2   -1    0    0  501    0  0.00000000000E+00  0.00000000000E+00  0.11923563677E+04  0.11923563677E+04  0.25500000920E-02 0. -1.
       -2   -1    0    0    0  501  0.00000000000E+00  0.00000000000E+00 -0.21581090339E+04  0.21581090339E+04  0.25500000920E-02 0.  1.
    10030    2    1    2    0    0  0.00000000000E+00  0.00000000000E+00 -0.96575266620E+03  0.33504654016E+04  0.32082612417E+04 0.  0.
        1    1    3    3  502    0  0.48267058567E+03 -0.12257011976E+04 -0.14388300805E+04  0.19507809515E+04  0.50400001928E-02 0.  1.
       -1    1    3    3    0  502 -0.48267058567E+03  0.12257011976E+04  0.47307741435E+03  0.13996844501E+04  0.50400001928E-02 0. -1.
</event>
<event>
 5   0  0.2580875E-06  0.1702776E+04  0.7818609E-02  0.8759782E-01
       -4   -1    0    0    0  501  0.00000000000E+00  0.00000000000E+00  0.78239630035E+03  0.78239733109E+03  0.12699999809E+01 0.  1.
        4   -1    0    0  501    0  0.00000000000E+00  0.00000000000E+00 -0.92646177546E+03  0.92646264592E+03  0.12699999809E+01 0. -1.
    10030    2    1    2    0    0  0.00000000000E+00  0.00000000000E+00 -0.14406547511E+03  0.17088599770E+04  0.17027764269E+04 0.  0.
        3    1    3    3  502    0  0.21821209031E+03  0.48919160410E+03 -0.73616509143E+03  0.91041968010E+03  0.10100000352E+00 0. -1.
       -3    1    3    3    0  502 -0.21821209031E+03 -0.48919160410E+03  0.59209961632E+03  0.79844029691E+03  0.10100000352E+00 0.  1.
</event>
<event>
 5   0  0.2788054E-06  0.3172271E+04  0.7818609E-02  0.8196179E-01
       -1   -1    0    0    0  501  0.00000000000E+00  0.00000000000E+00  0.13359849452E+04  0.13359849453E+04  0.50400001928E-02 0. -1.
        1   -1    0    0  501    0  0.00000000000E+00  0.00000000000E+00 -0.18831244969E+04  0.18831244969E+04  0.50400001928E-02 0.  1.
    10030    2    1    2    0    0  0.00000000000E+00  0.00000000000E+00 -0.54713955160E+03  0.32191094421E+04  0.31722710968E+04 0.  0.
        3    1    3    3  502    0 -0.28759999378E+03  0.15593971377E+04 -0.31144074340E+03  0.16159915026E+04  0.10100000352E+00 0. -1.
       -3    1    3    3    0  502  0.28759999378E+03 -0.15593971377E+04 -0.23569880820E+03  0.16031179395E+04  0.10100000352E+00 0.  1.
</event>
<event>
 5   0  0.2635798E-06  0.1788685E+04  0.7818609E-02  0.8712340E-01
        1   -1    0    0  501    0  0.00000000000E+00  0.00000000000E+00  0.11339071188E+04  0.11339071188E+04  0.50400001928E-02 0. -1.
       -1   -1    0    0    0  501  0.00000000000E+00  0.00000000000E+00 -0.70539126122E+03  0.70539126124E+03  0.50400001928E-02 0.  1.
    10030    2    1    2    0    0  0.00000000000E+00  0.00000000000E+00  0.42851585758E+03  0.18392983801E+04  0.17886846258E+04 0.  0.
        1    1    3    3  502    0 -0.47411403745E+03  0.23619070509E+02  0.99366756521E+03  0.11012344034E+04  0.50400001928E-02 0. -1.
       -1    1    3    3    0  502  0.47411403745E+03 -0.23619070509E+02 -0.56515170764E+03  0.73806397667E+03  0.50400001928E-02 0.  1.
</event>
<event>
 5   0  0.7952307E-06  0.3195115E+04  0.7818609E-02  0.8190108E-01
        2   -1    0    0  501    0  0.00000000000E+00  0.00000000000E+00  0.17079938968E+04  0.17079938968E+04  0.25500000920E-02 0. -1.
       -2   -1    0    0    0  501  0.00000000000E+00  0.00000000000E+00 -0.14942618220E+04  0.14942618220E+04  0.25500000920E-02 0.  1.
    10030    2    1    2    0    0  0.00000000000E+00  0.00000000000E+00  0.21373207474E+03  0.32022557188E+04  0.31951150666E+04 0.  0.
        2    1    3    3  502    0  0.64477536120E+02 -0.15852881464E+04 -0.80351361602E+02  0.15886321793E+04  0.25500000920E-02 0.  1.
       -2    1    3    3    0  502 -0.64477536120E+02  0.15852881464E+04  0.29408343634E+03  0.16136235395E+04  0.25500000920E-02 0. -1.
</event>
<event>
 5   0  0.2580875E-06  0.3157481E+04  0.7818609E-02  0.8200138E-01
        3   -1    0    0  501    0  0.00000000000E+00  0.00000000000E+00  0.11911250177E+04  0.11911250220E+04  0.10100000352E+00 0.  1.
       -3   -1    0    0    0  501  0.00000000000E+00  0.00000000000E+00 -0.20924931336E+04  0.20924931360E+04  0.10100000352E+00 0. -1.
    10030    2    1    2    0    0  0.00000000000E+00  0.00000000000E+00 -0.90136811591E+03  0.32836181580E+04  0.31574805981E+04 0.  0.
        1    1    3    3  502    0 -0.96619225907E+03 -0.95481492905E+03  0.38595581883E+03  0.14121476284E+04  0.50400001928E-02 0.  1.
       -1    1    3    3    0  502  0.96619225907E+03  0.95481492905E+03 -0.12873239347E+04  0.18714705296E+04  0.50400001928E-02 0. -1.
</event>
<event>
 5   0  0.2788054E-06  0.3247719E+04  0.7818609E-02  0.8176327E-01
        1   -1    0    0  501    0  0.00000000000E+00  0.00000000000E+00  0.18119731270E+04  0.18119731270E+04  0.50400001928E-02 0.  1.
       -1   -1    0    0    0  501  0.00000000000E+00  0.00000000000E+00 -0.14552748508E+04  0.14552748508E+04  0.50400001928E-02 0. -1.
    10030    2    1    2    0    0  0.00000000000E+00  0.00000000000E+00  0.35669827623E+03  0.32672479779E+04  0.32477185359E+04 0.  0.
        3    1    3    3  502    0  0.65670369792E+03 -0.50698954570E+03 -0.12259750526E+04  0.14803084091E+04  0.10100000352E+00 0. -1.
       -3    1    3    3    0  502 -0.65670369792E+03  0.50698954570E+03  0.15826733288E+04  0.17869395687E+04  0.10100000352E+00 0.  1.
</event>
<event>
 5   0  0.2933646E-06  0.3117157E+04  0.7818609E-02  0.8211045E-01
        1   -1    0    0  501    0  0.00000000000E+00  0.00000000000E+00  0.18362326900E+04  0.18362326900E+04  0.50400001928E-02 0.  1.
       -1   -1    0    0    0  501  0.00000000000E+00  0.00000000000E+00 -0.13229081645E+04  0.13229081645E+04  0.50400001928E-02 0. -1.
    10030    2    1    2    0    0  0.00000000000E+00  0.00000000000E+00  0.51332452546E+03  0.31591408545E+04  0.31171571776E+04 0.  0.
        2    1    3    3  502    0  0.38639817098E+01 -0.15309598791E+04  0.55268207981E+03  0.16276702870E+04  0.25500000920E-02 0.  1.
       -2    1    3    3    0  502 -0.38639817098E+01  0.15309598791E+04 -0.39357554344E+02  0.15314705675E+04  0.25500000920E-02 0. -1.
</event>
<event>
 5   0  0.7952307E-06  0.2829711E+04  0.7818609E-02  0.8294103E-01
        2   -1    0    0  501    0  0.00000000000E+00  0.00000000000E+00  0.18143714539E+04  0.18143714539E+04  0.25500000920E-02 0. -1.
       -2   -1    0    0    0  501  0.00000000000E+00  0.00000000000E+00 -0.11033111323E+04  0.11033111323E+04  0.25500000920E-02 0.  1.
    10030    2    1    2    0    0  0.00000000000E+00  0.00000000000E+00  0.71106032157E+03  0.29176825862E+04  0.28297110971E+04 0.  0.
        2    1    3    3  502    0 -0.91741387383E+03 -0.62586932517E+03  0.12593988325E+04  0.16791206173E+04  0.25500000920E-02 0. -1.
       -2    1    3    3    0  502  0.91741387383E+03  0.62586932517E+03 -0.54833851097E+03  0.12385619689E+04  0.25500000920E-02 0.  1.
</event>
<event>
 5   0  0.7510251E-06  0.3234396E+04  0.7818609E-02  0.8179792E-01
       -2   -1    0    0    0  501  0.00000000000E+00  0.00000000000E+00  0.19399462841E+04  0.19399462841E+04  0.25500000920E-02 0.  1.
        2   -1    0    0  501    0  0.00000000000E+00  0.00000000000E+00 -0.13481456413E+04  0.13481456413E+04  0.25500000920E-02 0. -1.
    10030    2    1    2    0    0  0.00000000000E+00  0.00000000000E+00  0.59180064276E+03  0.32880919254E+04  0.32343964675E+04 0.  0.
        3    1    3    3  502    0  0.34124698098E+03  0.50228636444E+02 -0.13103162568E+04  0.13549542874E+04  0.10100000352E+00 0. -1.
       -3    1    3    3    0  502 -0.34124698098E+03 -0.50228636444E+02  0.19021168995E+04  0.19331376380E+04  0.10100000352E+00 0.  1.
</event>
<event>
 5   0  0.2580875E-06  0.3013464E+04  0.7818609E-02  0.8239897E-01
       -3   -1    0    0    0  501  0.00000000000E+00  0.00000000000E+00  0.86083585521E+03  0.86083586114E+03  0.10100000352E+00 0.  1.
        3   -1    0    0  501    0  0.00000000000E+00  0.00000000000E+00 -0.26372526281E+04  0.26372526300E+04  0.10100000352E+00 0. -1.
    10030    2    1    2    0    0  0.00000000000E+00  0.00000000000E+00 -0.17764167728E+04  0.34980884911E+04  0.30134642093E+04 0.  0.
        5    1    3    3  502    0 -0.58848090990E+03  0.17672554774E+03  0.70878494651E+03  0.93805111319E+03  0.46999998093E+01 0.  1.
       -5    1    3    3    0  502  0.58848090990E+03 -0.17672554774E+03 -0.24852017194E+04  0.25600373779E+04  0.46999998093E+01 0. -1.
</event>
<event>
 5   0  0.2635798E-06  0.3443634E+04  0.7818609E-02  0.8127279E-01
        1   -1    0    0  501    0  0.00000000000E+00  0.00000000000E+00  0.89684068515E+03  0.89684068516E+03  0.50400001928E-02 0.  1.
       -1   -1    0    0    0  501  0.00000000000E+00  0.00000000000E+00 -0.33056634585E+04  0.33056634585E+04  0.50400001928E-02 0. -1.
    10030    2    1    2    0    0  0.00000000000E+00  0.00000000000E+00 -0.24088227734E+04  0.42025041437E+04  0.34436338255E+04 0.  0.
        1    1    3    3  502    0  0.67386269392E+03 -0.46333767710E+03  0.64471181706E+03  0.10413577965E+04  0.50400001928E-02 0.  1.
       -1    1    3    3    0  502 -0.67386269392E+03  0.46333767710E+03 -0.30535345904E+04  0.31611463472E+04  0.50400001928E-02 0. -1.
</event>
<event>
 5   0  0.4142886E-06  0.3219481E+04  0.7818609E-02  0.8183691E-01
        1   -1    0    0  501    0  0.00000000000E+00  0.00000000000E+00  0.24406927924E+04  0.24406927924E+04  0.50400001928E-02 0.  1.
       -1   -1    0    0    0  501  0.00000000000E+00  0.00000000000E+00 -0.10616919901E+04  0.10616919901E+04  0.50400001928E-02 0. -1.
    10030    2    1    2    0    0  0.00000000000E+00  0.00000000000E+00  0.13790008024E+04  0.35023847825E+04  0.32194806960E+04 0.  0.
        5    1    3    3  502    0  0.29700166014E+03  0.42309974630E+03 -0.96893218999E+03  0.10982144874E+04  0.46999998093E+01 0. -1.
       -5    1    3    3    0  502 -0.29700166014E+03 -0.42309974630E+03  0.23479329923E+04  0.24041702951E+04  0.46999998093E+01 0.  1.
</event>
<event>
 5   0  0.8237664E-06  0.2920989E+04  0.7818609E-02  0.8266660E-01
        2   -1    0    0  501    0  0.00000000000E+00  0.00000000000E+00  0.15322739705E+04  0.15322739705E+04  0.25500000920E-02 0. -1.
       -2   -1    0    0    0  501  0.00000000000E+00  0.00000000000E+00 -0.13920777487E+04  0.13920777487E+04  0.25500000920E-02 0.  1.
    10030    2    1    2    0    0  0.00000000000E+00  0.00000000000E+00  0.14019622177E+03  0.29243517192E+04  0.29209892155E+04 0.  0.
        5    1    3    3  502    0  0.69302807257E+02  0.23414264093E+03  0.15116851158E+04  0.15312869211E+04  0.46999998093E+01 0. -1.
       -5    1    3    3    0  502 -0.69302807257E+02 -0.23414264093E+03 -0.13714888940E+04  0.13930647981E+04  0.46999998093E+01 0.  1.
</event>
<event>
 5   0  0.7952307E-06  0.3166370E+04  0.7818609E-02  0.8197756E-01
       -2   -1    0    0    0  501  0.00000000000E+00  0.00000000000E+00  0.25858673003E+04  0.25858673003E+04  0.25500000920E-02 0.  1.
        2   -1    0    0  501    0  0.00000000000E+00  0.00000000000E+00 -0.96929756670E+03  0.96929756671E+03  0.25500000920E-02 0. -1.
    10030    2    1    2    0    0  0.00000000000E+00  0.00000000000E+00  0.16165697336E+04  0.35551648670E+04  0.31663700870E+04 0.  0.
        2    1    3    3  502    0 -0.98490792942E+03  0.12922999047E+03  0.21924293081E+04  0.24069670316E+04  0.25500000920E-02 0.  1.
       -2    1    3    3    0  502  0.98490792942E+03 -0.12922999047E+03 -0.57585957449E+03  0.11481978355E+04  0.25500000920E-02 0. -1.
</event>
<event>
 5   0  0.7952307E-06  0.3163632E+04  0.7818609E-02  0.8198489E-01
       -2   -1    0    0    0  501  0.00000000000E+00  0.00000000000E+00  0.10446351791E+04  0.10446351791E+04  0.25500000920E-02 0. -1.
        2   -1    0    0  501    0  0.00000000000E+00  0.00000000000E+00 -0.23952297596E+04  0.23952297596E+04  0.25500000920E-02 0.  1.
    10030    2    1    2    0    0  0.00000000000E+00  0.00000000000E+00 -0.13505945805E+04  0.34398649387E+04  0.31636316277E+04 0.  0.
        2    1    3    3  502    0 -0.12501129819E+04 -0.96311257343E+03 -0.79327461505E+03  0.17662539204E+04  0.25500000920E-02 0.  1.
       -2    1    3    3    0  502  0.12501129819E+04  0.96311257343E+03 -0.55731996540E+03  0.16736110182E+04  0.25500000920E-02 0. -1.
</event>
<event>
 5   0  0.8237664E-06  0.3173661E+04  0.7818609E-02  0.8195808E-01
        2   -1    0    0  501    0  0.00000000000E+00  0.00000000000E+00  0.21295151898E+04  0.21295151898E+04  0.25500000920E-02 0. -1.
       -2   -1    0    0    0  501  0.00000000000E+00  0.00000000000E+00 -0.11824432019E+04  0.11824432019E+04  0.25500000920E-02 0.  1.
    10030    2    1    2    0    0  0.00000000000E+00  0.00000000000E+00  0.94707198790E+03  0.33119583917E+04  0.31736608260E+04 0.  0.
        5    1    3    3  502    0 -0.97523269583E+03 -0.12494435152E+04  0.39391744767E+03  0.16332118522E+04  0.46999998093E+01 0.  1.
       -5    1    3    3    0  502  0.97523269583E+03  0.12494435152E+04  0.55315454023E+03  0.16787465395E+04  0.46999998093E+01 0. -1.
</event>
<event>
 5   0  0.7971763E-06  0.3221498E+04  0.7818609E-02  0.8183163E-01
        2   -1    0    0  501    0  0.00000000000E+00  0.00000000000E+00  0.22566599835E+04  0.22566599835E+04  0.25500000920E-02 0.  1.
       -2   -1    0    0    0  501  0.00000000000E+00  0.00000000000E+00 -0.11497133637E+04  0.11497133637E+04  0.25500000920E-02 0. -1.
    10030    2    1    2    0    0  0.00000000000E+00  0.00000000000E+00  0.11069466197E+04  0.34063733472E+04  0.32214978755E+04 0.  0.
        1    1    3    3  502    0  0.86798419792E+03  0.24055973987E+03  0.19654908681E+04  0.21620406816E+04  0.50400001928E-02 0.  1.
       -1    1    3    3    0  502 -0.86798419792E+03 -0.24055973987E+03 -0.85854424838E+03  0.12443326656E+04  0.50400001928E-02 0. -1.
</event>
<event>
 5   0  0.7952307E-06  0.3173177E+04  0.7818609E-02  0.8195937E-01
        2   -1    0    0  501    0  0.00000000000E+00  0.00000000000E+00  0.21794115732E+04  0.21794115732E+04  0.25500000920E-02 0.  1.
       -2   -1    0    0    0  501  0.00000000000E+00  0.00000000000E+00 -0.11550192834E+04  0.11550192834E+04  0.25500000920E-02 0. -1.
    10030    2    1    2    0    0  0.00000000000E+00  0.00000000000E+00  0.10243922899E+04  0.33344308566E+04  0.31731765747E+04 0.  0.
        2    1    3    3  502    0 -0.94700277606E+03 -0.28285748371E+03 -0.79202080241E+03  0.12665384185E+04  0.25500000920E-02 0. -1.
       -2    1    3    3    0  502  0.94700277606E+03  0.28285748371E+03  0.18164130923E+04  0.20678924382E+04  0.25500000920E-02 0.  1.
</event>
<event>
 5   0  0.7971763E-06  0.3125252E+04  0.7818609E-02  0.8208842E-01
        2   -1    0    0  501    0  0.00000000000E+00  0.00000000000E+00  0.19883695980E+04  0.19883695980E+04  0.25500000920E-02 0.  1.
       -2   -1    0    0    0  501  0.00000000000E+00  0.00000000000E+00 -0.12280415873E+04  0.12280415873E+04  0.25500000920E-02 0. -1.
    10030    2    1    2    0    0  0.00000000000E+00  0.00000000000E+00  0.76032801071E+03  0.32164111853E+04  0.31252523465E+04 0.  0.
        1    1    3    3  502    0 -0.38000702066E+03  0.93545442784E+03 -0.84723330750E+03  0.13180609241E+04  0.50400001928E-02 0. -1.
       -1    1    3    3    0  502  0.38000702066E+03 -0.93545442784E+03  0.16075613182E+04  0.18983502612E+04  0.50400001928E-02 0.  1.
</event>
<event>
 5   0  0.3938696E-06  0.3232345E+04  0.7818609E-02  0.8180327E-01
        1   -1    0    0  501    0  0.00000000000E+00  0.00000000000E+00  0.11372727696E+04  0.11372727696E+04  0.50400001928E-02 0.  1.
       -1   -1    0    0    0  501  0.00000000000E+00  0.00000000000E+00 -0.22967347367E+04  0.22967347367E+04  0.50400001928E-02 0. -1.
    10030    2    1    2    0    0  0.00000000000E+00  0.00000000000E+00 -0.11594619670E+04  0.34340075063E+04  0.32323452013E+04 0.  0.
        4    1    3    3  502    0  0.73221167264E+02 -0.88725065714E+03 -0.20127502817E+04  0.22008499216E+04  0.12699999809E+01 0. -1.
       -4    1    3    3    0  502 -0.73221167264E+02  0.88725065714E+03  0.85328831467E+03  0.12331575847E+04  0.12699999809E+01 0.  1.
</event>
<event>
 5   0  0.2635798E-06  0.3201995E+04  0.7818609E-02  0.8188291E-01
        1   -1    0    0  501    0  0.00000000000E+00  0.00000000000E+00  0.23135854875E+04  0.23135854875E+04  0.50400001928E-02 0.  1.
       -1   -1    0    0    0  501  0.00000000000E+00  0.00000000000E+00 -0.11078876461E+04  0.11078876461E+04  0.50400001928E-02 0. -1.
    10030    2    1    2    0    0  0.00000000000E+00  0.00000000000E+00  0.12056978413E+04  0.34214731336E+04  0.32019948656E+04 0.  0.
        1    1    3    3  502    0 -0.95881006960E+03  0.12571519914E+04  0.33370110224E+03  0.16158911797E+04  0.50400001928E-02 0. -1.
       -1    1    3    3    0  502  0.95881006960E+03 -0.12571519914E+04  0.87199673909E+03  0.18055819539E+04  0.50400001928E-02 0.  1.
</event>
<event>
 5   0  0.2635798E-06  0.3233048E+04  0.7818609E-02  0.8180143E-01
       -1   -1    0    0    0  501  0.00000000000E+00  0.00000000000E+00  0.26344689664E+04  0.26344689665E+04  0.50400001928E-02 0.  1.
        1   -1    0    0  501    0  0.00000000000E+00  0.00000000000E+00 -0.99190775298E+03  0.99190775299E+03  0.50400001928E-02 0. -1.
    10030    2    1    2    0    0  0.00000000000E+00  0.00000000000E+00  0.16425612135E+04  0.36263767194E+04  0.32330482167E+04 0.  0.
        1    1    3    3  502    0  0.37660781341E+03  0.13606868150E+04 -0.61806181233E+02  0.14131956898E+04  0.50400001928E-02 0. -1.
       -1    1    3    3    0  502 -0.37660781341E+03 -0.13606868150E+04  0.17043673947E+04  0.22131810296E+04  0.50400001928E-02 0.  1.
</event>
<event>
 5   0  0.7941434E-06  0.3030081E+04  0.7818609E-02  0.8235193E-01
       -2   -1    0    0    0  501  0.00000000000E+00  0.00000000000E+00  0.97906585590E+03  0.97906585590E+03  0.25500000920E-02 0.  1.
        2   -1    0    0  501    0  0.00000000000E+00  0.00000000000E+00 -0.23444269011E+04  0.23444269011E+04  0.25500000920E-02 0. -1.
    10030    2    1    2    0    0  0.00000000000E+00  0.00000000000E+00 -0.13653610452E+04  0.33234927570E+04  0.30300814052E+04 0.  0.
        4    1    3    3  502    0 -0.11280473937E+04  0.61996018607E+03  0.19376039928E+03  0.13016859299E+04  0.12699999809E+01 0. -1.
       -4    1    3    3    0  502  0.11280473937E+04 -0.61996018607E+03 -0.15591214445E+04  0.20218068272E+04  0.12699999809E+01 0.  1.
</event>
<event>
 5   0  0.2933646E-06  0.3233183E+04  0.7818609E-02  0.8180108E-01
        1   -1    0    0  501    0  0.00000000000E+00  0.00000000000E+00  0.16278455249E+04  0.16278455249E+04  0.50400001928E-02 0. -1.
       -1   -1    0    0    0  501  0.00000000000E+00  0.00000000000E+00 -0.16054151443E+04  0.16054151443E+04  0.50400001928E-02 0.  1.
    10030    2    1    2    0    0  0.00000000000E+00  0.00000000000E+00  0.22430380591E+02  0.32332606692E+04  0.32331828642E+04 0.  0.
        2    1    3    3  502    0 -0.13599618219E+04  0.65873577392E+03 -0.56320169772E+03  0.16126453824E+04  0.25500000920E-02 0.  1.
       -2    1    3    3    0  502  0.13599618219E+04 -0.65873577392E+03  0.58563207832E+03  0.16206152869E+04  0.25500000920E-02 0. -1.
</event>
<event>
 5   0  0.2635798E-06  0.3157613E+04  0.7818609E-02  0.8200102E-01
       -1   -1    0    0    0  501  0.00000000000E+00  0.00000000000E+00  0.11004672388E+04  0.11004672388E+04  0.50400001928E-02 0.  1.
        1   -1    0    0  501    0  0.00000000000E+00  0.00000000000E+00 -0.22650647925E+04  0.22650647925E+04  0.50400001928E-02 0. -1.
    10030    2    1    2    0    0  0.00000000000E+00  0.00000000000E+00 -0.11645975537E+04  0.33655320313E+04  0.31576127679E+04 0.  0.
        1    1    3    3  502    0 -0.62586307914E+03 -0.11043068230E+03  0.95811011963E+03  0.11497280247E+04  0.50400001928E-02 0.  1.
       -1    1    3    3    0  502  0.62586307914E+03  0.11043068230E+03 -0.21227076733E+04  0.22158040066E+04  0.50400001928E-02 0. -1.
</event>
<event>
 5   0  0.2635798E-06  0.3190172E+04  0.7818609E-02  0.8191418E-01
        1   -1    0    0  501    0  0.00000000000E+00  0.00000000000E+00  0.26020493240E+04  0.26020493241E+04  0.50400001928E-02 0. -1.
       -1   -1    0    0    0  501  0.00000000000E+00  0.00000000000E+00 -0.97780596247E+03  0.97780596249E+03  0.50400001928E-02 0.  1.
    10030    2    1    2    0    0  0.00000000000E+00  0.00000000000E+00  0.16242433616E+04  0.35798552865E+04  0.31901719977E+04 0.  0.
        1    1    3    3  502    0  0.43243856340E+03 -0.13456301271E+04 -0.17493268613E+02  0.14135167366E+04  0.50400001928E-02 0.  1.
       -1    1    3    3    0  502 -0.43243856340E+03  0.13456301271E+04  0.16417366302E+04  0.21663385500E+04  0.50400001928E-02 0. -1.
</event>
<event>
 5   0  0.7510251E-06  0.3175488E+04  0.7818609E-02  0.8195321E-01
       -2   -1    0    0    0  501  0.00000000000E+00  0.00000000000E+00  0.12042342779E+04  0.12042342779E+04  0.25500000920E-02 0. -1.
        2   -1    0    0  501    0  0.00000000000E+00  0.00000000000E+00 -0.20933887594E+04  0.20933887594E+04  0.25500000920E-02 0.  1.
    10030    2    1    2    0    0  0.00000000000E+00  0.00000000000E+00 -0.88915448149E+03  0.32976230373E+04  0.31754876797E+04 0.  0.
        3    1    3    3  502    0  0.21960071362E+03 -0.10783792723E+04 -0.16330623903E+04  0.19692686737E+04  0.10100000352E+00 0.  1.
       -3    1    3    3    0  502 -0.21960071362E+03  0.10783792723E+04  0.74390790879E+03  0.13283543636E+04  0.10100000352E+00 0. -1.
</event>
<event>
 5   0  0.2933646E-06  0.3091894E+04  0.7818609E-02  0.8217966E-01
        1   -1    0    0  501    0  0.00000000000E+00  0.00000000000E+00  0.77551802137E+03  0.77551802139E+03  0.50400001928E-02 0.  1.
       -1   -1    0    0    0  501  0.00000000000E+00  0.00000000000E+00 -0.30817498938E+04  0.30817498938E+04  0.50400001928E-02 0. -1.
    10030    2    1    2    0    0  0.00000000000E+00  0.00000000000E+00 -0.23062318724E+04  0.38572679152E+04  0.30918942932E+04 0.  0.
        2    1    3    3  502    0  0.20797841835E+03 -0.82510840753E+02  0.75521127554E+03  0.78765927408E+03  0.25500000920E-02 0.  1.
       -2    1    3    3    0  502 -0.20797841835E+03  0.82510840753E+02 -0.30614431479E+04  0.30696086411E+04  0.25500000920E-02 0. -1.
</event>
<event>
 5   0  0.7510251E-06  0.3283961E+04  0.7818609E-02  0.8166989E-01
        2   -1    0    0  501    0  0.00000000000E+00  0.00000000000E+00  0.27234845672E+04  0.27234845672E+04  0.25500000920E-02 0. -1.
       -2   -1    0    0    0  501  0.00000000000E+00  0.00000000000E+00 -0.98994483984E+03  0.98994483985E+03  0.25500000920E-02 0.  1.
    10030    2    1    2    0    0  0.00000000000E+00  0.00000000000E+00  0.17335397273E+04  0.37134294070E+04  0.32839607145E+04 0.  0.
        3    1    3    3  502    0  0.34598514238E+03 -0.82076994838E+03  0.24265588669E+04  0.25848707843E+04  0.10100000352E+00 0. -1.
       -3    1    3    3    0  502 -0.34598514238E+03  0.82076994838E+03 -0.69301913956E+03  0.11285586227E+04  0.10100000352E+00 0.  1.
</event>
<event>
 5   0  0.7510251E-06  0.3188651E+04  0.7818609E-02  0.8191821E-01
        2   -1    0    0  501    0  0.00000000000E+00  0.00000000000E+00  0.22833205468E+04  0.22833205468E+04  0.25500000920E-02 0.  1.
       -2   -1    0    0    0  501  0.00000000000E+00  0.00000000000E+00 -0.11132357020E+04  0.11132357020E+04  0.25500000920E-02 0. -1.
    10030    2    1    2    0    0  0.00000000000E+00  0.00000000000E+00  0.11700848448E+04  0.33965562488E+04  0.31886510953E+04 0.  0.
        3    1    3    3  502    0 -0.15431968792E+04  0.30757528646E+03  0.31177144108E+03  0.16041385871E+04  0.10100000352E+00 0. -1.
       -3    1    3    3    0  502  0.15431968792E+04 -0.30757528646E+03  0.85831340375E+03  0.17924176618E+04  0.10100000352E+00 0.  1.
</event>
<event>
 5   0  0.2788054E-06  0.3194481E+04  0.7818609E-02  0.8190276E-01
       -1   -1    0    0    0  501  0.00000000000E+00  0.00000000000E+00  0.15336450801E+04  0.15336450801E+04  0.50400001928E-02 0.  1.
        1   -1    0    0  501    0  0.00000000000E+00  0.00000000000E+00 -0.16634734459E+04  0.16634734460E+04  0.50400001928E-02 0. -1.
    10030    2    1    2    0    0  0.00000000000E+00  0.00000000000E+00 -0.12982836586E+03  0.31971185261E+04  0.31944814078E+04 0.  0.
        3    1    3    3  502    0 -0.43191977299E+02 -0.11524992258E+03  0.15288921400E+04  0.15338380872E+04  0.10100000352E+00 0.  1.
       -3    1    3    3    0  502  0.43191977299E+02  0.11524992258E+03 -0.16587205059E+04  0.16632804389E+04  0.10100000352E+00 0. -1.
</event>
<event>
 5   0  0.4142886E-06  0.3186175E+04  0.7818609E-02  0.8192478E-01
        1   -1    0    0  501    0  0.00000000000E+00  0.00000000000E+00  0.16943904382E+04  0.16943904382E+04  0.50400001928E-02 0.  1.
       -1   -1    0    0    0  501  0.00000000000E+00  0.00000000000E+00 -0.14978412557E+04  0.14978412557E+04  0.50400001928E-02 0. -1.
    10030    2    1    2    0    0  0.00000000000E+00  0.00000000000E+00  0.19654918255E+03  0.31922316939E+04  0.31861750747E+04 0.  0.
        5    1    3    3  502    0 -0.12544261267E+04  0.78728795303E+03  0.68633032588E+03  0.16323230791E+04  0.46999998093E+01 0.  1.
       -5    1    3    3    0  502  0.12544261267E+04 -0.78728795303E+03 -0.48978114333E+03  0.15599086148E+04  0.46999998093E+01 0. -1.
</event>
<event>
 5   0  0.8237664E-06  0.3191849E+04  0.7818609E-02  0.8190973E-01
       -2   -1    0    0    0  501  0.00000000000E+00  0.00000000000E+00  0.16354719680E+04  0.16354719680E+04  0.25500000920E-02 0. -1.
        2   -1    0    0  501    0  0.00000000000E+00  0.00000000000E+00 -0.15573335769E+04  0.15573335769E+04  0.25500000920E-02 0.  1.
    10030    2    1    2    0    0  0.00000000000E+00  0.00000000000E+00  0.78138391091E+02  0.31928055449E+04  0.31918492507E+04 0.  0.
        5    1    3    3  502    0 -0.57380915812E+03 -0.62331488281E+02 -0.14492647361E+04  0.15599783748E+04  0.46999998093E+01 0.  1.
       -5    1    3    3    0  502  0.57380915812E+03  0.62331488281E+02  0.15274031272E+04  0.16328271701E+04  0.46999998093E+01 0. -1.
</event>
<event>
 5   0  0.2788054E-06  0.2584835E+04  0.7818609E-02  0.8373371E-01
        1   -1    0    0  501    0  0.00000000000E+00  0.00000000000E+00  0.12866860479E+04  0.12866860479E+04  0.50400001928E-02 0.  1.
       -1   -1    0    0    0  501  0.00000000000E+00  0.00000000000E+00 -0.12981749530E+04  0.12981749530E+04  0.50400001928E-02 0. -1.
    10030    2    1    2    0    0  0.00000000000E+00  0.00000000000E+00 -0.11488905046E+02  0.25848610009E+04  0.25848354685E+04 0.  0.
        3    1    3    3  502    0 -0.47280377250E+03  0.43161843618E+03 -0.11284779961E+04  0.12974207027E+04  0.10100000352E+00 0. -1.
       -3    1    3    3    0  502  0.47280377250E+03 -0.43161843618E+03  0.11169890911E+04  0.12874402983E+04  0.10100000352E+00 0.  1.
</event>
<event>
 5   0  0.2933646E-06  0.3162014E+04  0.7818609E-02  0.8198922E-01
       -1   -1    0    0    0  501  0.00000000000E+00  0.00000000000E+00  0.19157520934E+04  0.19157520934E+04  0.50400001928E-02 0.  1.
        1   -1    0    0  501    0  0.00000000000E+00  0.00000000000E+00 -0.13047529240E+04  0.13047529240E+04  0.50400001928E-02 0. -1.
    10030    2    1    2    0    0  0.00000000000E+00  0.00000000000E+00  0.61099916941E+03  0.32205050174E+04  0.31620140073E+04 0.  0.
        2    1    3    3  502    0  0.70675060065E+03  0.40365643038E+03  0.16859864817E+04  0.18721606079E+04  0.25500000920E-02 0.  1.
       -2    1    3    3    0  502 -0.70675060065E+03 -0.40365643038E+03 -0.10749873122E+04  0.13483444096E+04  0.25500000920E-02 0. -1.
</event>
<event>
 5   0  0.7952307E-06  0.3203992E+04  0.7818609E-02  0.8187764E-01
        2   -1    0    0  501    0  0.00000000000E+00  0.00000000000E+00  0.18200290307E+04  0.18200290308E+04  0.25500000920E-02 0.  1.
       -2   -1    0    0    0  501  0.00000000000E+00  0.00000000000E+00 -0.14100823490E+04  0.14100823490E+04  0.25500000920E-02 0. -1.
    10030    2    1    2    0    0  0.00000000000E+00  0.00000000000E+00  0.40994668171E+03  0.32301113798E+04  0.32039917672E+04 0.  0.
        2    1    3    3  502    0 -0.14071976549E+04  0.69946928085E+03 -0.10889780705E+03  0.15752210153E+04  0.25500000920E-02 0.  1.
       -2    1    3    3    0  502  0.14071976549E+04 -0.69946928085E+03  0.51884448876E+03  0.16548903644E+04  0.25500000920E-02 0. -1.
</event>
<event>
 5   0  0.7952307E-06  0.3631033E+04  0.7818609E-02  0.8083420E-01
       -2   -1    0    0    0  501  0.00000000000E+00  0.00000000000E+00  0.13123408107E+04  0.13123408107E+04  0.25500000920E-02 0.  1.
        2   -1    0    0  501    0  0.00000000000E+00  0.00000000000E+00 -0.25116191221E+04  0.25116191221E+04  0.25500000920E-02 0. -1.
    10030    2    1    2    0    0  0.00000000000E+00  0.00000000000E+00 -0.11992783114E+04  0.38239599329E+04  0.36310330624E+04 0.  0.
        2    1    3    3  502    0 -0.48044130094E+03 -0.16901376054E+04 -0.11851615691E+03  0.17610891654E+04  0.25500000920E-02 0. -1.
       -2    1    3    3    0  502  0.48044130094E+03  0.16901376054E+04 -0.10807621545E+04  0.20628707675E+04  0.25500000920E-02 0.  1.
</event>
<event>
 5   0  0.7941434E-06  0.3182976E+04  0.7818609E-02  0.8193328E-01
       -2   -1    0    0    0  501  0.00000000000E+00  0.00000000000E+00  0.12121347806E+04  0.12121347806E+04  0.25500000920E-02 0. -1.
        2   -1    0    0  501    0  0.00000000000E+00  0.00000000000E+00 -0.20895646769E+04  0.20895646769E+04  0.25500000920E-02 0.  1.
    10030    2    1    2    0    0  0.00000000000E+00  0.00000000000E+00 -0.87742989629E+03  0.33016994574E+04  0.31829759792E+04 0.  0.
        4    1    3    3  502    0  0.15372056492E+03  0.14289331353E+04 -0.11478459267E+04  0.18393019876E+04  0.12699999809E+01 0. -1.
       -4    1    3    3    0  502 -0.15372056492E+03 -0.14289331353E+04  0.27041603042E+03  0.14623974698E+04  0.12699999809E+01 0.  1.
</event>
<event>
 5   0  0.7971763E-06  0.1636940E+04  0.7818609E-02  0.8798170E-01
        2   -1    0    0  501    0  0.00000000000E+00  0.00000000000E+00  0.12342593424E+04  0.12342593424E+04  0.25500000920E-02 0. -1.
       -2   -1    0    0    0  501  0.00000000000E+00  0.00000000000E+00 -0.54274894189E+03  0.54274894190E+03  0.25500000920E-02 0.  1.
    10030    2    1    2    0    0  0.00000000000E+00  0.00000000000E+00  0.69151040051E+03  0.17770082843E+04  0.16369397693E+04 0.  0.
        1    1    3    3  502    0  0.72550824311E+03  0.17586392518E+03  0.71003157212E+03  0.10302597558E+04  0.50400001928E-02 0. -1.
       -1    1    3    3    0  502 -0.72550824311E+03 -0.17586392518E+03 -0.18521171606E+02  0.74674852850E+03  0.50400001928E-02 0.  1.
</event>
<event>
 5   0  0.2933646E-06  0.2301153E+04  0.7818609E-02  0.8477467E-01
        1   -1    0    0  501    0  0.00000000000E+00  0.00000000000E+00  0.24553436664E+04  0.24553436664E+04  0.50400001928E-02 0. -1.
       -1   -1    0    0    0  501  0.00000000000E+00  0.00000000000E+00 -0.53916132542E+03  0.53916132544E+03  0.50400001928E-02 0.  1.
    10030    2    1    2    0    0  0.00000000000E+00  0.00000000000E+00  0.19161823410E+04  0.29945049919E+04  0.23011530550E+04 0.  0.
        2    1    3    3  502    0  0.17621210774E+00  0.21377790025E+03 -0.51309033178E+03  0.55584414206E+03  0.25500000920E-02 0.  1.
       -2    1    3    3    0  502 -0.17621210774E+00 -0.21377790025E+03  0.24292726728E+04  0.24386608498E+04  0.25500000920E-02 0. -1.
</event>
<event>
 5   0  0.7941434E-06  0.3178363E+04  0.7818609E-02  0.8194555E-01
       -2   -1    0    0    0  501  0.00000000000E+00  0.00000000000E+00  0.11668968479E+04  0.11668968479E+04  0.25500000920E-02 0.  1.
        2   -1    0    0  501    0  0.00000000000E+00  0.00000000000E+00 -0.21642847923E+04  0.21642847923E+04  0.25500000920E-02 0. -1.
    10030    2    1    2    0    0  0.00000000000E+00  0.00000000000E+00 -0.99738794437E+03  0.33311816403E+04  0.31783625358E+04 0.  0.
        4    1    3    3  502    0  0.66013479741E+03  0.98530324643E+03  0.60994351029E+03  0.13336540544E+04  0.12699999809E+01 0.  1.
       -4    1    3    3    0  502 -0.66013479741E+03 -0.98530324643E+03 -0.16073314547E+04  0.19975275859E+04  0.12699999809E+01 0. -1.
</event>
<event>
 5   0  0.7510251E-06  0.3121035E+04  0.7818609E-02  0.8209989E-01
       -2   -1    0    0    0  501  0.00000000000E+00  0.00000000000E+00  0.22933558503E+04  0.22933558503E+04  0.25500000920E-02 0.  1.
        2   -1    0    0  501    0  0.00000000000E+00  0.00000000000E+00 -0.10618565638E+04  0.10618565638E+04  0.25500000920E-02 0. -1.
    10030    2    1    2    0    0  0.00000000000E+00  0.00000000000E+00  0.12314992864E+04  0.33552124141E+04  0.31210350609E+04 0.  0.
        3    1    3    3  502    0  0.34145377222E+03  0.54403895825E+03 -0.91315817080E+03  0.11164349160E+04  0.10100000352E+00 0. -1.
       -3    1    3    3    0  502 -0.34145377222E+03 -0.54403895825E+03  0.21446574572E+04  0.22387774980E+04  0.10100000352E+00 0.  1.
</event>
<event>
 5   0  0.2788054E-06  0.2884369E+04  0.7818609E-02  0.8277543E-01
        1   -1    0    0  501    0  0.00000000000E+00  0.00000000000E+00  0.11120889565E+04  0.11120889565E+04  0.50400001928E-02 0.  1.
       -1   -1    0    0    0  501  0.00000000000E+00  0.00000000000E+00 -0.18702608188E+04  0.18702608189E+04  0.50400001928E-02 0. -1.
    10030    2    1    2    0    0  0.00000000000E+00  0.00000000000E+00 -0.75817186238E+03  0.29823497753E+04  0.28843691875E+04 0.  0.
        3    1    3    3  502    0  0.74465831054E+03 -0.59221939460E+03  0.74154650191E+03  0.12062881229E+04  0.10100000352E+00 0.  1.
       -3    1    3    3    0  502 -0.74465831054E+03  0.59221939460E+03 -0.14997183643E+04  0.17760616524E+04  0.10100000352E+00 0. -1.
</event>
<event>
 5   0  0.8237664E-06  0.1845127E+04  0.7818609E-02  0.8682663E-01
       -2   -1    0    0    0  501  0.00000000000E+00  0.00000000000E+00  0.63146335199E+03  0.63146335199E+03  0.25500000920E-02 0.  1.
        2   -1    0    0  501    0  0.00000000000E+00  0.00000000000E+00 -0.13478582268E+04  0.13478582268E+04  0.25500000920E-02 0. -1.
    10030    2    1    2    0    0  0.00000000000E+00  0.00000000000E+00 -0.71639487477E+03  0.19793215788E+04  0.18451266340E+04 0.  0.
        5    1    3    3  502    0 -0.26102760457E+03  0.38245204556E+03 -0.12141629055E+04  0.12994685947E+04  0.46999998093E+01 0. -1.
       -5    1    3    3    0  502  0.26102760457E+03 -0.38245204556E+03  0.49776803074E+03  0.67985298405E+03  0.46999998093E+01 0.  1.
</event>
<event>
 5   0  0.3938696E-06  0.3188144E+04  0.7818609E-02  0.8191955E-01
        1   -1    0    0  501    0  0.00000000000E+00  0.00000000000E+00  0.18616107243E+04  0.18616107243E+04  0.50400001928E-02 0.  1.
       -1   -1    0    0    0  501  0.00000000000E+00  0.00000000000E+00 -0.13649823389E+04  0.13649823389E+04  0.50400001928E-02 0. -1.
    10030    2    1    2    0    0  0.00000000000E+00  0.00000000000E+00  0.49662838537E+03  0.32265930632E+04  0.31881441377E+04 0.  0.
        4    1    3    3  502    0 -0.11835657920E+04  0.82823984833E+03 -0.43379839900E+03  0.15083076259E+04  0.12699999809E+01 0.  1.
       -4    1    3    3    0  502  0.11835657920E+04 -0.82823984833E+03  0.93042678437E+03  0.17182854374E+04  0.12699999809E+01 0. -1.
</event>
<event>
 5   0  0.7971763E-06  0.3112564E+04  0.7818609E-02  0.8212298E-01
        2   -1    0    0  501    0  0.00000000000E+00  0.00000000000E+00  0.18095867931E+04  0.18095867931E+04  0.25500000920E-02 0. -1.
       -2   -1    0    0    0  501  0.00000000000E+00  0.00000000000E+00 -0.13384348265E+04  0.13384348265E+04  0.25500000920E-02 0.  1.
    10030    2    1    2    0    0  0.00000000000E+00  0.00000000000E+00  0.47115196668E+03  0.31480216196E+04  0.31125642068E+04 0.  0.
        1    1    3    3  502    0 -0.99604328779E+03 -0.23447233889E+03 -0.95035765670E+03  0.13965168042E+04  0.50400001928E-02 0.  1.
       -1    1    3    3    0  502  0.99604328779E+03  0.23447233889E+03  0.14215096234E+04  0.17515048154E+04  0.50400001928E-02 0. -1.
</event>
<event>
 5   0  0.7952307E-06  0.3142445E+04  0.7818609E-02  0.8204185E-01
        2   -1    0    0  501    0  0.00000000000E+00  0.00000000000E+00  0.16555253640E+04  0.16555253640E+04  0.25500000920E-02 0.  1.
       -2   -1    0    0    0  501  0.00000000000E+00  0.00000000000E+00 -0.14912129400E+04  0.14912129400E+04  0.25500000920E-02 0. -1.
    10030    2    1    2    0    0  0.00000000000E+00  0.00000000000E+00  0.16431242403E+03  0.31467383040E+04  0.31424454460E+04 0.  0.
        2    1    3    3  502    0 -0.71368096414E+03 -0.13985520831E+04  0.14099358568E+03  0.15764414480E+04  0.25500000920E-02 0.  1.
       -2    1    3    3    0  502  0.71368096414E+03  0.13985520831E+04  0.23318838357E+02  0.15702968560E+04  0.25500000920E-02 0. -1.
</event>
<event>
 5   0  0.7941434E-06  0.3169978E+04  0.7818609E-02  0.8196791E-01
        2   -1    0    0  501    0  0.00000000000E+00  0.00000000000E+00  0.17495976780E+04  0.17495976780E+04  0.25500000920E-02 0. -1.
       -2   -1    0    0    0  501  0.00000000000E+00  0.00000000000E+00 -0.14358674259E+04  0.14358674259E+04  0.25500000920E-02 0.  1.
    10030    2    1    2    0    0  0.00000000000E+00  0.00000000000E+00  0.31373025213E+03  0.31854651039E+04  0.31699781162E+04 0.  0.
        4    1    3    3  502    0  0.11331327172E+04  0.75786731929E+03  0.96941686958E+03  0.16727591902E+04  0.12699999809E+01 0. -1.
       -4    1    3    3    0  502 -0.11331327172E+04 -0.75786731929E+03 -0.65568661744E+03  0.15127059138E+04  0.12699999809E+01 0.  1.
</event>
<event>
 5   0  0.8237664E-06  0.2985691E+04  0.7818609E-02  0.8247829E-01
       -2   -1    0    0    0  501  0.00000000000E+00  0.00000000000E+00  0.14654718167E+04  0.14654718167E+04  0.25500000920E-02 0. -1.
        2   -1    0    0  501    0  0.00000000000E+00  0.00000000000E+00 -0.15207309200E+04  0.15207309200E+04  0.25500000920E-02 0.  1.
    10030    2    1    2    0    0  0.00000000000E+00  0.00000000000E+00 -0.55259103339E+02  0.29862027367E+04  0.29856914134E+04 0.  0.
        5    1    3    3  502    0 -0.10253554918E+04  0.26367143615E+03 -0.10802781810E+04  0.15125804274E+04  0.46999998093E+01 0.  1.
       -5    1    3    3    0  502  0.10253554918E+04 -0.26367143615E+03  0.10250190777E+04  0.14736223093E+04  0.46999998093E+01 0. -1.
</event>
<event>
 5   0  0.3938696E-06  0.2051095E+04  0.7818609E-02  0.8583098E-01
       -1   -1    0    0    0  501  0.00000000000E+00  0.00000000000E+00  0.49557342179E+03  0.49557342182E+03  0.50400001928E-02 0. -1.
        1   -1    0    0  501    0  0.00000000000E+00  0.00000000000E+00 -0.21222833857E+04  0.21222833857E+04  0.50400001928E-02 0.  1.
    10030    2    1    2    0    0  0.00000000000E+00  0.00000000000E+00 -0.16267099639E+04  0.26178568075E+04  0.20510945756E+04 0.  0.
        4    1    3    3  502    0 -0.90169924924E+03  0.35215879290E+03 -0.12455520750E+04  0.15774913426E+04  0.12699999809E+01 0.  1.
       -4    1    3    3    0  502  0.90169924924E+03 -0.35215879290E+03 -0.38115788895E+03  0.10403654650E+04  0.12699999809E+01 0. -1.
</event>
<event>
 5   0  0.7510251E-06  0.3098017E+04  0.7818609E-02  0.8216282E-01
        2   -1    0    0  501    0  0.00000000000E+00  0.00000000000E+00  0.18311930474E+04  0.18311930474E+04  0.25500000920E-02 0. -1.
       -2   -1    0    0    0  501  0.00000000000E+00  0.00000000000E+00 -0.13103083667E+04  0.13103083668E+04  0.25500000920E-02 0.  1.
    10030    2    1    2    0    0  0.00000000000E+00  0.00000000000E+00  0.52088468067E+03  0.31415014142E+04  0.30980171537E+04 0.  0.
        3    1    3    3  502    0  0.91979850504E+03  0.54661752863E+03 -0.87537210964E+03  0.13824240858E+04  0.10100000352E+00 0.  1.
       -3    1    3    3    0  502 -0.91979850504E+03 -0.54661752863E+03  0.13962567903E+04  0.17590773284E+04  0.10100000352E+00 0. -1.
</event>
<event>
 5   0  0.2788054E-06  0.3113609E+04  0.7818609E-02  0.8212013E-01
        1   -1    0    0  501    0  0.00000000000E+00  0.00000000000E+00  0.11225009879E+04  0.11225009879E+04  0.50400001928E-02 0.  1.
       -1   -1    0    0    0  501  0.00000000000E+00  0.00000000000E+00 -0.21591433434E+04  0.21591433434E+04  0.50400001928E-02 0. -1.
    10030    2    1    2    0    0  0.00000000000E+00  0.00000000000E+00 -0.10366423556E+04  0.32816443313E+04  0.31136091829E+04 0.  0.
        3    1    3    3  502    0  0.60242187679E+03  0.12428608995E+04  0.23879558687E+03  0.14016556908E+04  0.10100000352E+00 0.  1.
       -3    1    3    3    0  502 -0.60242187679E+03 -0.12428608995E+04 -0.12754379424E+04  0.18799886405E+04  0.10100000352E+00 0. -1.
</event>
<event>
 5   0  0.4142886E-06  0.2902803E+04  0.7818609E-02  0.8272044E-01
       -1   -1    0    0    0  501  0.00000000000E+00  0.00000000000E+00  0.85590989255E+03  0.85590989256E+03  0.50400001928E-02 0. -1.
        1   -1    0    0  501    0  0.00000000000E+00  0.00000000000E+00 -0.24612003792E+04  0.24612003792E+04  0.50400001928E-02 0.  1.
    10030    2    1    2    0    0  0.00000000000E+00  0.00000000000E+00 -0.16052904866E+04  0.33171102718E+04  0.29028026127E+04 0.  0.
        5    1    3    3  502    0 -0.80510859343E+03  0.75197622551E+03 -0.18824316958E+04  0.21811096420E+04  0.46999998093E+01 0.  1.
       -5    1    3    3    0  502  0.80510859343E+03 -0.75197622551E+03  0.27714120920E+03  0.11360006297E+04  0.46999998093E+01 0. -1.
</event>
<event>
 5   0  0.2635798E-06  0.1676489E+04  0.7818609E-02  0.8774888E-01
        1   -1    0    0  501    0  0.00000000000E+00  0.00000000000E+00  0.40361267874E+03  0.40361267878E+03  0.50400001928E-02 0.  1.
       -1   -1    0    0    0  501  0.00000000000E+00  0.00000000000E+00 -0.17409110124E+04  0.17409110124E+04  0.50400001928E-02 0. -1.
    10030    2    1    2    0    0  0.00000000000E+00  0.00000000000E+00 -0.13372983336E+04  0.21445236911E+04  0.16764888991E+04 0.  0.
        1    1    3    3  502    0  0.39352444618E+03 -0.56918318608E+03 -0.12738260044E+04  0.14496426037E+04  0.50400001928E-02 0. -1.
       -1    1    3    3    0  502 -0.39352444618E+03  0.56918318608E+03 -0.63472329228E+02  0.69488108742E+03  0.50400001928E-02 0.  1.
</event>
<event>
 5   0  0.7510251E-06  0.3091068E+04  0.7818609E-02  0.8218194E-01
       -2   -1    0    0    0  501  0.00000000000E+00  0.00000000000E+00  0.10674375901E+04  0.10674375901E+04  0.25500000920E-02 0. -1.
        2   -1    0    0  501    0  0.00000000000E+00  0.00000000000E+00 -0.22377656152E+04  0.22377656152E+04  0.25500000920E-02 0.  1.
    10030    2    1    2    0    0  0.00000000000E+00  0.00000000000E+00 -0.11703280251E+04  0.33052032053E+04  0.30910678643E+04 0.  0.
        3    1    3    3  502    0  0.31106204599E+03 -0.53690284750E+03  0.92839949720E+03  0.11166691098E+04  0.10100000352E+00 0. -1.
       -3    1    3    3    0  502 -0.31106204599E+03  0.53690284750E+03 -0.20987275223E+04  0.21885340955E+04  0.10100000352E+00 0.  1.
</event>
<event>
 5   0  0.7510251E-06  0.3167756E+04  0.7818609E-02  0.8197385E-01
       -2   -1    0    0    0  501  0.00000000000E+00  0.00000000000E+00  0.13409244377E+04  0.13409244377E+04  0.25500000920E-02 0.  1.
        2   -1    0    0  501    0  0.00000000000E+00  0.00000000000E+00 -0.18708506492E+04  0.18708506492E+04  0.25500000920E-02 0. -1.
    10030    2    1    2    0    0  0.00000000000E+00  0.00000000000E+00 -0.52992621151E+03  0.32117750868E+04  0.31677558963E+04 0.  0.
        3    1    3    3  502    0 -0.14508875696E+03 -0.12623402034E+04 -0.12236798306E+04  0.17640708247E+04  0.10100000352E+00 0. -1.
       -3    1    3    3    0  502  0.14508875696E+03  0.12623402034E+04  0.69375361912E+03  0.14477042621E+04  0.10100000352E+00 0.  1.
</event>
<event>
 5   0  0.8237664E-06  0.3131014E+04  0.7818609E-02  0.8207278E-01
        2   -1    0    0  501    0  0.00000000000E+00  0.00000000000E+00  0.26721571143E+04  0.26721571143E+04  0.25500000920E-02 0. -1.
       -2   -1    0    0    0  501  0.00000000000E+00  0.00000000000E+00 -0.91716618317E+03  0.91716618317E+03  0.25500000920E-02 0.  1.
    10030    2    1    2    0    0  0.00000000000E+00  0.00000000000E+00  0.17549909311E+04  0.35893232975E+04  0.31310139836E+04 0.  0.
        5    1    3    3  502    0  0.72638001121E+03 -0.13803197807E+04  0.72420877429E+03  0.17197124924E+04  0.46999998093E+01 0. -1.
       -5    1    3    3    0  502 -0.72638001121E+03  0.13803197807E+04  0.10307821568E+04  0.18696108051E+04  0.46999998093E+01 0.  1.
</event>
<event>
 5   0  0.3938696E-06  0.2720293E+04  0.7818609E-02  0.8328450E-01
        1   -1    0    0  501    0  0.00000000000E+00  0.00000000000E+00  0.95165689558E+03  0.95165689559E+03  0.50400001928E-02 0. -1.
       -1   -1    0    0    0  501  0.00000000000E+00  0.00000000000E+00 -0.19439764981E+04  0.19439764981E+04  0.50400001928E-02 0.  1.
    10030    2    1    2    0    0  0.00000000000E+00  0.00000000000E+00 -0.99231960248E+03  0.28956333937E+04  0.27202931013E+04 0.  0.
        4    1    3    3  502    0  0.72758184515E+03  0.11274976635E+04 -0.25964270697E+03  0.13667634290E+04  0.12699999809E+01 0. -1.
       -4    1    3    3    0  502 -0.72758184515E+03 -0.11274976635E+04 -0.73267689552E+03  0.15288699647E+04  0.12699999809E+01 0.  1.
</event>
<event>
 5   0  0.2635798E-06  0.2298604E+04  0.7818609E-02  0.8478472E-01
        1   -1    0    0  501    0  0.00000000000E+00  0.00000000000E+00  0.12493717867E+04  0.12493717867E+04  0.50400001928E-02 0.  1.
       -1   -1    0    0    0  501  0.00000000000E+00  0.00000000000E+00 -0.10572471599E+04  0.10572471599E+04  0.50400001928E-02 0. -1.
    10030    2    1    2    0    0  0.00000000000E+00  0.00000000000E+00  0.19212462681E+03  0.23066189467E+04  0.22986037268E+04 0.  0.
        1    1    3    3  502    0 -0.10524639281E+04 -0.28254524043E+03 -0.27042707459E+03  0.11227835657E+04  0.50400001928E-02 0. -1.
       -1    1    3    3    0  502  0.10524639281E+04  0.28254524043E+03  0.46255170140E+03  0.11838353810E+04  0.50400001928E-02 0.  1.
</event>
<event>
 5   0  0.7952307E-06  0.3184046E+04  0.7818609E-02  0.8193043E-01
        2   -1    0    0  501    0  0.00000000000E+00  0.00000000000E+00  0.20826956540E+04  0.20826956540E+04  0.25500000920E-02 0.  1.
       -2   -1    0    0    0  501  0.00000000000E+00  0.00000000000E+00 -0.12169500796E+04  0.12169500796E+04  0.25500000920E-02 0. -1.
    10030    2    1    2    0    0  0.00000000000E+00  0.00000000000E+00  0.86574557442E+03  0.32996457337E+04  0.31840456291E+04 0.  0.
        2    1    3    3  502    0  0.15330479711E+04 -0.42648465057E+03  0.38198390257E+03  0.16364708799E+04  0.25500000920E-02 0. -1.
       -2    1    3    3    0  502 -0.15330479711E+04  0.42648465057E+03  0.48376167185E+03  0.16631748538E+04  0.25500000920E-02 0.  1.
</event>
<event>
 5   0  0.7510251E-06  0.3165974E+04  0.7818609E-02  0.8197862E-01
       -2   -1    0    0    0  501  0.00000000000E+00  0.00000000000E+00  0.17621539030E+04  0.17621539031E+04  0.25500000920E-02 0. -1.
        2   -1    0    0  501    0  0.00000000000E+00  0.00000000000E+00 -0.14220365546E+04  0.14220365546E+04  0.25500000920E-02 0.  1.
    10030    2    1    2    0    0  0.00000000000E+00  0.00000000000E+00  0.34011734846E+03  0.31841904576E+04  0.31659736354E+04 0.  0.
        3    1    3    3  502    0 -0.10237422892E+04  0.11722506594E+04 -0.12078924850E+03  0.15610284866E+04  0.10100000352E+00 0. -1.
       -3    1    3    3    0  502  0.10237422892E+04 -0.11722506594E+04  0.46090659696E+03  0.16231619711E+04  0.10100000352E+00 0.  1.
</event>
<event>
 5   0  0.2635798E-06  0.3082945E+04  0.7818609E-02  0.8220434E-01
       -1   -1    0    0    0  501  0.00000000000E+00  0.00000000000E+00  0.13391151016E+04  0.13391151016E+04  0.50400001928E-02 0.  1.
        1   -1    0    0  501    0  0.00000000000E+00  0.00000000000E+00 -0.17744086083E+04  0.17744086083E+04  0.50400001928E-02 0. -1.
    10030    2    1    2    0    0  0.00000000000E+00  0.00000000000E+00 -0.43529350676E+03  0.31135237099E+04  0.30829449323E+04 0.  0.
        1    1    3    3  502    0 -0.13650599643E+03  0.59275991227E+03 -0.16480778340E+04  0.17567466372E+04  0.50400001928E-02 0. -1.
       -1    1    3    3    0  502  0.13650599643E+03 -0.59275991227E+03  0.12127843272E+04  0.13567770727E+04  0.50400001928E-02 0.  1.
</event>
<event>
 5   0  0.8237664E-06  0.3195635E+04  0.7818609E-02  0.8189971E-01
       -2   -1    0    0    0  501  0.00000000000E+00  0.00000000000E+00  0.13982122613E+04  0.13982122613E+04  0.25500000920E-02 0. -1.
        2   -1    0    0  501    0  0.00000000000E+00  0.00000000000E+00 -0.18259175981E+04  0.18259175981E+04  0.25500000920E-02 0.  1.
    10030    2    1    2    0    0  0.00000000000E+00  0.00000000000E+00 -0.42770533671E+03  0.32241298594E+04  0.31956347562E+04 0.  0.
        5    1    3    3  502    0  0.24506709679E+03  0.12873542623E+04 -0.11361480681E+04  0.17344144261E+04  0.46999998093E+01 0.  1.
       -5    1    3    3    0  502 -0.24506709679E+03 -0.12873542623E+04  0.70844273139E+03  0.14897154333E+04  0.46999998093E+01 0. -1.
</event>
<event>
 5   0  0.2635798E-06  0.2629356E+04  0.7818609E-02  0.8358297E-01
       -1   -1    0    0    0  501  0.00000000000E+00  0.00000000000E+00  0.79295042247E+03  0.79295042248E+03  0.50400001928E-02 0. -1.
        1   -1    0    0  501    0  0.00000000000E+00  0.00000000000E+00 -0.21796805036E+04  0.21796805036E+04  0.50400001928E-02 0.  1.
    10030    2    1    2    0    0  0.00000000000E+00  0.00000000000E+00 -0.13867300812E+04  0.29726309261E+04  0.26293562530E+04 0.  0.
        1    1    3    3  502    0  0.28047208534E+03  0.11566065675E+04 -0.61896646976E+02  0.11917359345E+04  0.50400001928E-02 0. -1.
       -1    1    3    3    0  502 -0.28047208534E+03 -0.11566065675E+04 -0.13248334342E+04  0.17808949916E+04  0.50400001928E-02 0.  1.
</event>
<event>
 5   0  0.4142886E-06  0.1672908E+04  0.7818609E-02  0.8776969E-01
       -1   -1    0    0    0  501  0.00000000000E+00  0.00000000000E+00  0.11612628562E+04  0.11612628562E+04  0.50400001928E-02 0. -1.
        1   -1    0    0  501    0  0.00000000000E+00  0.00000000000E+00 -0.60249504269E+03  0.60249504271E+03  0.50400001928E-02 0.  1.
    10030    2    1    2    0    0  0.00000000000E+00  0.00000000000E+00  0.55876781353E+03  0.17637578989E+04  0.16729077849E+04 0.  0.
        5    1    3    3  502    0  0.57390768331E+03  0.54980153205E+03  0.44922186996E+01  0.79479181150E+03  0.46999998093E+01 0.  1.
       -5    1    3    3    0  502 -0.57390768331E+03 -0.54980153205E+03  0.55427559483E+03  0.96896608745E+03  0.46999998093E+01 0. -1.
</event>
<event>
 5   0  0.7952307E-06  0.3279934E+04  0.7818609E-02  0.8168020E-01
        2   -1    0    0  501    0  0.00000000000E+00  0.00000000000E+00  0.10474232573E+04  0.10474232573E+04  0.25500000920E-02 0.  1.
       -2   -1    0    0    0  501  0.00000000000E+00  0.00000000000E+00 -0.25677218946E+04  0.25677218946E+04  0.25500000920E-02 0. -1.
    10030    2    1    2    0    0  0.00000000000E+00  0.00000000000E+00 -0.15202986373E+04  0.36151451518E+04  0.32799339204E+04 0.  0.
        2    1    3    3  502    0 -0.10971754387E+04 -0.24102863446E+03 -0.20770843597E+04  0.23613911542E+04  0.25500000920E-02 0. -1.
       -2    1    3    3    0  502  0.10971754387E+04  0.24102863446E+03  0.55678572235E+03  0.12537539976E+04  0.25500000920E-02 0.  1.
</event>
<event>
 5   0  0.2635798E-06  0.2858455E+04  0.7818609E-02  0.8285347E-01
       -1   -1    0    0    0  501  0.00000000000E+00  0.00000000000E+00  0.12470285726E+04  0.12470285726E+04  0.50400001928E-02 0.  1.
        1   -1    0    0  501    0  0.00000000000E+00  0.00000000000E+00 -0.16380466360E+04  0.16380466360E+04  0.50400001928E-02 0. -1.
    10030    2    1    2    0    0  0.00000000000E+00  0.00000000000E+00 -0.39101806340E+03  0.28850752085E+04  0.28584547981E+04 0.  0.
        1    1    3    3  502    0  0.65509575536E+03 -0.97928842816E+03 -0.10120766289E+04  0.15532080920E+04  0.50400001928E-02 0. -1.
       -1    1    3    3    0  502 -0.65509575536E+03  0.97928842816E+03  0.62105856554E+03  0.13318671165E+04  0.50400001928E-02 0.  1.
</event>
<event>
 5   0  0.2933646E-06  0.3280636E+04  0.7818609E-02  0.8167840E-01
       -1   -1    0    0    0  501  0.00000000000E+00  0.00000000000E+00  0.19264117427E+04  0.19264117427E+04  0.50400001928E-02 0.  1.
        1   -1    0    0  501    0  0.00000000000E+00  0.00000000000E+00 -0.13967123434E+04  0.13967123434E+04  0.50400001928E-02 0. -1.
    10030    2    1    2    0    0  0.00000000000E+00  0.00000000000E+00  0.52969939923E+03  0.33231240861E+04  0.32806359503E+04 0.  0.
        2    1    3    3  502    0  0.73585128016E+03  0.12396302955E+04  0.10575981938E+04  0.17879245833E+04  0.25500000920E-02 0. -1.
       -2    1    3    3    0  502 -0.73585128016E+03 -0.12396302955E+04 -0.52789879461E+03  0.15351995028E+04  0.25500000920E-02 0.  1.
</event>
<event>
 5   0  0.8237664E-06  0.3209215E+04  0.7818609E-02  0.8186388E-01
       -2   -1    0    0    0  501  0.00000000000E+00  0.00000000000E+00  0.13479287489E+04  0.13479287489E+04  0.25500000920E-02 0.  1.
        2   -1    0    0  501    0  0.00000000000E+00  0.00000000000E+00 -0.19101643020E+04  0.19101643020E+04  0.25500000920E-02 0. -1.
    10030    2    1    2    0    0  0.00000000000E+00  0.00000000000E+00 -0.56223555308E+03  0.32580930508E+04  0.32092150926E+04 0.  0.
        5    1    3    3  502    0  0.14674512122E+04  0.50102683407E+03  0.13784454182E+03  0.15567479424E+04  0.46999998093E+01 0.  1.
       -5    1    3    3    0  502 -0.14674512122E+04 -0.50102683407E+03 -0.70008009489E+03  0.17013451084E+04  0.46999998093E+01 0. -1.
</event>
<event>
 5   0  0.7941434E-06  0.2931475E+04  0.7818609E-02  0.8263574E-01
       -2   -1    0    0    0  501  0.00000000000E+00  0.00000000000E+00  0.23307595435E+04  0.23307595435E+04  0.25500000920E-02 0. -1.
        2   -1    0    0  501    0  0.00000000000E+00  0.00000000000E+00 -0.92175367584E+03  0.92175367585E+03  0.25500000920E-02 0.  1.
    10030    2    1    2    0    0  0.00000000000E+00  0.00000000000E+00  0.14090058677E+04  0.32525132194E+04  0.29314748348E+04 0.  0.
        4    1    3    3  502    0  0.44329785571E+03  0.45255286709E+03  0.21710220878E+04  0.22615604359E+04  0.12699999809E+01 0. -1.
       -4    1    3    3    0  502 -0.44329785571E+03 -0.45255286709E+03 -0.76201622016E+03  0.99095278348E+03  0.12699999809E+01 0.  1.
</event>
<event>
 5   0  0.2933646E-06  0.3136133E+04  0.7818609E-02  0.8205891E-01
       -1   -1    0    0    0  501  0.00000000000E+00  0.00000000000E+00  0.15167978258E+04  0.15167978259E+04  0.50400001928E-02 0.  1.
        1   -1    0    0  501    0  0.00000000000E+00  0.00000000000E+00 -0.16210682660E+04  0.16210682661E+04  0.50400001928E-02 0. -1.
    10030    2    1    2    0    0  0.00000000000E+00  0.00000000000E+00 -0.10427044020E+03  0.31378660919E+04  0.31361331742E+04 0.  0.
        2    1    3    3  502    0  0.10339479133E+04  0.99523651462E+03 -0.68437742216E+03  0.15899422831E+04  0.25500000920E-02 0. -1.
       -2    1    3    3    0  502 -0.10339479133E+04 -0.99523651462E+03  0.58010698196E+03  0.15479238089E+04  0.25500000920E-02 0.  1.
</event>
<event>
 5   0  0.4142886E-06  0.3330486E+04  0.7818609E-02  0.8155181E-01
       -1   -1    0    0    0  501  0.00000000000E+00  0.00000000000E+00  0.15187431034E+04  0.15187431035E+04  0.50400001928E-02 0.  1.
        1   -1    0    0  501    0  0.00000000000E+00  0.00000000000E+00 -0.18258741423E+04  0.18258741423E+04  0.50400001928E-02 0. -1.
    10030    2    1    2    0    0  0.00000000000E+00  0.00000000000E+00 -0.30713103882E+03  0.33446172457E+04  0.33304857071E+04 0.  0.
        5    1    3    3  502    0 -0.25598619231E+03  0.69843569919E+01 -0.18059754128E+04  0.18240468727E+04  0.46999998093E+01 0. -1.
       -5    1    3    3    0  502  0.25598619231E+03 -0.69843569919E+01  0.14988443740E+04  0.15205703731E+04  0.46999998093E+01 0.  1.
</event>
<event>
 5   0  0.2933646E-06  0.3151932E+04  0.7818609E-02  0.8201628E-01
        1   -1    0    0  501    0  0.00000000000E+00  0.00000000000E+00  0.21660726053E+04  0.21660726053E+04  0.50400001928E-02 0.  1.
       -1   -1    0    0    0  501  0.00000000000E+00  0.00000000000E+00 -0.11466232670E+04  0.11466232670E+04  0.50400001928E-02 0. -1.
    10030    2    1    2    0    0  0.00000000000E+00  0.00000000000E+00  0.10194493382E+04  0.33126958723E+04  0.31519322628E+04 0.  0.
        2    1    3    3  502    0  0.75093486774E+03  0.11361259329E+04  0.13432608734E+04  0.19128604458E+04  0.25500000920E-02 0.  1.
       -2    1    3    3    0  502 -0.75093486774E+03 -0.11361259329E+04 -0.32381153519E+03  0.13998354265E+04  0.25500000920E-02 0. -1.
</event>
<event>
 5   0  0.7510251E-06  0.2431597E+04  0.7818609E-02  0.8427768E-01
       -2   -1    0    0    0  501  0.00000000000E+00  0.00000000000E+00  0.64873877641E+03  0.64873877641E+03  0.25500000920E-02 0. -1.
        2   -1    0    0  501    0  0.00000000000E+00  0.00000000000E+00 -0.22785234679E+04  0.22785234679E+04  0.25500000920E-02 0.  1.
    10030    2    1    2    0    0  0.00000000000E+00  0.00000000000E+00 -0.16297846915E+04  0.29272622443E+04  0.24315974392E+04 0.  0.
        3    1    3    3  502    0 -0.60620808601E+03 -0.37041053477E+03 -0.20026619333E+04  0.21249345959E+04  0.10100000352E+00 0.  1.
       -3    1    3    3    0  502  0.60620808601E+03  0.37041053477E+03  0.37287724174E+03  0.80232764842E+03  0.10100000352E+00 0. -1.
</event>
<event>
 5   0  0.2635798E-06  0.2510523E+04  0.7818609E-02  0.8399246E-01
        1   -1    0    0  501    0  0.00000000000E+00  0.00000000000E+00  0.27941599914E+04  0.27941599914E+04  0.50400001928E-02 0. -1.
       -1   -1    0    0    0  501  0.00000000000E+00  0.00000000000E+00 -0.56391976543E+03  0.56391976545E+03  0.50400001928E-02 0.  1.
    10030    2    1    2    0    0  0.00000000000E+00  0.00000000000E+00  0.22302402260E+04  0.33580797569E+04  0.25105234888E+04 0.  0.
        1    1    3    3  502    0 -0.73102617595E+03 -0.26974037938E+03 -0.20126106995E+03  0.80477646617E+03  0.50400001928E-02 0.  1.
       -1    1    3    3    0  502  0.73102617595E+03  0.26974037938E+03  0.24315012959E+04  0.25533032907E+04  0.50400001928E-02 0. -1.
</event>
<event>
 5   0  0.2788054E-06  0.3179706E+04  0.7818609E-02  0.8194197E-01
        1   -1    0    0  501    0  0.00000000000E+00  0.00000000000E+00  0.19388599778E+04  0.19388599778E+04  0.50400001928E-02 0.  1.
       -1   -1    0    0    0  501  0.00000000000E+00  0.00000000000E+00 -0.13036697319E+04  0.13036697319E+04  0.50400001928E-02 0. -1.
    10030    2    1    2    0    0  0.00000000000E+00  0.00000000000E+00  0.63519024582E+03  0.32425297097E+04  0.31797063182E+04 0.  0.
        3    1    3    3  502    0 -0.85393598335E+03 -0.87834298817E+03 -0.71580732725E+03  0.14188281110E+04  0.10100000352E+00 0. -1.
       -3    1    3    3    0  502  0.85393598335E+03  0.87834298817E+03  0.13509975731E+04  0.18237015987E+04  0.10100000352E+00 0.  1.
</event>
<event>
 5   0  0.7971763E-06  0.1862614E+04  0.7818609E-02  0.8673693E-01
        2   -1    0    0  501    0  0.00000000000E+00  0.00000000000E+00  0.14793872275E+04  0.14793872275E+04  0.25500000920E-02 0. -1.
       -2   -1    0    0    0  501  0.00000000000E+00  0.00000000000E+00 -0.58627817998E+03  0.58627817998E+03  0.25500000920E-02 0.  1.
    10030    2    1    2    0    0  0.00000000000E+00  0.00000000000E+00  0.89310904748E+03  0.20656654074E+04  0.18626137025E+04 0.  0.
        1    1    3    3  502    0 -0.19300322451E+02  0.68404468342E+03  0.11471170995E+04  0.13357272444E+04  0.50400001928E-02 0. -1.
       -1    1    3    3    0  502  0.19300322451E+02 -0.68404468342E+03 -0.25400805204E+03  0.72993816306E+03  0.50400001928E-02 0.  1.
</event>
<event>
 5   0  0.2788054E-06  0.3206981E+04  0.7818609E-02  0.8186976E-01
        1   -1    0    0  501    0  0.00000000000E+00  0.00000000000E+00  0.16546384770E+04  0.16546384770E+04  0.50400001928E-02 0. -1.
       -1   -1    0    0    0  501  0.00000000000E+00  0.00000000000E+00 -0.15539240231E+04  0.15539240231E+04  0.50400001928E-02 0.  1.
    10030    2    1    2    0    0  0.00000000000E+00  0.00000000000E+00  0.10071445389E+03  0.32085625000E+04  0.32069814336E+04 0.  0.
        3    1    3    3  502    0 -0.69412686496E+02 -0.48711962682E+03  0.15772416005E+04  0.16522090450E+04  0.10100000352E+00 0. -1.
       -3    1    3    3    0  502  0.69412686496E+02  0.48711962682E+03 -0.14765271466E+04  0.15563534550E+04  0.10100000352E+00 0.  1.
</event>
<event>
 5   0  0.7510251E-06  0.2697091E+04  0.7818609E-02  0.8335949E-01
       -2   -1    0    0    0  501  0.00000000000E+00  0.00000000000E+00  0.16267309145E+04  0.16267309145E+04  0.25500000920E-02 0. -1.
        2   -1    0    0  501    0  0.00000000000E+00  0.00000000000E+00 -0.11179321541E+04  0.11179321541E+04  0.25500000920E-02 0.  1.
    10030    2    1    2    0    0  0.00000000000E+00  0.00000000000E+00  0.50879876038E+03  0.27446630685E+04  0.26970908738E+04 0.  0.
        3    1    3    3  502    0  0.52231599979E+03  0.41160362562E+03  0.14482688207E+04  0.15936480588E+04  0.10100000352E+00 0. -1.
       -3    1    3    3    0  502 -0.52231599979E+03 -0.41160362562E+03 -0.93947006028E+03  0.11510150097E+04  0.10100000352E+00 0.  1.
</event>
<event>
 5   0  0.7510251E-06  0.3143920E+04  0.7818609E-02  0.8203787E-01
        2   -1    0    0  501    0  0.00000000000E+00  0.00000000000E+00  0.19665156634E+04  0.19665156634E+04  0.25500000920E-02 0. -1.
       -2   -1    0    0    0  501  0.00000000000E+00  0.00000000000E+00 -0.12565664464E+04  0.12565664464E+04  0.25500000920E-02 0.  1.
    10030    2    1    2    0    0  0.00000000000E+00  0.00000000000E+00  0.70994921699E+03  0.32230821098E+04  0.31439195912E+04 0.  0.
        3    1    3    3  502    0 -0.13482853383E+04 -0.39383780084E+03  0.10784899707E+04  0.17709099904E+04  0.10100000352E+00 0. -1.
       -3    1    3    3    0  502  0.13482853383E+04  0.39383780084E+03 -0.36854075371E+03  0.14521721194E+04  0.10100000352E+00 0.  1.
</event>
<event>
 5   0  0.7941434E-06  0.3134575E+04  0.7818609E-02  0.8206313E-01
       -2   -1    0    0    0  501  0.00000000000E+00  0.00000000000E+00  0.94018483517E+03  0.94018483518E+03  0.25500000920E-02 0.  1.
        2   -1    0    0  501    0  0.00000000000E+00  0.00000000000E+00 -0.26126668494E+04  0.26126668494E+04  0.25500000920E-02 0. -1.
    10030    2    1    2    0    0  0.00000000000E+00  0.00000000000E+00 -0.16724820142E+04  0.35528516846E+04  0.31345747725E+04 0.  0.
        4    1    3    3  502    0  0.47260297976E+03 -0.13118999402E+04 -0.16472273418E+04  0.21581924284E+04  0.12699999809E+01 0. -1.
       -4    1    3    3    0  502 -0.47260297976E+03  0.13118999402E+04 -0.25254672401E+02  0.13946592562E+04  0.12699999809E+01 0.  1.
</event>
<event>
 5   0  0.4142886E-06  0.2106725E+04  0.7818609E-02  0.8558287E-01
        1   -1    0    0  501    0  0.00000000000E+00  0.00000000000E+00  0.89373234547E+03  0.89373234548E+03  0.50400001928E-02 0.  1.
       -1   -1    0    0    0  501  0.00000000000E+00  0.00000000000E+00 -0.12415041872E+04  0.12415041872E+04  0.50400001928E-02 0. -1.
    10030    2    1    2    0    0  0.00000000000E+00  0.00000000000E+00 -0.34777184171E+03  0.21352365327E+04  0.21067248982E+04 0.  0.
        5    1    3    3  502    0  0.64774340485E+03 -0.73029895766E+03 -0.57502285575E+03  0.11329525412E+04  0.46999998093E+01 0. -1.
       -5    1    3    3    0  502 -0.64774340485E+03  0.73029895766E+03  0.22725101404E+03  0.10022839914E+04  0.46999998093E+01 0.  1.
</event>
<event>
 5   0  0.7941434E-06  0.3139972E+04  0.7818609E-02  0.8204853E-01
       -2   -1    0    0    0  501  0.00000000000E+00  0.00000000000E+00  0.11783947570E+04  0.11783947570E+04  0.25500000920E-02 0.  1.
        2   -1    0    0  501    0  0.00000000000E+00  0.00000000000E+00 -0.20917061560E+04  0.20917061560E+04  0.25500000920E-02 0. -1.
    10030    2    1    2    0    0  0.00000000000E+00  0.00000000000E+00 -0.91331139905E+03  0.32701009131E+04  0.31399716989E+04 0.  0.
        4    1    3    3  502    0  0.68940243171E+03  0.13354809406E+04 -0.92941670386E+03  0.17670885880E+04  0.12699999809E+01 0. -1.
       -4    1    3    3    0  502 -0.68940243171E+03 -0.13354809406E+04  0.16105304809E+02  0.15030123251E+04  0.12699999809E+01 0.  1.
</event>
<event>
 5   0  0.2580875E-06  0.3055496E+04  0.7818609E-02  0.8228059E-01
       -3   -1    0    0    0  501  0.00000000000E+00  0.00000000000E+00  0.12065698894E+04  0.12065698936E+04  0.10100000352E+00 0.  1.
        3   -1    0    0  501    0  0.00000000000E+00  0.00000000000E+00 -0.19344209677E+04  0.19344209703E+04  0.10100000352E+00 0. -1.
    10030    2    1    2    0    0  0.00000000000E+00  0.00000000000E+00 -0.72785107824E+03  0.31409908639E+04  0.30554960997E+04 0.  0.
        2    1    3    3  502    0  0.26190246683E+03 -0.68123205316E+03 -0.17436211388E+04  0.18902075780E+04  0.25500000920E-02 0. -1.
       -2    1    3    3    0  502 -0.26190246683E+03  0.68123205316E+03  0.10157700606E+04  0.12507832859E+04  0.25500000920E-02 0.  1.
</event>
<event>
 5   0  0.7971763E-06  0.3188891E+04  0.7818609E-02  0.8191757E-01
       -2   -1    0    0    0  501  0.00000000000E+00  0.00000000000E+00  0.21577638995E+04  0.21577638995E+04  0.25500000920E-02 0.  1.
        2   -1    0    0  501    0  0.00000000000E+00  0.00000000000E+00 -0.11781905745E+04  0.11781905745E+04  0.25500000920E-02 0. -1.
    10030    2    1    2    0    0  0.00000000000E+00  0.00000000000E+00  0.97957332502E+03  0.33359544741E+04  0.31888913989E+04 0.  0.
        1    1    3    3  502    0  0.10711405315E+04  0.63807881041E+03 -0.54991420877E+03  0.13626783346E+04  0.50400001928E-02 0. -1.
       -1    1    3    3    0  502 -0.10711405315E+04 -0.63807881041E+03  0.15294875338E+04  0.19732761395E+04  0.50400001928E-02 0.  1.
</event>
<event>
 5   0  0.2933646E-06  0.1949930E+04  0.7818609E-02  0.8630394E-01
       -1   -1    0    0    0  501  0.00000000000E+00  0.00000000000E+00  0.12331978579E+04  0.12331978579E+04  0.50400001928E-02 0.  1.
        1   -1    0    0  501    0  0.00000000000E+00  0.00000000000E+00 -0.77080663335E+03  0.77080663337E+03  0.50400001928E-02 0. -1.
    10030    2    1    2    0    0  0.00000000000E+00  0.00000000000E+00  0.46239122454E+03  0.20040044913E+04  0.19499303466E+04 0.  0.
        2    1    3    3  502    0  0.34966997431E+03  0.25298045070E+03 -0.66728428692E+03  0.79469271982E+03  0.25500000920E-02 0. -1.
       -2    1    3    3    0  502 -0.34966997431E+03 -0.25298045070E+03  0.11296755115E+04  0.12093117714E+04  0.25500000920E-02 0.  1.
</event>
<event>
 5   0  0.8237664E-06  0.3210230E+04  0.7818609E-02  0.8186121E-01
        2   -1    0    0  501    0  0.00000000000E+00  0.00000000000E+00  0.14839502312E+04  0.14839502312E+04  0.25500000920E-02 0. -1.
       -2   -1    0    0    0  501  0.00000000000E+00  0.00000000000E+00 -0.17361733379E+04  0.17361733379E+04  0.25500000920E-02 0.  1.
    10030    2    1    2    0    0  0.00000000000E+00  0.00000000000E+00 -0.25222310664E+03  0.32201235691E+04  0.32102304130E+04 0.  0.
        5    1    3    3  502    0  0.12008167856E+03  0.14466908199E+03  0.14728599169E+04  0.14848189039E+04  0.46999998093E+01 0. -1.
       -5    1    3    3    0  502 -0.12008167856E+03 -0.14466908199E+03 -0.17250830235E+04  0.17353046651E+04  0.46999998093E+01 0.  1.
</event>
<event>
 5   0  0.2788054E-06  0.2662929E+04  0.7818609E-02  0.8347134E-01
        1   -1    0    0  501    0  0.00000000000E+00  0.00000000000E+00  0.14540768270E+04  0.14540768270E+04  0.50400001928E-02 0.  1.
       -1   -1    0    0    0  501  0.00000000000E+00  0.00000000000E+00 -0.12191915472E+04  0.12191915472E+04  0.50400001928E-02 0. -1.
    10030    2    1    2    0    0  0.00000000000E+00  0.00000000000E+00  0.23488527980E+03  0.26732683742E+04  0.26629293467E+04 0.  0.
        3    1    3    3  502    0 -0.43045598058E+03  0.10304366623E+04  0.84531365409E+03  0.14005881801E+04  0.10100000352E+00 0.  1.
       -3    1    3    3    0  502  0.43045598058E+03 -0.10304366623E+04 -0.61042837428E+03  0.12726801941E+04  0.10100000352E+00 0. -1.
</event>
<event>
 5   0  0.2788054E-06  0.3247775E+04  0.7818609E-02  0.8176313E-01
       -1   -1    0    0    0  501  0.00000000000E+00  0.00000000000E+00  0.13884339505E+04  0.13884339505E+04  0.50400001928E-02 0. -1.
        1   -1    0    0  501    0  0.00000000000E+00  0.00000000000E+00 -0.18992698728E+04  0.18992698728E+04  0.50400001928E-02 0.  1.
    10030    2    1    2    0    0  0.00000000000E+00  0.00000000000E+00 -0.51083592230E+03  0.32877038234E+04  0.32477750986E+04 0.  0.
        3    1    3    3  502    0  0.25587325551E+03 -0.14393276025E+04  0.46029313152E+03  0.15326463543E+04  0.10100000352E+00 0. -1.
       -3    1    3    3    0  502 -0.25587325551E+03  0.14393276025E+04 -0.97112905382E+03  0.17550574691E+04  0.10100000352E+00 0.  1.
</event>
<event>
 5   0  0.2788054E-06  0.2892367E+04  0.7818609E-02  0.8275152E-01
       -1   -1    0    0    0  501  0.00000000000E+00  0.00000000000E+00  0.10427135642E+04  0.10427135642E+04  0.50400001928E-02 0. -1.
        1   -1    0    0  501    0  0.00000000000E+00  0.00000000000E+00 -0.20057730098E+04  0.20057730098E+04  0.50400001928E-02 0.  1.
    10030    2    1    2    0    0  0.00000000000E+00  0.00000000000E+00 -0.96305944562E+03  0.30484865740E+04  0.28923670058E+04 0.  0.
        3    1    3    3  502    0  0.93818363462E+03 -0.15759722947E+03  0.66649265732E+03  0.11615669983E+04  0.10100000352E+00 0.  1.
       -3    1    3    3    0  502 -0.93818363462E+03  0.15759722947E+03 -0.16295521029E+04  0.18869195758E+04  0.10100000352E+00 0. -1.
</event>
<event>
 5   0  0.2933646E-06  0.2733498E+04  0.7818609E-02  0.8324217E-01
        1   -1    0    0  501    0  0.00000000000E+00  0.00000000000E+00  0.15719133226E+04  0.15719133226E+04  0.50400001928E-02 0.  1.
       -1   -1    0    0    0  501  0.00000000000E+00  0.00000000000E+00 -0.11883620860E+04  0.11883620860E+04  0.50400001928E-02 0. -1.
    10030    2    1    2    0    0  0.00000000000E+00  0.00000000000E+00  0.38355123663E+03  0.27602754086E+04  0.27334975362E+04 0.  0.
        2    1    3    3  502    0  0.12266694855E+04 -0.56587850870E+03 -0.17780040480E+02  0.13510191128E+04  0.25500000920E-02 0. -1.
       -2    1    3    3    0  502 -0.12266694855E+04  0.56587850870E+03  0.40133127711E+03  0.14092562958E+04  0.25500000920E-02 0.  1.
</event>
<event>
 5   0  0.4142886E-06  0.3099134E+04  0.7818609E-02  0.8215976E-01
       -1   -1    0    0    0  501  0.00000000000E+00  0.00000000000E+00  0.14029478713E+04  0.14029478713E+04  0.50400001928E-02 0. -1.
        1   -1    0    0  501    0  0.00000000000E+00  0.00000000000E+00 -0.17115088475E+04  0.17115088475E+04  0.50400001928E-02 0.  1.
    10030    2    1    2    0    0  0.00000000000E+00  0.00000000000E+00 -0.30856097624E+03  0.31144567188E+04  0.30991338753E+04 0.  0.
        5    1    3    3  502    0 -0.88477000097E+03 -0.12716874606E+04 -0.18804201240E+03  0.15605732410E+04  0.46999998093E+01 0.  1.
       -5    1    3    3    0  502  0.88477000097E+03  0.12716874606E+04 -0.12051896384E+03  0.15538834778E+04  0.46999998093E+01 0. -1.
</event>
<event>
 5   0  0.8237664E-06  0.3215146E+04  0.7818609E-02  0.8184829E-01
        2   -1    0    0  501    0  0.00000000000E+00  0.00000000000E+00  0.20084230331E+04  0.20084230331E+04  0.25500000920E-02 0.  1.
       -2   -1    0    0    0  501  0.00000000000E+00  0.00000000000E+00 -0.12867265138E+04  0.12867265138E+04  0.25500000920E-02 0. -1.
    10030    2    1    2    0    0  0.00000000000E+00  0.00000000000E+00  0.72169651934E+03  0.32951495469E+04  0.32151461352E+04 0.  0.
        5    1    3    3  502    0 -0.15980288735E+04 -0.13853084187E+02  0.53948659026E+03  0.16866997539E+04  0.46999998093E+01 0.  1.
       -5    1    3    3    0  502  0.15980288735E+04  0.13853084187E+02  0.18220992907E+03  0.16084497931E+04  0.46999998093E+01 0. -1.
</event>
<event>
 5   0  0.7971763E-06  0.2554901E+04  0.7818609E-02  0.8383684E-01
       -2   -1    0    0    0  501  0.00000000000E+00  0.00000000000E+00  0.70041734866E+03  0.70041734866E+03  0.25500000920E-02 0.  1.
        2   -1    0    0  501    0  0.00000000000E+00  0.00000000000E+00 -0.23298673999E+04  0.23298673999E+04  0.25500000920E-02 0. -1.
    10030    2    1    2    0    0  0.00000000000E+00  0.00000000000E+00 -0.16294500513E+04  0.30302847486E+04  0.25549008176E+04 0.  0.
        1    1    3    3  502    0 -0.79077372180E+03 -0.70816610299E+02  0.37225623926E+03  0.87687671829E+03  0.50400001928E-02 0.  1.
       -1    1    3    3    0  502  0.79077372180E+03  0.70816610299E+02 -0.20017062905E+04  0.21534080303E+04  0.50400001928E-02 0. -1.
</event>
<event>
 5   0  0.2635798E-06  0.3176494E+04  0.7818609E-02  0.8195053E-01
        1   -1    0    0  501    0  0.00000000000E+00  0.00000000000E+00  0.11989812542E+04  0.11989812542E+04  0.50400001928E-02 0.  1.
       -1   -1    0    0    0  501  0.00000000000E+00  0.00000000000E+00 -0.21038935199E+04  0.21038935199E+04  0.50400001928E-02 0. -1.
    10030    2    1    2    0    0  0.00000000000E+00  0.00000000000E+00 -0.90491226564E+03  0.33028747741E+04  0.31764942256E+04 0.  0.
        1    1    3    3  502    0  0.18120058219E+03  0.15459462700E+04 -0.12406576347E+03  0.15614659248E+04  0.50400001928E-02 0. -1.
       -1    1    3    3    0  502 -0.18120058219E+03 -0.15459462700E+04 -0.78084650218E+03  0.17414088493E+04  0.50400001928E-02 0.  1.
</event>
<event>
 5   0  0.7941434E-06  0.3251635E+04  0.7818609E-02  0.8175312E-01
        2   -1    0    0  501    0  0.00000000000E+00  0.00000000000E+00  0.19478447827E+04  0.19478447827E+04  0.25500000920E-02 0. -1.
       -2   -1    0    0    0  501  0.00000000000E+00  0.00000000000E+00 -0.13570295493E+04  0.13570295493E+04  0.25500000920E-02 0.  1.
    10030    2    1    2    0    0  0.00000000000E+00  0.00000000000E+00  0.59081523343E+03  0.33048743321E+04  0.32516352364E+04 0.  0.
        4    1    3    3  502    0 -0.12568911017E+04 -0.91639287231E+03 -0.18533808698E+03  0.15664938421E+04  0.12699999809E+01 0. -1.
       -4    1    3    3    0  502  0.12568911017E+04  0.91639287231E+03  0.77615332041E+03  0.17383804899E+04  0.12699999809E+01 0.  1.
</event>
<event>
 5   0  0.7510251E-06  0.3169421E+04  0.7818609E-02  0.8196940E-01
        2   -1    0    0  501    0  0.00000000000E+00  0.00000000000E+00  0.10592650511E+04  0.10592650511E+04  0.25500000920E-02 0. -1.
       -2   -1    0    0    0  501  0.00000000000E+00  0.00000000000E+00 -0.23708013825E+04  0.23708013825E+04  0.25500000920E-02 0.  1.
    10030    2    1    2    0    0  0.00000000000E+00  0.00000000000E+00 -0.13115363313E+04  0.34300664336E+04  0.31694207973E+04 0.  0.
        3    1    3    3  502    0 -0.10867760281E+04 -0.81628281461E+02 -0.19008409156E+04  0.21911050884E+04  0.10100000352E+00 0.  1.
       -3    1    3    3    0  502  0.10867760281E+04  0.81628281461E+02  0.58930458430E+03  0.12389613452E+04  0.10100000352E+00 0. -1.
</event>
<event>
 5   0  0.2788054E-06  0.3235265E+04  0.7818609E-02  0.8179565E-01
        1   -1    0    0  501    0  0.00000000000E+00  0.00000000000E+00  0.17216835243E+04  0.17216835243E+04  0.50400001928E-02 0.  1.
       -1   -1    0    0    0  501  0.00000000000E+00  0.00000000000E+00 -0.15198699469E+04  0.15198699469E+04  0.50400001928E-02 0. -1.
    10030    2    1    2    0    0  0.00000000000E+00  0.00000000000E+00  0.20181357740E+03  0.32415534712E+04  0.32352650875E+04 0.  0.
        3    1    3    3  502    0  0.74666934337E+03  0.27773346759E+03 -0.13096947460E+04  0.15329550956E+04  0.10100000352E+00 0. -1.
       -3    1    3    3    0  502 -0.74666934337E+03 -0.27773346759E+03  0.15115083234E+04  0.17085983756E+04  0.10100000352E+00 0.  1.
</event>
<event>
 5   0  0.3938696E-06  0.2771009E+04  0.7818609E-02  0.8312326E-01
        1   -1    0    0  501    0  0.00000000000E+00  0.00000000000E+00  0.18852159191E+04  0.18852159191E+04  0.50400001928E-02 0.  1.
       -1   -1    0    0    0  501  0.00000000000E+00  0.00000000000E+00 -0.10182510915E+04  0.10182510915E+04  0.50400001928E-02 0. -1.
    10030    2    1    2    0    0  0.00000000000E+00  0.00000000000E+00  0.86696482760E+03  0.29034670106E+04  0.27710093233E+04 0.  0.
        4    1    3    3  502    0 -0.86897713646E+03 -0.71295057815E+03  0.12822672373E+04  0.17051776070E+04  0.12699999809E+01 0.  1.
       -4    1    3    3    0  502  0.86897713646E+03  0.71295057815E+03 -0.41530240969E+03  0.11982894037E+04  0.12699999809E+01 0. -1.
</event>
<event>
 5   0  0.8237664E-06  0.3105117E+04  0.7818609E-02  0.8214335E-01
        2   -1    0    0  501    0  0.00000000000E+00  0.00000000000E+00  0.18760658524E+04  0.18760658524E+04  0.25500000920E-02 0.  1.
       -2   -1    0    0    0  501  0.00000000000E+00  0.00000000000E+00 -0.12848363086E+04  0.12848363086E+04  0.25500000920E-02 0. -1.
    10030    2    1    2    0    0  0.00000000000E+00  0.00000000000E+00  0.59122954374E+03  0.31609021610E+04  0.31051167608E+04 0.  0.
        5    1    3    3  502    0 -0.14254998985E+03  0.89038125278E+03  0.15821703751E+04  0.18210943031E+04  0.46999998093E+01 0.  1.
       -5    1    3    3    0  502  0.14254998985E+03 -0.89038125278E+03 -0.99094083135E+03  0.13398078579E+04  0.46999998093E+01 0. -1.
</event>
<event>
 5   0  0.7952307E-06  0.2556858E+04  0.7818609E-02  0.8383005E-01
       -2   -1    0    0    0  501  0.00000000000E+00  0.00000000000E+00  0.10026303225E+04  0.10026303225E+04  0.25500000920E-02 0.  1.
        2   -1    0    0  501    0  0.00000000000E+00  0.00000000000E+00 -0.16300927281E+04  0.16300927281E+04  0.25500000920E-02 0. -1.
    10030    2    1    2    0    0  0.00000000000E+00  0.00000000000E+00 -0.62746240561E+03  0.26327230506E+04  0.25568577572E+04 0.  0.
        2    1    3    3  502    0  0.23445653344E+03 -0.12150719412E+04  0.16744699120E+02  0.12375985105E+04  0.25500000920E-02 0.  1.
       -2    1    3    3    0  502 -0.23445653344E+03  0.12150719412E+04 -0.64420710473E+03  0.13951245400E+04  0.25500000920E-02 0. -1.
</event>
<event>
 5   0  0.7510251E-06  0.3143219E+04  0.7818609E-02  0.8203976E-01
        2   -1    0    0  501    0  0.00000000000E+00  0.00000000000E+00  0.22625892164E+04  0.22625892164E+04  0.25500000920E-02 0.  1.
       -2   -1    0    0    0  501  0.00000000000E+00  0.00000000000E+00 -0.10916505882E+04  0.10916505882E+04  0.25500000920E-02 0. -1.
    10030    2    1    2    0    0  0.00000000000E+00  0.00000000000E+00  0.11709386282E+04  0.33542398045E+04  0.31432192726E+04 0.  0.
        3    1    3    3  502    0  0.82513388800E+03 -0.87136796128E+03 -0.49746456927E+03  0.12990762352E+04  0.10100000352E+00 0. -1.
       -3    1    3    3    0  502 -0.82513388800E+03  0.87136796128E+03  0.16684031975E+04  0.20551635693E+04  0.10100000352E+00 0.  1.
</event>
<event>
 5   0  0.7952307E-06  0.3145640E+04  0.7818609E-02  0.8203323E-01
       -2   -1    0    0    0  501  0.00000000000E+00  0.00000000000E+00  0.14856170605E+04  0.14856170605E+04  0.25500000920E-02 0. -1.
        2   -1    0    0  501    0  0.00000000000E+00  0.00000000000E+00 -0.16651419755E+04  0.16651419755E+04  0.25500000920E-02 0.  1.
    10030    2    1    2    0    0  0.00000000000E+00  0.00000000000E+00 -0.17952491497E+03  0.31507590360E+04  0.31456403653E+04 0.  0.
        2    1    3    3  502    0 -0.64508443808E+03 -0.28156768882E+03 -0.14985891734E+04  0.16556520788E+04  0.25500000920E-02 0.  1.
       -2    1    3    3    0  502  0.64508443808E+03  0.28156768882E+03  0.13190642584E+04  0.14951069572E+04  0.25500000920E-02 0. -1.
</event>
<event>
 5   0  0.7510251E-06  0.2600896E+04  0.7818609E-02  0.8367897E-01
       -2   -1    0    0    0  501  0.00000000000E+00  0.00000000000E+00  0.12669660568E+04  0.12669660568E+04  0.25500000920E-02 0.  1.
        2   -1    0    0  501    0  0.00000000000E+00  0.00000000000E+00 -0.13348143188E+04  0.13348143188E+04  0.25500000920E-02 0. -1.
    10030    2    1    2    0    0  0.00000000000E+00  0.00000000000E+00 -0.67848261980E+02  0.26017803756E+04  0.26008955643E+04 0.  0.
        3    1    3    3  502    0  0.23957254373E+03 -0.44713574304E+03 -0.12317616754E+04  0.13321269503E+04  0.10100000352E+00 0. -1.
       -3    1    3    3    0  502 -0.23957254373E+03  0.44713574304E+03  0.11639134134E+04  0.12696534254E+04  0.10100000352E+00 0.  1.
</event>
<event>
 5   0  0.8237664E-06  0.2140439E+04  0.7818609E-02  0.8543636E-01
        2   -1    0    0  501    0  0.00000000000E+00  0.00000000000E+00  0.13801374040E+04  0.13801374041E+04  0.25500000920E-02 0. -1.
       -2   -1    0    0    0  501  0.00000000000E+00  0.00000000000E+00 -0.82989585419E+03  0.82989585420E+03  0.25500000920E-02 0.  1.
    10030    2    1    2    0    0  0.00000000000E+00  0.00000000000E+00  0.55024154986E+03  0.22100332582E+04  0.21404394968E+04 0.  0.
        5    1    3    3  502    0  0.92291934152E+03 -0.52776712453E+03  0.40170364161E+03  0.11365325136E+04  0.46999998093E+01 0.  1.
       -5    1    3    3    0  502 -0.92291934152E+03  0.52776712453E+03  0.14853790824E+03  0.10735007447E+04  0.46999998093E+01 0. -1.
</event>
<event>
 5   0  0.7941434E-06  0.3139274E+04  0.7818609E-02  0.8205041E-01
       -2   -1    0    0    0  501  0.00000000000E+00  0.00000000000E+00  0.12027770609E+04  0.12027770609E+04  0.25500000920E-02 0.  1.
        2   -1    0    0  501    0  0.00000000000E+00  0.00000000000E+00 -0.20483934196E+04  0.20483934196E+04  0.25500000920E-02 0. -1.
    10030    2    1    2    0    0  0.00000000000E+00  0.00000000000E+00 -0.84561635873E+03  0.32511704805E+04  0.31392741944E+04 0.  0.
        4    1    3    3  502    0 -0.92317537838E+03 -0.10993193826E+04  0.23464479884E+03  0.14545843663E+04  0.12699999809E+01 0.  1.
       -4    1    3    3    0  502  0.92317537838E+03  0.10993193826E+04 -0.10802611576E+04  0.17965861142E+04  0.12699999809E+01 0. -1.
</event>
<event>
 5   0  0.7941434E-06  0.3213919E+04  0.7818609E-02  0.8185151E-01
       -2   -1    0    0    0  501  0.00000000000E+00  0.00000000000E+00  0.17056038452E+04  0.17056038452E+04  0.25500000920E-02 0.  1.
        2   -1    0    0  501    0  0.00000000000E+00  0.00000000000E+00 -0.15140200602E+04  0.15140200602E+04  0.25500000920E-02 0. -1.
    10030    2    1    2    0    0  0.00000000000E+00  0.00000000000E+00  0.19158378493E+03  0.32196239054E+04  0.32139187522E+04 0.  0.
        4    1    3    3  502    0 -0.14660368764E+04  0.57298828298E+03  0.41999754343E+03  0.16291038164E+04  0.12699999809E+01 0. -1.
       -4    1    3    3    0  502  0.14660368764E+04 -0.57298828298E+03 -0.22841375850E+03  0.15905200889E+04  0.12699999809E+01 0.  1.
</event>
<event>
 5   0  0.2635798E-06  0.3187665E+04  0.7818609E-02  0.8192082E-01
        1   -1    0    0  501    0  0.00000000000E+00  0.00000000000E+00  0.15996884775E+04  0.15996884775E+04  0.50400001928E-02 0.  1.
       -1   -1    0    0    0  501  0.00000000000E+00  0.00000000000E+00 -0.15879979006E+04  0.15879979006E+04  0.50400001928E-02 0. -1.
    10030    2    1    2    0    0  0.00000000000E+00  0.00000000000E+00  0.11690576890E+02  0.31876863782E+04  0.31876649410E+04 0.  0.
        1    1    3    3  502    0 -0.11082668164E+04 -0.19106898024E+03 -0.11235600456E+04  0.15897011882E+04  0.50400001928E-02 0. -1.
       -1    1    3    3    0  502  0.11082668164E+04  0.19106898024E+03  0.11352506225E+04  0.15979851900E+04  0.50400001928E-02 0.  1.
</event>
<event>
 5   0  0.7952307E-06  0.2900590E+04  0.7818609E-02  0.8272702E-01
       -2   -1    0    0    0  501  0.00000000000E+00  0.00000000000E+00  0.10034247031E+04  0.10034247031E+04  0.25500000920E-02 0. -1.
        2   -1    0    0  501    0  0.00000000000E+00  0.00000000000E+00 -0.20961769001E+04  0.20961769001E+04  0.25500000920E-02 0.  1.
    10030    2    1    2    0    0  0.00000000000E+00  0.00000000000E+00 -0.10927521970E+04  0.30996016032E+04  0.29005900667E+04 0.  0.
        2    1    3    3  502    0  0.93013484332E+03 -0.11074248068E+04 -0.66253144909E+03  0.15907509077E+04  0.25500000920E-02 0.  1.
       -2    1    3    3    0  502 -0.93013484332E+03  0.11074248068E+04 -0.43022074786E+03  0.15088506955E+04  0.25500000920E-02 0. -1.
</event>
<event>
 5   0  0.2635798E-06  0.1881320E+04  0.7818609E-02  0.8664211E-01
        1   -1    0    0  501    0  0.00000000000E+00  0.00000000000E+00  0.11092892811E+04  0.11092892811E+04  0.50400001928E-02 0. -1.
       -1   -1    0    0    0  501  0.00000000000E+00  0.00000000000E+00 -0.79766458170E+03  0.79766458172E+03  0.50400001928E-02 0.  1.
    10030    2    1    2    0    0  0.00000000000E+00  0.00000000000E+00  0.31162469940E+03  0.19069538628E+04  0.18813195055E+04 0.  0.
        1    1    3    3  502    0 -0.94933577248E+02  0.43038082453E+03 -0.68653486610E+03  0.81582483451E+03  0.50400001928E-02 0.  1.
       -1    1    3    3    0  502  0.94933577248E+02 -0.43038082453E+03  0.99815956550E+03  0.10911290283E+04  0.50400001928E-02 0. -1.
</event>
<event>
 5   0  0.4142886E-06  0.3143807E+04  0.7818609E-02  0.8203817E-01
        1   -1    0    0  501    0  0.00000000000E+00  0.00000000000E+00  0.20762032692E+04  0.20762032692E+04  0.50400001928E-02 0.  1.
       -1   -1    0    0    0  501  0.00000000000E+00  0.00000000000E+00 -0.11900958916E+04  0.11900958917E+04  0.50400001928E-02 0. -1.
    10030    2    1    2    0    0  0.00000000000E+00  0.00000000000E+00  0.88610737755E+03  0.32662991609E+04  0.31438072339E+04 0.  0.
        5    1    3    3  502    0 -0.12073112905E+04  0.92526507851E+03  0.85491158345E+03  0.17448816359E+04  0.46999998093E+01 0.  1.
       -5    1    3    3    0  502  0.12073112905E+04 -0.92526507851E+03  0.31195794094E+02  0.15214175250E+04  0.46999998093E+01 0. -1.
</event>
<event>
 5   0  0.7971763E-06  0.3217339E+04  0.7818609E-02  0.8184253E-01
        2   -1    0    0  501    0  0.00000000000E+00  0.00000000000E+00  0.15430458714E+04  0.15430458714E+04  0.25500000920E-02 0.  1.
       -2   -1    0    0    0  501  0.00000000000E+00  0.00000000000E+00 -0.16770844941E+04  0.16770844941E+04  0.25500000920E-02 0. -1.
    10030    2    1    2    0    0  0.00000000000E+00  0.00000000000E+00 -0.13403862275E+03  0.32201303655E+04  0.32173394627E+04 0.  0.
        1    1    3    3  502    0  0.11958990277E+04  0.99711993883E+03 -0.47159223177E+03  0.16269056180E+04  0.50400001928E-02 0. -1.
       -1    1    3    3    0  502 -0.11958990277E+04 -0.99711993883E+03  0.33755360902E+03  0.15932247475E+04  0.50400001928E-02 0.  1.
</event>
<event>
 5   0  0.7510251E-06  0.1707546E+04  0.7818609E-02  0.8757072E-01
        2   -1    0    0  501    0  0.00000000000E+00  0.00000000000E+00  0.12141423042E+04  0.12141423042E+04  0.25500000920E-02 0. -1.
       -2   -1    0    0    0  501  0.00000000000E+00  0.00000000000E+00 -0.60036490201E+03  0.60036490202E+03  0.25500000920E-02 0.  1.
    10030    2    1    2    0    0  0.00000000000E+00  0.00000000000E+00  0.61377740219E+03  0.18145072062E+04  0.17075461054E+04 0.  0.
        3    1    3    3  502    0  0.22399187671E+03  0.71364933305E+03  0.74433096029E+03  0.10552233508E+04  0.10100000352E+00 0. -1.
       -3    1    3    3    0  502 -0.22399187671E+03 -0.71364933305E+03 -0.13055355810E+03  0.75928385543E+03  0.10100000352E+00 0.  1.
</event>
<event>
 5   0  0.8237664E-06  0.3245092E+04  0.7818609E-02  0.8177009E-01
        2   -1    0    0  501    0  0.00000000000E+00  0.00000000000E+00  0.16983928620E+04  0.16983928620E+04  0.25500000920E-02 0.  1.
       -2   -1    0    0    0  501  0.00000000000E+00  0.00000000000E+00 -0.15500863952E+04  0.15500863952E+04  0.25500000920E-02 0. -1.
    10030    2    1    2    0    0  0.00000000000E+00  0.00000000000E+00  0.14830646671E+03  0.32484792572E+04  0.32450920906E+04 0.  0.
        5    1    3    3  502    0  0.13681080741E+03 -0.16066549233E+04  0.25483079145E+03  0.16324883038E+04  0.46999998093E+01 0.  1.
       -5    1    3    3    0  502 -0.13681080741E+03  0.16066549233E+04 -0.10652432473E+03  0.16159909534E+04  0.46999998093E+01 0. -1.
</event>
<event>
 5   0  0.7510251E-06  0.3198463E+04  0.7818609E-02  0.8189223E-01
        2   -1    0    0  501    0  0.00000000000E+00  0.00000000000E+00  0.23424997521E+04  0.23424997521E+04  0.25500000920E-02 0.  1.
       -2   -1    0    0    0  501  0.00000000000E+00  0.00000000000E+00 -0.10918002859E+04  0.10918002859E+04  0.25500000920E-02 0. -1.
    10030    2    1    2    0    0  0.00000000000E+00  0.00000000000E+00  0.12506994663E+04  0.34343000380E+04  0.31984633179E+04 0.  0.
        3    1    3    3  502    0 -0.15853207432E+04 -0.93812152935E+02  0.42304464062E+03  0.16434747814E+04  0.10100000352E+00 0.  1.
       -3    1    3    3    0  502  0.15853207432E+04  0.93812152935E+02  0.82765482567E+03  0.17908252566E+04  0.10100000352E+00 0. -1.
</event>
<event>
 5   0  0.7941434E-06  0.3261400E+04  0.7818609E-02  0.8172787E-01
       -2   -1    0    0    0  501  0.00000000000E+00  0.00000000000E+00  0.29521126024E+04  0.29521126024E+04  0.25500000920E-02 0. -1.
        2   -1    0    0  501    0  0.00000000000E+00  0.00000000000E+00 -0.90077264193E+03  0.90077264194E+03  0.25500000920E-02 0.  1.
    10030    2    1    2    0    0  0.00000000000E+00  0.00000000000E+00  0.20513399605E+04  0.38528852444E+04  0.32613998640E+04 0.  0.
        4    1    3    3  502    0  0.10414341862E+04 -0.89735567378E+03 -0.10529858893E+02  0.13747526542E+04  0.12699999809E+01 0. -1.
       -4    1    3    3    0  502 -0.10414341862E+04  0.89735567378E+03  0.20618698194E+04  0.24781325902E+04  0.12699999809E+01 0.  1.
</event>
<event>
 5   0  0.8237664E-06  0.2380326E+04  0.7818609E-02  0.8446906E-01
        2   -1    0    0  501    0  0.00000000000E+00  0.00000000000E+00  0.15083406871E+04  0.15083406871E+04  0.25500000920E-02 0. -1.
       -2   -1    0    0    0  501  0.00000000000E+00  0.00000000000E+00 -0.93910320596E+03  0.93910320596E+03  0.25500000920E-02 0.  1.
    10030    2    1    2    0    0  0.00000000000E+00  0.00000000000E+00  0.56923748118E+03  0.24474438931E+04  0.23803256710E+04 0.  0.
        5    1    3    3  502    0  0.28296864700E+03 -0.11368405114E+04  0.68972005609E+02  0.11735658614E+04  0.46999998093E+01 0. -1.
       -5    1    3    3    0  502 -0.28296864700E+03  0.11368405114E+04  0.50026547558E+03  0.12738780317E+04  0.46999998093E+01 0.  1.
</event>
<event>
 5   0  0.4142886E-06  0.2112229E+04  0.7818609E-02  0.8555876E-01
       -1   -1    0    0    0  501  0.00000000000E+00  0.00000000000E+00  0.94917332181E+03  0.94917332183E+03  0.50400001928E-02 0. -1.
        1   -1    0    0  501    0  0.00000000000E+00  0.00000000000E+00 -0.11751043701E+04  0.11751043701E+04  0.50400001928E-02 0.  1.
    10030    2    1    2    0    0  0.00000000000E+00  0.00000000000E+00 -0.22593104826E+03  0.21242776919E+04  0.21122288876E+04 0.  0.
        5    1    3    3  502    0  0.92915820648E+03  0.41818005506E+03  0.16637072093E+03  0.10324295801E+04  0.46999998093E+01 0.  1.
       -5    1    3    3    0  502 -0.92915820648E+03 -0.41818005506E+03 -0.39230176919E+03  0.10918481118E+04  0.46999998093E+01 0. -1.
</event>
<event>
 5   0  0.7510251E-06  0.3307474E+04  0.7818609E-02  0.8160996E-01
        2   -1    0    0  501    0  0.00000000000E+00  0.00000000000E+00  0.27248986497E+04  0.27248986497E+04  0.25500000920E-02 0. -1.
       -2   -1    0    0    0  501  0.00000000000E+00  0.00000000000E+00 -0.10036505921E+04  0.10036505921E+04  0.25500000920E-02 0.  1.
    10030    2    1    2    0    0  0.00000000000E+00  0.00000000000E+00  0.17212480576E+04  0.37285492418E+04  0.33074740472E+04 0.  0.
        3    1    3    3  502    0  0.32192704640E+03 -0.70651026375E+03 -0.78542349857E+03  0.11043929818E+04  0.10100000352E+00 0.  1.
       -3    1    3    3    0  502 -0.32192704640E+03  0.70651026375E+03  0.25066715562E+04  0.26241562600E+04  0.10100000352E+00 0. -1.
</event>
<event>
 5   0  0.7971763E-06  0.3131028E+04  0.7818609E-02  0.8207274E-01
       -2   -1    0    0    0  501  0.00000000000E+00  0.00000000000E+00  0.14979217487E+04  0.14979217487E+04  0.25500000920E-02 0. -1.
        2   -1    0    0  501    0  0.00000000000E+00  0.00000000000E+00 -0.16361558960E+04  0.16361558960E+04  0.25500000920E-02 0.  1.
    10030    2    1    2    0    0  0.00000000000E+00  0.00000000000E+00 -0.13823414729E+03  0.31340776447E+04  0.31310276274E+04 0.  0.
        1    1    3    3  502    0 -0.12912681749E+04  0.15925654538E+02  0.81673449549E+03  0.15279667411E+04  0.50400001928E-02 0. -1.
       -1    1    3    3    0  502  0.12912681749E+04 -0.15925654538E+02 -0.95496864277E+03  0.16061109036E+04  0.50400001928E-02 0.  1.
</event>
<event>
 5   0  0.7941434E-06  0.2014336E+04  0.7818609E-02  0.8599947E-01
        2   -1    0    0  501    0  0.00000000000E+00  0.00000000000E+00  0.12171918894E+04  0.12171918894E+04  0.25500000920E-02 0. -1.
       -2   -1    0    0    0  501  0.00000000000E+00  0.00000000000E+00 -0.83338313285E+03  0.83338313285E+03  0.25500000920E-02 0.  1.
    10030    2    1    2    0    0  0.00000000000E+00  0.00000000000E+00  0.38380875654E+03  0.20505750222E+04  0.20143358112E+04 0.  0.
        4    1    3    3  502    0 -0.11763626741E+02 -0.68961421329E+03  0.93905641662E+03  0.11651329163E+04  0.12699999809E+01 0.  1.
       -4    1    3    3    0  502  0.11763626741E+02  0.68961421329E+03 -0.55524766008E+03  0.88544210596E+03  0.12699999809E+01 0. -1.
</event>
<event>
 5   0  0.7971763E-06  0.3217807E+04  0.7818609E-02  0.8184130E-01
        2   -1    0    0  501    0  0.00000000000E+00  0.00000000000E+00  0.23124113406E+04  0.23124113406E+04  0.25500000920E-02 0.  1.
       -2   -1    0    0    0  501  0.00000000000E+00  0.00000000000E+00 -0.11194248691E+04  0.11194248691E+04  0.25500000920E-02 0. -1.
    10030    2    1    2    0    0  0.00000000000E+00  0.00000000000E+00  0.11929864714E+04  0.34318362097E+04  0.32178071802E+04 0.  0.
        1    1    3    3  502    0  0.14823976151E+04 -0.60985179820E+03  0.74407679011E+03  0.17672215975E+04  0.50400001928E-02 0.  1.
       -1    1    3    3    0  502 -0.14823976151E+04  0.60985179820E+03  0.44890968134E+03  0.16646146122E+04  0.50400001928E-02 0. -1.
</event>
<event>
 5   0  0.7510251E-06  0.3309510E+04  0.7818609E-02  0.8160480E-01
        2   -1    0    0  501    0  0.00000000000E+00  0.00000000000E+00  0.19802198697E+04  0.19802198697E+04  0.25500000920E-02 0.  1.
       -2   -1    0    0    0  501  0.00000000000E+00  0.00000000000E+00 -0.13827827253E+04  0.13827827253E+04  0.25500000920E-02 0. -1.
    10030    2    1    2    0    0  0.00000000000E+00  0.00000000000E+00  0.59743714436E+03  0.33630025950E+04  0.33095098296E+04 0.  0.
        3    1    3    3  502    0  0.12332237671E+03 -0.10349346525E+04  0.16047615370E+04  0.19135197266E+04  0.10100000352E+00 0.  1.
       -3    1    3    3    0  502 -0.12332237671E+03  0.10349346525E+04 -0.10073243926E+04  0.14494828684E+04  0.10100000352E+00 0. -1.
</event>
<event>
 5   0  0.7952307E-06  0.1879600E+04  0.7818609E-02  0.8665078E-01
        2   -1    0    0  501    0  0.00000000000E+00  0.00000000000E+00  0.23873962879E+04  0.23873962879E+04  0.25500000920E-02 0. -1.
       -2   -1    0    0    0  501  0.00000000000E+00  0.00000000000E+00 -0.36995279612E+03  0.36995279613E+03  0.25500000920E-02 0.  1.
    10030    2    1    2    0    0  0.00000000000E+00  0.00000000000E+00  0.20174434918E+04  0.27573490841E+04  0.18795998853E+04 0.  0.
        2    1    3    3  502    0  0.90076222938E+03  0.62644869768E+02  0.13910597131E+04  0.16584161417E+04  0.25500000920E-02 0. -1.
       -2    1    3    3    0  502 -0.90076222938E+03 -0.62644869768E+02  0.62638377867E+03  0.10989329423E+04  0.25500000920E-02 0.  1.
</event>
<event>
 5   0  0.7971763E-06  0.3300560E+04  0.7818609E-02  0.8162753E-01
        2   -1    0    0  501    0  0.00000000000E+00  0.00000000000E+00  0.26322353510E+04  0.26322353510E+04  0.25500000920E-02 0. -1.
       -2   -1    0    0    0  501  0.00000000000E+00  0.00000000000E+00 -0.10346431742E+04  0.10346431742E+04  0.25500000920E-02 0.  1.
    10030    2    1    2    0    0  0.00000000000E+00  0.00000000000E+00  0.15975921768E+04  0.36668785252E+04  0.33005601578E+04 0.  0.
        1    1    3    3  502    0  0.86747558709E+03 -0.14034904403E+04  0.76153198612E+03  0.18172039721E+04  0.50400001928E-02 0. -1.
       -1    1    3    3    0  502 -0.86747558709E+03  0.14034904403E+04  0.83606019068E+03  0.18496745532E+04  0.50400001928E-02 0.  1.
</event>
<event>
 5   0  0.7952307E-06  0.3158430E+04  0.7818609E-02  0.8199883E-01
       -2   -1    0    0    0  501  0.00000000000E+00  0.00000000000E+00  0.14891334972E+04  0.14891334972E+04  0.25500000920E-02 0.  1.
        2   -1    0    0  501    0  0.00000000000E+00  0.00000000000E+00 -0.16747456861E+04  0.16747456861E+04  0.25500000920E-02 0. -1.
    10030    2    1    2    0    0  0.00000000000E+00  0.00000000000E+00 -0.18561218890E+03  0.31638791833E+04  0.31584299267E+04 0.  0.
        2    1    3    3  502    0 -0.13751319323E+04  0.76189582309E+03 -0.24288722631E+03  0.15907442538E+04  0.25500000920E-02 0. -1.
       -2    1    3    3    0  502  0.13751319323E+04 -0.76189582309E+03  0.57275037411E+02  0.15731349295E+04  0.25500000920E-02 0.  1.
</event>
<event>
 5   0  0.2635798E-06  0.2387389E+04  0.7818609E-02  0.8444240E-01
        1   -1    0    0  501    0  0.00000000000E+00  0.00000000000E+00  0.12340162212E+04  0.12340162213E+04  0.50400001928E-02 0.  1.
       -1   -1    0    0    0  501  0.00000000000E+00  0.00000000000E+00 -0.11546906902E+04  0.11546906902E+04  0.50400001928E-02 0. -1.
    10030    2    1    2    0    0  0.00000000000E+00  0.00000000000E+00  0.79325531027E+02  0.23887069115E+04  0.23873894046E+04 0.  0.
        1    1    3    3  502    0  0.14502178586E+02  0.53335524485E+03 -0.10287415375E+04  0.11588732810E+04  0.50400001928E-02 0. -1.
       -1    1    3    3    0  502 -0.14502178586E+02 -0.53335524485E+03  0.11080670685E+04  0.12298336305E+04  0.50400001928E-02 0.  1.
</event>
<event>
 5   0  0.2933646E-06  0.3297963E+04  0.7818609E-02  0.8163414E-01
       -1   -1    0    0    0  501  0.00000000000E+00  0.00000000000E+00  0.18392182751E+04  0.18392182752E+04  0.50400001928E-02 0. -1.
        1   -1    0    0  501    0  0.00000000000E+00  0.00000000000E+00 -0.14784218691E+04  0.14784218691E+04  0.50400001928E-02 0.  1.
    10030    2    1    2    0    0  0.00000000000E+00  0.00000000000E+00  0.36079640602E+03  0.33176401443E+04  0.32979633231E+04 0.  0.
        2    1    3    3  502    0 -0.13249320547E+04  0.75432601453E+03  0.81238837703E+03  0.17275495827E+04  0.25500000920E-02 0. -1.
       -2    1    3    3    0  502  0.13249320547E+04 -0.75432601453E+03 -0.45159197101E+03  0.15900905616E+04  0.25500000920E-02 0.  1.
</event>
<event>
 5   0  0.3938696E-06  0.3182773E+04  0.7818609E-02  0.8193382E-01
        1   -1    0    0  501    0  0.00000000000E+00  0.00000000000E+00  0.23530605281E+04  0.23530605281E+04  0.50400001928E-02 0.  1.
       -1   -1    0    0    0  501  0.00000000000E+00  0.00000000000E+00 -0.10762622963E+04  0.10762622963E+04  0.50400001928E-02 0. -1.
    10030    2    1    2    0    0  0.00000000000E+00  0.00000000000E+00  0.12767982318E+04  0.34293228244E+04  0.31827725821E+04 0.  0.
        4    1    3    3  502    0 -0.44812358650E+03 -0.13522041766E+04  0.14027440694E+04  0.19992407111E+04  0.12699999809E+01 0.  1.
       -4    1    3    3    0  502  0.44812358650E+03  0.13522041766E+04 -0.12594583764E+03  0.14300821133E+04  0.12699999809E+01 0. -1.
</event>
<event>
 5   0  0.7510251E-06  0.3124912E+04  0.7818609E-02  0.8208934E-01
       -2   -1    0    0    0  501  0.00000000000E+00  0.00000000000E+00  0.10985990713E+04  0.10985990713E+04  0.25500000920E-02 0. -1.
        2   -1    0    0  501    0  0.00000000000E+00  0.00000000000E+00 -0.22221655837E+04  0.22221655837E+04  0.25500000920E-02 0.  1.
    10030    2    1    2    0    0  0.00000000000E+00  0.00000000000E+00 -0.11235665124E+04  0.33207646550E+04  0.31249121885E+04 0.  0.
        3    1    3    3  502    0 -0.21745313452E+03  0.15461698342E+04 -0.50034987372E+03  0.16395966054E+04  0.10100000352E+00 0.  1.
       -3    1    3    3    0  502  0.21745313452E+03 -0.15461698342E+04 -0.62321663865E+03  0.16811680496E+04  0.10100000352E+00 0. -1.
</event>
<event>
 5   0  0.7510251E-06  0.2219405E+04  0.7818609E-02  0.8510395E-01
        2   -1    0    0  501    0  0.00000000000E+00  0.00000000000E+00  0.16269768561E+04  0.16269768561E+04  0.25500000920E-02 0.  1.
       -2   -1    0    0    0  501  0.00000000000E+00  0.00000000000E+00 -0.75688793653E+03  0.75688793654E+03  0.25500000920E-02 0. -1.
    10030    2    1    2    0    0  0.00000000000E+00  0.00000000000E+00  0.87008891956E+03  0.23838647926E+04  0.22194045647E+04 0.  0.
        3    1    3    3  502    0  0.82304262155E+02 -0.72124739771E+03 -0.46647598037E+03  0.86288565333E+03  0.10100000352E+00 0. -1.
       -3    1    3    3    0  502 -0.82304262155E+02  0.72124739771E+03  0.13365648999E+04  0.15209791393E+04  0.10100000352E+00 0.  1.
</event>
<event>
 5   0  0.2788054E-06  0.3025496E+04  0.7818609E-02  0.8236488E-01
       -1   -1    0    0    0  501  0.00000000000E+00  0.00000000000E+00  0.17560934805E+04  0.17560934805E+04  0.50400001928E-02 0.  1.
        1   -1    0    0  501    0  0.00000000000E+00  0.00000000000E+00 -0.13031237261E+04  0.13031237261E+04  0.50400001928E-02 0. -1.
    10030    2    1    2    0    0  0.00000000000E+00  0.00000000000E+00  0.45296975437E+03  0.30592172066E+04  0.30254963756E+04 0.  0.
        3    1    3    3  502    0 -0.34837527453E+03  0.74142759908E+03  0.15124008028E+04  0.17200105858E+04  0.10100000352E+00 0.  1.
       -3    1    3    3    0  502  0.34837527453E+03 -0.74142759908E+03 -0.10594310485E+04  0.13392066208E+04  0.10100000352E+00 0. -1.
</event>
<event>
 5   0  0.3938696E-06  0.3261694E+04  0.7818609E-02  0.8172711E-01
       -1   -1    0    0    0  501  0.00000000000E+00  0.00000000000E+00  0.16876042067E+04  0.16876042067E+04  0.50400001928E-02 0.  1.
        1   -1    0    0  501    0  0.00000000000E+00  0.00000000000E+00 -0.15759986343E+04  0.15759986343E+04  0.50400001928E-02 0. -1.
    10030    2    1    2    0    0  0.00000000000E+00  0.00000000000E+00  0.11160557241E+03  0.32636028411E+04  0.32616939925E+04 0.  0.
        4    1    3    3  502    0 -0.14230562503E+04  0.77046160340E+03  0.25830734146E+03  0.16387264779E+04  0.12699999809E+01 0. -1.
       -4    1    3    3    0  502  0.14230562503E+04 -0.77046160340E+03 -0.14670176905E+03  0.16248763632E+04  0.12699999809E+01 0.  1.
</event>
<event>
 5   0  0.7941434E-06  0.3195209E+04  0.7818609E-02  0.8190084E-01
       -2   -1    0    0    0  501  0.00000000000E+00  0.00000000000E+00  0.10482194345E+04  0.10482194345E+04  0.25500000920E-02 0.  1.
        2   -1    0    0  501    0  0.00000000000E+00  0.00000000000E+00 -0.24349290482E+04  0.24349290482E+04  0.25500000920E-02 0. -1.
    10030    2    1    2    0    0  0.00000000000E+00  0.00000000000E+00 -0.13867096137E+04  0.34831484827E+04  0.31952088820E+04 0.  0.
        4    1    3    3  502    0 -0.10806629396E+04  0.11583514296E+04 -0.46801984660E+03  0.16518639814E+04  0.12699999809E+01 0.  1.
       -4    1    3    3    0  502  0.10806629396E+04 -0.11583514296E+04 -0.91868976711E+03  0.18312845013E+04  0.12699999809E+01 0. -1.
</event>
<event>
 5   0  0.7941434E-06  0.2004564E+04  0.7818609E-02  0.8604490E-01
        2   -1    0    0  501    0  0.00000000000E+00  0.00000000000E+00  0.18040309828E+04  0.18040309828E+04  0.25500000920E-02 0.  1.
       -2   -1    0    0    0  501  0.00000000000E+00  0.00000000000E+00 -0.55684679703E+03  0.55684679703E+03  0.25500000920E-02 0. -1.
    10030    2    1    2    0    0  0.00000000000E+00  0.00000000000E+00  0.12471841858E+04  0.23608777798E+04  0.20045636678E+04 0.  0.
        4    1    3    3  502    0 -0.12263735877E+03  0.48286038963E+03  0.16478792129E+04  0.17215404703E+04  0.12699999809E+01 0.  1.
       -4    1    3    3    0  502  0.12263735877E+03 -0.48286038963E+03 -0.40069502716E+03  0.63933730951E+03  0.12699999809E+01 0. -1.
</event>
<event>
 5   0  0.7510251E-06  0.3251041E+04  0.7818609E-02  0.8175466E-01
       -2   -1    0    0    0  501  0.00000000000E+00  0.00000000000E+00  0.92701941176E+03  0.92701941177E+03  0.25500000920E-02 0. -1.
        2   -1    0    0  501    0  0.00000000000E+00  0.00000000000E+00 -0.28503362121E+04  0.28503362121E+04  0.25500000920E-02 0.  1.
    10030    2    1    2    0    0  0.00000000000E+00  0.00000000000E+00 -0.19233168004E+04  0.37773556239E+04  0.32510410632E+04 0.  0.
        3    1    3    3  502    0  0.50792386039E+02 -0.15263818560E+04 -0.31485381481E+03  0.15593442121E+04  0.10100000352E+00 0. -1.
       -3    1    3    3    0  502 -0.50792386039E+02  0.15263818560E+04 -0.16084629856E+04  0.22180114118E+04  0.10100000352E+00 0.  1.
</event>
<event>
 5   0  0.2635798E-06  0.3191366E+04  0.7818609E-02  0.8191101E-01
       -1   -1    0    0    0  501  0.00000000000E+00  0.00000000000E+00  0.31171704065E+04  0.31171704065E+04  0.50400001928E-02 0. -1.
        1   -1    0    0  501    0  0.00000000000E+00  0.00000000000E+00 -0.81683196119E+03  0.81683196121E+03  0.50400001928E-02 0.  1.
    10030    2    1    2    0    0  0.00000000000E+00  0.00000000000E+00  0.23003384453E+04  0.39340023677E+04  0.31913661128E+04 0.  0.
        1    1    3    3  502    0  0.97211688375E+03  0.43848674579E+03 -0.31302355409E+03  0.11114250345E+04  0.50400001928E-02 0.  1.
       -1    1    3    3    0  502 -0.97211688375E+03 -0.43848674579E+03  0.26133619994E+04  0.28225773332E+04  0.50400001928E-02 0. -1.
</event>
<event>
 5   0  0.7941434E-06  0.3013633E+04  0.7818609E-02  0.8239849E-01
       -2   -1    0    0    0  501  0.00000000000E+00  0.00000000000E+00  0.18562976481E+04  0.18562976481E+04  0.25500000920E-02 0. -1.
        2   -1    0    0  501    0  0.00000000000E+00  0.00000000000E+00 -0.12231314512E+04  0.12231314512E+04  0.25500000920E-02 0.  1.
    10030    2    1    2    0    0  0.00000000000E+00  0.00000000000E+00  0.63316619690E+03  0.30794290993E+04  0.30136330474E+04 0.  0.
        4    1    3    3  502    0  0.35497548981E+03 -0.13607950475E+04  0.86943493372E+03  0.16533872736E+04  0.12699999809E+01 0. -1.
       -4    1    3    3    0  502 -0.35497548981E+03  0.13607950475E+04 -0.23626873682E+03  0.14260418257E+04  0.12699999809E+01 0.  1.
</event>
<event>
 5   0  0.3938696E-06  0.3107673E+04  0.7818609E-02  0.8213635E-01
       -1   -1    0    0    0  501  0.00000000000E+00  0.00000000000E+00  0.19934387650E+04  0.19934387650E+04  0.50400001928E-02 0.  1.
        1   -1    0    0  501    0  0.00000000000E+00  0.00000000000E+00 -0.12111775684E+04  0.12111775685E+04  0.50400001928E-02 0. -1.
    10030    2    1    2    0    0  0.00000000000E+00  0.00000000000E+00  0.78226119653E+03  0.32046163334E+04  0.31076732880E+04 0.  0.
        4    1    3    3  502    0  0.77349002846E+03 -0.10390625504E+04  0.12760788828E+04  0.18183280056E+04  0.12699999809E+01 0.  1.
       -4    1    3    3    0  502 -0.77349002846E+03  0.10390625504E+04 -0.49381768630E+03  0.13862883279E+04  0.12699999809E+01 0. -1.
</event>
<event>
 5   0  0.7971763E-06  0.3253620E+04  0.7818609E-02  0.8174798E-01
       -2   -1    0    0    0  501  0.00000000000E+00  0.00000000000E+00  0.15777692094E+04  0.15777692094E+04  0.25500000920E-02 0.  1.
        2   -1    0    0  501    0  0.00000000000E+00  0.00000000000E+00 -0.16773746037E+04  0.16773746037E+04  0.25500000920E-02 0. -1.
    10030    2    1    2    0    0  0.00000000000E+00  0.00000000000E+00 -0.99605394243E+02  0.32551438131E+04  0.32536195244E+04 0.  0.
        1    1    3    3  502    0 -0.10419305779E+04 -0.12425621652E+04  0.80373358119E+02  0.16235885995E+04  0.50400001928E-02 0. -1.
       -1    1    3    3    0  502  0.10419305779E+04  0.12425621652E+04 -0.17997875236E+03  0.16315552136E+04  0.50400001928E-02 0.  1.
</event>
<event>
 5   0  0.8237664E-06  0.1932783E+04  0.7818609E-02  0.8638708E-01
       -2   -1    0    0    0  501  0.00000000000E+00  0.00000000000E+00  0.11719774834E+04  0.11719774834E+04  0.25500000920E-02 0.  1.
        2   -1    0    0  501    0  0.00000000000E+00  0.00000000000E+00 -0.79686883011E+03  0.79686883011E+03  0.25500000920E-02 0. -1.
    10030    2    1    2    0    0  0.00000000000E+00  0.00000000000E+00  0.37510865326E+03  0.19688463135E+04  0.19327827877E+04 0.  0.
        5    1    3    3  502    0  0.95003838644E+03  0.48945880301E+02  0.14317613993E+02  0.95141774158E+03  0.46999998093E+01 0. -1.
       -5    1    3    3    0  502 -0.95003838644E+03 -0.48945880301E+02  0.36079103927E+03  0.10174285719E+04  0.46999998093E+01 0.  1.
</event>
<event>
 5   0  0.2635798E-06  0.3189698E+04  0.7818609E-02  0.8191543E-01
        1   -1    0    0  501    0  0.00000000000E+00  0.00000000000E+00  0.22210670552E+04  0.22210670552E+04  0.50400001928E-02 0.  1.
       -1   -1    0    0    0  501  0.00000000000E+00  0.00000000000E+00 -0.11451899144E+04  0.11451899144E+04  0.50400001928E-02 0. -1.
    10030    2    1    2    0    0  0.00000000000E+00  0.00000000000E+00  0.10758771409E+04  0.33662569696E+04  0.31896981618E+04 0.  0.
        1    1    3    3  502    0  0.11086086461E+04  0.10545882849E+04  0.10126995813E+04  0.18348651239E+04  0.50400001928E-02 0.  1.
       -1    1    3    3    0  502 -0.11086086461E+04 -0.10545882849E+04  0.63177559554E+02  0.15313918457E+04  0.50400001928E-02 0. -1.
</event>
<event>
 5   0  0.2635798E-06  0.3203733E+04  0.7818609E-02  0.8187832E-01
        1   -1    0    0  501    0  0.00000000000E+00  0.00000000000E+00  0.21436378544E+04  0.21436378544E+04  0.50400001928E-02 0.  1.
       -1   -1    0    0    0  501  0.00000000000E+00  0.00000000000E+00 -0.11970197512E+04  0.11970197512E+04  0.50400001928E-02 0. -1.
    10030    2    1    2    0    0  0.00000000000E+00  0.00000000000E+00  0.94661810321E+03  0.33406576056E+04  0.32037333542E+04 0.  0.
        1    1    3    3  502    0  0.51177888958E+03 -0.13871787013E+04  0.11159226647E+04  0.18524215975E+04  0.50400001928E-02 0.  1.
       -1    1    3    3    0  502 -0.51177888958E+03  0.13871787013E+04 -0.16930456154E+03  0.14882360081E+04  0.50400001928E-02 0. -1.
</event>
<event>
 5   0  0.2635798E-06  0.3207063E+04  0.7818609E-02  0.8186954E-01
        1   -1    0    0  501    0  0.00000000000E+00  0.00000000000E+00  0.24826686093E+04  0.24826686093E+04  0.50400001928E-02 0. -1.
       -1   -1    0    0    0  501  0.00000000000E+00  0.00000000000E+00 -0.10357051685E+04  0.10357051686E+04  0.50400001928E-02 0.  1.
    10030    2    1    2    0    0  0.00000000000E+00  0.00000000000E+00  0.14469634408E+04  0.35183737779E+04  0.32070626501E+04 0.  0.
        1    1    3    3  502    0 -0.14656105951E+04  0.38796863766E+03  0.12964620374E+04  0.19948302922E+04  0.50400001928E-02 0. -1.
       -1    1    3    3    0  502  0.14656105951E+04 -0.38796863766E+03  0.15050140341E+03  0.15235434857E+04  0.50400001928E-02 0.  1.
</event>
<event>
 5   0  0.7941434E-06  0.3014119E+04  0.7818609E-02  0.8239710E-01
       -2   -1    0    0    0  501  0.00000000000E+00  0.00000000000E+00  0.12510855879E+04  0.12510855879E+04  0.25500000920E-02 0.  1.
        2   -1    0    0  501    0  0.00000000000E+00  0.00000000000E+00 -0.18154064608E+04  0.18154064608E+04  0.25500000920E-02 0. -1.
    10030    2    1    2    0    0  0.00000000000E+00  0.00000000000E+00 -0.56432087287E+03  0.30664920487E+04  0.30141193468E+04 0.  0.
        4    1    3    3  502    0  0.13013043702E+04 -0.31490643682E+03 -0.98604047564E+03  0.16627797690E+04  0.12699999809E+01 0.  1.
       -4    1    3    3    0  502 -0.13013043702E+04  0.31490643682E+03  0.42171960277E+03  0.14037122796E+04  0.12699999809E+01 0. -1.
</event>
<event>
 5   0  0.2635798E-06  0.2874389E+04  0.7818609E-02  0.8280539E-01
       -1   -1    0    0    0  501  0.00000000000E+00  0.00000000000E+00  0.87946880927E+03  0.87946880928E+03  0.50400001928E-02 0.  1.
        1   -1    0    0  501    0  0.00000000000E+00  0.00000000000E+00 -0.23486084577E+04  0.23486084577E+04  0.50400001928E-02 0. -1.
    10030    2    1    2    0    0  0.00000000000E+00  0.00000000000E+00 -0.14691396484E+04  0.32280772670E+04  0.28743888977E+04 0.  0.
        1    1    3    3  502    0  0.34046534851E+03  0.60758558746E+03 -0.21464209689E+04  0.22565903207E+04  0.50400001928E-02 0. -1.
       -1    1    3    3    0  502 -0.34046534851E+03 -0.60758558746E+03  0.67728132051E+03  0.97148694627E+03  0.50400001928E-02 0.  1.
</event>
<event>
 5   0  0.7971763E-06  0.2925213E+04  0.7818609E-02  0.8265415E-01
       -2   -1    0    0    0  501  0.00000000000E+00  0.00000000000E+00  0.10497031922E+04  0.10497031923E+04  0.25500000920E-02 0. -1.
        2   -1    0    0  501    0  0.00000000000E+00  0.00000000000E+00 -0.20379258777E+04  0.20379258777E+04  0.25500000920E-02 0.  1.
    10030    2    1    2    0    0  0.00000000000E+00  0.00000000000E+00 -0.98822268546E+03  0.30876290700E+04  0.29252126756E+04 0.  0.
        1    1    3    3  502    0  0.62419780898E+03 -0.11927085154E+04  0.10951562956E+03  0.13506184437E+04  0.50400001928E-02 0. -1.
       -1    1    3    3    0  502 -0.62419780898E+03  0.11927085154E+04 -0.10977383150E+04  0.17370106262E+04  0.50400001928E-02 0.  1.
</event>
<event>
 5   0  0.7510251E-06  0.2242694E+04  0.7818609E-02  0.8500865E-01
        2   -1    0    0  501    0  0.00000000000E+00  0.00000000000E+00  0.19446086962E+04  0.19446086962E+04  0.25500000920E-02 0. -1.
       -2   -1    0    0    0  501  0.00000000000E+00  0.00000000000E+00 -0.64661821353E+03  0.64661821353E+03  0.25500000920E-02 0.  1.
    10030    2    1    2    0    0  0.00000000000E+00  0.00000000000E+00  0.12979904827E+04  0.25912269097E+04  0.22426942736E+04 0.  0.
        3    1    3    3  502    0  0.61782143464E+02 -0.92821542806E+03 -0.74421640678E+02  0.93324139693E+03  0.10100000352E+00 0.  1.
       -3    1    3    3    0  502 -0.61782143464E+02  0.92821542806E+03  0.13724121234E+04  0.16579855128E+04  0.10100000352E+00 0. -1.
</event>
<event>
 5   0  0.2635798E-06  0.2017690E+04  0.7818609E-02  0.8598394E-01
        1   -1    0    0  501    0  0.00000000000E+00  0.00000000000E+00  0.14173155221E+04  0.14173155221E+04  0.50400001928E-02 0.  1.
       -1   -1    0    0    0  501  0.00000000000E+00  0.00000000000E+00 -0.71809602446E+03  0.71809602448E+03  0.50400001928E-02 0. -1.
    10030    2    1    2    0    0  0.00000000000E+00  0.00000000000E+00  0.69921949760E+03  0.21354115465E+04  0.20176904042E+04 0.  0.
        1    1    3    3  502    0  0.54454663476E+03 -0.65708840914E+03  0.91902705083E+03  0.12541558655E+04  0.50400001928E-02 0.  1.
       -1    1    3    3    0  502 -0.54454663476E+03  0.65708840914E+03 -0.21980755323E+03  0.88125568102E+03  0.50400001928E-02 0. -1.
</event>
<event>
 5   0  0.8237664E-06  0.3194535E+04  0.7818609E-02  0.8190262E-01
        2   -1    0    0  501    0  0.00000000000E+00  0.00000000000E+00  0.19900708422E+04  0.19900708422E+04  0.25500000920E-02 0. -1.
       -2   -1    0    0    0  501  0.00000000000E+00  0.00000000000E+00 -0.12819962076E+04  0.12819962076E+04  0.25500000920E-02 0.  1.
    10030    2    1    2    0    0  0.00000000000E+00  0.00000000000E+00  0.70807463455E+03  0.32720670498E+04  0.31945348786E+04 0.  0.
        5    1    3    3  502    0 -0.73700117352E+03  0.12451203552E+04 -0.33895229147E+03  0.14860707166E+04  0.46999998093E+01 0.  1.
       -5    1    3    3    0  502  0.73700117352E+03 -0.12451203552E+04  0.10470269260E+04  0.17859963333E+04  0.46999998093E+01 0. -1.
</event>
<event>
 5   0  0.2635798E-06  0.2490959E+04  0.7818609E-02  0.8406214E-01
       -1   -1    0    0    0  501  0.00000000000E+00  0.00000000000E+00  0.16031895808E+04  0.16031895808E+04  0.50400001928E-02 0. -1.
        1   -1    0    0  501    0  0.00000000000E+00  0.00000000000E+00 -0.96758283747E+03  0.96758283749E+03  0.50400001928E-02 0.  1.
    10030    2    1    2    0    0  0.00000000000E+00  0.00000000000E+00  0.63560674336E+03  0.25707724183E+04  0.24909586296E+04 0.  0.
        1    1    3    3  502    0  0.14286386967E+03  0.10343050054E+03  0.15902358184E+04  0.15999868474E+04  0.50400001928E-02 0. -1.
       -1    1    3    3    0  502 -0.14286386967E+03 -0.10343050054E+03 -0.95462907506E+03  0.97078557091E+03  0.50400001928E-02 0.  1.
</event>
<event>
 5   0  0.2788054E-06  0.2967484E+04  0.7818609E-02  0.8253078E-01
        1   -1    0    0  501    0  0.00000000000E+00  0.00000000000E+00  0.13499791150E+04  0.13499791150E+04  0.50400001928E-02 0.  1.
       -1   -1    0    0    0  501  0.00000000000E+00  0.00000000000E+00 -0.16307583429E+04  0.16307583429E+04  0.50400001928E-02 0. -1.
    10030    2    1    2    0    0  0.00000000000E+00  0.00000000000E+00 -0.28077922786E+03  0.29807374579E+04  0.29674835835E+04 0.  0.
        3    1    3    3  502    0  0.68302649796E+03 -0.98891418148E+03  0.73356149460E+03  0.14080443643E+04  0.10100000352E+00 0.  1.
       -3    1    3    3    0  502 -0.68302649796E+03  0.98891418148E+03 -0.10143407225E+04  0.15726930936E+04  0.10100000352E+00 0. -1.
</event>
<event>
 5   0  0.7941434E-06  0.3034627E+04  0.7818609E-02  0.8233912E-01
        2   -1    0    0  501    0  0.00000000000E+00  0.00000000000E+00  0.15100280479E+04  0.15100280479E+04  0.25500000920E-02 0. -1.
       -2   -1    0    0    0  501  0.00000000000E+00  0.00000000000E+00 -0.15246340530E+04  0.15246340530E+04  0.25500000920E-02 0.  1.
    10030    2    1    2    0    0  0.00000000000E+00  0.00000000000E+00 -0.14606005159E+02  0.30346621009E+04  0.30346269509E+04 0.  0.
        4    1    3    3  502    0  0.81383161343E+03 -0.84127747886E+03  0.95819711299E+03  0.15126840423E+04  0.12699999809E+01 0. -1.
       -4    1    3    3    0  502 -0.81383161343E+03  0.84127747886E+03 -0.97280311815E+03  0.15219780587E+04  0.12699999809E+01 0.  1.
</event>
<event>
 5   0  0.2933646E-06  0.2959184E+04  0.7818609E-02  0.8255483E-01
       -1   -1    0    0    0  501  0.00000000000E+00  0.00000000000E+00  0.91365308828E+03  0.91365308829E+03  0.50400001928E-02 0.  1.
        1   -1    0    0  501    0  0.00000000000E+00  0.00000000000E+00 -0.23960880145E+04  0.23960880145E+04  0.50400001928E-02 0. -1.
    10030    2    1    2    0    0  0.00000000000E+00  0.00000000000E+00 -0.14824349262E+04  0.33097411028E+04  0.29591844919E+04 0.  0.
        2    1    3    3  502    0  0.54362781739E+03 -0.65427995298E+03 -0.20952425455E+04  0.22613391575E+04  0.25500000920E-02 0. -1.
       -2    1    3    3    0  502 -0.54362781739E+03  0.65427995298E+03  0.61280761927E+03  0.10484019453E+04  0.25500000920E-02 0.  1.
</event>
<event>
 5   0  0.7971763E-06  0.3182915E+04  0.7818609E-02  0.8193344E-01
        2   -1    0    0  501    0  0.00000000000E+00  0.00000000000E+00  0.21223460152E+04  0.21223460152E+04  0.25500000920E-02 0. -1.
       -2   -1    0    0    0  501  0.00000000000E+00  0.00000000000E+00 -0.11933666355E+04  0.11933666355E+04  0.25500000920E-02 0.  1.
    10030    2    1    2    0    0  0.00000000000E+00  0.00000000000E+00  0.92897937968E+03  0.33157126508E+04  0.31829149682E+04 0.  0.
        1    1    3    3  502    0  0.15744244653E+04  0.11243935484E+03  0.25283310559E+03  0.15985554682E+04  0.50400001928E-02 0. -1.
       -1    1    3    3    0  502 -0.15744244653E+04 -0.11243935484E+03  0.67614627410E+03  0.17171571826E+04  0.50400001928E-02 0.  1.
</event>
<event>
 5   0  0.7941434E-06  0.3083889E+04  0.7818609E-02  0.8220173E-01
       -2   -1    0    0    0  501  0.00000000000E+00  0.00000000000E+00  0.15009767639E+04  0.15009767639E+04  0.25500000920E-02 0. -1.
        2   -1    0    0  501    0  0.00000000000E+00  0.00000000000E+00 -0.15840304006E+04  0.15840304006E+04  0.25500000920E-02 0.  1.
    10030    2    1    2    0    0  0.00000000000E+00  0.00000000000E+00 -0.83053636643E+02  0.30850071645E+04  0.30838889893E+04 0.  0.
        4    1    3    3  502    0  0.10825887238E+04  0.61457465208E+03 -0.95174181269E+03  0.15670081170E+04  0.12699999809E+01 0.  1.
       -4    1    3    3    0  502 -0.10825887238E+04 -0.61457465208E+03  0.86868817604E+03  0.15179990475E+04  0.12699999809E+01 0. -1.
</event>
<event>
 5   0  0.7941434E-06  0.3145381E+04  0.7818609E-02  0.8203393E-01
        2   -1    0    0  501    0  0.00000000000E+00  0.00000000000E+00  0.19859312259E+04  0.19859312259E+04  0.25500000920E-02 0. -1.
       -2   -1    0    0    0  501  0.00000000000E+00  0.00000000000E+00 -0.12454386922E+04  0.12454386922E+04  0.25500000920E-02 0.  1.
    10030    2    1    2    0    0  0.00000000000E+00  0.00000000000E+00  0.74049253377E+03  0.32313699181E+04  0.31453811145E+04 0.  0.
        4    1    3    3  502    0 -0.11324080524E+03  0.11854911714E+04 -0.68503611848E+03  0.13738591245E+04  0.12699999809E+01 0.  1.
       -4    1    3    3    0  502  0.11324080524E+03 -0.11854911714E+04  0.14255286522E+04  0.18575107937E+04  0.12699999809E+01 0. -1.
</event>
<event>
 5   0  0.7952307E-06  0.1682644E+04  0.7818609E-02  0.8771326E-01
       -2   -1    0    0    0  501  0.00000000000E+00  0.00000000000E+00  0.49833482554E+03  0.49833482554E+03  0.25500000920E-02 0.  1.
        2   -1    0    0  501    0  0.00000000000E+00  0.00000000000E+00 -0.14203750382E+04  0.14203750382E+04  0.25500000920E-02 0. -1.
    10030    2    1    2    0    0  0.00000000000E+00  0.00000000000E+00 -0.92204021269E+03  0.19187098638E+04  0.16826435711E+04 0.  0.
        2    1    3    3  502    0 -0.52448766994E+03  0.50809005653E+03  0.15426054637E+02  0.73039768937E+03  0.25500000920E-02 0.  1.
       -2    1    3    3    0  502  0.52448766994E+03 -0.50809005653E+03 -0.93746626732E+03  0.11883121744E+04  0.25500000920E-02 0. -1.
</event>
<event>
 5   0  0.7510251E-06  0.2334263E+04  0.7818609E-02  0.8464533E-01
       -2   -1    0    0    0  501  0.00000000000E+00  0.00000000000E+00  0.91327574123E+03  0.91327574123E+03  0.25500000920E-02 0. -1.
        2   -1    0    0  501    0  0.00000000000E+00  0.00000000000E+00 -0.14915494029E+04  0.14915494029E+04  0.25500000920E-02 0.  1.
    10030    2    1    2    0    0  0.00000000000E+00  0.00000000000E+00 -0.57827366167E+03  0.24048251441E+04  0.23342629556E+04 0.  0.
        3    1    3    3  502    0  0.36816269690E+02  0.35310841233E+03  0.85629743620E+03  0.92697696736E+03  0.10100000352E+00 0. -1.
       -3    1    3    3    0  502 -0.36816269690E+02 -0.35310841233E+03 -0.14345710979E+04  0.14778481768E+04  0.10100000352E+00 0.  1.
</event>
<event>
 5   0  0.2788054E-06  0.2105356E+04  0.7818609E-02  0.8558888E-01
        1   -1    0    0  501    0  0.00000000000E+00  0.00000000000E+00  0.14393699144E+04  0.14393699144E+04  0.50400001928E-02 0. -1.
       -1   -1    0    0    0  501  0.00000000000E+00  0.00000000000E+00 -0.76987242606E+03  0.76987242608E+03  0.50400001928E-02 0.  1.
    10030    2    1    2    0    0  0.00000000000E+00  0.00000000000E+00  0.66949748830E+03  0.22092423404E+04  0.21053562245E+04 0.  0.
        3    1    3    3  502    0 -0.88027978597E+03  0.85345762178E+02 -0.26434730805E+03  0.92306874618E+03  0.10100000352E+00 0.  1.
       -3    1    3    3    0  502  0.88027978597E+03 -0.85345762178E+02  0.93384479635E+03  0.12861735943E+04  0.10100000352E+00 0. -1.
</event>
<event>
 5   0  0.2635798E-06  0.3145273E+04  0.7818609E-02  0.8203422E-01
        1   -1    0    0  501    0  0.00000000000E+00  0.00000000000E+00  0.12757250566E+04  0.12757250566E+04  0.50400001928E-02 0. -1.
       -1   -1    0    0    0  501  0.00000000000E+00  0.00000000000E+00 -0.19386512305E+04  0.19386512305E+04  0.50400001928E-02 0.  1.
    10030    2    1    2    0    0  0.00000000000E+00  0.00000000000E+00 -0.66292617390E+03  0.32143762872E+04  0.31452732478E+04 0.  0.
        1    1    3    3  502    0 -0.10755488416E+04 -0.11034195570E+04 -0.10157918383E+02  0.15409228445E+04  0.50400001928E-02 0. -1.
       -1    1    3    3    0  502  0.10755488416E+04  0.11034195570E+04 -0.65276825552E+03  0.16734534427E+04  0.50400001928E-02 0.  1.
</event>
<event>
 5   0  0.7510251E-06  0.3263189E+04  0.7818609E-02  0.8172326E-01
       -2   -1    0    0    0  501  0.00000000000E+00  0.00000000000E+00  0.18185979616E+04  0.18185979616E+04  0.25500000920E-02 0. -1.
        2   -1    0    0  501    0  0.00000000000E+00  0.00000000000E+00 -0.14638205716E+04  0.14638205716E+04  0.25500000920E-02 0.  1.
    10030    2    1    2    0    0  0.00000000000E+00  0.00000000000E+00  0.35477738993E+03  0.32824185332E+04  0.32631893035E+04 0.  0.
        3    1    3    3  502    0  0.13958449969E+04  0.86380170043E+02 -0.66795410367E+03  0.15498411157E+04  0.10100000352E+00 0.  1.
       -3    1    3    3    0  502 -0.13958449969E+04 -0.86380170043E+02  0.10227314936E+04  0.17325774174E+04  0.10100000352E+00 0. -1.
</event>
<event>
 5   0  0.7952307E-06  0.2967208E+04  0.7818609E-02  0.8253157E-01
       -2   -1    0    0    0  501  0.00000000000E+00  0.00000000000E+00  0.91631885553E+03  0.91631885554E+03  0.25500000920E-02 0. -1.
        2   -1    0    0  501    0  0.00000000000E+00  0.00000000000E+00 -0.24020907801E+04  0.24020907801E+04  0.25500000920E-02 0.  1.
    10030    2    1    2    0    0  0.00000000000E+00  0.00000000000E+00 -0.14857719246E+04  0.33184096357E+04  0.29672081656E+04 0.  0.
        2    1    3    3  502    0 -0.63036452257E+03 -0.12471119503E+04 -0.18546025292E+03  0.14096251818E+04  0.25500000920E-02 0.  1.
       -2    1    3    3    0  502  0.63036452257E+03  0.12471119503E+04 -0.13003116717E+04  0.19087844539E+04  0.25500000920E-02 0. -1.
</event>
<event>
 5   0  0.2635798E-06  0.3235549E+04  0.7818609E-02  0.8179491E-01
        1   -1    0    0  501    0  0.00000000000E+00  0.00000000000E+00  0.24030873224E+04  0.24030873224E+04  0.50400001928E-02 0. -1.
       -1   -1    0    0    0  501  0.00000000000E+00  0.00000000000E+00 -0.10890964861E+04  0.10890964862E+04  0.50400001928E-02 0.  1.
    10030    2    1    2    0    0  0.00000000000E+00  0.00000000000E+00  0.13139908362E+04  0.34921838085E+04  0.32355487687E+04 0.  0.
        1    1    3    3  502    0  0.99015250704E+03 -0.44198698235E+03  0.19528233900E+04  0.22336682100E+04  0.50400001928E-02 0. -1.
       -1    1    3    3    0  502 -0.99015250704E+03  0.44198698235E+03 -0.63883255384E+03  0.12585155985E+04  0.50400001928E-02 0.  1.
</event>
<event>
 5   0  0.7971763E-06  0.3126736E+04  0.7818609E-02  0.8208439E-01
        2   -1    0    0  501    0  0.00000000000E+00  0.00000000000E+00  0.18234877101E+04  0.18234877101E+04  0.25500000920E-02 0.  1.
       -2   -1    0    0    0  501  0.00000000000E+00  0.00000000000E+00 -0.13403541559E+04  0.13403541559E+04  0.25500000920E-02 0. -1.
    10030    2    1    2    0    0  0.00000000000E+00  0.00000000000E+00  0.48313355421E+03  0.31638418660E+04  0.31267358894E+04 0.  0.
        1    1    3    3  502    0  0.13542534644E+04  0.55420102615E+02  0.10299442221E+04  0.17023098820E+04  0.50400001928E-02 0.  1.
       -1    1    3    3    0  502 -0.13542534644E+04 -0.55420102615E+02 -0.54681066788E+03  0.14615319840E+04  0.50400001928E-02 0. -1.
</event>
<event>
 5   0  0.2933646E-06  0.1709014E+04  0.7818609E-02  0.8756240E-01
        1   -1    0    0  501    0  0.00000000000E+00  0.00000000000E+00  0.14444442472E+04  0.14444442472E+04  0.50400001928E-02 0. -1.
       -1   -1    0    0    0  501  0.00000000000E+00  0.00000000000E+00 -0.50551061945E+03  0.50551061948E+03  0.50400001928E-02 0.  1.
    10030    2    1    2    0    0  0.00000000000E+00  0.00000000000E+00  0.93893362778E+03  0.19499548667E+04  0.17090136409E+04 0.  0.
        2    1    3    3  502    0  0.46920832296E+03  0.12130785811E+03 -0.33353683123E+03  0.58831867602E+03  0.25500000920E-02 0.  1.
       -2    1    3    3    0  502 -0.46920832296E+03 -0.12130785811E+03  0.12724704590E+04  0.13616361907E+04  0.25500000920E-02 0. -1.
</event>
<event>
 5   0  0.8237664E-06  0.2052293E+04  0.7818609E-02  0.8582555E-01
       -2   -1    0    0    0  501  0.00000000000E+00  0.00000000000E+00  0.63074335677E+03  0.63074335677E+03  0.25500000920E-02 0. -1.
        2   -1    0    0  501    0  0.00000000000E+00  0.00000000000E+00 -0.16694221041E+04  0.16694221041E+04  0.25500000920E-02 0.  1.
    10030    2    1    2    0    0  0.00000000000E+00  0.00000000000E+00 -0.10386787474E+04  0.23001654609E+04  0.20522932557E+04 0.  0.
        5    1    3    3  502    0  0.14661367010E+02  0.73980329923E+03 -0.13161416561E+04  0.15098923227E+04  0.46999998093E+01 0.  1.
       -5    1    3    3    0  502 -0.14661367010E+02 -0.73980329923E+03  0.27746290874E+03  0.79027313820E+03  0.46999998093E+01 0. -1.
</event>
<event>
 5   0  0.2933646E-06  0.3168151E+04  0.7818609E-02  0.8197279E-01
        1   -1    0    0  501    0  0.00000000000E+00  0.00000000000E+00  0.19513839125E+04  0.19513839125E+04  0.50400001928E-02 0.  1.
       -1   -1    0    0    0  501  0.00000000000E+00  0.00000000000E+00 -0.12859056703E+04  0.12859056703E+04  0.50400001928E-02 0. -1.
    10030    2    1    2    0    0  0.00000000000E+00  0.00000000000E+00  0.66547824222E+03  0.32372895828E+04  0.31681512830E+04 0.  0.
        2    1    3    3  502    0 -0.74325448270E+02 -0.52544848063E+02  0.19487094692E+04  0.19508341366E+04  0.25500000920E-02 0.  1.
       -2    1    3    3    0  502  0.74325448270E+02  0.52544848063E+02 -0.12832312269E+04  0.12864554462E+04  0.25500000920E-02 0. -1.
</event>
<event>
 5   0  0.2788054E-06  0.3318564E+04  0.7818609E-02  0.8158188E-01
        1   -1    0    0  501    0  0.00000000000E+00  0.00000000000E+00  0.32526552519E+04  0.32526552519E+04  0.50400001928E-02 0. -1.
       -1   -1    0    0    0  501  0.00000000000E+00  0.00000000000E+00 -0.84645221443E+03  0.84645221444E+03  0.50400001928E-02 0.  1.
    10030    2    1    2    0    0  0.00000000000E+00  0.00000000000E+00  0.24062030374E+04  0.40991074663E+04  0.33185642924E+04 0.  0.
        3    1    3    3  502    0 -0.40553351404E+03  0.11446760447E+04 -0.19354161995E+03  0.12297150268E+04  0.10100000352E+00 0.  1.
       -3    1    3    3    0  502  0.40553351404E+03 -0.11446760447E+04  0.25997446574E+04  0.28693924395E+04  0.10100000352E+00 0. -1.
</event>
<event>
 5   0  0.7971763E-06  0.2409609E+04  0.7818609E-02  0.8435915E-01
        2   -1    0    0  501    0  0.00000000000E+00  0.00000000000E+00  0.92333700652E+03  0.92333700653E+03  0.25500000920E-02 0.  1.
       -2   -1    0    0    0  501  0.00000000000E+00  0.00000000000E+00 -0.15720743672E+04  0.15720743672E+04  0.25500000920E-02 0. -1.
    10030    2    1    2    0    0  0.00000000000E+00  0.00000000000E+00 -0.64873736067E+03  0.24954113737E+04  0.24096094623E+04 0.  0.
        1    1    3    3  502    0 -0.67642155670E+00  0.11738624169E+04 -0.43413286498E+02  0.11746651202E+04  0.50400001928E-02 0. -1.
       -1    1    3    3    0  502  0.67642155670E+00 -0.11738624169E+04 -0.60532407417E+03  0.13207462535E+04  0.50400001928E-02 0.  1.
</event>
<event>
 5   0  0.2788054E-06  0.3232202E+04  0.7818609E-02  0.8180364E-01
        1   -1    0    0  501    0  0.00000000000E+00  0.00000000000E+00  0.17222061642E+04  0.17222061642E+04  0.50400001928E-02 0. -1.
       -1   -1    0    0    0  501  0.00000000000E+00  0.00000000000E+00 -0.15165328144E+04  0.15165328144E+04  0.50400001928E-02 0.  1.
    10030    2    1    2    0    0  0.00000000000E+00  0.00000000000E+00  0.20567334980E+03  0.32387389786E+04  0.32322018261E+04 0.  0.
        3    1    3    3  502    0  0.12309463703E+04  0.23503983289E+03  0.11253462510E+04  0.16843030857E+04  0.10100000352E+00 0. -1.
       -3    1    3    3    0  502 -0.12309463703E+04 -0.23503983289E+03 -0.91967290124E+03  0.15544358929E+04  0.10100000352E+00 0.  1.
</event>
<event>
 5   0  0.7952307E-06  0.2997155E+04  0.7818609E-02  0.8244544E-01
       -2   -1    0    0    0  501  0.00000000000E+00  0.00000000000E+00  0.10481058969E+04  0.10481058969E+04  0.25500000920E-02 0.  1.
        2   -1    0    0  501    0  0.00000000000E+00  0.00000000000E+00 -0.21426603686E+04  0.21426603686E+04  0.25500000920E-02 0. -1.
    10030    2    1    2    0    0  0.00000000000E+00  0.00000000000E+00 -0.10945544717E+04  0.31907662655E+04  0.29971552962E+04 0.  0.
        2    1    3    3  502    0  0.44529342177E+03 -0.14058839262E+03 -0.20632306103E+04  0.21154129334E+04  0.25500000920E-02 0. -1.
       -2    1    3    3    0  502 -0.44529342177E+03  0.14058839262E+03  0.96867613854E+03  0.10753533322E+04  0.25500000920E-02 0.  1.
</event>
<event>
 5   0  0.2838826E-06  0.1713484E+04  0.7818609E-02  0.8753711E-01
       -1   -1    0    0    0  501  0.00000000000E+00  0.00000000000E+00  0.85917513058E+03  0.85917513059E+03  0.50400001928E-02 0. -1.
        1   -1    0    0  501    0  0.00000000000E+00  0.00000000000E+00 -0.85431583968E+03  0.85431583969E+03  0.50400001928E-02 0.  1.
    10030    2    1    2    0    0  0.00000000000E+00  0.00000000000E+00  0.48592909033E+01  0.17134909703E+04  0.17134840800E+04 0.  0.
        1    1    3    3  502    0 -0.78800002097E+03  0.56382609534E+02  0.33391837095E+03  0.85768555438E+03  0.50400001928E-02 0.  1.
       -1    1    3    3    0  502  0.78800002097E+03 -0.56382609534E+02 -0.32905908005E+03  0.85580541590E+03  0.50400001928E-02 0. -1.
</event>
<event>
 5   0  0.4142886E-06  0.2346415E+04  0.7818609E-02  0.8459842E-01
       -1   -1    0    0    0  501  0.00000000000E+00  0.00000000000E+00  0.68815513302E+03  0.68815513304E+03  0.50400001928E-02 0. -1.
        1   -1    0    0  501    0  0.00000000000E+00  0.00000000000E+00 -0.20001536743E+04  0.20001536743E+04  0.50400001928E-02 0.  1.
    10030    2    1    2    0    0  0.00000000000E+00  0.00000000000E+00 -0.13119985413E+04  0.26883088073E+04  0.23464151532E+04 0.  0.
        5    1    3    3  502    0  0.36525432742E+03  0.94979240640E+03 -0.13249182599E+04  0.16706127092E+04  0.46999998093E+01 0.  1.
       -5    1    3    3    0  502 -0.36525432742E+03 -0.94979240640E+03  0.12919718591E+02  0.10176960981E+04  0.46999998093E+01 0. -1.
</event>
<event>
 5   0  0.8237664E-06  0.3169240E+04  0.7818609E-02  0.8196988E-01
        2   -1    0    0  501    0  0.00000000000E+00  0.00000000000E+00  0.17709344531E+04  0.17709344531E+04  0.25500000920E-02 0.  1.
       -2   -1    0    0    0  501  0.00000000000E+00  0.00000000000E+00 -0.14179072581E+04  0.14179072581E+04  0.25500000920E-02 0. -1.
    10030    2    1    2    0    0  0.00000000000E+00  0.00000000000E+00  0.35302719492E+03  0.31888417112E+04  0.31692401706E+04 0.  0.
        5    1    3    3  502    0  0.56201937170E+03 -0.14786572488E+04  0.82632224017E+02  0.15840275276E+04  0.46999998093E+01 0. -1.
       -5    1    3    3    0  502 -0.56201937170E+03  0.14786572488E+04  0.27039497090E+03  0.16048141836E+04  0.46999998093E+01 0.  1.
</event>
<event>
 5   0  0.2933646E-06  0.2288521E+04  0.7818609E-02  0.8482461E-01
        1   -1    0    0  501    0  0.00000000000E+00  0.00000000000E+00  0.11915345430E+04  0.11915345430E+04  0.50400001928E-02 0.  1.
       -1   -1    0    0    0  501  0.00000000000E+00  0.00000000000E+00 -0.10988622471E+04  0.10988622471E+04  0.50400001928E-02 0. -1.
    10030    2    1    2    0    0  0.00000000000E+00  0.00000000000E+00  0.92672295936E+02  0.22903967901E+04  0.22885212041E+04 0.  0.
        2    1    3    3  502    0  0.93138709151E+03 -0.23039986458E+03  0.67035843223E+03  0.11704471109E+04  0.25500000920E-02 0.  1.
       -2    1    3    3    0  502 -0.93138709151E+03  0.23039986458E+03 -0.57768613629E+03  0.11199496792E+04  0.25500000920E-02 0. -1.
</event>
<event>
 5   0  0.7971763E-06  0.3162858E+04  0.7818609E-02  0.8198696E-01
       -2   -1    0    0    0  501  0.00000000000E+00  0.00000000000E+00  0.14964751269E+04  0.14964751269E+04  0.25500000920E-02 0.  1.
        2   -1    0    0  501    0  0.00000000000E+00  0.00000000000E+00 -0.16712060353E+04  0.16712060353E+04  0.25500000920E-02 0. -1.
    10030    2    1    2    0    0  0.00000000000E+00  0.00000000000E+00 -0.17473090840E+03  0.31676811621E+04  0.31628583678E+04 0.  0.
        1    1    3    3  502    0 -0.64004712193E+03  0.70391961731E+03  0.11777927617E+04  0.15140538087E+04  0.50400001928E-02 0.  1.
       -1    1    3    3    0  502  0.64004712193E+03 -0.70391961731E+03 -0.13525236701E+04  0.16536273535E+04  0.50400001928E-02 0. -1.
</event>
<event>
 5   0  0.2635798E-06  0.1954164E+04  0.7818609E-02  0.8628356E-01
       -1   -1    0    0    0  501  0.00000000000E+00  0.00000000000E+00  0.16797263548E+04  0.16797263549E+04  0.50400001928E-02 0. -1.
        1   -1    0    0  501    0  0.00000000000E+00  0.00000000000E+00 -0.56835980682E+03  0.56835980684E+03  0.50400001928E-02 0.  1.
    10030    2    1    2    0    0  0.00000000000E+00  0.00000000000E+00  0.11113665480E+04  0.22480861617E+04  0.19541637051E+04 0.  0.
        1    1    3    3  502    0 -0.80646889147E+03 -0.43291006276E+03  0.16237526001E+03  0.92960686337E+03  0.50400001928E-02 0.  1.
       -1    1    3    3    0  502  0.80646889147E+03  0.43291006276E+03  0.94899128802E+03  0.13184792983E+04  0.50400001928E-02 0. -1.
</event>
<event>
 5   0  0.7971763E-06  0.2081540E+04  0.7818609E-02  0.8569419E-01
       -2   -1    0    0    0  501  0.00000000000E+00  0.00000000000E+00  0.10386360370E+04  0.10386360370E+04  0.25500000920E-02 0. -1.
        2   -1    0    0  501    0  0.00000000000E+00  0.00000000000E+00 -0.10429084039E+04  0.10429084040E+04  0.25500000920E-02 0.  1.
    10030    2    1    2    0    0  0.00000000000E+00  0.00000000000E+00 -0.42723669504E+01  0.20815444410E+04  0.20815400564E+04 0.  0.
        1    1    3    3  502    0 -0.45950193146E+03  0.33085481623E+03  0.87113269254E+03  0.10389798374E+04  0.50400001928E-02 0. -1.
       -1    1    3    3    0  502  0.45950193146E+03 -0.33085481623E+03 -0.87540505949E+03  0.10425646036E+04  0.50400001928E-02 0.  1.
</event>
<event>
 5   0  0.7971763E-06  0.3245099E+04  0.7818609E-02  0.8177007E-01
        2   -1    0    0  501    0  0.00000000000E+00  0.00000000000E+00  0.20734132640E+04  0.20734132640E+04  0.25500000920E-02 0.  1.
       -2   -1    0    0    0  501  0.00000000000E+00  0.00000000000E+00 -0.12697262451E+04  0.12697262451E+04  0.25500000920E-02 0. -1.
    10030    2    1    2    0    0  0.00000000000E+00  0.00000000000E+00  0.80368701885E+03  0.33431395091E+04  0.32450992209E+04 0.  0.
        1    1    3    3  502    0 -0.20920035520E+03  0.49452078642E+03  0.19792292011E+04  0.20507715201E+04  0.50400001928E-02 0.  1.
       -1    1    3    3    0  502  0.20920035520E+03 -0.49452078642E+03 -0.11755421823E+04  0.12923679891E+04  0.50400001928E-02 0. -1.
</event>
<event>
 5   0  0.3938696E-06  0.2430933E+04  0.7818609E-02  0.8428013E-01
       -1   -1    0    0    0  501  0.00000000000E+00  0.00000000000E+00  0.16702121591E+04  0.16702121591E+04  0.50400001928E-02 0. -1.
        1   -1    0    0  501    0  0.00000000000E+00  0.00000000000E+00 -0.88453389759E+03  0.88453389760E+03  0.50400001928E-02 0.  1.
    10030    2    1    2    0    0  0.00000000000E+00  0.00000000000E+00  0.78567826154E+03  0.25547460567E+04  0.24309333771E+04 0.  0.
        4    1    3    3  502    0 -0.43799405787E+02  0.71024070452E+03 -0.64274101861E+03  0.95889409020E+03  0.12699999809E+01 0.  1.
       -4    1    3    3    0  502  0.43799405787E+02 -0.71024070452E+03  0.14284192802E+04  0.15958519665E+04  0.12699999809E+01 0. -1.
</event>
<event>
 5   0  0.4142886E-06  0.3247290E+04  0.7818609E-02  0.8176438E-01
        1   -1    0    0  501    0  0.00000000000E+00  0.00000000000E+00  0.76902462717E+03  0.76902462719E+03  0.50400001928E-02 0.  1.
       -1   -1    0    0    0  501  0.00000000000E+00  0.00000000000E+00 -0.34280088922E+04  0.34280088922E+04  0.50400001928E-02 0. -1.
    10030    2    1    2    0    0  0.00000000000E+00  0.00000000000E+00 -0.26589842650E+04  0.41970335194E+04  0.32472901073E+04 0.  0.
        5    1    3    3  502    0  0.55033980086E+03 -0.10106473291E+04  0.15089363296E+03  0.11606346965E+04  0.46999998093E+01 0.  1.
       -5    1    3    3    0  502 -0.55033980086E+03  0.10106473291E+04 -0.28098778980E+04  0.30363988229E+04  0.46999998093E+01 0. -1.
</event>
<event>
 5   0  0.7941434E-06  0.3106299E+04  0.7818609E-02  0.8214011E-01
        2   -1    0    0  501    0  0.00000000000E+00  0.00000000000E+00  0.11908043454E+04  0.11908043454E+04  0.25500000920E-02 0.  1.
       -2   -1    0    0    0  501  0.00000000000E+00  0.00000000000E+00 -0.20257517699E+04  0.20257517699E+04  0.25500000920E-02 0. -1.
    10030    2    1    2    0    0  0.00000000000E+00  0.00000000000E+00 -0.83494742454E+03  0.32165561153E+04  0.31062994127E+04 0.  0.
        4    1    3    3  502    0  0.12005762572E+04 -0.57524820190E+02 -0.14360445702E+04  0.18726767139E+04  0.12699999809E+01 0. -1.
       -4    1    3    3    0  502 -0.12005762572E+04  0.57524820190E+02  0.60109714569E+03  0.13438794014E+04  0.12699999809E+01 0.  1.
</event>
<event>
 5   0  0.2635798E-06  0.3158912E+04  0.7818609E-02  0.8199753E-01
       -1   -1    0    0    0  501  0.00000000000E+00  0.00000000000E+00  0.82365848232E+03  0.82365848234E+03  0.50400001928E-02 0. -1.
        1   -1    0    0  501    0  0.00000000000E+00  0.00000000000E+00 -0.30287810629E+04  0.30287810629E+04  0.50400001928E-02 0.  1.
    10030    2    1    2    0    0  0.00000000000E+00  0.00000000000E+00 -0.22051225806E+04  0.38524395453E+04  0.31589119732E+04 0.  0.
        1    1    3    3  502    0  0.89307896841E+03  0.12711718492E+04 -0.75501561700E+03  0.17272858756E+04  0.50400001928E-02 0. -1.
       -1    1    3    3    0  502 -0.89307896841E+03 -0.12711718492E+04 -0.14501069636E+04  0.21251536697E+04  0.50400001928E-02 0.  1.
</event>
<event>
 5   0  0.2635798E-06  0.3221665E+04  0.7818609E-02  0.8183119E-01
       -1   -1    0    0    0  501  0.00000000000E+00  0.00000000000E+00  0.16275746391E+04  0.16275746391E+04  0.50400001928E-02 0.  1.
        1   -1    0    0  501    0  0.00000000000E+00  0.00000000000E+00 -0.15942627093E+04  0.15942627093E+04  0.50400001928E-02 0. -1.
    10030    2    1    2    0    0  0.00000000000E+00  0.00000000000E+00  0.33311929884E+02  0.32218373484E+04  0.32216651308E+04 0.  0.
        1    1    3    3  502    0  0.13204538593E+04  0.28507202610E+03  0.89415207016E+03  0.16199914751E+04  0.50400001928E-02 0.  1.
       -1    1    3    3    0  502 -0.13204538593E+04 -0.28507202610E+03 -0.86084014028E+03  0.16018458733E+04  0.50400001928E-02 0. -1.
</event>
<event>
 5   0  0.7941434E-06  0.1709973E+04  0.7818609E-02  0.8755697E-01
       -2   -1    0    0    0  501  0.00000000000E+00  0.00000000000E+00  0.32747593957E+03  0.32747593958E+03  0.25500000920E-02 0. -1.
        2   -1    0    0  501    0  0.00000000000E+00  0.00000000000E+00 -0.22322319014E+04  0.22322319014E+04  0.25500000920E-02 0.  1.
    10030    2    1    2    0    0  0.00000000000E+00  0.00000000000E+00 -0.19047559618E+04  0.25597078410E+04  0.17099733791E+04 0.  0.
        4    1    3    3  502    0 -0.72427325730E+03  0.34177137303E+03 -0.50424548679E+03  0.94638498852E+03  0.12699999809E+01 0. -1.
       -4    1    3    3    0  502  0.72427325730E+03 -0.34177137303E+03 -0.14005104751E+04  0.16133228525E+04  0.12699999809E+01 0.  1.
</event>
<event>
 5   0  0.7952307E-06  0.3237895E+04  0.7818609E-02  0.8178880E-01
        2   -1    0    0  501    0  0.00000000000E+00  0.00000000000E+00  0.22689304830E+04  0.22689304830E+04  0.25500000920E-02 0. -1.
       -2   -1    0    0    0  501  0.00000000000E+00  0.00000000000E+00 -0.11551659983E+04  0.11551659983E+04  0.25500000920E-02 0.  1.
    10030    2    1    2    0    0  0.00000000000E+00  0.00000000000E+00  0.11137644847E+04  0.34240964813E+04  0.32378952093E+04 0.  0.
        2    1    3    3  502    0 -0.24650600016E+03 -0.45290145947E+03  0.21797699512E+04  0.22399290123E+04  0.25500000920E-02 0. -1.
       -2    1    3    3    0  502  0.24650600016E+03  0.45290145947E+03 -0.10660054665E+04  0.11841674690E+04  0.25500000920E-02 0.  1.
</event>
<event>
 5   0  0.2580875E-06  0.3223771E+04  0.7818609E-02  0.8182567E-01
       -3   -1    0    0    0  501  0.00000000000E+00  0.00000000000E+00  0.15211900371E+04  0.15211900404E+04  0.10100000352E+00 0.  1.
        3   -1    0    0  501    0  0.00000000000E+00  0.00000000000E+00 -0.17079887439E+04  0.17079887468E+04  0.10100000352E+00 0. -1.
    10030    2    1    2    0    0  0.00000000000E+00  0.00000000000E+00 -0.18679870681E+03  0.32291787873E+04  0.32237713758E+04 0.  0.
        4    1    3    3  502    0  0.19687455709E+03 -0.54100733601E+03 -0.16014895086E+04  0.17018280723E+04  0.12699999809E+01 0. -1.
       -4    1    3    3    0  502 -0.19687455709E+03  0.54100733601E+03  0.14146908018E+04  0.15273507149E+04  0.12699999809E+01 0.  1.
</event>
<event>
 5   0  0.2635798E-06  0.2064060E+04  0.7818609E-02  0.8577243E-01
       -1   -1    0    0    0  501  0.00000000000E+00  0.00000000000E+00  0.64198350825E+03  0.64198350827E+03  0.50400001928E-02 0. -1.
        1   -1    0    0  501    0  0.00000000000E+00  0.00000000000E+00 -0.16590546221E+04  0.16590546221E+04  0.50400001928E-02 0.  1.
    10030    2    1    2    0    0  0.00000000000E+00  0.00000000000E+00 -0.10170711138E+04  0.23010381303E+04  0.20640597924E+04 0.  0.
        1    1    3    3  502    0  0.38590080087E+02  0.11336861786E+03 -0.16512823602E+04  0.16556192409E+04  0.50400001928E-02 0.  1.
       -1    1    3    3    0  502 -0.38590080087E+02 -0.11336861786E+03  0.63421124636E+03  0.64541888943E+03  0.50400001928E-02 0. -1.
</event>
<event>
 5   0  0.7510251E-06  0.2849038E+04  0.7818609E-02  0.8288204E-01
       -2   -1    0    0    0  501  0.00000000000E+00  0.00000000000E+00  0.12745085581E+04  0.12745085581E+04  0.25500000920E-02 0.  1.
        2   -1    0    0  501    0  0.00000000000E+00  0.00000000000E+00 -0.15921854338E+04  0.15921854338E+04  0.25500000920E-02 0. -1.
    10030    2    1    2    0    0  0.00000000000E+00  0.00000000000E+00 -0.31767687578E+03  0.28666939919E+04  0.28490377052E+04 0.  0.
        3    1    3    3  502    0  0.13927033050E+04  0.29925791882E+03 -0.15005775054E+03  0.14323739513E+04  0.10100000352E+00 0.  1.
       -3    1    3    3    0  502 -0.13927033050E+04 -0.29925791882E+03 -0.16761912524E+03  0.14343200406E+04  0.10100000352E+00 0. -1.
</event>
<event>
 5   0  0.7941434E-06  0.2054132E+04  0.7818609E-02  0.8581722E-01
       -2   -1    0    0    0  501  0.00000000000E+00  0.00000000000E+00  0.10417100134E+04  0.10417100134E+04  0.25500000920E-02 0.  1.
        2   -1    0    0  501    0  0.00000000000E+00  0.00000000000E+00 -0.10126277212E+04  0.10126277212E+04  0.25500000920E-02 0. -1.
    10030    2    1    2    0    0  0.00000000000E+00  0.00000000000E+00  0.29082292186E+02  0.20543377346E+04  0.20541318721E+04 0.  0.
        4    1    3    3  502    0  0.49029043984E+02 -0.69041475858E+03 -0.74434082961E+03  0.10164257324E+04  0.12699999809E+01 0. -1.
       -4    1    3    3    0  502 -0.49029043984E+02  0.69041475858E+03  0.77342312179E+03  0.10379120022E+04  0.12699999809E+01 0.  1.
</event>
<event>
 5   0  0.7941434E-06  0.1823730E+04  0.7818609E-02  0.8693781E-01
        2   -1    0    0  501    0  0.00000000000E+00  0.00000000000E+00  0.49612314143E+03  0.49612314144E+03  0.25500000920E-02 0. -1.
       -2   -1    0    0    0  501  0.00000000000E+00  0.00000000000E+00 -0.16759909494E+04  0.16759909494E+04  0.25500000920E-02 0.  1.
    10030    2    1    2    0    0  0.00000000000E+00  0.00000000000E+00 -0.11798678080E+04  0.21721140909E+04  0.18237301279E+04 0.  0.
        4    1    3    3  502    0  0.54490283792E+03 -0.48994905859E+03  0.56441303605E+02  0.73495334304E+03  0.12699999809E+01 0. -1.
       -4    1    3    3    0  502 -0.54490283792E+03  0.48994905859E+03 -0.12363091116E+04  0.14371607478E+04  0.12699999809E+01 0.  1.
</event>
<event>
 5   0  0.2788054E-06  0.3382349E+04  0.7818609E-02  0.8142252E-01
       -1   -1    0    0    0  501  0.00000000000E+00  0.00000000000E+00  0.86502763443E+03  0.86502763444E+03  0.50400001928E-02 0.  1.
        1   -1    0    0  501    0  0.00000000000E+00  0.00000000000E+00 -0.33063353197E+04  0.33063353197E+04  0.50400001928E-02 0. -1.
    10030    2    1    2    0    0  0.00000000000E+00  0.00000000000E+00 -0.24413076853E+04  0.41713629542E+04  0.33823491365E+04 0.  0.
        3    1    3    3  502    0 -0.55077175312E+03 -0.13629404537E+04 -0.18947517717E+03  0.14821798330E+04  0.10100000352E+00 0.  1.
       -3    1    3    3    0  502  0.55077175312E+03  0.13629404537E+04 -0.22518325081E+04  0.26891831212E+04  0.10100000352E+00 0. -1.
</event>
<event>
 5   0  0.4248545E-06  0.1619323E+04  0.7818609E-02  0.8808764E-01
        1   -1    0    0  501    0  0.00000000000E+00  0.00000000000E+00  0.11046592741E+04  0.11046592741E+04  0.50400001928E-02 0.  1.
       -1   -1    0    0    0  501  0.00000000000E+00  0.00000000000E+00 -0.59344259687E+03  0.59344259690E+03  0.50400001928E-02 0. -1.
    10030    2    1    2    0    0  0.00000000000E+00  0.00000000000E+00  0.51121667718E+03  0.16981018710E+04  0.16193231528E+04 0.  0.
        5    1    3    3  502    0 -0.61049981652E+03  0.26289017461E+03 -0.22916767342E+03  0.70310822952E+03  0.46999998093E+01 0. -1.
       -5    1    3    3    0  502  0.61049981652E+03 -0.26289017461E+03  0.74038435060E+03  0.99499364144E+03  0.46999998093E+01 0.  1.
</event>
<event>
 5   0  0.2788054E-06  0.3167218E+04  0.7818609E-02  0.8197529E-01
        1   -1    0    0  501    0  0.00000000000E+00  0.00000000000E+00  0.19029807734E+04  0.19029807734E+04  0.50400001928E-02 0. -1.
       -1   -1    0    0    0  501  0.00000000000E+00  0.00000000000E+00 -0.13178366726E+04  0.13178366726E+04  0.50400001928E-02 0.  1.
    10030    2    1    2    0    0  0.00000000000E+00  0.00000000000E+00  0.58514410078E+03  0.32208174461E+04  0.31672182435E+04 0.  0.
        3    1    3    3  502    0  0.12365061777E+04 -0.94619014864E+03 -0.14480437541E+01  0.15569924315E+04  0.10100000352E+00 0.  1.
       -3    1    3    3    0  502 -0.12365061777E+04  0.94619014864E+03  0.58659214454E+03  0.16638250145E+04  0.10100000352E+00 0. -1.
</event>
<event>
 5   0  0.2933646E-06  0.3228323E+04  0.7818609E-02  0.8181377E-01
       -1   -1    0    0    0  501  0.00000000000E+00  0.00000000000E+00  0.12591977577E+04  0.12591977577E+04  0.50400001928E-02 0. -1.
        1   -1    0    0  501    0  0.00000000000E+00  0.00000000000E+00 -0.20691880372E+04  0.20691880372E+04  0.50400001928E-02 0.  1.
    10030    2    1    2    0    0  0.00000000000E+00  0.00000000000E+00 -0.80999027946E+03  0.33283857949E+04  0.32283227452E+04 0.  0.
        2    1    3    3  502    0  0.90826368996E+02 -0.11457592509E+04  0.76349302251E+03  0.13798316150E+04  0.25500000920E-02 0. -1.
       -2    1    3    3    0  502 -0.90826368996E+02  0.11457592509E+04 -0.15734833020E+04  0.19485541799E+04  0.25500000920E-02 0.  1.
</event>
<event>
 5   0  0.7510251E-06  0.3191173E+04  0.7818609E-02  0.8191152E-01
       -2   -1    0    0    0  501  0.00000000000E+00  0.00000000000E+00  0.15346030980E+04  0.15346030980E+04  0.25500000920E-02 0.  1.
        2   -1    0    0  501    0  0.00000000000E+00  0.00000000000E+00 -0.16589933808E+04  0.16589933808E+04  0.25500000920E-02 0. -1.
    10030    2    1    2    0    0  0.00000000000E+00  0.00000000000E+00 -0.12439028274E+03  0.31935964788E+04  0.31911730644E+04 0.  0.
        3    1    3    3  502    0  0.13035630509E+04 -0.31294544288E+02  0.85809028254E+03  0.15609532086E+04  0.10100000352E+00 0.  1.
       -3    1    3    3    0  502 -0.13035630509E+04  0.31294544288E+02 -0.98248056528E+03  0.16326432702E+04  0.10100000352E+00 0. -1.
</event>
<event>
 5   0  0.7510251E-06  0.3319311E+04  0.7818609E-02  0.8157999E-01
       -2   -1    0    0    0  501  0.00000000000E+00  0.00000000000E+00  0.11074050271E+04  0.11074050271E+04  0.25500000920E-02 0. -1.
        2   -1    0    0  501    0  0.00000000000E+00  0.00000000000E+00 -0.24873067701E+04  0.24873067701E+04  0.25500000920E-02 0.  1.
    10030    2    1    2    0    0  0.00000000000E+00  0.00000000000E+00 -0.13799017430E+04  0.35947117972E+04  0.33193107846E+04 0.  0.
        3    1    3    3  502    0  0.11991774287E+04  0.10145802335E+04 -0.10972135361E+03  0.15746232379E+04  0.10100000352E+00 0.  1.
       -3    1    3    3    0  502 -0.11991774287E+04 -0.10145802335E+04 -0.12701803894E+04  0.20200885593E+04  0.10100000352E+00 0. -1.
</event>
<event>
 5   0  0.4142886E-06  0.3262541E+04  0.7818609E-02  0.8172493E-01
        1   -1    0    0  501    0  0.00000000000E+00  0.00000000000E+00  0.23131580408E+04  0.23131580408E+04  0.50400001928E-02 0. -1.
       -1   -1    0    0    0  501  0.00000000000E+00  0.00000000000E+00 -0.11503938184E+04  0.11503938184E+04  0.50400001928E-02 0.  1.
    10030    2    1    2    0    0  0.00000000000E+00  0.00000000000E+00  0.11627642223E+04  0.34635518592E+04  0.32625405507E+04 0.  0.
        5    1    3    3  502    0 -0.69079637961E+03 -0.11949792187E+04  0.15043409545E+04  0.20416265007E+04  0.46999998093E+01 0. -1.
       -5    1    3    3    0  502  0.69079637961E+03  0.11949792187E+04 -0.34157673214E+03  0.14219253585E+04  0.46999998093E+01 0.  1.
</event>
<event>
 5   0  0.7952307E-06  0.2952907E+04  0.7818609E-02  0.8257308E-01
       -2   -1    0    0    0  501  0.00000000000E+00  0.00000000000E+00  0.14135160461E+04  0.14135160461E+04  0.25500000920E-02 0. -1.
        2   -1    0    0  501    0  0.00000000000E+00  0.00000000000E+00 -0.15421937561E+04  0.15421937561E+04  0.25500000920E-02 0.  1.
    10030    2    1    2    0    0  0.00000000000E+00  0.00000000000E+00 -0.12867770997E+03  0.29557098022E+04  0.29529074625E+04 0.  0.
        2    1    3    3  502    0  0.47366568628E+03  0.33125216472E+03  0.12955631725E+04  0.14186511598E+04  0.25500000920E-02 0. -1.
       -2    1    3    3    0  502 -0.47366568628E+03 -0.33125216472E+03 -0.14242408825E+04  0.15370586425E+04  0.25500000920E-02 0.  1.
</event>
<event>
 5   0  0.7971763E-06  0.3223055E+04  0.7818609E-02  0.8182755E-01
        2   -1    0    0  501    0  0.00000000000E+00  0.00000000000E+00  0.23302397012E+04  0.23302397012E+04  0.25500000920E-02 0.  1.
       -2   -1    0    0    0  501  0.00000000000E+00  0.00000000000E+00 -0.11144867221E+04  0.11144867221E+04  0.25500000920E-02 0. -1.
    10030    2    1    2    0    0  0.00000000000E+00  0.00000000000E+00  0.12157529791E+04  0.34447264232E+04  0.32230552004E+04 0.  0.
        1    1    3    3  502    0 -0.25386769002E+03  0.38477632090E+03 -0.10425167640E+04  0.11398871981E+04  0.50400001928E-02 0. -1.
       -1    1    3    3    0  502  0.25386769002E+03 -0.38477632090E+03  0.22582697431E+04  0.23048392251E+04  0.50400001928E-02 0.  1.
</event>
<event>
 5   0  0.7941434E-06  0.3143967E+04  0.7818609E-02  0.8203774E-01
       -2   -1    0    0    0  501  0.00000000000E+00  0.00000000000E+00  0.10056329485E+04  0.10056329485E+04  0.25500000920E-02 0.  1.
        2   -1    0    0  501    0  0.00000000000E+00  0.00000000000E+00 -0.24572904842E+04  0.24572904842E+04  0.25500000920E-02 0. -1.
    10030    2    1    2    0    0  0.00000000000E+00  0.00000000000E+00 -0.14516575357E+04  0.34629234326E+04  0.31439670958E+04 0.  0.
        4    1    3    3  502    0 -0.12374854995E+04 -0.96181937893E+03 -0.85920790544E+03  0.17873742520E+04  0.12699999809E+01 0. -1.
       -4    1    3    3    0  502  0.12374854995E+04  0.96181937893E+03 -0.59244963026E+03  0.16755491806E+04  0.12699999809E+01 0.  1.
</event>
<event>
 5   0  0.7971763E-06  0.3537630E+04  0.7818609E-02  0.8104930E-01
       -2   -1    0    0    0  501  0.00000000000E+00  0.00000000000E+00  0.16589279267E+04  0.16589279267E+04  0.25500000920E-02 0. -1.
        2   -1    0    0  501    0  0.00000000000E+00  0.00000000000E+00 -0.18859808692E+04  0.18859808692E+04  0.25500000920E-02 0.  1.
    10030    2    1    2    0    0  0.00000000000E+00  0.00000000000E+00 -0.22705294243E+03  0.35449087959E+04  0.35376299033E+04 0.  0.
        1    1    3    3  502    0  0.11970827616E+04  0.12365601168E+04  0.29550241857E+03  0.17462559205E+04  0.50400001928E-02 0. -1.
       -1    1    3    3    0  502 -0.11970827616E+04 -0.12365601168E+04 -0.52255536100E+03  0.17986528753E+04  0.50400001928E-02 0.  1.
</event>
<event>
 5   0  0.7510251E-06  0.2969576E+04  0.7818609E-02  0.8252472E-01
        2   -1    0    0  501    0  0.00000000000E+00  0.00000000000E+00  0.14751258715E+04  0.14751258715E+04  0.25500000920E-02 0.  1.
       -2   -1    0    0    0  501  0.00000000000E+00  0.00000000000E+00 -0.14945134721E+04  0.14945134721E+04  0.25500000920E-02 0. -1.
    10030    2    1    2    0    0  0.00000000000E+00  0.00000000000E+00 -0.19387600641E+02  0.29696393436E+04  0.29695760560E+04 0.  0.
        3    1    3    3  502    0  0.12840758842E+04 -0.41545203785E+03 -0.62869342625E+03  0.14888608755E+04  0.10100000352E+00 0. -1.
       -3    1    3    3    0  502 -0.12840758842E+04  0.41545203785E+03  0.60930582561E+03  0.14807784681E+04  0.10100000352E+00 0.  1.
</event>
<event>
 5   0  0.3938696E-06  0.3164588E+04  0.7818609E-02  0.8198233E-01
        1   -1    0    0  501    0  0.00000000000E+00  0.00000000000E+00  0.18470892191E+04  0.18470892192E+04  0.50400001928E-02 0. -1.
       -1   -1    0    0    0  501  0.00000000000E+00  0.00000000000E+00 -0.13554591035E+04  0.13554591035E+04  0.50400001928E-02 0.  1.
    10030    2    1    2    0    0  0.00000000000E+00  0.00000000000E+00  0.49163011561E+03  0.32025483227E+04  0.31645877439E+04 0.  0.
        4    1    3    3  502    0 -0.14452634604E+04 -0.20560222041E+02  0.89730993042E+03  0.17012865475E+04  0.12699999809E+01 0. -1.
       -4    1    3    3    0  502  0.14452634604E+04  0.20560222041E+02 -0.40567981481E+03  0.15012617752E+04  0.12699999809E+01 0.  1.
</event>
<event>
 5   0  0.8237664E-06  0.3205124E+04  0.7818609E-02  0.8187465E-01
        2   -1    0    0  501    0  0.00000000000E+00  0.00000000000E+00  0.18275453681E+04  0.18275453681E+04  0.25500000920E-02 0.  1.
       -2   -1    0    0    0  501  0.00000000000E+00  0.00000000000E+00 -0.14052758793E+04  0.14052758793E+04  0.25500000920E-02 0. -1.
    10030    2    1    2    0    0  0.00000000000E+00  0.00000000000E+00  0.42226948880E+03  0.32328212474E+04  0.32051242872E+04 0.  0.
        5    1    3    3  502    0 -0.11879406055E+02  0.39789835298E+03 -0.13546066305E+04  0.14118942711E+04  0.46999998093E+01 0. -1.
       -5    1    3    3    0  502  0.11879406055E+02 -0.39789835298E+03  0.17768761193E+04  0.18209269762E+04  0.46999998093E+01 0.  1.
</event>
<event>
 5   0  0.7952307E-06  0.3156517E+04  0.7818609E-02  0.8200396E-01
        2   -1    0    0  501    0  0.00000000000E+00  0.00000000000E+00  0.19079100695E+04  0.19079100695E+04  0.25500000920E-02 0. -1.
       -2   -1    0    0    0  501  0.00000000000E+00  0.00000000000E+00 -0.13055649641E+04  0.13055649641E+04  0.25500000920E-02 0.  1.
    10030    2    1    2    0    0  0.00000000000E+00  0.00000000000E+00  0.60234510546E+03  0.32134750336E+04  0.31565174109E+04 0.  0.
        2    1    3    3  502    0  0.78817863677E+03  0.48397822460E+03  0.16030918258E+04  0.18507738618E+04  0.25500000920E-02 0. -1.
       -2    1    3    3    0  502 -0.78817863677E+03 -0.48397822460E+03 -0.10007467204E+04  0.13627011718E+04  0.25500000920E-02 0.  1.
</event>
<event>
 5   0  0.7952307E-06  0.3024013E+04  0.7818609E-02  0.8236907E-01
       -2   -1    0    0    0  501  0.00000000000E+00  0.00000000000E+00  0.10156908422E+04  0.10156908422E+04  0.25500000920E-02 0. -1.
        2   -1    0    0  501    0  0.00000000000E+00  0.00000000000E+00 -0.22508457068E+04  0.22508457068E+04  0.25500000920E-02 0.  1.
    10030    2    1    2    0    0  0.00000000000E+00  0.00000000000E+00 -0.12351548647E+04  0.32665365490E+04  0.30240128119E+04 0.  0.
        2    1    3    3  502    0  0.12935989632E+04 -0.43324357264E+03 -0.13218351578E+04  0.18995648068E+04  0.25500000920E-02 0.  1.
       -2    1    3    3    0  502 -0.12935989632E+04  0.43324357264E+03  0.86680293174E+02  0.13669717422E+04  0.25500000920E-02 0. -1.
</event>
<event>
 5   0  0.2788054E-06  0.2337961E+04  0.7818609E-02  0.8463102E-01
       -1   -1    0    0    0  501  0.00000000000E+00  0.00000000000E+00  0.21516446424E+04  0.21516446424E+04  0.50400001928E-02 0. -1.
        1   -1    0    0  501    0  0.00000000000E+00  0.00000000000E+00 -0.63510279394E+03  0.63510279396E+03  0.50400001928E-02 0.  1.
    10030    2    1    2    0    0  0.00000000000E+00  0.00000000000E+00  0.15165418484E+04  0.27867474363E+04  0.23379610980E+04 0.  0.
        3    1    3    3  502    0  0.76282971007E+03 -0.70445713145E+03  0.11821537132E+03  0.10450568888E+04  0.10100000352E+00 0.  1.
       -3    1    3    3    0  502 -0.76282971007E+03  0.70445713145E+03  0.13983264771E+04  0.17416905475E+04  0.10100000352E+00 0. -1.
</event>
<event>
 5   0  0.2933646E-06  0.3162820E+04  0.7818609E-02  0.8198706E-01
       -1   -1    0    0    0  501  0.00000000000E+00  0.00000000000E+00  0.15052064650E+04  0.15052064650E+04  0.50400001928E-02 0.  1.
        1   -1    0    0  501    0  0.00000000000E+00  0.00000000000E+00 -0.16614712845E+04  0.16614712845E+04  0.50400001928E-02 0. -1.
    10030    2    1    2    0    0  0.00000000000E+00  0.00000000000E+00 -0.15626481952E+03  0.31666777495E+04  0.31628198298E+04 0.  0.
        2    1    3    3  502    0 -0.13640342264E+04 -0.64163081312E+03  0.40054891812E+03  0.15597175728E+04  0.25500000920E-02 0.  1.
       -2    1    3    3    0  502  0.13640342264E+04  0.64163081312E+03 -0.55681373765E+03  0.16069601767E+04  0.25500000920E-02 0. -1.
</event>
<event>
 5   0  0.7971763E-06  0.3110531E+04  0.7818609E-02  0.8212854E-01
        2   -1    0    0  501    0  0.00000000000E+00  0.00000000000E+00  0.26650999534E+04  0.26650999534E+04  0.25500000920E-02 0.  1.
       -2   -1    0    0    0  501  0.00000000000E+00  0.00000000000E+00 -0.90760254562E+03  0.90760254563E+03  0.25500000920E-02 0. -1.
    10030    2    1    2    0    0  0.00000000000E+00  0.00000000000E+00  0.17574974077E+04  0.35727024990E+04  0.31105314671E+04 0.  0.
        1    1    3    3  502    0  0.79150814226E+03 -0.80846299960E+02  0.24136566725E+04  0.25414090179E+04  0.50400001928E-02 0.  1.
       -1    1    3    3    0  502 -0.79150814226E+03  0.80846299960E+02 -0.65615926474E+03  0.10312934811E+04  0.50400001928E-02 0. -1.
</event>
<event>
 5   0  0.2933646E-06  0.1579154E+04  0.7818609E-02  0.8833458E-01
        1   -1    0    0  501    0  0.00000000000E+00  0.00000000000E+00  0.15792440497E+04  0.15792440497E+04  0.50400001928E-02 0. -1.
       -1   -1    0    0    0  501  0.00000000000E+00  0.00000000000E+00 -0.39476587654E+03  0.39476587657E+03  0.50400001928E-02 0.  1.
    10030    2    1    2    0    0  0.00000000000E+00  0.00000000000E+00  0.11844781731E+04  0.19740099262E+04  0.15791537754E+04 0.  0.
        2    1    3    3  502    0  0.73783455476E+02  0.18243318808E+02  0.15746605346E+04  0.15764937729E+04  0.25500000920E-02 0. -1.
       -2    1    3    3    0  502 -0.73783455476E+02 -0.18243318808E+02 -0.39018236142E+03  0.39751615332E+03  0.25500000920E-02 0.  1.
</event>
<event>
 5   0  0.4142886E-06  0.3130228E+04  0.7818609E-02  0.8207491E-01
       -1   -1    0    0    0  501  0.00000000000E+00  0.00000000000E+00  0.22237807817E+04  0.22237807817E+04  0.50400001928E-02 0.  1.
        1   -1    0    0  501    0  0.00000000000E+00  0.00000000000E+00 -0.11015395211E+04  0.11015395211E+04  0.50400001928E-02 0. -1.
    10030    2    1    2    0    0  0.00000000000E+00  0.00000000000E+00  0.11222412606E+04  0.33253203028E+04  0.31302283733E+04 0.  0.
        5    1    3    3  502    0 -0.11157240336E+04  0.14307259205E+03 -0.59493634352E+03  0.12725098147E+04  0.46999998093E+01 0. -1.
       -5    1    3    3    0  502  0.11157240336E+04 -0.14307259205E+03  0.17171776041E+04  0.20528104881E+04  0.46999998093E+01 0.  1.
</event>
<event>
 5   0  0.8237664E-06  0.3102470E+04  0.7818609E-02  0.8215060E-01
       -2   -1    0    0    0  501  0.00000000000E+00  0.00000000000E+00  0.13560642673E+04  0.13560642673E+04  0.25500000920E-02 0.  1.
        2   -1    0    0  501    0  0.00000000000E+00  0.00000000000E+00 -0.17744951978E+04  0.17744951978E+04  0.25500000920E-02 0. -1.
    10030    2    1    2    0    0  0.00000000000E+00  0.00000000000E+00 -0.41843093051E+03  0.31305594652E+04  0.31024696810E+04 0.  0.
        5    1    3    3  502    0 -0.30838893619E+03  0.32257385843E+03 -0.17083144760E+04  0.17656494751E+04  0.46999998093E+01 0. -1.
       -5    1    3    3    0  502  0.30838893619E+03 -0.32257385843E+03  0.12898835455E+04  0.13649099901E+04  0.46999998093E+01 0.  1.
</event>
<event>
 5   0  0.2933646E-06  0.2956481E+04  0.7818609E-02  0.8256268E-01
        1   -1    0    0  501    0  0.00000000000E+00  0.00000000000E+00  0.15587696415E+04  0.15587696415E+04  0.50400001928E-02 0. -1.
       -1   -1    0    0    0  501  0.00000000000E+00  0.00000000000E+00 -0.14018716466E+04  0.14018716466E+04  0.50400001928E-02 0.  1.
    10030    2    1    2    0    0  0.00000000000E+00  0.00000000000E+00  0.15689799492E+03  0.29606412881E+04  0.29564809920E+04 0.  0.
        2    1    3    3  502    0  0.11637209497E+04 -0.16564045753E+03 -0.81920055204E+03  0.14327500670E+04  0.25500000920E-02 0.  1.
       -2    1    3    3    0  502 -0.11637209497E+04  0.16564045753E+03  0.97609854696E+03  0.15278912211E+04  0.25500000920E-02 0. -1.
</event>
<event>
 5   0  0.2788054E-06  0.3271528E+04  0.7818609E-02  0.8170178E-01
       -1   -1    0    0    0  501  0.00000000000E+00  0.00000000000E+00  0.10662874238E+04  0.10662874238E+04  0.50400001928E-02 0. -1.
        1   -1    0    0  501    0  0.00000000000E+00  0.00000000000E+00 -0.25093838870E+04  0.25093838870E+04  0.50400001928E-02 0.  1.
    10030    2    1    2    0    0  0.00000000000E+00  0.00000000000E+00 -0.14430964632E+04  0.35756713108E+04  0.32715283768E+04 0.  0.
        3    1    3    3  502    0  0.70970992538E+03  0.12602833037E+04 -0.15565935309E+04  0.21248495510E+04  0.10100000352E+00 0.  1.
       -3    1    3    3    0  502 -0.70970992538E+03 -0.12602833037E+04  0.11349706769E+03  0.14508217597E+04  0.10100000352E+00 0. -1.
</event>
<event>
 5   0  0.4142886E-06  0.3102360E+04  0.7818609E-02  0.8215090E-01
        1   -1    0    0  501    0  0.00000000000E+00  0.00000000000E+00  0.17643482672E+04  0.17643482672E+04  0.50400001928E-02 0. -1.
       -1   -1    0    0    0  501  0.00000000000E+00  0.00000000000E+00 -0.13637669153E+04  0.13637669154E+04  0.50400001928E-02 0.  1.
    10030    2    1    2    0    0  0.00000000000E+00  0.00000000000E+00  0.40058135184E+03  0.31281151825E+04  0.31023602589E+04 0.  0.
        5    1    3    3  502    0 -0.88722937199E+03 -0.11108560479E+04  0.82589341461E+03  0.16441712623E+04  0.46999998093E+01 0. -1.
       -5    1    3    3    0  502  0.88722937199E+03  0.11108560479E+04 -0.42531206277E+03  0.14839439202E+04  0.46999998093E+01 0.  1.
</event>
<event>
 5   0  0.7952307E-06  0.3238168E+04  0.7818609E-02  0.8178809E-01
        2   -1    0    0  501    0  0.00000000000E+00  0.00000000000E+00  0.24212202266E+04  0.24212202266E+04  0.25500000920E-02 0.  1.
       -2   -1    0    0    0  501  0.00000000000E+00  0.00000000000E+00 -0.10826911141E+04  0.10826911141E+04  0.25500000920E-02 0. -1.
    10030    2    1    2    0    0  0.00000000000E+00  0.00000000000E+00  0.13385291125E+04  0.35039113406E+04  0.32381683863E+04 0.  0.
        2    1    3    3  502    0 -0.46185225427E+03 -0.15337758265E+04  0.41398453366E+03  0.16544361532E+04  0.25500000920E-02 0. -1.
       -2    1    3    3    0  502  0.46185225427E+03  0.15337758265E+04  0.92454457886E+03  0.18494751875E+04  0.25500000920E-02 0.  1.
</event>
<event>
 5   0  0.7510251E-06  0.1660958E+04  0.7818609E-02  0.8783950E-01
       -2   -1    0    0    0  501  0.00000000000E+00  0.00000000000E+00  0.85358949141E+03  0.85358949142E+03  0.25500000920E-02 0.  1.
        2   -1    0    0  501    0  0.00000000000E+00  0.00000000000E+00 -0.80799415470E+03  0.80799415471E+03  0.25500000920E-02 0. -1.
    10030    2    1    2    0    0  0.00000000000E+00  0.00000000000E+00  0.45595336708E+02  0.16615836461E+04  0.16609579400E+04 0.  0.
        3    1    3    3  502    0  0.41801354300E+03 -0.25866127452E+02  0.74020862792E+03  0.85047821943E+03  0.10100000352E+00 0.  1.
       -3    1    3    3    0  502 -0.41801354300E+03  0.25866127452E+02 -0.69461329121E+03  0.81110542669E+03  0.10100000352E+00 0. -1.
</event>
<event>
 5   0  0.2788054E-06  0.2005565E+04  0.7818609E-02  0.8604023E-01
        1   -1    0    0  501    0  0.00000000000E+00  0.00000000000E+00  0.10270024391E+04  0.10270024391E+04  0.50400001928E-02 0.  1.
       -1   -1    0    0    0  501  0.00000000000E+00  0.00000000000E+00 -0.97913355171E+03  0.97913355172E+03  0.50400001928E-02 0. -1.
    10030    2    1    2    0    0  0.00000000000E+00  0.00000000000E+00  0.47868887377E+02  0.20061359908E+04  0.20055648041E+04 0.  0.
        3    1    3    3  502    0 -0.60621428982E+03  0.32417250272E+03  0.75420329395E+03  0.10204931139E+04  0.10100000352E+00 0.  1.
       -3    1    3    3    0  502  0.60621428982E+03 -0.32417250272E+03 -0.70633440658E+03  0.98564287692E+03  0.10100000352E+00 0. -1.
</event>
<event>
 5   0  0.7971763E-06  0.3185248E+04  0.7818609E-02  0.8192724E-01
        2   -1    0    0  501    0  0.00000000000E+00  0.00000000000E+00  0.28893061372E+04  0.28893061372E+04  0.25500000920E-02 0. -1.
       -2   -1    0    0    0  501  0.00000000000E+00  0.00000000000E+00 -0.87787527560E+03  0.87787527560E+03  0.25500000920E-02 0.  1.
    10030    2    1    2    0    0  0.00000000000E+00  0.00000000000E+00  0.20114308616E+04  0.37671814128E+04  0.31852475078E+04 0.  0.
        1    1    3    3  502    0 -0.11545494252E+04  0.10846089375E+04  0.81105672340E+03  0.17796555653E+04  0.50400001928E-02 0.  1.
       -1    1    3    3    0  502  0.11545494252E+04 -0.10846089375E+04  0.12003741382E+04  0.19875258475E+04  0.50400001928E-02 0. -1.
</event>
<event>
 5   0  0.7971763E-06  0.1874613E+04  0.7818609E-02  0.8667597E-01
       -2   -1    0    0    0  501  0.00000000000E+00  0.00000000000E+00  0.10316811035E+04  0.10316811035E+04  0.25500000920E-02 0.  1.
        2   -1    0    0  501    0  0.00000000000E+00  0.00000000000E+00 -0.85156511771E+03  0.85156511772E+03  0.25500000920E-02 0. -1.
    10030    2    1    2    0    0  0.00000000000E+00  0.00000000000E+00  0.18011598580E+03  0.18832462212E+04  0.18746131765E+04 0.  0.
        1    1    3    3  502    0  0.57947167977E+03  0.70762616194E+03 -0.11587732798E+03  0.92192720314E+03  0.50400001928E-02 0. -1.
       -1    1    3    3    0  502 -0.57947167977E+03 -0.70762616194E+03  0.29599331378E+03  0.96131901809E+03  0.50400001928E-02 0.  1.
</event>
<event>
 5   0  0.8237664E-06  0.3201048E+04  0.7818609E-02  0.8188540E-01
       -2   -1    0    0    0  501  0.00000000000E+00  0.00000000000E+00  0.15647650380E+04  0.15647650380E+04  0.25500000920E-02 0.  1.
        2   -1    0    0  501    0  0.00000000000E+00  0.00000000000E+00 -0.16371006406E+04  0.16371006406E+04  0.25500000920E-02 0. -1.
    10030    2    1    2    0    0  0.00000000000E+00  0.00000000000E+00 -0.72335602610E+02  0.32018656786E+04  0.32010484821E+04 0.  0.
        5    1    3    3  502    0 -0.43143822825E+03 -0.10810539075E+03  0.15016999159E+04  0.15661897866E+04  0.46999998093E+01 0.  1.
       -5    1    3    3    0  502  0.43143822825E+03  0.10810539075E+03 -0.15740355185E+04  0.16356758920E+04  0.46999998093E+01 0. -1.
</event>
<event>
 5   0  0.7510251E-06  0.3252930E+04  0.7818609E-02  0.8174977E-01
        2   -1    0    0  501    0  0.00000000000E+00  0.00000000000E+00  0.26416601311E+04  0.26416601311E+04  0.25500000920E-02 0. -1.
       -2   -1    0    0    0  501  0.00000000000E+00  0.00000000000E+00 -0.10014114545E+04  0.10014114545E+04  0.25500000920E-02 0.  1.
    10030    2    1    2    0    0  0.00000000000E+00  0.00000000000E+00  0.16402486766E+04  0.36430715856E+04  0.32529301956E+04 0.  0.
        3    1    3    3  502    0  0.11996980979E+04 -0.65110683114E+03  0.18106013300E+04  0.22674860127E+04  0.10100000352E+00 0. -1.
       -3    1    3    3    0  502 -0.11996980979E+04  0.65110683114E+03 -0.17035265341E+03  0.13755855729E+04  0.10100000352E+00 0.  1.
</event>
<event>
 5   0  0.2635798E-06  0.1816007E+04  0.7818609E-02  0.8697833E-01
        1   -1    0    0  501    0  0.00000000000E+00  0.00000000000E+00  0.84602491930E+03  0.84602491932E+03  0.50400001928E-02 0. -1.
       -1   -1    0    0    0  501  0.00000000000E+00  0.00000000000E+00 -0.97452212066E+03  0.97452212067E+03  0.50400001928E-02 0.  1.
    10030    2    1    2    0    0  0.00000000000E+00  0.00000000000E+00 -0.12849720136E+03  0.18205470400E+04  0.18160066063E+04 0.  0.
        1    1    3    3  502    0 -0.15383595484E+03 -0.43470614666E+03  0.71990594063E+03  0.85492660406E+03  0.50400001928E-02 0. -1.
       -1    1    3    3    0  502  0.15383595484E+03  0.43470614666E+03 -0.84840314198E+03  0.96562043594E+03  0.50400001928E-02 0.  1.
</event>
<event>
 5   0  0.2788054E-06  0.2966442E+04  0.7818609E-02  0.8253379E-01
        1   -1    0    0  501    0  0.00000000000E+00  0.00000000000E+00  0.17108285094E+04  0.17108285094E+04  0.50400001928E-02 0. -1.
       -1   -1    0    0    0  501  0.00000000000E+00  0.00000000000E+00 -0.12858941901E+04  0.12858941901E+04  0.50400001928E-02 0.  1.
    10030    2    1    2    0    0  0.00000000000E+00  0.00000000000E+00  0.42493431931E+03  0.29967226996E+04  0.29664419365E+04 0.  0.
        3    1    3    3  502    0  0.45192174487E+03  0.11940653662E+04 -0.55016883528E+03  0.13902198099E+04  0.10100000352E+00 0.  1.
       -3    1    3    3    0  502 -0.45192174487E+03 -0.11940653662E+04  0.97510315458E+03  0.16065028897E+04  0.10100000352E+00 0. -1.
</event>
<event>
 5   0  0.2788054E-06  0.2913408E+04  0.7818609E-02  0.8268899E-01
       -1   -1    0    0    0  501  0.00000000000E+00  0.00000000000E+00  0.71550314843E+03  0.71550314845E+03  0.50400001928E-02 0.  1.
        1   -1    0    0  501    0  0.00000000000E+00  0.00000000000E+00 -0.29657258449E+04  0.29657258449E+04  0.50400001928E-02 0. -1.
    10030    2    1    2    0    0  0.00000000000E+00  0.00000000000E+00 -0.22502226964E+04  0.36812289933E+04  0.29134077500E+04 0.  0.
        3    1    3    3  502    0 -0.90131559066E+03 -0.88983152059E+03 -0.21586954159E+03  0.12848227886E+04  0.10100000352E+00 0.  1.
       -3    1    3    3    0  502  0.90131559066E+03  0.88983152059E+03 -0.20343531548E+04  0.23964062047E+04  0.10100000352E+00 0. -1.
</event>
<event>
 5   0  0.8237664E-06  0.3179273E+04  0.7818609E-02  0.8194313E-01
        2   -1    0    0  501    0  0.00000000000E+00  0.00000000000E+00  0.21096713489E+04  0.21096713489E+04  0.25500000920E-02 0. -1.
       -2   -1    0    0    0  501  0.00000000000E+00  0.00000000000E+00 -0.11977902717E+04  0.11977902717E+04  0.25500000920E-02 0.  1.
    10030    2    1    2    0    0  0.00000000000E+00  0.00000000000E+00  0.91188107726E+03  0.33074616206E+04  0.31792727584E+04 0.  0.
        5    1    3    3  502    0 -0.88581431309E+03  0.54496938831E+03 -0.79472297859E+03  0.13089176193E+04  0.46999998093E+01 0.  1.
       -5    1    3    3    0  502  0.88581431309E+03 -0.54496938831E+03  0.17066040559E+04  0.19985440012E+04  0.46999998093E+01 0. -1.
</event>
<event>
 5   0  0.7971763E-06  0.3052188E+04  0.7818609E-02  0.8228983E-01
        2   -1    0    0  501    0  0.00000000000E+00  0.00000000000E+00  0.18457267041E+04  0.18457267041E+04  0.25500000920E-02 0.  1.
       -2   -1    0    0    0  501  0.00000000000E+00  0.00000000000E+00 -0.12618133815E+04  0.12618133815E+04  0.25500000920E-02 0. -1.
    10030    2    1    2    0    0  0.00000000000E+00  0.00000000000E+00  0.58391332254E+03  0.31075400856E+04  0.30521878408E+04 0.  0.
        1    1    3    3  502    0  0.26938077662E+03  0.12523002029E+04  0.11365431943E+04  0.17124696300E+04  0.50400001928E-02 0.  1.
       -1    1    3    3    0  502 -0.26938077662E+03 -0.12523002029E+04 -0.55262987181E+03  0.13950704556E+04  0.50400001928E-02 0. -1.
</event>
<event>
 5   0  0.4142886E-06  0.3164866E+04  0.7818609E-02  0.8198158E-01
       -1   -1    0    0    0  501  0.00000000000E+00  0.00000000000E+00  0.13937707615E+04  0.13937707615E+04  0.50400001928E-02 0. -1.
        1   -1    0    0  501    0  0.00000000000E+00  0.00000000000E+00 -0.17966328480E+04  0.17966328480E+04  0.50400001928E-02 0.  1.
    10030    2    1    2    0    0  0.00000000000E+00  0.00000000000E+00 -0.40286208653E+03  0.31904036095E+04  0.31648660841E+04 0.  0.
        5    1    3    3  502    0  0.38717599746E+03 -0.79695926648E+03 -0.15231256655E+04  0.17620962540E+04  0.46999998093E+01 0.  1.
       -5    1    3    3    0  502 -0.38717599746E+03  0.79695926648E+03  0.11202635789E+04  0.14283073555E+04  0.46999998093E+01 0. -1.
</event>
<event>
 5   0  0.4142886E-06  0.2284168E+04  0.7818609E-02  0.8484190E-01
        1   -1    0    0  501    0  0.00000000000E+00  0.00000000000E+00  0.16018580680E+04  0.16018580680E+04  0.50400001928E-02 0.  1.
       -1   -1    0    0    0  501  0.00000000000E+00  0.00000000000E+00 -0.81427659863E+03  0.81427659865E+03  0.50400001928E-02 0. -1.
    10030    2    1    2    0    0  0.00000000000E+00  0.00000000000E+00  0.78758146932E+03  0.24161346666E+04  0.22841677163E+04 0.  0.
        5    1    3    3  502    0 -0.20493474646E+03 -0.23750503264E+01 -0.79465545703E+03  0.82067245388E+03  0.46999998093E+01 0. -1.
       -5    1    3    3    0  502  0.20493474646E+03  0.23750503264E+01  0.15822369263E+04  0.15954622127E+04  0.46999998093E+01 0.  1.
</event>
<event>
 5   0  0.7971763E-06  0.2389644E+04  0.7818609E-02  0.8443391E-01
       -2   -1    0    0    0  501  0.00000000000E+00  0.00000000000E+00  0.85401449882E+03  0.85401449882E+03  0.25500000920E-02 0. -1.
        2   -1    0    0  501    0  0.00000000000E+00  0.00000000000E+00 -0.16716343210E+04  0.16716343210E+04  0.25500000920E-02 0.  1.
    10030    2    1    2    0    0  0.00000000000E+00  0.00000000000E+00 -0.81761982221E+03  0.25256488198E+04  0.23896442805E+04 0.  0.
        1    1    3    3  502    0  0.55162206318E+03  0.10220954709E+04 -0.11243284141E+03  0.11668792551E+04  0.50400001928E-02 0. -1.
       -1    1    3    3    0  502 -0.55162206318E+03 -0.10220954709E+04 -0.70518698080E+03  0.13587695647E+04  0.50400001928E-02 0.  1.
</event>
<event>
 5   0  0.2788054E-06  0.3114255E+04  0.7818609E-02  0.8211837E-01
        1   -1    0    0  501    0  0.00000000000E+00  0.00000000000E+00  0.22189258445E+04  0.22189258445E+04  0.50400001928E-02 0.  1.
       -1   -1    0    0    0  501  0.00000000000E+00  0.00000000000E+00 -0.10927116507E+04  0.10927116507E+04  0.50400001928E-02 0. -1.
    10030    2    1    2    0    0  0.00000000000E+00  0.00000000000E+00  0.11262141938E+04  0.33116374952E+04  0.31142550456E+04 0.  0.
        3    1    3    3  502    0  0.80261331095E+03  0.47459603260E+03  0.18892308520E+04  0.21068039167E+04  0.10100000352E+00 0.  1.
       -3    1    3    3    0  502 -0.80261331095E+03 -0.47459603260E+03 -0.76301665815E+03  0.12048335785E+04  0.10100000352E+00 0. -1.
</event>
<event>
 5   0  0.2933646E-06  0.3255566E+04  0.7818609E-02  0.8174295E-01
       -1   -1    0    0    0  501  0.00000000000E+00  0.00000000000E+00  0.16897918104E+04  0.16897918104E+04  0.50400001928E-02 0. -1.
        1   -1    0    0  501    0  0.00000000000E+00  0.00000000000E+00 -0.15680493593E+04  0.15680493593E+04  0.50400001928E-02 0.  1.
    10030    2    1    2    0    0  0.00000000000E+00  0.00000000000E+00  0.12174245110E+03  0.32578411698E+04  0.32555656748E+04 0.  0.
        2    1    3    3  502    0  0.51900913842E+03  0.79059507689E+03  0.13866617319E+04  0.16784641254E+04  0.25500000920E-02 0. -1.
       -2    1    3    3    0  502 -0.51900913842E+03 -0.79059507689E+03 -0.12649192808E+04  0.15793770444E+04  0.25500000920E-02 0.  1.
</event>
<event>
 5   0  0.3938696E-06  0.2494986E+04  0.7818609E-02  0.8404774E-01
       -1   -1    0    0    0  501  0.00000000000E+00  0.00000000000E+00  0.15118584460E+04  0.15118584461E+04  0.50400001928E-02 0.  1.
        1   -1    0    0  501    0  0.00000000000E+00  0.00000000000E+00 -0.10293549672E+04  0.10293549672E+04  0.50400001928E-02 0. -1.
    10030    2    1    2    0    0  0.00000000000E+00  0.00000000000E+00  0.48250347888E+03  0.25412134132E+04  0.24949861732E+04 0.  0.
        4    1    3    3  502    0  0.56329177172E+03  0.77607845622E+02 -0.88968907961E+03  0.10558735100E+04  0.12699999809E+01 0. -1.
       -4    1    3    3    0  502 -0.56329177172E+03 -0.77607845622E+02  0.13721925585E+04  0.14853399033E+04  0.12699999809E+01 0.  1.
</event>
<event>
 5   0  0.3938696E-06  0.2626711E+04  0.7818609E-02  0.8359184E-01
       -1   -1    0    0    0  501  0.00000000000E+00  0.00000000000E+00  0.83299378520E+03  0.83299378522E+03  0.50400001928E-02 0.  1.
        1   -1    0    0  501    0  0.00000000000E+00  0.00000000000E+00 -0.20707275818E+04  0.20707275818E+04  0.50400001928E-02 0. -1.
    10030    2    1    2    0    0  0.00000000000E+00  0.00000000000E+00 -0.12377337966E+04  0.29037213670E+04  0.26267114090E+04 0.  0.
        4    1    3    3  502    0  0.32329237396E+03 -0.10069430187E+04 -0.14797414351E+04  0.18188151444E+04  0.12699999809E+01 0. -1.
       -4    1    3    3    0  502 -0.32329237396E+03  0.10069430187E+04  0.24200763851E+03  0.10849062226E+04  0.12699999809E+01 0.  1.
</event>
<event>
 5   0  0.2635798E-06  0.3019687E+04  0.7818609E-02  0.8238131E-01
       -1   -1    0    0    0  501  0.00000000000E+00  0.00000000000E+00  0.16306532039E+04  0.16306532040E+04  0.50400001928E-02 0.  1.
        1   -1    0    0  501    0  0.00000000000E+00  0.00000000000E+00 -0.13979842474E+04  0.13979842474E+04  0.50400001928E-02 0. -1.
    10030    2    1    2    0    0  0.00000000000E+00  0.00000000000E+00  0.23266895652E+03  0.30286374514E+04  0.30196870647E+04 0.  0.
        1    1    3    3  502    0  0.96201310581E+03 -0.48677630534E+03 -0.94377860489E+03  0.14328776788E+04  0.50400001928E-02 0. -1.
       -1    1    3    3    0  502 -0.96201310581E+03  0.48677630534E+03  0.11764475614E+04  0.15957597726E+04  0.50400001928E-02 0.  1.
</event>
<event>
 5   0  0.2788054E-06  0.3211367E+04  0.7818609E-02  0.8185822E-01
        1   -1    0    0  501    0  0.00000000000E+00  0.00000000000E+00  0.27815781721E+04  0.27815781721E+04  0.50400001928E-02 0. -1.
       -1   -1    0    0    0  501  0.00000000000E+00  0.00000000000E+00 -0.92689103080E+03  0.92689103081E+03  0.50400001928E-02 0.  1.
    10030    2    1    2    0    0  0.00000000000E+00  0.00000000000E+00  0.18546871413E+04  0.37084692029E+04  0.32113672224E+04 0.  0.
        3    1    3    3  502    0 -0.83424830478E+03 -0.13714120680E+04  0.88293943516E+03  0.18320271151E+04  0.10100000352E+00 0.  1.
       -3    1    3    3    0  502  0.83424830478E+03  0.13714120680E+04  0.97174770614E+03  0.18764420878E+04  0.10100000352E+00 0. -1.
</event>
<event>
 5   0  0.3938696E-06  0.3157383E+04  0.7818609E-02  0.8200164E-01
       -1   -1    0    0    0  501  0.00000000000E+00  0.00000000000E+00  0.14620433389E+04  0.14620433389E+04  0.50400001928E-02 0. -1.
        1   -1    0    0  501    0  0.00000000000E+00  0.00000000000E+00 -0.17046463037E+04  0.17046463037E+04  0.50400001928E-02 0.  1.
    10030    2    1    2    0    0  0.00000000000E+00  0.00000000000E+00 -0.24260296485E+03  0.31666896426E+04  0.31573829502E+04 0.  0.
        4    1    3    3  502    0 -0.61072111426E+03  0.10997127997E+04 -0.10780086895E+04  0.16566390279E+04  0.12699999809E+01 0.  1.
       -4    1    3    3    0  502  0.61072111426E+03 -0.10997127997E+04  0.83540572466E+03  0.15100506147E+04  0.12699999809E+01 0. -1.
</event>
<event>
 5   0  0.7510251E-06  0.2802254E+04  0.7818609E-02  0.8302569E-01
        2   -1    0    0  501    0  0.00000000000E+00  0.00000000000E+00  0.18245993775E+04  0.18245993775E+04  0.25500000920E-02 0.  1.
       -2   -1    0    0    0  501  0.00000000000E+00  0.00000000000E+00 -0.10759385593E+04  0.10759385593E+04  0.25500000920E-02 0. -1.
    10030    2    1    2    0    0  0.00000000000E+00  0.00000000000E+00  0.74866081825E+03  0.29005379368E+04  0.28022539681E+04 0.  0.
        3    1    3    3  502    0 -0.26715712394E+03 -0.83020626310E+03  0.15093963287E+04  0.17432419957E+04  0.10100000352E+00 0.  1.
       -3    1    3    3    0  502  0.26715712394E+03  0.83020626310E+03 -0.76073551048E+03  0.11572959411E+04  0.10100000352E+00 0. -1.
</event>
<event>
 5   0  0.2933646E-06  0.1923729E+04  0.7818609E-02  0.8643134E-01
        1   -1    0    0  501    0  0.00000000000E+00  0.00000000000E+00  0.97164859157E+03  0.97164859159E+03  0.50400001928E-02 0. -1.
       -1   -1    0    0    0  501  0.00000000000E+00  0.00000000000E+00 -0.95217898423E+03  0.95217898424E+03  0.50400001928E-02 0.  1.
    10030    2    1    2    0    0  0.00000000000E+00  0.00000000000E+00  0.19469607344E+02  0.19238275758E+04  0.19237290547E+04 0.  0.
        2    1    3    3  502    0  0.52913830510E+03  0.20590978721E+03 -0.76670510193E+03  0.95405602546E+03  0.25500000920E-02 0.  1.
       -2    1    3    3    0  502 -0.52913830510E+03 -0.20590978721E+03  0.78617470927E+03  0.96977155037E+03  0.25500000920E-02 0. -1.
</event>
<event>
 5   0  0.2788054E-06  0.3278908E+04  0.7818609E-02  0.8168283E-01
        1   -1    0    0  501    0  0.00000000000E+00  0.00000000000E+00  0.10840069206E+04  0.10840069206E+04  0.50400001928E-02 0. -1.
       -1   -1    0    0    0  501  0.00000000000E+00  0.00000000000E+00 -0.24795134485E+04  0.24795134485E+04  0.50400001928E-02 0.  1.
    10030    2    1    2    0    0  0.00000000000E+00  0.00000000000E+00 -0.13955065279E+04  0.35635203692E+04  0.32789081951E+04 0.  0.
        3    1    3    3  502    0  0.91134576254E+02  0.14172015593E+04 -0.15880309192E+04  0.21304008968E+04  0.10100000352E+00 0.  1.
       -3    1    3    3    0  502 -0.91134576254E+02 -0.14172015593E+04  0.19252439133E+03  0.14331194723E+04  0.10100000352E+00 0. -1.
</event>
<event>
 5   0  0.2933646E-06  0.3085068E+04  0.7818609E-02  0.8219848E-01
        1   -1    0    0  501    0  0.00000000000E+00  0.00000000000E+00  0.13562444960E+04  0.13562444960E+04  0.50400001928E-02 0. -1.
       -1   -1    0    0    0  501  0.00000000000E+00  0.00000000000E+00 -0.17544119574E+04  0.17544119574E+04  0.50400001928E-02 0.  1.
    10030    2    1    2    0    0  0.00000000000E+00  0.00000000000E+00 -0.39816746137E+03  0.31106564535E+04  0.30850682722E+04 0.  0.
        2    1    3    3  502    0 -0.58780481979E+03 -0.51008247916E+03 -0.15419381563E+04  0.17272150762E+04  0.25500000920E-02 0.  1.
       -2    1    3    3    0  502  0.58780481979E+03  0.51008247916E+03  0.11437706949E+04  0.13834413772E+04  0.25500000920E-02 0. -1.
</event>
<event>
 5   0  0.7971763E-06  0.3212171E+04  0.7818609E-02  0.8185610E-01
       -2   -1    0    0    0  501  0.00000000000E+00  0.00000000000E+00  0.16984887495E+04  0.16984887495E+04  0.25500000920E-02 0. -1.
        2   -1    0    0  501    0  0.00000000000E+00  0.00000000000E+00 -0.15187090133E+04  0.15187090133E+04  0.25500000920E-02 0.  1.
    10030    2    1    2    0    0  0.00000000000E+00  0.00000000000E+00  0.17977973623E+03  0.32171977629E+04  0.32121707134E+04 0.  0.
        1    1    3    3  502    0  0.62827030730E+03  0.10586239356E+04 -0.94327769032E+03  0.15508646031E+04  0.50400001928E-02 0.  1.
       -1    1    3    3    0  502 -0.62827030730E+03 -0.10586239356E+04  0.11230574266E+04  0.16663331598E+04  0.50400001928E-02 0. -1.
</event>
<event>
 5   0  0.2788054E-06  0.3242228E+04  0.7818609E-02  0.8177753E-01
        1   -1    0    0  501    0  0.00000000000E+00  0.00000000000E+00  0.25503399974E+04  0.25503399974E+04  0.50400001928E-02 0.  1.
       -1   -1    0    0    0  501  0.00000000000E+00  0.00000000000E+00 -0.10304547439E+04  0.10304547439E+04  0.50400001928E-02 0. -1.
    10030    2    1    2    0    0  0.00000000000E+00  0.00000000000E+00  0.15198852535E+04  0.35807947414E+04  0.32422275978E+04 0.  0.
        3    1    3    3  502    0 -0.90944057494E+03 -0.10106612821E+04 -0.21514048659E+03  0.13765187342E+04  0.10100000352E+00 0. -1.
       -3    1    3    3    0  502  0.90944057494E+03  0.10106612821E+04  0.17350257401E+04  0.22042760071E+04  0.10100000352E+00 0.  1.
</event>
<event>
 5   0  0.7952307E-06  0.3540988E+04  0.7818609E-02  0.8104144E-01
        2   -1    0    0  501    0  0.00000000000E+00  0.00000000000E+00  0.12664451327E+04  0.12664451327E+04  0.25500000920E-02 0. -1.
       -2   -1    0    0    0  501  0.00000000000E+00  0.00000000000E+00 -0.24751559945E+04  0.24751559945E+04  0.25500000920E-02 0.  1.
    10030    2    1    2    0    0  0.00000000000E+00  0.00000000000E+00 -0.12087108618E+04  0.37416011272E+04  0.35409881456E+04 0.  0.
        2    1    3    3  502    0 -0.15804419058E+04 -0.65158342355E+03 -0.11750057241E+03  0.17135238428E+04  0.25500000920E-02 0. -1.
       -2    1    3    3    0  502  0.15804419058E+04  0.65158342355E+03 -0.10912102894E+04  0.20280772843E+04  0.25500000920E-02 0.  1.
</event>
<event>
 5   0  0.2635798E-06  0.2098934E+04  0.7818609E-02  0.8561713E-01
        1   -1    0    0  501    0  0.00000000000E+00  0.00000000000E+00  0.14851745481E+04  0.14851745481E+04  0.50400001928E-02 0.  1.
       -1   -1    0    0    0  501  0.00000000000E+00  0.00000000000E+00 -0.74158340715E+03  0.74158340717E+03  0.50400001928E-02 0. -1.
    10030    2    1    2    0    0  0.00000000000E+00  0.00000000000E+00  0.74359114094E+03  0.22267579553E+04  0.20989338261E+04 0.  0.
        1    1    3    3  502    0  0.30464790060E+03 -0.81075921097E+03 -0.25695186325E+03  0.90341856388E+03  0.50400001928E-02 0. -1.
       -1    1    3    3    0  502 -0.30464790060E+03  0.81075921097E+03  0.10005430042E+04  0.13233393914E+04  0.50400001928E-02 0.  1.
</event>
<event>
 5   0  0.2788054E-06  0.3160114E+04  0.7818609E-02  0.8199431E-01
       -1   -1    0    0    0  501  0.00000000000E+00  0.00000000000E+00  0.10072875952E+04  0.10072875952E+04  0.50400001928E-02 0.  1.
        1   -1    0    0  501    0  0.00000000000E+00  0.00000000000E+00 -0.24785169353E+04  0.24785169353E+04  0.50400001928E-02 0. -1.
    10030    2    1    2    0    0  0.00000000000E+00  0.00000000000E+00 -0.14712293400E+04  0.34858045305E+04  0.31601135192E+04 0.  0.
        3    1    3    3  502    0  0.46801759914E+03  0.30072976844E+03 -0.23669179702E+04  0.24314151342E+04  0.10100000352E+00 0. -1.
       -3    1    3    3    0  502 -0.46801759914E+03 -0.30072976844E+03  0.89568863017E+03  0.10543893964E+04  0.10100000352E+00 0.  1.
</event>
<event>
 5   0  0.7510251E-06  0.3129294E+04  0.7818609E-02  0.8207744E-01
        2   -1    0    0  501    0  0.00000000000E+00  0.00000000000E+00  0.22509334775E+04  0.22509334775E+04  0.25500000920E-02 0. -1.
       -2   -1    0    0    0  501  0.00000000000E+00  0.00000000000E+00 -0.10876021192E+04  0.10876021192E+04  0.25500000920E-02 0.  1.
    10030    2    1    2    0    0  0.00000000000E+00  0.00000000000E+00  0.11633313583E+04  0.33385355967E+04  0.31292938630E+04 0.  0.
        3    1    3    3  502    0  0.12689470544E+04  0.85583369482E+03  0.92809658103E+03  0.17899835792E+04  0.10100000352E+00 0. -1.
       -3    1    3    3    0  502 -0.12689470544E+04 -0.85583369482E+03  0.23523477726E+03  0.15485520174E+04  0.10100000352E+00 0.  1.
</event>
<event>
 5   0  0.7941434E-06  0.2975329E+04  0.7818609E-02  0.8250811E-01
        2   -1    0    0  501    0  0.00000000000E+00  0.00000000000E+00  0.29500377693E+04  0.29500377693E+04  0.25500000920E-02 0. -1.
       -2   -1    0    0    0  501  0.00000000000E+00  0.00000000000E+00 -0.75020926996E+03  0.75020926996E+03  0.25500000920E-02 0.  1.
    10030    2    1    2    0    0  0.00000000000E+00  0.00000000000E+00  0.21998284994E+04  0.37002470393E+04  0.29753290113E+04 0.  0.
        4    1    3    3  502    0  0.46604826045E+03  0.75761972646E+03 -0.38307743546E+03  0.96847228429E+03  0.12699999809E+01 0.  1.
       -4    1    3    3    0  502 -0.46604826045E+03 -0.75761972646E+03  0.25829059348E+04  0.27317747550E+04  0.12699999809E+01 0. -1.
</event>
<event>
 5   0  0.2635798E-06  0.3243567E+04  0.7818609E-02  0.8177405E-01
        1   -1    0    0  501    0  0.00000000000E+00  0.00000000000E+00  0.11624165878E+04  0.11624165878E+04  0.50400001928E-02 0. -1.
       -1   -1    0    0    0  501  0.00000000000E+00  0.00000000000E+00 -0.22626846549E+04  0.22626846549E+04  0.50400001928E-02 0.  1.
    10030    2    1    2    0    0  0.00000000000E+00  0.00000000000E+00 -0.11002680672E+04  0.34251012427E+04  0.32435672805E+04 0.  0.
        1    1    3    3  502    0 -0.13815101031E+03 -0.14881987098E+04 -0.12149416724E+04  0.19261112036E+04  0.50400001928E-02 0.  1.
       -1    1    3    3    0  502  0.13815101031E+03  0.14881987098E+04  0.11467360522E+03  0.14989900391E+04  0.50400001928E-02 0. -1.
</event>
<event>
 5   0  0.4142886E-06  0.3137304E+04  0.7818609E-02  0.8205574E-01
       -1   -1    0    0    0  501  0.00000000000E+00  0.00000000000E+00  0.12756468700E+04  0.12756468700E+04  0.50400001928E-02 0.  1.
        1   -1    0    0  501    0  0.00000000000E+00  0.00000000000E+00 -0.19289576779E+04  0.19289576779E+04  0.50400001928E-02 0. -1.
    10030    2    1    2    0    0  0.00000000000E+00  0.00000000000E+00 -0.65331080783E+03  0.32046045479E+04  0.31373038260E+04 0.  0.
        5    1    3    3  502    0  0.85427721159E+02 -0.22117338177E+03 -0.19105418434E+04  0.19252033102E+04  0.46999998093E+01 0. -1.
       -5    1    3    3    0  502 -0.85427721159E+02  0.22117338177E+03  0.12572310355E+04  0.12794012377E+04  0.46999998093E+01 0.  1.
</event>
<event>
 5   0  0.7510251E-06  0.3190455E+04  0.7818609E-02  0.8191343E-01
       -2   -1    0    0    0  501  0.00000000000E+00  0.00000000000E+00  0.18689350859E+04  0.18689350859E+04  0.25500000920E-02 0.  1.
        2   -1    0    0  501    0  0.00000000000E+00  0.00000000000E+00 -0.13616046439E+04  0.13616046439E+04  0.25500000920E-02 0. -1.
    10030    2    1    2    0    0  0.00000000000E+00  0.00000000000E+00  0.50733044196E+03  0.32305397298E+04  0.31904549469E+04 0.  0.
        3    1    3    3  502    0 -0.15356846712E+04  0.40531174737E+03  0.10298134487E+03  0.15916061666E+04  0.10100000352E+00 0.  1.
       -3    1    3    3    0  502  0.15356846712E+04 -0.40531174737E+03  0.40434909709E+03  0.16389335632E+04  0.10100000352E+00 0. -1.
</event>
<event>
 5   0  0.3938696E-06  0.3295747E+04  0.7818609E-02  0.8163978E-01
       -1   -1    0    0    0  501  0.00000000000E+00  0.00000000000E+00  0.10736489603E+04  0.10736489603E+04  0.50400001928E-02 0.  1.
        1   -1    0    0  501    0  0.00000000000E+00  0.00000000000E+00 -0.25292138364E+04  0.25292138365E+04  0.50400001928E-02 0. -1.
    10030    2    1    2    0    0  0.00000000000E+00  0.00000000000E+00 -0.14555648761E+04  0.36028627968E+04  0.32957474454E+04 0.  0.
        4    1    3    3  502    0  0.79921267735E+03  0.32718164554E+03 -0.22620233595E+04  0.24212682678E+04  0.12699999809E+01 0. -1.
       -4    1    3    3    0  502 -0.79921267735E+03 -0.32718164554E+03  0.80645848334E+03  0.11815945290E+04  0.12699999809E+01 0.  1.
</event>
<event>
 5   0  0.7510251E-06  0.3197885E+04  0.7818609E-02  0.8189376E-01
        2   -1    0    0  501    0  0.00000000000E+00  0.00000000000E+00  0.22757544405E+04  0.22757544405E+04  0.25500000920E-02 0. -1.
       -2   -1    0    0    0  501  0.00000000000E+00  0.00000000000E+00 -0.11234153882E+04  0.11234153882E+04  0.25500000920E-02 0.  1.
    10030    2    1    2    0    0  0.00000000000E+00  0.00000000000E+00  0.11523390523E+04  0.33991698287E+04  0.31978852751E+04 0.  0.
        3    1    3    3  502    0 -0.60040919317E+03 -0.18579353026E+03  0.21389513965E+04  0.22293773843E+04  0.10100000352E+00 0. -1.
       -3    1    3    3    0  502  0.60040919317E+03  0.18579353026E+03 -0.98661234413E+03  0.11697924444E+04  0.10100000352E+00 0.  1.
</event>
<event>
 5   0  0.2933646E-06  0.3149185E+04  0.7818609E-02  0.8202368E-01
        1   -1    0    0  501    0  0.00000000000E+00  0.00000000000E+00  0.17678097804E+04  0.17678097805E+04  0.50400001928E-02 0. -1.
       -1   -1    0    0    0  501  0.00000000000E+00  0.00000000000E+00 -0.14024936691E+04  0.14024936692E+04  0.50400001928E-02 0.  1.
    10030    2    1    2    0    0  0.00000000000E+00  0.00000000000E+00  0.36531611131E+03  0.31703034496E+04  0.31491853076E+04 0.  0.
        2    1    3    3  502    0  0.83976625575E+03 -0.27257665337E+03  0.14951788974E+04  0.17363943480E+04  0.25500000920E-02 0. -1.
       -2    1    3    3    0  502 -0.83976625575E+03  0.27257665337E+03 -0.11298627861E+04  0.14339091016E+04  0.25500000920E-02 0.  1.
</event>
<event>
 5   0  0.8237664E-06  0.2852010E+04  0.7818609E-02  0.8287301E-01
       -2   -1    0    0    0  501  0.00000000000E+00  0.00000000000E+00  0.10508468378E+04  0.10508468378E+04  0.25500000920E-02 0.  1.
        2   -1    0    0  501    0  0.00000000000E+00  0.00000000000E+00 -0.19350965104E+04  0.19350965104E+04  0.25500000920E-02 0. -1.
    10030    2    1    2    0    0  0.00000000000E+00  0.00000000000E+00 -0.88424967257E+03  0.29859433482E+04  0.28520098519E+04 0.  0.
        5    1    3    3  502    0  0.54673967348E+03  0.80225120995E+03  0.65140418967E+03  0.11691367682E+04  0.46999998093E+01 0.  1.
       -5    1    3    3    0  502 -0.54673967348E+03 -0.80225120995E+03 -0.15356538622E+04  0.18168065800E+04  0.46999998093E+01 0. -1.
</event>
<event>
 5   0  0.2635798E-06  0.2652208E+04  0.7818609E-02  0.8350681E-01
       -1   -1    0    0    0  501  0.00000000000E+00  0.00000000000E+00  0.71993600851E+03  0.71993600853E+03  0.50400001928E-02 0.  1.
        1   -1    0    0  501    0  0.00000000000E+00  0.00000000000E+00 -0.24426498303E+04  0.24426498303E+04  0.50400001928E-02 0. -1.
    10030    2    1    2    0    0  0.00000000000E+00  0.00000000000E+00 -0.17227138218E+04  0.31625858388E+04  0.26522078117E+04 0.  0.
        1    1    3    3  502    0 -0.92754932405E+03  0.69545668598E+03 -0.93606612695E+02  0.11630863891E+04  0.50400001928E-02 0.  1.
       -1    1    3    3    0  502  0.92754932405E+03 -0.69545668598E+03 -0.16291072091E+04  0.19994994497E+04  0.50400001928E-02 0. -1.
</event>
<event>
 5   0  0.2635798E-06  0.1833978E+04  0.7818609E-02  0.8688436E-01
        1   -1    0    0  501    0  0.00000000000E+00  0.00000000000E+00  0.91680198947E+03  0.91680198949E+03  0.50400001928E-02 0.  1.
       -1   -1    0    0    0  501  0.00000000000E+00  0.00000000000E+00 -0.91717572799E+03  0.91717572801E+03  0.50400001928E-02 0. -1.
    10030    2    1    2    0    0  0.00000000000E+00  0.00000000000E+00 -0.37373851902E+00  0.18339777175E+04  0.18339776794E+04 0.  0.
        1    1    3    3  502    0  0.29687544829E+03 -0.84452841590E+03  0.19857242412E+03  0.91694835444E+03  0.50400001928E-02 0. -1.
       -1    1    3    3    0  502 -0.29687544829E+03  0.84452841590E+03 -0.19894616264E+03  0.91702936306E+03  0.50400001928E-02 0.  1.
</event>
<event>
 5   0  0.7510251E-06  0.3204710E+04  0.7818609E-02  0.8187574E-01
        2   -1    0    0  501    0  0.00000000000E+00  0.00000000000E+00  0.17744918394E+04  0.17744918394E+04  0.25500000920E-02 0.  1.
       -2   -1    0    0    0  501  0.00000000000E+00  0.00000000000E+00 -0.14469169131E+04  0.14469169131E+04  0.25500000920E-02 0. -1.
    10030    2    1    2    0    0  0.00000000000E+00  0.00000000000E+00  0.32757492629E+03  0.32214087525E+04  0.32047104422E+04 0.  0.
        3    1    3    3  502    0 -0.16939220905E+03  0.92583592773E+03 -0.11397642007E+04  0.14781503066E+04  0.10100000352E+00 0. -1.
       -3    1    3    3    0  502  0.16939220905E+03 -0.92583592773E+03  0.14673391270E+04  0.17432584459E+04  0.10100000352E+00 0.  1.
</event>
<event>
 5   0  0.3938696E-06  0.3143723E+04  0.7818609E-02  0.8203840E-01
       -1   -1    0    0    0  501  0.00000000000E+00  0.00000000000E+00  0.95407324022E+03  0.95407324024E+03  0.50400001928E-02 0.  1.
        1   -1    0    0  501    0  0.00000000000E+00  0.00000000000E+00 -0.25896844538E+04  0.25896844539E+04  0.50400001928E-02 0. -1.
    10030    2    1    2    0    0  0.00000000000E+00  0.00000000000E+00 -0.16356112136E+04  0.35437576941E+04  0.31437230400E+04 0.  0.
        4    1    3    3  502    0 -0.91538219781E+03 -0.20277187351E+03  0.60436327334E+03  0.11154808738E+04  0.12699999809E+01 0.  1.
       -4    1    3    3    0  502  0.91538219781E+03  0.20277187351E+03 -0.22399744870E+04  0.24282768203E+04  0.12699999809E+01 0. -1.
</event>
<event>
 5   0  0.2635798E-06  0.3013270E+04  0.7818609E-02  0.8239952E-01
        1   -1    0    0  501    0  0.00000000000E+00  0.00000000000E+00  0.17126989254E+04  0.17126989254E+04  0.50400001928E-02 0.  1.
       -1   -1    0    0    0  501  0.00000000000E+00  0.00000000000E+00 -0.13253635847E+04  0.13253635847E+04  0.50400001928E-02 0. -1.
    10030    2    1    2    0    0  0.00000000000E+00  0.00000000000E+00  0.38733534069E+03  0.30380625100E+04  0.30132698433E+04 0.  0.
        1    1    3    3  502    0 -0.72239529258E+03 -0.12673993672E+04 -0.18598422656E+03  0.14706278412E+04  0.50400001928E-02 0. -1.
       -1    1    3    3    0  502  0.72239529258E+03  0.12673993672E+04  0.57331956725E+03  0.15674346688E+04  0.50400001928E-02 0.  1.
</event>
<event>
 5   0  0.8237664E-06  0.2842650E+04  0.7818609E-02  0.8290148E-01
        2   -1    0    0  501    0  0.00000000000E+00  0.00000000000E+00  0.25222526264E+04  0.25222526264E+04  0.25500000920E-02 0.  1.
       -2   -1    0    0    0  501  0.00000000000E+00  0.00000000000E+00 -0.80093662521E+03  0.80093662521E+03  0.25500000920E-02 0. -1.
    10030    2    1    2    0    0  0.00000000000E+00  0.00000000000E+00  0.17213160012E+04  0.33231892516E+04  0.28426498248E+04 0.  0.
        5    1    3    3  502    0  0.39210821849E+03 -0.24408271280E+03 -0.71074948497E+03  0.84765095769E+03  0.46999998093E+01 0. -1.
       -5    1    3    3    0  502 -0.39210821849E+03  0.24408271280E+03  0.24320654862E+04  0.24755382939E+04  0.46999998093E+01 0.  1.
</event>
<event>
 5   0  0.2580875E-06  0.2308865E+04  0.7818609E-02  0.8474434E-01
        3   -1    0    0  501    0  0.00000000000E+00  0.00000000000E+00  0.53073719129E+03  0.53073720090E+03  0.10100000352E+00 0.  1.
       -3   -1    0    0    0  501  0.00000000000E+00  0.00000000000E+00 -0.25110631011E+04  0.25110631031E+04  0.10100000352E+00 0. -1.
    10030    2    1    2    0    0  0.00000000000E+00  0.00000000000E+00 -0.19803259098E+04  0.30418003040E+04  0.23088651716E+04 0.  0.
        4    1    3    3  502    0 -0.42780788699E+03 -0.10067763328E+04 -0.14761815748E+04  0.18373164744E+04  0.12699999809E+01 0. -1.
       -4    1    3    3    0  502  0.42780788699E+03  0.10067763328E+04 -0.50414433497E+03  0.12044838296E+04  0.12699999809E+01 0.  1.
</event>
<event>
 5   0  0.7510251E-06  0.3203624E+04  0.7818609E-02  0.8187861E-01
       -2   -1    0    0    0  501  0.00000000000E+00  0.00000000000E+00  0.19839543625E+04  0.19839543625E+04  0.25500000920E-02 0. -1.
        2   -1    0    0  501    0  0.00000000000E+00  0.00000000000E+00 -0.12932765308E+04  0.12932765308E+04  0.25500000920E-02 0.  1.
    10030    2    1    2    0    0  0.00000000000E+00  0.00000000000E+00  0.69067783176E+03  0.32772308933E+04  0.32036239574E+04 0.  0.
        3    1    3    3  502    0  0.48362852800E+03 -0.14615815540E+04 -0.10718717520E+03  0.15432453767E+04  0.10100000352E+00 0. -1.
       -3    1    3    3    0  502 -0.48362852800E+03  0.14615815540E+04  0.79786500696E+03  0.17339855165E+04  0.10100000352E+00 0.  1.
</event>
<event>
 5   0  0.2933646E-06  0.2187083E+04  0.7818609E-02  0.8523824E-01
        1   -1    0    0  501    0  0.00000000000E+00  0.00000000000E+00  0.18188036036E+04  0.18188036037E+04  0.50400001928E-02 0. -1.
       -1   -1    0    0    0  501  0.00000000000E+00  0.00000000000E+00 -0.65748354214E+03  0.65748354216E+03  0.50400001928E-02 0.  1.
    10030    2    1    2    0    0  0.00000000000E+00  0.00000000000E+00  0.11613200615E+04  0.24762871458E+04  0.21870833874E+04 0.  0.
        2    1    3    3  502    0 -0.36102119005E+03  0.23702686532E+03 -0.55683396160E+03  0.70468581321E+03  0.25500000920E-02 0.  1.
       -2    1    3    3    0  502  0.36102119005E+03 -0.23702686532E+03  0.17181540231E+04  0.17716013326E+04  0.25500000920E-02 0. -1.
</event>
<event>
 5   0  0.3938696E-06  0.3086689E+04  0.7818609E-02  0.8219400E-01
        1   -1    0    0  501    0  0.00000000000E+00  0.00000000000E+00  0.86666460544E+03  0.86666460546E+03  0.50400001928E-02 0.  1.
       -1   -1    0    0    0  501  0.00000000000E+00  0.00000000000E+00 -0.27483675142E+04  0.27483675142E+04  0.50400001928E-02 0. -1.
    10030    2    1    2    0    0  0.00000000000E+00  0.00000000000E+00 -0.18817029088E+04  0.36150321197E+04  0.30866893899E+04 0.  0.
        4    1    3    3  502    0  0.46200948576E+03 -0.25797124183E+03  0.75710370892E+03  0.92369343697E+03  0.12699999809E+01 0.  1.
       -4    1    3    3    0  502 -0.46200948576E+03  0.25797124183E+03 -0.26388066177E+04  0.26913386827E+04  0.12699999809E+01 0. -1.
</event>
<event>
 5   0  0.2635798E-06  0.3140039E+04  0.7818609E-02  0.8204835E-01
       -1   -1    0    0    0  501  0.00000000000E+00  0.00000000000E+00  0.12257092697E+04  0.12257092697E+04  0.50400001928E-02 0. -1.
        1   -1    0    0  501    0  0.00000000000E+00  0.00000000000E+00 -0.20110487913E+04  0.20110487913E+04  0.50400001928E-02 0.  1.
    10030    2    1    2    0    0  0.00000000000E+00  0.00000000000E+00 -0.78533952161E+03  0.32367580610E+04  0.31400389458E+04 0.  0.
        1    1    3    3  502    0 -0.55303847291E+02 -0.12549303821E+04 -0.13635146146E+04  0.18539365911E+04  0.50400001928E-02 0.  1.
       -1    1    3    3    0  502  0.55303847291E+02  0.12549303821E+04  0.57817509304E+03  0.13828214699E+04  0.50400001928E-02 0. -1.
</event>
<event>
 5   0  0.3938696E-06  0.3398963E+04  0.7818609E-02  0.8138161E-01
       -1   -1    0    0    0  501  0.00000000000E+00  0.00000000000E+00  0.21824974679E+04  0.21824974679E+04  0.50400001928E-02 0.  1.
        1   -1    0    0  501    0  0.00000000000E+00  0.00000000000E+00 -0.13233631482E+04  0.13233631482E+04  0.50400001928E-02 0. -1.
    10030    2    1    2    0    0  0.00000000000E+00  0.00000000000E+00  0.85913431968E+03  0.35058606161E+04  0.33989626183E+04 0.  0.
        4    1    3    3  502    0  0.12717682888E+04 -0.10847900439E+04  0.74592335210E+03  0.18304554843E+04  0.12699999809E+01 0.  1.
       -4    1    3    3    0  502 -0.12717682888E+04  0.10847900439E+04  0.11321096758E+03  0.16754051319E+04  0.12699999809E+01 0. -1.
</event>
<event>
 5   0  0.7952307E-06  0.3168036E+04  0.7818609E-02  0.8197310E-01
       -2   -1    0    0    0  501  0.00000000000E+00  0.00000000000E+00  0.87780959876E+03  0.87780959876E+03  0.25500000920E-02 0.  1.
        2   -1    0    0  501    0  0.00000000000E+00  0.00000000000E+00 -0.28583794078E+04  0.28583794078E+04  0.25500000920E-02 0. -1.
    10030    2    1    2    0    0  0.00000000000E+00  0.00000000000E+00 -0.19805698090E+04  0.37361890065E+04  0.31680359095E+04 0.  0.
        2    1    3    3  502    0 -0.10294172175E+04 -0.10728641434E+04 -0.34608538351E+03  0.15266015756E+04  0.25500000920E-02 0. -1.
       -2    1    3    3    0  502  0.10294172175E+04  0.10728641434E+04 -0.16344844255E+04  0.22095874310E+04  0.25500000920E-02 0.  1.
</event>
<event>
 5   0  0.7971763E-06  0.2248668E+04  0.7818609E-02  0.8498440E-01
       -2   -1    0    0    0  501  0.00000000000E+00  0.00000000000E+00  0.11409635367E+04  0.11409635367E+04  0.25500000920E-02 0.  1.
        2   -1    0    0  501    0  0.00000000000E+00  0.00000000000E+00 -0.11079472357E+04  0.11079472357E+04  0.25500000920E-02 0. -1.
    10030    2    1    2    0    0  0.00000000000E+00  0.00000000000E+00  0.33016301070E+02  0.22489107724E+04  0.22486684029E+04 0.  0.
        1    1    3    3  502    0 -0.71260060637E+03 -0.16859366099E+03 -0.83675667963E+03  0.11119285893E+04  0.50400001928E-02 0. -1.
       -1    1    3    3    0  502  0.71260060637E+03  0.16859366099E+03  0.86977298070E+03  0.11369821831E+04  0.50400001928E-02 0.  1.
</event>
<event>
 5   0  0.7510251E-06  0.3179931E+04  0.7818609E-02  0.8194138E-01
        2   -1    0    0  501    0  0.00000000000E+00  0.00000000000E+00  0.18071912069E+04  0.18071912069E+04  0.25500000920E-02 0. -1.
       -2   -1    0    0    0  501  0.00000000000E+00  0.00000000000E+00 -0.13988502737E+04  0.13988502737E+04  0.25500000920E-02 0.  1.
    10030    2    1    2    0    0  0.00000000000E+00  0.00000000000E+00  0.40834093324E+03  0.32060414806E+04  0.31799307630E+04 0.  0.
        3    1    3    3  502    0  0.85355188322E+03 -0.36922972505E+02  0.15561043990E+04  0.17752112647E+04  0.10100000352E+00 0. -1.
       -3    1    3    3    0  502 -0.85355188322E+03  0.36922972505E+02 -0.11477634658E+04  0.14308302160E+04  0.10100000352E+00 0.  1.
</event>
<event>
 5   0  0.7971763E-06  0.2045676E+04  0.7818609E-02  0.8585558E-01
        2   -1    0    0  501    0  0.00000000000E+00  0.00000000000E+00  0.12030483634E+04  0.12030483634E+04  0.25500000920E-02 0. -1.
       -2   -1    0    0    0  501  0.00000000000E+00  0.00000000000E+00 -0.86962245855E+03  0.86962245855E+03  0.25500000920E-02 0.  1.
    10030    2    1    2    0    0  0.00000000000E+00  0.00000000000E+00  0.33342590482E+03  0.20726708219E+04  0.20456762945E+04 0.  0.
        1    1    3    3  502    0 -0.90189275178E+03  0.47574754143E+03  0.85331076468E+02  0.10232436912E+04  0.50400001928E-02 0. -1.
       -1    1    3    3    0  502  0.90189275178E+03 -0.47574754143E+03  0.24809482835E+03  0.10494271308E+04  0.50400001928E-02 0.  1.
</event>
<event>
 5   0  0.7941434E-06  0.3272333E+04  0.7818609E-02  0.8169971E-01
       -2   -1    0    0    0  501  0.00000000000E+00  0.00000000000E+00  0.21124455499E+04  0.21124455499E+04  0.25500000920E-02 0.  1.
        2   -1    0    0  501    0  0.00000000000E+00  0.00000000000E+00 -0.12672705670E+04  0.12672705670E+04  0.25500000920E-02 0. -1.
    10030    2    1    2    0    0  0.00000000000E+00  0.00000000000E+00  0.84517498298E+03  0.33797161169E+04  0.32723325441E+04 0.  0.
        4    1    3    3  502    0  0.99501649073E+03  0.12752901347E+04  0.67686936223E+03  0.17534470311E+04  0.12699999809E+01 0. -1.
       -4    1    3    3    0  502 -0.99501649073E+03 -0.12752901347E+04  0.16830562075E+03  0.16262690858E+04  0.12699999809E+01 0.  1.
</event>
<event>
 5   0  0.2788054E-06  0.3200260E+04  0.7818609E-02  0.8188749E-01
        1   -1    0    0  501    0  0.00000000000E+00  0.00000000000E+00  0.19397140597E+04  0.19397140597E+04  0.50400001928E-02 0. -1.
       -1   -1    0    0    0  501  0.00000000000E+00  0.00000000000E+00 -0.13199964863E+04  0.13199964863E+04  0.50400001928E-02 0.  1.
    10030    2    1    2    0    0  0.00000000000E+00  0.00000000000E+00  0.61971757337E+03  0.32597105460E+04  0.32002598290E+04 0.  0.
        3    1    3    3  502    0 -0.50323792555E+03 -0.46749890710E+03  0.17819092279E+04  0.19097131053E+04  0.10100000352E+00 0. -1.
       -3    1    3    3    0  502  0.50323792555E+03  0.46749890710E+03 -0.11621916545E+04  0.13499974407E+04  0.10100000352E+00 0.  1.
</event>
<event>
 5   0  0.2635798E-06  0.3098108E+04  0.7818609E-02  0.8216257E-01
        1   -1    0    0  501    0  0.00000000000E+00  0.00000000000E+00  0.15635040685E+04  0.15635040685E+04  0.50400001928E-02 0. -1.
       -1   -1    0    0    0  501  0.00000000000E+00  0.00000000000E+00 -0.15347375907E+04  0.15347375908E+04  0.50400001928E-02 0.  1.
    10030    2    1    2    0    0  0.00000000000E+00  0.00000000000E+00  0.28766477731E+02  0.30982416592E+04  0.30981081112E+04 0.  0.
        1    1    3    3  502    0  0.36813872575E+03 -0.22920928157E+03 -0.14727939916E+04  0.15353127232E+04  0.50400001928E-02 0.  1.
       -1    1    3    3    0  502 -0.36813872575E+03  0.22920928157E+03  0.15015604693E+04  0.15629289361E+04  0.50400001928E-02 0. -1.
</event>
<event>
 5   0  0.2635798E-06  0.1973412E+04  0.7818609E-02  0.8619153E-01
       -1   -1    0    0    0  501  0.00000000000E+00  0.00000000000E+00  0.12117857383E+04  0.12117857383E+04  0.50400001928E-02 0.  1.
        1   -1    0    0  501    0  0.00000000000E+00  0.00000000000E+00 -0.80343344173E+03  0.80343344174E+03  0.50400001928E-02 0. -1.
    10030    2    1    2    0    0  0.00000000000E+00  0.00000000000E+00  0.40835229655E+03  0.20152191800E+04  0.19734124621E+04 0.  0.
        1    1    3    3  502    0  0.50204010928E+03  0.64447351671E+03 -0.36089894396E+03  0.89310605912E+03  0.50400001928E-02 0. -1.
       -1    1    3    3    0  502 -0.50204010928E+03 -0.64447351671E+03  0.76925124051E+03  0.11221131209E+04  0.50400001928E-02 0.  1.
</event>
<event>
 5   0  0.3938696E-06  0.3043110E+04  0.7818609E-02  0.8231527E-01
       -1   -1    0    0    0  501  0.00000000000E+00  0.00000000000E+00  0.21031391827E+04  0.21031391827E+04  0.50400001928E-02 0.  1.
        1   -1    0    0  501    0  0.00000000000E+00  0.00000000000E+00 -0.11007972890E+04  0.11007972890E+04  0.50400001928E-02 0. -1.
    10030    2    1    2    0    0  0.00000000000E+00  0.00000000000E+00  0.10023418937E+04  0.32039364718E+04  0.30431101924E+04 0.  0.
        4    1    3    3  502    0 -0.14233328891E+04  0.20998455223E+03  0.10224730701E+04  0.17650560380E+04  0.12699999809E+01 0. -1.
       -4    1    3    3    0  502  0.14233328891E+04 -0.20998455223E+03 -0.20131176442E+02  0.14388804337E+04  0.12699999809E+01 0.  1.
</event>
<event>
 5   0  0.2788054E-06  0.2239213E+04  0.7818609E-02  0.8502282E-01
       -1   -1    0    0    0  501  0.00000000000E+00  0.00000000000E+00  0.12472812582E+04  0.12472812582E+04  0.50400001928E-02 0. -1.
        1   -1    0    0  501    0  0.00000000000E+00  0.00000000000E+00 -0.10050006749E+04  0.10050006749E+04  0.50400001928E-02 0.  1.
    10030    2    1    2    0    0  0.00000000000E+00  0.00000000000E+00  0.24228058332E+03  0.22522819332E+04  0.22392128138E+04 0.  0.
        3    1    3    3  502    0  0.54709205688E+02  0.24019261518E+03  0.12196836131E+04  0.12443125475E+04  0.10100000352E+00 0. -1.
       -3    1    3    3    0  502 -0.54709205688E+02 -0.24019261518E+03 -0.97740302981E+03  0.10079693857E+04  0.10100000352E+00 0.  1.
</event>
<event>
 5   0  0.7941434E-06  0.1961756E+04  0.7818609E-02  0.8624712E-01
        2   -1    0    0  501    0  0.00000000000E+00  0.00000000000E+00  0.15068352352E+04  0.15068352352E+04  0.25500000920E-02 0.  1.
       -2   -1    0    0    0  501  0.00000000000E+00  0.00000000000E+00 -0.63850519868E+03  0.63850519869E+03  0.25500000920E-02 0. -1.
    10030    2    1    2    0    0  0.00000000000E+00  0.00000000000E+00  0.86833003654E+03  0.21453404339E+04  0.19617564897E+04 0.  0.
        4    1    3    3  502    0  0.53575146250E+03 -0.71188327964E+03 -0.14487448770E+02  0.89107739982E+03  0.12699999809E+01 0. -1.
       -4    1    3    3    0  502 -0.53575146250E+03  0.71188327964E+03  0.88281748531E+03  0.12542630341E+04  0.12699999809E+01 0.  1.
</event>
<event>
 5   0  0.2933646E-06  0.3077684E+04  0.7818609E-02  0.8221889E-01
       -1   -1    0    0    0  501  0.00000000000E+00  0.00000000000E+00  0.96692273109E+03  0.96692273110E+03  0.50400001928E-02 0.  1.
        1   -1    0    0  501    0  0.00000000000E+00  0.00000000000E+00 -0.24490416171E+04  0.24490416171E+04  0.50400001928E-02 0. -1.
    10030    2    1    2    0    0  0.00000000000E+00  0.00000000000E+00 -0.14821188860E+04  0.34159643482E+04  0.30776835503E+04 0.  0.
        2    1    3    3  502    0  0.49360836931E+03  0.74714045552E+03  0.64795976588E+03  0.11053144081E+04  0.25500000920E-02 0.  1.
       -2    1    3    3    0  502 -0.49360836931E+03 -0.74714045552E+03 -0.21300786519E+04  0.23106499401E+04  0.25500000920E-02 0. -1.
</event>
<event>
 5   0  0.2788054E-06  0.3220091E+04  0.7818609E-02  0.8183531E-01
        1   -1    0    0  501    0  0.00000000000E+00  0.00000000000E+00  0.23937740346E+04  0.23937740346E+04  0.50400001928E-02 0.  1.
       -1   -1    0    0    0  501  0.00000000000E+00  0.00000000000E+00 -0.10829116984E+04  0.10829116984E+04  0.50400001928E-02 0. -1.
    10030    2    1    2    0    0  0.00000000000E+00  0.00000000000E+00  0.13108623362E+04  0.34766857331E+04  0.32200906233E+04 0.  0.
        3    1    3    3  502    0  0.11885518990E+04  0.16876183251E+03  0.18138235753E+04  0.21751073870E+04  0.10100000352E+00 0.  1.
       -3    1    3    3    0  502 -0.11885518990E+04 -0.16876183251E+03 -0.50296123907E+03  0.13015783461E+04  0.10100000352E+00 0. -1.
</event>
<event>
 5   0  0.8237664E-06  0.3329307E+04  0.7818609E-02  0.8155478E-01
        2   -1    0    0  501    0  0.00000000000E+00  0.00000000000E+00  0.20639876399E+04  0.20639876399E+04  0.25500000920E-02 0. -1.
       -2   -1    0    0    0  501  0.00000000000E+00  0.00000000000E+00 -0.13425811036E+04  0.13425811036E+04  0.25500000920E-02 0.  1.
    10030    2    1    2    0    0  0.00000000000E+00  0.00000000000E+00  0.72140653627E+03  0.34065687435E+04  0.33293067167E+04 0.  0.
        5    1    3    3  502    0 -0.65419046818E+03 -0.14350277573E+04  0.90577465654E+03  0.18187137354E+04  0.46999998093E+01 0. -1.
       -5    1    3    3    0  502  0.65419046818E+03  0.14350277573E+04 -0.18436812027E+03  0.15878550081E+04  0.46999998093E+01 0.  1.
</event>
<event>
 5   0  0.2933646E-06  0.1749828E+04  0.7818609E-02  0.8733445E-01
       -1   -1    0    0    0  501  0.00000000000E+00  0.00000000000E+00  0.91921187392E+03  0.91921187393E+03  0.50400001928E-02 0. -1.
        1   -1    0    0  501    0  0.00000000000E+00  0.00000000000E+00 -0.83275045881E+03  0.83275045882E+03  0.50400001928E-02 0.  1.
    10030    2    1    2    0    0  0.00000000000E+00  0.00000000000E+00  0.86461415112E+02  0.17519623328E+04  0.17498275455E+04 0.  0.
        2    1    3    3  502    0 -0.35641388646E+03  0.72056531026E+03 -0.30248591132E+03  0.85891964197E+03  0.25500000920E-02 0.  1.
       -2    1    3    3    0  502  0.35641388646E+03 -0.72056531026E+03  0.38894732643E+03  0.89304269078E+03  0.25500000920E-02 0. -1.
</event>
<event>
 5   0  0.4142886E-06  0.3131170E+04  0.7818609E-02  0.8207235E-01
       -1   -1    0    0    0  501  0.00000000000E+00  0.00000000000E+00  0.10368919544E+04  0.10368919544E+04  0.50400001928E-02 0. -1.
        1   -1    0    0  501    0  0.00000000000E+00  0.00000000000E+00 -0.23638501097E+04  0.23638501097E+04  0.50400001928E-02 0.  1.
    10030    2    1    2    0    0  0.00000000000E+00  0.00000000000E+00 -0.13269581553E+04  0.34007420641E+04  0.31311704905E+04 0.  0.
        5    1    3    3  502    0  0.14256559351E+03 -0.14591700374E+04 -0.67083592240E+02  0.14676595126E+04  0.46999998093E+01 0. -1.
       -5    1    3    3    0  502 -0.14256559351E+03  0.14591700374E+04 -0.12598745631E+04  0.19330825516E+04  0.46999998093E+01 0.  1.
</event>
<event>
 5   0  0.2580875E-06  0.3202755E+04  0.7818609E-02  0.8188090E-01
        3   -1    0    0  501    0  0.00000000000E+00  0.00000000000E+00  0.16912319678E+04  0.16912319708E+04  0.10100000352E+00 0.  1.
       -3   -1    0    0    0  501  0.00000000000E+00  0.00000000000E+00 -0.15162972702E+04  0.15162972736E+04  0.10100000352E+00 0. -1.
    10030    2    1    2    0    0  0.00000000000E+00  0.00000000000E+00  0.17493469759E+03  0.32075292444E+04  0.32027553302E+04 0.  0.
        3    1    3    3  502    0 -0.11912350942E+04  0.86131247234E+03  0.72363871258E+03  0.16384606255E+04  0.10100000352E+00 0.  1.
       -3    1    3    3    0  502  0.11912350942E+04 -0.86131247234E+03 -0.54870401500E+03  0.15690686189E+04  0.10100000352E+00 0. -1.
</event>
<event>
 5   0  0.7952307E-06  0.3223871E+04  0.7818609E-02  0.8182541E-01
       -2   -1    0    0    0  501  0.00000000000E+00  0.00000000000E+00  0.14295393860E+04  0.14295393860E+04  0.25500000920E-02 0. -1.
        2   -1    0    0  501    0  0.00000000000E+00  0.00000000000E+00 -0.18176034335E+04  0.18176034335E+04  0.25500000920E-02 0.  1.
    10030    2    1    2    0    0  0.00000000000E+00  0.00000000000E+00 -0.38806404756E+03  0.32471428195E+04  0.32238707768E+04 0.  0.
        2    1    3    3  502    0  0.92944735690E+03 -0.11663722758E+04  0.42197011644E+03  0.15499533717E+04  0.25500000920E-02 0.  1.
       -2    1    3    3    0  502 -0.92944735690E+03  0.11663722758E+04 -0.81003416400E+03  0.16971894479E+04  0.25500000920E-02 0. -1.
</event>
<event>
 5   0  0.7952307E-06  0.3162755E+04  0.7818609E-02  0.8198723E-01
        2   -1    0    0  501    0  0.00000000000E+00  0.00000000000E+00  0.21138782967E+04  0.21138782967E+04  0.25500000920E-02 0.  1.
       -2   -1    0    0    0  501  0.00000000000E+00  0.00000000000E+00 -0.11830173343E+04  0.11830173343E+04  0.25500000920E-02 0. -1.
    10030    2    1    2    0    0  0.00000000000E+00  0.00000000000E+00  0.93086096241E+03  0.32968956310E+04  0.31627549178E+04 0.  0.
        2    1    3    3  502    0 -0.48546264872E+03 -0.76219017277E+03  0.18182181465E+04  0.20304002244E+04  0.25500000920E-02 0.  1.
       -2    1    3    3    0  502  0.48546264872E+03  0.76219017277E+03 -0.88735718409E+03  0.12664954066E+04  0.25500000920E-02 0. -1.
</event>
<event>
 5   0  0.8237664E-06  0.3298165E+04  0.7818609E-02  0.8163363E-01
       -2   -1    0    0    0  501  0.00000000000E+00  0.00000000000E+00  0.98647955149E+03  0.98647955149E+03  0.25500000920E-02 0.  1.
        2   -1    0    0  501    0  0.00000000000E+00  0.00000000000E+00 -0.27567449165E+04  0.27567449165E+04  0.25500000920E-02 0. -1.
    10030    2    1    2    0    0  0.00000000000E+00  0.00000000000E+00 -0.17702653651E+04  0.37432244680E+04  0.32981646344E+04 0.  0.
        5    1    3    3  502    0  0.52364611680E+03 -0.13806571689E+04 -0.51872975658E+02  0.14775426793E+04  0.46999998093E+01 0.  1.
       -5    1    3    3    0  502 -0.52364611680E+03  0.13806571689E+04 -0.17183923894E+04  0.22656817887E+04  0.46999998093E+01 0. -1.
</event>
<event>
 5   0  0.7941434E-06  0.1782135E+04  0.7818609E-02  0.8715858E-01
        2   -1    0    0  501    0  0.00000000000E+00  0.00000000000E+00  0.77676121096E+03  0.77676121096E+03  0.25500000920E-02 0.  1.
       -2   -1    0    0    0  501  0.00000000000E+00  0.00000000000E+00 -0.10221950125E+04  0.10221950125E+04  0.25500000920E-02 0. -1.
    10030    2    1    2    0    0  0.00000000000E+00  0.00000000000E+00 -0.24543380154E+03  0.17989562235E+04  0.17821351641E+04 0.  0.
        4    1    3    3  502    0 -0.60066961806E+03 -0.43911300561E+03 -0.61762566793E+03  0.96699912117E+03  0.12699999809E+01 0. -1.
       -4    1    3    3    0  502  0.60066961806E+03  0.43911300561E+03  0.37219186638E+03  0.83195710230E+03  0.12699999809E+01 0.  1.
</event>
<event>
 5   0  0.2788054E-06  0.3251567E+04  0.7818609E-02  0.8175330E-01
       -1   -1    0    0    0  501  0.00000000000E+00  0.00000000000E+00  0.19571115976E+04  0.19571115976E+04  0.50400001928E-02 0. -1.
        1   -1    0    0  501    0  0.00000000000E+00  0.00000000000E+00 -0.13505476978E+04  0.13505476978E+04  0.50400001928E-02 0.  1.
    10030    2    1    2    0    0  0.00000000000E+00  0.00000000000E+00  0.60656389980E+03  0.33076592953E+04  0.32515673527E+04 0.  0.
        3    1    3    3  502    0  0.63590033889E+03  0.49428723097E+02  0.18245259670E+04  0.19327978307E+04  0.10100000352E+00 0. -1.
       -3    1    3    3    0  502 -0.63590033889E+03 -0.49428723097E+02 -0.12179620672E+04  0.13748614647E+04  0.10100000352E+00 0.  1.
</event>
<event>
 5   0  0.7941434E-06  0.1715490E+04  0.7818609E-02  0.8752579E-01
       -2   -1    0    0    0  501  0.00000000000E+00  0.00000000000E+00  0.52857895074E+03  0.52857895075E+03  0.25500000920E-02 0. -1.
        2   -1    0    0  501    0  0.00000000000E+00  0.00000000000E+00 -0.13918958166E+04  0.13918958166E+04  0.25500000920E-02 0.  1.
    10030    2    1    2    0    0  0.00000000000E+00  0.00000000000E+00 -0.86331686584E+03  0.19204747673E+04  0.17154904025E+04 0.  0.
        4    1    3    3  502    0  0.49675257024E+03  0.58850054581E+03 -0.88685859271E+01  0.77017937727E+03  0.12699999809E+01 0. -1.
       -4    1    3    3    0  502 -0.49675257024E+03 -0.58850054581E+03 -0.85444827991E+03  0.11502953901E+04  0.12699999809E+01 0.  1.
</event>
<event>
 5   0  0.3938696E-06  0.3263549E+04  0.7818609E-02  0.8172233E-01
       -1   -1    0    0    0  501  0.00000000000E+00  0.00000000000E+00  0.12432971138E+04  0.12432971138E+04  0.50400001928E-02 0. -1.
        1   -1    0    0  501    0  0.00000000000E+00  0.00000000000E+00 -0.21416338690E+04  0.21416338690E+04  0.50400001928E-02 0.  1.
    10030    2    1    2    0    0  0.00000000000E+00  0.00000000000E+00 -0.89833675513E+03  0.33849309828E+04  0.32635485032E+04 0.  0.
        4    1    3    3  502    0  0.13338611960E+04  0.63347072201E+03 -0.11694129452E+04  0.18836133083E+04  0.12699999809E+01 0.  1.
       -4    1    3    3    0  502 -0.13338611960E+04 -0.63347072201E+03  0.27107619012E+03  0.15013176745E+04  0.12699999809E+01 0. -1.
</event>
<event>
 5   0  0.7971763E-06  0.3200411E+04  0.7818609E-02  0.8188709E-01
       -2   -1    0    0    0  501  0.00000000000E+00  0.00000000000E+00  0.22280883159E+04  0.22280883159E+04  0.25500000920E-02 0. -1.
        2   -1    0    0  501    0  0.00000000000E+00  0.00000000000E+00 -0.11492622736E+04  0.11492622736E+04  0.25500000920E-02 0.  1.
    10030    2    1    2    0    0  0.00000000000E+00  0.00000000000E+00  0.10788260423E+04  0.33773505895E+04  0.32004111259E+04 0.  0.
        1    1    3    3  502    0 -0.26019568646E+03 -0.57788169350E+03 -0.10111791245E+04  0.11933701307E+04  0.50400001928E-02 0.  1.
       -1    1    3    3    0  502  0.26019568646E+03  0.57788169350E+03  0.20900051668E+04  0.21839804588E+04  0.50400001928E-02 0. -1.
</event>
<event>
 5   0  0.4142886E-06  0.3246420E+04  0.7818609E-02  0.8176664E-01
       -1   -1    0    0    0  501  0.00000000000E+00  0.00000000000E+00  0.20543097076E+04  0.20543097076E+04  0.50400001928E-02 0. -1.
        1   -1    0    0  501    0  0.00000000000E+00  0.00000000000E+00 -0.12825773165E+04  0.12825773165E+04  0.50400001928E-02 0.  1.
    10030    2    1    2    0    0  0.00000000000E+00  0.00000000000E+00  0.77173239111E+03  0.33368870241E+04  0.32464202020E+04 0.  0.
        5    1    3    3  502    0  0.15896909799E+04  0.27215496537E+03  0.57428624933E+03  0.17120200124E+04  0.46999998093E+01 0. -1.
       -5    1    3    3    0  502 -0.15896909799E+04 -0.27215496537E+03  0.19744614178E+03  0.16248670117E+04  0.46999998093E+01 0.  1.
</event>
<event>
 5   0  0.7510251E-06  0.3246638E+04  0.7818609E-02  0.8176608E-01
        2   -1    0    0  501    0  0.00000000000E+00  0.00000000000E+00  0.25789523510E+04  0.25789523510E+04  0.25500000920E-02 0.  1.
       -2   -1    0    0    0  501  0.00000000000E+00  0.00000000000E+00 -0.10217966409E+04  0.10217966409E+04  0.25500000920E-02 0. -1.
    10030    2    1    2    0    0  0.00000000000E+00  0.00000000000E+00  0.15571557100E+04  0.36007489919E+04  0.32466381686E+04 0.  0.
        3    1    3    3  502    0 -0.72158933467E+03  0.14470880669E+04  0.62013293800E+03  0.17318544720E+04  0.10100000352E+00 0.  1.
       -3    1    3    3    0  502  0.72158933467E+03 -0.14470880669E+04  0.93702277204E+03  0.18688945199E+04  0.10100000352E+00 0. -1.
</event>
<event>
 5   0  0.2580875E-06  0.3105951E+04  0.7818609E-02  0.8214107E-01
       -3   -1    0    0    0  501  0.00000000000E+00  0.00000000000E+00  0.18486103309E+04  0.18486103337E+04  0.10100000352E+00 0. -1.
        3   -1    0    0  501    0  0.00000000000E+00  0.00000000000E+00 -0.13046196303E+04  0.13046196342E+04  0.10100000352E+00 0.  1.
    10030    2    1    2    0    0  0.00000000000E+00  0.00000000000E+00  0.54399070061E+03  0.31532299679E+04  0.31059512791E+04 0.  0.
        1    1    3    3  502    0  0.25762087556E+03 -0.34363546795E+03  0.17871200042E+04  0.18380021109E+04  0.50400001928E-02 0. -1.
       -1    1    3    3    0  502 -0.25762087556E+03  0.34363546795E+03 -0.12431293036E+04  0.13152278570E+04  0.50400001928E-02 0.  1.
</event>
<event>
 5   0  0.7971763E-06  0.3290583E+04  0.7818609E-02  0.8165296E-01
       -2   -1    0    0    0  501  0.00000000000E+00  0.00000000000E+00  0.14440849132E+04  0.14440849133E+04  0.25500000920E-02 0. -1.
        2   -1    0    0  501    0  0.00000000000E+00  0.00000000000E+00 -0.18745328941E+04  0.18745328941E+04  0.25500000920E-02 0.  1.
    10030    2    1    2    0    0  0.00000000000E+00  0.00000000000E+00 -0.43044798086E+03  0.33186178074E+04  0.32905833354E+04 0.  0.
        1    1    3    3  502    0  0.10999376710E+04  0.93345243660E+03 -0.10130314245E+04  0.17627901176E+04  0.50400001928E-02 0.  1.
       -1    1    3    3    0  502 -0.10999376710E+04 -0.93345243660E+03  0.58258344365E+03  0.15558276898E+04  0.50400001928E-02 0. -1.
</event>
<event>
 5   0  0.7510251E-06  0.3224722E+04  0.7818609E-02  0.8182318E-01
       -2   -1    0    0    0  501  0.00000000000E+00  0.00000000000E+00  0.15889741503E+04  0.15889741503E+04  0.25500000920E-02 0. -1.
        2   -1    0    0  501    0  0.00000000000E+00  0.00000000000E+00 -0.16360921276E+04  0.16360921276E+04  0.25500000920E-02 0.  1.
    10030    2    1    2    0    0  0.00000000000E+00  0.00000000000E+00 -0.47117977315E+02  0.32250662779E+04  0.32247220644E+04 0.  0.
        3    1    3    3  502    0 -0.24798326910E+03 -0.11780388574E+04 -0.10962576648E+04  0.16282051864E+04  0.10100000352E+00 0.  1.
       -3    1    3    3    0  502  0.24798326910E+03  0.11780388574E+04  0.10491396874E+04  0.15968610914E+04  0.10100000352E+00 0. -1.
</event>
<event>
 5   0  0.3938696E-06  0.3333718E+04  0.7818609E-02  0.8154369E-01
       -1   -1    0    0    0  501  0.00000000000E+00  0.00000000000E+00  0.11263516747E+04  0.11263516747E+04  0.50400001928E-02 0.  1.
        1   -1    0    0  501    0  0.00000000000E+00  0.00000000000E+00 -0.24667413928E+04  0.24667413928E+04  0.50400001928E-02 0. -1.
    10030    2    1    2    0    0  0.00000000000E+00  0.00000000000E+00 -0.13403897181E+04  0.35930930675E+04  0.33337176238E+04 0.  0.
        4    1    3    3  502    0  0.38773881128E+03 -0.79507674619E+03 -0.21928870479E+04  0.23645810699E+04  0.12699999809E+01 0. -1.
       -4    1    3    3    0  502 -0.38773881128E+03  0.79507674619E+03  0.85249732981E+03  0.12285119976E+04  0.12699999809E+01 0.  1.
</event>
<event>
 5   0  0.2933646E-06  0.3181402E+04  0.7818609E-02  0.8193746E-01
        1   -1    0    0  501    0  0.00000000000E+00  0.00000000000E+00  0.17047948750E+04  0.17047948750E+04  0.50400001928E-02 0.  1.
       -1   -1    0    0    0  501  0.00000000000E+00  0.00000000000E+00 -0.14842431656E+04  0.14842431656E+04  0.50400001928E-02 0. -1.
    10030    2    1    2    0    0  0.00000000000E+00  0.00000000000E+00  0.22055170945E+03  0.31890380406E+04  0.31814022958E+04 0.  0.
        2    1    3    3  502    0  0.12233321672E+04 -0.86853228922E+03  0.64016565705E+03  0.16311658399E+04  0.25500000920E-02 0.  1.
       -2    1    3    3    0  502 -0.12233321672E+04  0.86853228922E+03 -0.41961394760E+03  0.15578722007E+04  0.25500000920E-02 0. -1.
</event>
<event>
 5   0  0.7941434E-06  0.3219265E+04  0.7818609E-02  0.8183748E-01
       -2   -1    0    0    0  501  0.00000000000E+00  0.00000000000E+00  0.16168562022E+04  0.16168562022E+04  0.25500000920E-02 0. -1.
        2   -1    0    0  501    0  0.00000000000E+00  0.00000000000E+00 -0.16024412854E+04  0.16024412854E+04  0.25500000920E-02 0.  1.
    10030    2    1    2    0    0  0.00000000000E+00  0.00000000000E+00  0.14414916850E+02  0.32192974876E+04  0.32192652149E+04 0.  0.
        4    1    3    3  502    0 -0.63042815883E+03  0.13049285407E+04  0.70766958836E+03  0.16127851745E+04  0.12699999809E+01 0.  1.
       -4    1    3    3    0  502  0.63042815883E+03 -0.13049285407E+04 -0.69325467151E+03  0.16065123132E+04  0.12699999809E+01 0. -1.
</event>
<event>
 5   0  0.7971763E-06  0.2997195E+04  0.7818609E-02  0.8244532E-01
       -2   -1    0    0    0  501  0.00000000000E+00  0.00000000000E+00  0.11626333275E+04  0.11626333275E+04  0.25500000920E-02 0.  1.
        2   -1    0    0  501    0  0.00000000000E+00  0.00000000000E+00 -0.19316448517E+04  0.19316448517E+04  0.25500000920E-02 0. -1.
    10030    2    1    2    0    0  0.00000000000E+00  0.00000000000E+00 -0.76901152423E+03  0.30942781793E+04  0.29971951432E+04 0.  0.
        1    1    3    3  502    0  0.16521986149E+03  0.98042073271E+03  0.77309552849E+03  0.12594439694E+04  0.50400001928E-02 0.  1.
       -1    1    3    3    0  502 -0.16521986149E+03 -0.98042073271E+03 -0.15421070527E+04  0.18348342099E+04  0.50400001928E-02 0. -1.
</event>
<event>
 5   0  0.2635798E-06  0.3160742E+04  0.7818609E-02  0.8199263E-01
       -1   -1    0    0    0  501  0.00000000000E+00  0.00000000000E+00  0.16467491663E+04  0.16467491663E+04  0.50400001928E-02 0. -1.
        1   -1    0    0  501    0  0.00000000000E+00  0.00000000000E+00 -0.15166684219E+04  0.15166684219E+04  0.50400001928E-02 0.  1.
    10030    2    1    2    0    0  0.00000000000E+00  0.00000000000E+00  0.13008074443E+03  0.31634175882E+04  0.31607419757E+04 0.  0.
        1    1    3    3  502    0  0.14342990347E+04  0.66270843440E+03  0.30714557071E+02  0.15802973056E+04  0.50400001928E-02 0. -1.
       -1    1    3    3    0  502 -0.14342990347E+04 -0.66270843440E+03  0.99366187359E+02  0.15831202826E+04  0.50400001928E-02 0.  1.
</event>
<event>
 5   0  0.8237664E-06  0.3253390E+04  0.7818609E-02  0.8174858E-01
       -2   -1    0    0    0  501  0.00000000000E+00  0.00000000000E+00  0.10356472631E+04  0.10356472631E+04  0.25500000920E-02 0. -1.
        2   -1    0    0  501    0  0.00000000000E+00  0.00000000000E+00 -0.25550555940E+04  0.25550555940E+04  0.25500000920E-02 0.  1.
    10030    2    1    2    0    0  0.00000000000E+00  0.00000000000E+00 -0.15194083309E+04  0.35907028571E+04  0.32533898217E+04 0.  0.
        5    1    3    3  502    0  0.31618986124E+03 -0.11607741245E+04  0.44868315758E+03  0.12840215194E+04  0.46999998093E+01 0. -1.
       -5    1    3    3    0  502 -0.31618986124E+03  0.11607741245E+04 -0.19680914885E+04  0.23066813377E+04  0.46999998093E+01 0.  1.
</event>
<event>
 5   0  0.3938696E-06  0.3292432E+04  0.7818609E-02  0.8164824E-01
        1   -1    0    0  501    0  0.00000000000E+00  0.00000000000E+00  0.16176213266E+04  0.16176213266E+04  0.50400001928E-02 0. -1.
       -1   -1    0    0    0  501  0.00000000000E+00  0.00000000000E+00 -0.16753160553E+04  0.16753160553E+04  0.50400001928E-02 0.  1.
    10030    2    1    2    0    0  0.00000000000E+00  0.00000000000E+00 -0.57694728722E+02  0.32929373819E+04  0.32924319157E+04 0.  0.
        4    1    3    3  502    0 -0.10605763856E+04  0.12106180062E+04 -0.37474311196E+03  0.16525290434E+04  0.12699999809E+01 0.  1.
       -4    1    3    3    0  502  0.10605763856E+04 -0.12106180062E+04  0.31704838324E+03  0.16404083384E+04  0.12699999809E+01 0. -1.
</event>
<event>
 5   0  0.4142886E-06  0.3202779E+04  0.7818609E-02  0.8188084E-01
       -1   -1    0    0    0  501  0.00000000000E+00  0.00000000000E+00  0.14218948333E+04  0.14218948333E+04  0.50400001928E-02 0.  1.
        1   -1    0    0  501    0  0.00000000000E+00  0.00000000000E+00 -0.18035433471E+04  0.18035433471E+04  0.50400001928E-02 0. -1.
    10030    2    1    2    0    0  0.00000000000E+00  0.00000000000E+00 -0.38164851374E+03  0.32254381804E+04  0.32027793973E+04 0.  0.
        5    1    3    3  502    0  0.77657812921E+03  0.13846042369E+04 -0.40260800931E+03  0.16377783069E+04  0.46999998093E+01 0.  1.
       -5    1    3    3    0  502 -0.77657812921E+03 -0.13846042369E+04  0.20959495578E+02  0.15876598735E+04  0.46999998093E+01 0. -1.
</event>
<event>
 5   0  0.2933646E-06  0.3148593E+04  0.7818609E-02  0.8202527E-01
       -1   -1    0    0    0  501  0.00000000000E+00  0.00000000000E+00  0.13917202201E+04  0.13917202201E+04  0.50400001928E-02 0. -1.
        1   -1    0    0  501    0  0.00000000000E+00  0.00000000000E+00 -0.17808250635E+04  0.17808250635E+04  0.50400001928E-02 0.  1.
    10030    2    1    2    0    0  0.00000000000E+00  0.00000000000E+00 -0.38910484348E+03  0.31725452836E+04  0.31485934951E+04 0.  0.
        2    1    3    3  502    0 -0.15219014002E+03 -0.14357775017E+03  0.13776485595E+04  0.13934460745E+04  0.25500000920E-02 0. -1.
       -2    1    3    3    0  502  0.15219014002E+03  0.14357775017E+03 -0.17667534030E+04  0.17790992091E+04  0.25500000920E-02 0.  1.
</event>
<event>
 5   0  0.7941434E-06  0.3104468E+04  0.7818609E-02  0.8214513E-01
       -2   -1    0    0    0  501  0.00000000000E+00  0.00000000000E+00  0.14125857460E+04  0.14125857460E+04  0.25500000920E-02 0.  1.
        2   -1    0    0  501    0  0.00000000000E+00  0.00000000000E+00 -0.17056881086E+04  0.17056881086E+04  0.25500000920E-02 0. -1.
    10030    2    1    2    0    0  0.00000000000E+00  0.00000000000E+00 -0.29310236265E+03  0.31182738546E+04  0.31044682052E+04 0.  0.
        4    1    3    3  502    0  0.10287224021E+04  0.97195304878E+03  0.49383132914E+03  0.14989441297E+04  0.12699999809E+01 0.  1.
       -4    1    3    3    0  502 -0.10287224021E+04 -0.97195304878E+03 -0.78693369180E+03  0.16193297248E+04  0.12699999809E+01 0. -1.
</event>
<event>
 5   0  0.2635798E-06  0.1893516E+04  0.7818609E-02  0.8658091E-01
        1   -1    0    0  501    0  0.00000000000E+00  0.00000000000E+00  0.14014557901E+04  0.14014557901E+04  0.50400001928E-02 0.  1.
       -1   -1    0    0    0  501  0.00000000000E+00  0.00000000000E+00 -0.63958537005E+03  0.63958537007E+03  0.50400001928E-02 0. -1.
    10030    2    1    2    0    0  0.00000000000E+00  0.00000000000E+00  0.76187042002E+03  0.20410411601E+04  0.18935159045E+04 0.  0.
        1    1    3    3  502    0  0.16464417597E+03 -0.58001207302E+03 -0.40588715516E+03  0.72681916065E+03  0.50400001928E-02 0. -1.
       -1    1    3    3    0  502 -0.16464417597E+03  0.58001207302E+03  0.11677575752E+04  0.13142219995E+04  0.50400001928E-02 0.  1.
</event>
<event>
 5   0  0.4142886E-06  0.1645310E+04  0.7818609E-02  0.8793186E-01
        1   -1    0    0  501    0  0.00000000000E+00  0.00000000000E+00  0.16404735696E+04  0.16404735696E+04  0.50400001928E-02 0. -1.
       -1   -1    0    0    0  501  0.00000000000E+00  0.00000000000E+00 -0.41254011966E+03  0.41254011969E+03  0.50400001928E-02 0.  1.
    10030    2    1    2    0    0  0.00000000000E+00  0.00000000000E+00  0.12279334499E+04  0.20530136893E+04  0.16453098951E+04 0.  0.
        5    1    3    3  502    0  0.77448559548E+03 -0.82884572668E+02  0.28373318412E+03  0.82898998773E+03  0.46999998093E+01 0.  1.
       -5    1    3    3    0  502 -0.77448559548E+03  0.82884572668E+02  0.94420026581E+03  0.12240237015E+04  0.46999998093E+01 0. -1.
</event>
<event>
 5   0  0.7952307E-06  0.1777589E+04  0.7818609E-02  0.8718309E-01
        2   -1    0    0  501    0  0.00000000000E+00  0.00000000000E+00  0.15248989376E+04  0.15248989376E+04  0.25500000920E-02 0. -1.
       -2   -1    0    0    0  501  0.00000000000E+00  0.00000000000E+00 -0.51803808102E+03  0.51803808103E+03  0.25500000920E-02 0.  1.
    10030    2    1    2    0    0  0.00000000000E+00  0.00000000000E+00  0.10068608566E+04  0.20429370186E+04  0.17775890632E+04 0.  0.
        2    1    3    3  502    0 -0.52210697506E+03  0.51240056010E+03  0.10835642308E+04  0.13073872684E+04  0.25500000920E-02 0. -1.
       -2    1    3    3    0  502  0.52210697506E+03 -0.51240056010E+03 -0.76703374208E+02  0.73554975020E+03  0.25500000920E-02 0.  1.
</event>
<event>
 5   0  0.7941434E-06  0.2778077E+04  0.7818609E-02  0.8310107E-01
       -2   -1    0    0    0  501  0.00000000000E+00  0.00000000000E+00  0.10445159975E+04  0.10445159975E+04  0.25500000920E-02 0.  1.
        2   -1    0    0  501    0  0.00000000000E+00  0.00000000000E+00 -0.18471983301E+04  0.18471983301E+04  0.25500000920E-02 0. -1.
    10030    2    1    2    0    0  0.00000000000E+00  0.00000000000E+00 -0.80268233256E+03  0.28917143276E+04  0.27780771814E+04 0.  0.
        4    1    3    3  502    0  0.12264396617E+04  0.20133045806E+03  0.24430391199E+03  0.12666389428E+04  0.12699999809E+01 0.  1.
       -4    1    3    3    0  502 -0.12264396617E+04 -0.20133045806E+03 -0.10469862446E+04  0.16250753848E+04  0.12699999809E+01 0. -1.
</event>
<event>
 5   0  0.2580875E-06  0.3188968E+04  0.7818609E-02  0.8191737E-01
       -3   -1    0    0    0  501  0.00000000000E+00  0.00000000000E+00  0.22827793528E+04  0.22827793550E+04  0.10100000352E+00 0.  1.
        3   -1    0    0  501    0  0.00000000000E+00  0.00000000000E+00 -0.11137210376E+04  0.11137210422E+04  0.10100000352E+00 0. -1.
    10030    2    1    2    0    0  0.00000000000E+00  0.00000000000E+00  0.11690583152E+04  0.33965003972E+04  0.31889681095E+04 0.  0.
        2    1    3    3  502    0 -0.68376221527E+03  0.14170684913E+04  0.85973498612E+03  0.17929746575E+04  0.25500000920E-02 0. -1.
       -2    1    3    3    0  502  0.68376221527E+03 -0.14170684913E+04  0.30932332908E+03  0.16035257397E+04  0.25500000920E-02 0.  1.
</event>
<event>
 5   0  0.7941434E-06  0.3208191E+04  0.7818609E-02  0.8186657E-01
       -2   -1    0    0    0  501  0.00000000000E+00  0.00000000000E+00  0.15128311057E+04  0.15128311057E+04  0.25500000920E-02 0. -1.
        2   -1    0    0  501    0  0.00000000000E+00  0.00000000000E+00 -0.17008658717E+04  0.17008658717E+04  0.25500000920E-02 0.  1.
    10030    2    1    2    0    0  0.00000000000E+00  0.00000000000E+00 -0.18803476601E+03  0.32136969774E+04  0.32081912645E+04 0.  0.
        4    1    3    3  502    0  0.57528683744E+03 -0.38402351893E+03 -0.15438063074E+04  0.16916762504E+04  0.12699999809E+01 0.  1.
       -4    1    3    3    0  502 -0.57528683744E+03  0.38402351893E+03  0.13557715414E+04  0.15220207271E+04  0.12699999809E+01 0. -1.
</event>
<event>
 5   0  0.2933646E-06  0.3180031E+04  0.7818609E-02  0.8194111E-01
        1   -1    0    0  501    0  0.00000000000E+00  0.00000000000E+00  0.26171648480E+04  0.26171648480E+04  0.50400001928E-02 0.  1.
       -1   -1    0    0    0  501  0.00000000000E+00  0.00000000000E+00 -0.96598786777E+03  0.96598786778E+03  0.50400001928E-02 0. -1.
    10030    2    1    2    0    0  0.00000000000E+00  0.00000000000E+00  0.16511769802E+04  0.35831527158E+04  0.31800311263E+04 0.  0.
        2    1    3    3  502    0 -0.11675622721E+04 -0.12094903218E+03 -0.38290168763E+03  0.12346837774E+04  0.25500000920E-02 0. -1.
       -2    1    3    3    0  502  0.11675622721E+04  0.12094903218E+03  0.20340786679E+04  0.23484689384E+04  0.25500000920E-02 0.  1.
</event>
<event>
 5   0  0.8237664E-06  0.3189414E+04  0.7818609E-02  0.8191618E-01
        2   -1    0    0  501    0  0.00000000000E+00  0.00000000000E+00  0.28462921723E+04  0.28462921723E+04  0.25500000920E-02 0. -1.
       -2   -1    0    0    0  501  0.00000000000E+00  0.00000000000E+00 -0.89347503326E+03  0.89347503327E+03  0.25500000920E-02 0.  1.
    10030    2    1    2    0    0  0.00000000000E+00  0.00000000000E+00  0.19528171391E+04  0.37397672056E+04  0.31894143621E+04 0.  0.
        5    1    3    3  502    0  0.66192002407E+03  0.14355149391E+04  0.12230014475E+04  0.19986485157E+04  0.46999998093E+01 0. -1.
       -5    1    3    3    0  502 -0.66192002407E+03 -0.14355149391E+04  0.72981569159E+03  0.17411186899E+04  0.46999998093E+01 0.  1.
</event>
<event>
 5   0  0.3938696E-06  0.3155201E+04  0.7818609E-02  0.8200750E-01
        1   -1    0    0  501    0  0.00000000000E+00  0.00000000000E+00  0.16507599622E+04  0.16507599622E+04  0.50400001928E-02 0.  1.
       -1   -1    0    0    0  501  0.00000000000E+00  0.00000000000E+00 -0.15076830951E+04  0.15076830951E+04  0.50400001928E-02 0. -1.
    10030    2    1    2    0    0  0.00000000000E+00  0.00000000000E+00  0.14307686709E+03  0.31584430573E+04  0.31552007157E+04 0.  0.
        4    1    3    3  502    0 -0.60521747803E+03 -0.64425149056E+03 -0.12365074988E+04  0.15199672978E+04  0.12699999809E+01 0. -1.
       -4    1    3    3    0  502  0.60521747803E+03  0.64425149056E+03  0.13795843659E+04  0.16384757595E+04  0.12699999809E+01 0.  1.
</event>
<event>
 5   0  0.7510251E-06  0.3202135E+04  0.7818609E-02  0.8188253E-01
       -2   -1    0    0    0  501  0.00000000000E+00  0.00000000000E+00  0.28984670111E+04  0.28984670111E+04  0.25500000920E-02 0.  1.
        2   -1    0    0  501    0  0.00000000000E+00  0.00000000000E+00 -0.88440465613E+03  0.88440465613E+03  0.25500000920E-02 0. -1.
    10030    2    1    2    0    0  0.00000000000E+00  0.00000000000E+00  0.20140623550E+04  0.37828716673E+04  0.32021353627E+04 0.  0.
        3    1    3    3  502    0  0.52571897351E+02 -0.42339178550E+03  0.28300765824E+04  0.28620548354E+04  0.10100000352E+00 0.  1.
       -3    1    3    3    0  502 -0.52571897351E+02  0.42339178550E+03 -0.81601422737E+03  0.92081683189E+03  0.10100000352E+00 0. -1.
</event>
<event>
 5   0  0.2933646E-06  0.3160874E+04  0.7818609E-02  0.8199227E-01
       -1   -1    0    0    0  501  0.00000000000E+00  0.00000000000E+00  0.15720222183E+04  0.15720222183E+04  0.50400001928E-02 0. -1.
        1   -1    0    0  501    0  0.00000000000E+00  0.00000000000E+00 -0.15888971215E+04  0.15888971215E+04  0.50400001928E-02 0.  1.
    10030    2    1    2    0    0  0.00000000000E+00  0.00000000000E+00 -0.16874903165E+02  0.31609193399E+04  0.31608742953E+04 0.  0.
        2    1    3    3  502    0 -0.35204306405E+03 -0.47332215889E+01 -0.15491815942E+04  0.15886850960E+04  0.25500000920E-02 0.  1.
       -2    1    3    3    0  502  0.35204306405E+03  0.47332215889E+01  0.15323066910E+04  0.15722342439E+04  0.25500000920E-02 0. -1.
</event>
<event>
 5   0  0.7952307E-06  0.2775458E+04  0.7818609E-02  0.8310928E-01
        2   -1    0    0  501    0  0.00000000000E+00  0.00000000000E+00  0.12286088318E+04  0.12286088318E+04  0.25500000920E-02 0. -1.
       -2   -1    0    0    0  501  0.00000000000E+00  0.00000000000E+00 -0.15674571614E+04  0.15674571614E+04  0.25500000920E-02 0.  1.
    10030    2    1    2    0    0  0.00000000000E+00  0.00000000000E+00 -0.33884832964E+03  0.27960659932E+04  0.27754579528E+04 0.  0.
        2    1    3    3  502    0  0.64949789434E+03  0.80103910777E+03  0.76606133221E+03  0.12846638205E+04  0.25500000920E-02 0. -1.
       -2    1    3    3    0  502 -0.64949789434E+03 -0.80103910777E+03 -0.11049096618E+04  0.15114021727E+04  0.25500000920E-02 0.  1.
</event>
<event>
 5   0  0.7941434E-06  0.3385972E+04  0.7818609E-02  0.8141358E-01
       -2   -1    0    0    0  501  0.00000000000E+00  0.00000000000E+00  0.11401556203E+04  0.11401556203E+04  0.25500000920E-02 0.  1.
        2   -1    0    0  501    0  0.00000000000E+00  0.00000000000E+00 -0.25138684591E+04  0.25138684591E+04  0.25500000920E-02 0. -1.
    10030    2    1    2    0    0  0.00000000000E+00  0.00000000000E+00 -0.13737128388E+04  0.36540240794E+04  0.33859717968E+04 0.  0.
        4    1    3    3  502    0  0.10440104101E+04  0.13276594193E+04 -0.56117940644E+03  0.17797643690E+04  0.12699999809E+01 0.  1.
       -4    1    3    3    0  502 -0.10440104101E+04 -0.13276594193E+04 -0.81253343240E+03  0.18742597103E+04  0.12699999809E+01 0. -1.
</event>
<event>
 5   0  0.8237664E-06  0.1630198E+04  0.7818609E-02  0.8802208E-01
        2   -1    0    0  501    0  0.00000000000E+00  0.00000000000E+00  0.19587638422E+04  0.19587638422E+04  0.25500000920E-02 0. -1.
       -2   -1    0    0    0  501  0.00000000000E+00  0.00000000000E+00 -0.33918654234E+03  0.33918654235E+03  0.25500000920E-02 0.  1.
    10030    2    1    2    0    0  0.00000000000E+00  0.00000000000E+00  0.16195772999E+04  0.22979503846E+04  0.16301979449E+04 0.  0.
        5    1    3    3  502    0  0.34617634327E+03  0.33036030784E+03 -0.12033065638E+03  0.49343444397E+03  0.46999998093E+01 0.  1.
       -5    1    3    3    0  502 -0.34617634327E+03 -0.33036030784E+03  0.17399079563E+04  0.18045159406E+04  0.46999998093E+01 0. -1.
</event>
<event>
 5   0  0.2635798E-06  0.3150513E+04  0.7818609E-02  0.8202010E-01
        1   -1    0    0  501    0  0.00000000000E+00  0.00000000000E+00  0.20012813192E+04  0.20012813192E+04  0.50400001928E-02 0.  1.
       -1   -1    0    0    0  501  0.00000000000E+00  0.00000000000E+00 -0.12399222671E+04  0.12399222671E+04  0.50400001928E-02 0. -1.
    10030    2    1    2    0    0  0.00000000000E+00  0.00000000000E+00  0.76135905208E+03  0.32412035863E+04  0.31505131457E+04 0.  0.
        1    1    3    3  502    0  0.53859325760E+02 -0.37513704585E+03  0.19536809756E+04  0.19900999936E+04  0.50400001928E-02 0.  1.
       -1    1    3    3    0  502 -0.53859325760E+02  0.37513704585E+03 -0.11923219235E+04  0.12511035926E+04  0.50400001928E-02 0. -1.
</event>
<event>
 5   0  0.2933646E-06  0.2233498E+04  0.7818609E-02  0.8504613E-01
        1   -1    0    0  501    0  0.00000000000E+00  0.00000000000E+00  0.11070327965E+04  0.11070327965E+04  0.50400001928E-02 0.  1.
       -1   -1    0    0    0  501  0.00000000000E+00  0.00000000000E+00 -0.11265504864E+04  0.11265504865E+04  0.50400001928E-02 0. -1.
    10030    2    1    2    0    0  0.00000000000E+00  0.00000000000E+00 -0.19517689933E+02  0.22335832830E+04  0.22334980058E+04 0.  0.
        2    1    3    3  502    0 -0.13725690571E+03 -0.54202855518E+03  0.95697032283E+03  0.11083440854E+04  0.25500000920E-02 0.  1.
       -2    1    3    3    0  502  0.13725690571E+03  0.54202855518E+03 -0.97648801276E+03  0.11252391976E+04  0.25500000920E-02 0. -1.
</event>
<event>
 5   0  0.8237664E-06  0.3224309E+04  0.7818609E-02  0.8182426E-01
       -2   -1    0    0    0  501  0.00000000000E+00  0.00000000000E+00  0.18404619841E+04  0.18404619841E+04  0.25500000920E-02 0. -1.
        2   -1    0    0  501    0  0.00000000000E+00  0.00000000000E+00 -0.14121687353E+04  0.14121687353E+04  0.25500000920E-02 0.  1.
    10030    2    1    2    0    0  0.00000000000E+00  0.00000000000E+00  0.42829324886E+03  0.32526307194E+04  0.32243094593E+04 0.  0.
        5    1    3    3  502    0  0.78035678003E+03 -0.48311871174E+02  0.16363992452E+04  0.18135918285E+04  0.46999998093E+01 0. -1.
       -5    1    3    3    0  502 -0.78035678003E+03  0.48311871174E+02 -0.12081059963E+04  0.14390388908E+04  0.46999998093E+01 0.  1.
</event>
<event>
 5   0  0.2788054E-06  0.2937863E+04  0.7818609E-02  0.8261700E-01
        1   -1    0    0  501    0  0.00000000000E+00  0.00000000000E+00  0.12869185449E+04  0.12869185449E+04  0.50400001928E-02 0. -1.
       -1   -1    0    0    0  501  0.00000000000E+00  0.00000000000E+00 -0.16766875993E+04  0.16766875993E+04  0.50400001928E-02 0.  1.
    10030    2    1    2    0    0  0.00000000000E+00  0.00000000000E+00 -0.38976905443E+03  0.29636061442E+04  0.29378634179E+04 0.  0.
        3    1    3    3  502    0  0.64378107474E+03 -0.13091529012E+04 -0.21844387476E+02  0.14590450913E+04  0.10100000352E+00 0. -1.
       -3    1    3    3    0  502 -0.64378107474E+03  0.13091529012E+04 -0.36792466696E+03  0.15045610529E+04  0.10100000352E+00 0.  1.
</event>
<event>
 5   0  0.7971763E-06  0.3230132E+04  0.7818609E-02  0.8180904E-01
        2   -1    0    0  501    0  0.00000000000E+00  0.00000000000E+00  0.20169015167E+04  0.20169015167E+04  0.25500000920E-02 0.  1.
       -2   -1    0    0    0  501  0.00000000000E+00  0.00000000000E+00 -0.12932896503E+04  0.12932896503E+04  0.25500000920E-02 0. -1.
    10030    2    1    2    0    0  0.00000000000E+00  0.00000000000E+00  0.72361186640E+03  0.33101911671E+04  0.32301317975E+04 0.  0.
        1    1    3    3  502    0 -0.87897876320E+03 -0.49706337267E+03 -0.92989591504E+03  0.13727279685E+04  0.50400001928E-02 0. -1.
       -1    1    3    3    0  502  0.87897876320E+03  0.49706337267E+03  0.16535077814E+04  0.19374631986E+04  0.50400001928E-02 0.  1.
</event>
<event>
 5   0  0.2635798E-06  0.3180630E+04  0.7818609E-02  0.8193951E-01
       -1   -1    0    0    0  501  0.00000000000E+00  0.00000000000E+00  0.16186021212E+04  0.16186021213E+04  0.50400001928E-02 0.  1.
        1   -1    0    0  501    0  0.00000000000E+00  0.00000000000E+00 -0.15625226679E+04  0.15625226679E+04  0.50400001928E-02 0. -1.
    10030    2    1    2    0    0  0.00000000000E+00  0.00000000000E+00  0.56079453385E+02  0.31811247891E+04  0.31806304436E+04 0.  0.
        1    1    3    3  502    0  0.68326373859E+02 -0.40690975459E+03  0.15641360014E+04  0.16176419482E+04  0.50400001928E-02 0.  1.
       -1    1    3    3    0  502 -0.68326373859E+02  0.40690975459E+03 -0.15080565480E+04  0.15634828409E+04  0.50400001928E-02 0. -1.
</event>
<event>
 5   0  0.7971763E-06  0.3166477E+04  0.7818609E-02  0.8197727E-01
        2   -1    0    0  501    0  0.00000000000E+00  0.00000000000E+00  0.17866001817E+04  0.17866001817E+04  0.25500000920E-02 0. -1.
       -2   -1    0    0    0  501  0.00000000000E+00  0.00000000000E+00 -0.14030243951E+04  0.14030243951E+04  0.25500000920E-02 0.  1.
    10030    2    1    2    0    0  0.00000000000E+00  0.00000000000E+00  0.38357578664E+03  0.31896245768E+04  0.31664766787E+04 0.  0.
        1    1    3    3  502    0 -0.14032342129E+04  0.30670666566E+03  0.86262055911E+03  0.16754848445E+04  0.50400001928E-02 0. -1.
       -1    1    3    3    0  502  0.14032342129E+04 -0.30670666566E+03 -0.47904477247E+03  0.15141397323E+04  0.50400001928E-02 0.  1.
</event>
<event>
 5   0  0.7971763E-06  0.3131293E+04  0.7818609E-02  0.8207202E-01
       -2   -1    0    0    0  501  0.00000000000E+00  0.00000000000E+00  0.13804777100E+04  0.13804777100E+04  0.25500000920E-02 0. -1.
        2   -1    0    0  501    0  0.00000000000E+00  0.00000000000E+00 -0.17756527656E+04  0.17756527656E+04  0.25500000920E-02 0.  1.
    10030    2    1    2    0    0  0.00000000000E+00  0.00000000000E+00 -0.39517505559E+03  0.31561304755E+04  0.31312930642E+04 0.  0.
        1    1    3    3  502    0  0.60736806154E+03 -0.41268432918E+03  0.11961476395E+04  0.14035574421E+04  0.50400001928E-02 0. -1.
       -1    1    3    3    0  502 -0.60736806154E+03  0.41268432918E+03 -0.15913226951E+04  0.17525730335E+04  0.50400001928E-02 0.  1.
</event>
<event>
 5   0  0.8237664E-06  0.3307565E+04  0.7818609E-02  0.8160973E-01
        2   -1    0    0  501    0  0.00000000000E+00  0.00000000000E+00  0.27591902409E+04  0.27591902409E+04  0.25500000920E-02 0. -1.
       -2   -1    0    0    0  501  0.00000000000E+00  0.00000000000E+00 -0.99123173730E+03  0.99123173730E+03  0.25500000920E-02 0.  1.
    10030    2    1    2    0    0  0.00000000000E+00  0.00000000000E+00  0.17679585036E+04  0.37504219782E+04  0.33075652290E+04 0.  0.
        5    1    3    3  502    0 -0.96002399336E+03  0.20085328300E+03 -0.62583826852E+03  0.11634791521E+04  0.46999998093E+01 0.  1.
       -5    1    3    3    0  502  0.96002399336E+03 -0.20085328300E+03  0.23937967722E+04  0.25869428261E+04  0.46999998093E+01 0. -1.
</event>
<event>
 5   0  0.7510251E-06  0.3004806E+04  0.7818609E-02  0.8242360E-01
        2   -1    0    0  501    0  0.00000000000E+00  0.00000000000E+00  0.16240464996E+04  0.16240464996E+04  0.25500000920E-02 0.  1.
       -2   -1    0    0    0  501  0.00000000000E+00  0.00000000000E+00 -0.13898707167E+04  0.13898707167E+04  0.25500000920E-02 0. -1.
    10030    2    1    2    0    0  0.00000000000E+00  0.00000000000E+00  0.23417578291E+03  0.30139172162E+04  0.30048059320E+04 0.  0.
        3    1    3    3  502    0  0.82024514030E+03 -0.65525775219E+03 -0.96090340734E+03  0.14232006817E+04  0.10100000352E+00 0. -1.
       -3    1    3    3    0  502 -0.82024514030E+03  0.65525775219E+03  0.11950791902E+04  0.15907165345E+04  0.10100000352E+00 0.  1.
</event>
<event>
 5   0  0.3938696E-06  0.3169276E+04  0.7818609E-02  0.8196979E-01
        1   -1    0    0  501    0  0.00000000000E+00  0.00000000000E+00  0.13192964620E+04  0.13192964620E+04  0.50400001928E-02 0.  1.
       -1   -1    0    0    0  501  0.00000000000E+00  0.00000000000E+00 -0.19033462071E+04  0.19033462071E+04  0.50400001928E-02 0. -1.
    10030    2    1    2    0    0  0.00000000000E+00  0.00000000000E+00 -0.58404974516E+03  0.32226426691E+04  0.31692762057E+04 0.  0.
        4    1    3    3  502    0 -0.43410122717E+03 -0.80891435081E+03  0.10213473792E+04  0.13732947186E+04  0.12699999809E+01 0.  1.
       -4    1    3    3    0  502  0.43410122717E+03  0.80891435081E+03 -0.16053971243E+04  0.18493479505E+04  0.12699999809E+01 0. -1.
</event>
<event>
 5   0  0.2788054E-06  0.2825516E+04  0.7818609E-02  0.8295390E-01
        1   -1    0    0  501    0  0.00000000000E+00  0.00000000000E+00  0.15202614649E+04  0.15202614649E+04  0.50400001928E-02 0.  1.
       -1   -1    0    0    0  501  0.00000000000E+00  0.00000000000E+00 -0.13128566720E+04  0.13128566720E+04  0.50400001928E-02 0. -1.
    10030    2    1    2    0    0  0.00000000000E+00  0.00000000000E+00  0.20740479296E+03  0.28331181369E+04  0.28255161704E+04 0.  0.
        3    1    3    3  502    0 -0.16294303490E+02 -0.53469545807E+03 -0.12073784325E+04  0.13205784440E+04  0.10100000352E+00 0. -1.
       -3    1    3    3    0  502  0.16294303490E+02  0.53469545807E+03  0.14147832255E+04  0.15125396929E+04  0.10100000352E+00 0.  1.
</event>
<event>
 5   0  0.2933646E-06  0.3127360E+04  0.7818609E-02  0.8208269E-01
        1   -1    0    0  501    0  0.00000000000E+00  0.00000000000E+00  0.16969731399E+04  0.16969731399E+04  0.50400001928E-02 0. -1.
       -1   -1    0    0    0  501  0.00000000000E+00  0.00000000000E+00 -0.14408565489E+04  0.14408565489E+04  0.50400001928E-02 0.  1.
    10030    2    1    2    0    0  0.00000000000E+00  0.00000000000E+00  0.25611659099E+03  0.31378296887E+04  0.31273598206E+04 0.  0.
        2    1    3    3  502    0 -0.13348862024E+04  0.46067387135E+03 -0.54572041924E+03  0.15139195372E+04  0.25500000920E-02 0.  1.
       -2    1    3    3    0  502  0.13348862024E+04 -0.46067387135E+03  0.80183701022E+03  0.16239101515E+04  0.25500000920E-02 0. -1.
</event>
<event>
 5   0  0.2788054E-06  0.2325707E+04  0.7818609E-02  0.8467854E-01
        1   -1    0    0  501    0  0.00000000000E+00  0.00000000000E+00  0.98137671032E+03  0.98137671034E+03  0.50400001928E-02 0.  1.
       -1   -1    0    0    0  501  0.00000000000E+00  0.00000000000E+00 -0.13778894312E+04  0.13778894313E+04  0.50400001928E-02 0. -1.
    10030    2    1    2    0    0  0.00000000000E+00  0.00000000000E+00 -0.39651272092E+03  0.23592661416E+04  0.23257072879E+04 0.  0.
        3    1    3    3  502    0  0.18142134215E+03 -0.41250674182E+03 -0.12857101785E+04  0.13623972213E+04  0.10100000352E+00 0. -1.
       -3    1    3    3    0  502 -0.18142134215E+03  0.41250674182E+03  0.88919745757E+03  0.99686892026E+03  0.10100000352E+00 0.  1.
</event>
<event>
 5   0  0.7971763E-06  0.2901581E+04  0.7818609E-02  0.8272407E-01
        2   -1    0    0  501    0  0.00000000000E+00  0.00000000000E+00  0.25386223900E+04  0.25386223900E+04  0.25500000920E-02 0.  1.
       -2   -1    0    0    0  501  0.00000000000E+00  0.00000000000E+00 -0.82910863743E+03  0.82910863743E+03  0.25500000920E-02 0. -1.
    10030    2    1    2    0    0  0.00000000000E+00  0.00000000000E+00  0.17095137526E+04  0.33677310274E+04  0.29015814658E+04 0.  0.
        1    1    3    3  502    0  0.89110239381E+03 -0.30828501995E+03 -0.42496078230E+03  0.10342605070E+04  0.50400001928E-02 0. -1.
       -1    1    3    3    0  502 -0.89110239381E+03  0.30828501995E+03  0.21344745349E+04  0.23334705205E+04  0.50400001928E-02 0.  1.
</event>
<event>
 5   0  0.2788054E-06  0.3150207E+04  0.7818609E-02  0.8202092E-01
       -1   -1    0    0    0  501  0.00000000000E+00  0.00000000000E+00  0.13652594598E+04  0.13652594598E+04  0.50400001928E-02 0. -1.
        1   -1    0    0  501    0  0.00000000000E+00  0.00000000000E+00 -0.18172017053E+04  0.18172017053E+04  0.50400001928E-02 0.  1.
    10030    2    1    2    0    0  0.00000000000E+00  0.00000000000E+00 -0.45194224544E+03  0.31824611651E+04  0.31502074970E+04 0.  0.
        3    1    3    3  502    0 -0.39406258270E+03  0.44010222379E+03  0.12491074721E+04  0.13817542378E+04  0.10100000352E+00 0. -1.
       -3    1    3    3    0  502  0.39406258270E+03 -0.44010222379E+03 -0.17010497176E+04  0.18007069274E+04  0.10100000352E+00 0.  1.
</event>
<event>
 5   0  0.7952307E-06  0.2074084E+04  0.7818609E-02  0.8572746E-01
       -2   -1    0    0    0  501  0.00000000000E+00  0.00000000000E+00  0.14904386170E+04  0.14904386170E+04  0.25500000920E-02 0.  1.
        2   -1    0    0  501    0  0.00000000000E+00  0.00000000000E+00 -0.72157003525E+03  0.72157003526E+03  0.25500000920E-02 0. -1.
    10030    2    1    2    0    0  0.00000000000E+00  0.00000000000E+00  0.76886858171E+03  0.22120086522E+04  0.20740837451E+04 0.  0.
        2    1    3    3  502    0  0.68916508226E+03 -0.77476731700E+03  0.36781129052E+03  0.11002263638E+04  0.25500000920E-02 0.  1.
       -2    1    3    3    0  502 -0.68916508226E+03  0.77476731700E+03  0.40105729119E+03  0.11117822885E+04  0.25500000920E-02 0. -1.
</event>
<event>
 5   0  0.7941434E-06  0.3270607E+04  0.7818609E-02  0.8170415E-01
        2   -1    0    0  501    0  0.00000000000E+00  0.00000000000E+00  0.13855111553E+04  0.13855111553E+04  0.25500000920E-02 0.  1.
       -2   -1    0    0    0  501  0.00000000000E+00  0.00000000000E+00 -0.19301301985E+04  0.19301301985E+04  0.25500000920E-02 0. -1.
    10030    2    1    2    0    0  0.00000000000E+00  0.00000000000E+00 -0.54461904322E+03  0.33156413537E+04  0.32706066233E+04 0.  0.
        4    1    3    3  502    0  0.41294947332E+03  0.26741806867E+03 -0.18533271084E+04  0.19175147130E+04  0.12699999809E+01 0. -1.
       -4    1    3    3    0  502 -0.41294947332E+03 -0.26741806867E+03  0.13087080651E+04  0.13981266408E+04  0.12699999809E+01 0.  1.
</event>
<event>
 5   0  0.7971763E-06  0.2477241E+04  0.7818609E-02  0.8411139E-01
        2   -1    0    0  501    0  0.00000000000E+00  0.00000000000E+00  0.21133855293E+04  0.21133855293E+04  0.25500000920E-02 0.  1.
       -2   -1    0    0    0  501  0.00000000000E+00  0.00000000000E+00 -0.72593523762E+03  0.72593523762E+03  0.25500000920E-02 0. -1.
    10030    2    1    2    0    0  0.00000000000E+00  0.00000000000E+00  0.13874502916E+04  0.28393207669E+04  0.24772412288E+04 0.  0.
        1    1    3    3  502    0  0.54121654232E+03 -0.33518409600E+03 -0.52407837185E+03  0.82457374671E+03  0.50400001928E-02 0. -1.
       -1    1    3    3    0  502 -0.54121654232E+03  0.33518409600E+03  0.19115286635E+04  0.20147470202E+04  0.50400001928E-02 0.  1.
</event>
<event>
 5   0  0.7971763E-06  0.3110319E+04  0.7818609E-02  0.8212912E-01
       -2   -1    0    0    0  501  0.00000000000E+00  0.00000000000E+00  0.29624302091E+04  0.29624302091E+04  0.25500000920E-02 0.  1.
        2   -1    0    0  501    0  0.00000000000E+00  0.00000000000E+00 -0.81639785326E+03  0.81639785326E+03  0.25500000920E-02 0. -1.
    10030    2    1    2    0    0  0.00000000000E+00  0.00000000000E+00  0.21460323559E+04  0.37788280624E+04  0.31103193811E+04 0.  0.
        1    1    3    3  502    0 -0.68973580079E+03 -0.38767759024E+03  0.26996162663E+04  0.28131756742E+04  0.50400001928E-02 0.  1.
       -1    1    3    3    0  502  0.68973580079E+03  0.38767759024E+03 -0.55358391042E+03  0.96565238816E+03  0.50400001928E-02 0. -1.
</event>
<event>
 5   0  0.3938696E-06  0.3149196E+04  0.7818609E-02  0.8202365E-01
        1   -1    0    0  501    0  0.00000000000E+00  0.00000000000E+00  0.20753473858E+04  0.20753473858E+04  0.50400001928E-02 0. -1.
       -1   -1    0    0    0  501  0.00000000000E+00  0.00000000000E+00 -0.11946720868E+04  0.11946720868E+04  0.50400001928E-02 0.  1.
    10030    2    1    2    0    0  0.00000000000E+00  0.00000000000E+00  0.88067529906E+03  0.32700194726E+04  0.31491964640E+04 0.  0.
        4    1    3    3  502    0 -0.11755695083E+04  0.10049786822E+04  0.13333897060E+03  0.15523294478E+04  0.12699999809E+01 0.  1.
       -4    1    3    3    0  502  0.11755695083E+04 -0.10049786822E+04  0.74733632846E+03  0.17176900248E+04  0.12699999809E+01 0. -1.
</event>
<event>
 5   0  0.7941434E-06  0.3087436E+04  0.7818609E-02  0.8219194E-01
        2   -1    0    0  501    0  0.00000000000E+00  0.00000000000E+00  0.16033685001E+04  0.16033685001E+04  0.25500000920E-02 0. -1.
       -2   -1    0    0    0  501  0.00000000000E+00  0.00000000000E+00 -0.14862868288E+04  0.14862868288E+04  0.25500000920E-02 0.  1.
    10030    2    1    2    0    0  0.00000000000E+00  0.00000000000E+00  0.11708167135E+03  0.30896553289E+04  0.30874361425E+04 0.  0.
        4    1    3    3  502    0 -0.12875733616E+04 -0.21719836074E+03 -0.76548504952E+03  0.15136014215E+04  0.12699999809E+01 0.  1.
       -4    1    3    3    0  502  0.12875733616E+04  0.21719836074E+03  0.88256672087E+03  0.15760539074E+04  0.12699999809E+01 0. -1.
</event>
<event>
 5   0  0.7941434E-06  0.2885167E+04  0.7818609E-02  0.8277304E-01
       -2   -1    0    0    0  501  0.00000000000E+00  0.00000000000E+00  0.77461069137E+03  0.77461069137E+03  0.25500000920E-02 0.  1.
        2   -1    0    0  501    0  0.00000000000E+00  0.00000000000E+00 -0.26865725875E+04  0.26865725875E+04  0.25500000920E-02 0. -1.
    10030    2    1    2    0    0  0.00000000000E+00  0.00000000000E+00 -0.19119618961E+04  0.34611832788E+04  0.28851674817E+04 0.  0.
        4    1    3    3  502    0  0.14397820283E+04  0.77567120092E+02 -0.10103937709E+04  0.17606493496E+04  0.12699999809E+01 0.  1.
       -4    1    3    3    0  502 -0.14397820283E+04 -0.77567120092E+02 -0.90156812516E+03  0.17005339292E+04  0.12699999809E+01 0. -1.
</event>
<event>
 5   0  0.2933646E-06  0.3425421E+04  0.7818609E-02  0.8131695E-01
        1   -1    0    0  501    0  0.00000000000E+00  0.00000000000E+00  0.22106138509E+04  0.22106138509E+04  0.50400001928E-02 0. -1.
       -1   -1    0    0    0  501  0.00000000000E+00  0.00000000000E+00 -0.13269516452E+04  0.13269516452E+04  0.50400001928E-02 0.  1.
    10030    2    1    2    0    0  0.00000000000E+00  0.00000000000E+00  0.88366220565E+03  0.35375654961E+04  0.34254212508E+04 0.  0.
        2    1    3    3  502    0  0.84969535801E+03 -0.12448531317E+04 -0.39827267343E+03  0.15589299674E+04  0.25500000920E-02 0.  1.
       -2    1    3    3    0  502 -0.84969535801E+03  0.12448531317E+04  0.12819348791E+04  0.19786355286E+04  0.25500000920E-02 0. -1.
</event>
<event>
 5   0  0.7971763E-06  0.1780982E+04  0.7818609E-02  0.8716479E-01
        2   -1    0    0  501    0  0.00000000000E+00  0.00000000000E+00  0.11624448187E+04  0.11624448187E+04  0.25500000920E-02 0. -1.
       -2   -1    0    0    0  501  0.00000000000E+00  0.00000000000E+00 -0.68216072910E+03  0.68216072910E+03  0.25500000920E-02 0.  1.
    10030    2    1    2    0    0  0.00000000000E+00  0.00000000000E+00  0.48028408964E+03  0.18446055478E+04  0.17809819820E+04 0.  0.
        1    1    3    3  502    0  0.39576665650E+03  0.45637708305E+03  0.91778010081E+03  0.10987409166E+04  0.50400001928E-02 0. -1.
       -1    1    3    3    0  502 -0.39576665650E+03 -0.45637708305E+03 -0.43749601117E+03  0.74586463125E+03  0.50400001928E-02 0.  1.
</event>
<event>
 5   0  0.4142886E-06  0.2168381E+04  0.7818609E-02  0.8531705E-01
        1   -1    0    0  501    0  0.00000000000E+00  0.00000000000E+00  0.10748277331E+04  0.10748277331E+04  0.50400001928E-02 0.  1.
       -1   -1    0    0    0  501  0.00000000000E+00  0.00000000000E+00 -0.10936345149E+04  0.10936345149E+04  0.50400001928E-02 0. -1.
    10030    2    1    2    0    0  0.00000000000E+00  0.00000000000E+00 -0.18806781843E+02  0.21684622480E+04  0.21683806922E+04 0.  0.
        5    1    3    3  502    0  0.35877895776E+03  0.76312933167E+03  0.67206034996E+03  0.10783208805E+04  0.46999998093E+01 0.  1.
       -5    1    3    3    0  502 -0.35877895776E+03 -0.76312933167E+03 -0.69086713180E+03  0.10901413675E+04  0.46999998093E+01 0. -1.
</event>
<event>
 5   0  0.4142886E-06  0.2768401E+04  0.7818609E-02  0.8313146E-01
        1   -1    0    0  501    0  0.00000000000E+00  0.00000000000E+00  0.26582151014E+04  0.26582151014E+04  0.50400001928E-02 0. -1.
       -1   -1    0    0    0  501  0.00000000000E+00  0.00000000000E+00 -0.72078867892E+03  0.72078867894E+03  0.50400001928E-02 0.  1.
    10030    2    1    2    0    0  0.00000000000E+00  0.00000000000E+00  0.19374264225E+04  0.33790037803E+04  0.27684012363E+04 0.  0.
        5    1    3    3  502    0  0.56427816823E+03  0.77973415311E+03 -0.24548107034E+03  0.99331679063E+03  0.46999998093E+01 0.  1.
       -5    1    3    3    0  502 -0.56427816823E+03 -0.77973415311E+03  0.21829074928E+04  0.23856869897E+04  0.46999998093E+01 0. -1.
</event>
<event>
 5   0  0.4142886E-06  0.3085774E+04  0.7818609E-02  0.8219653E-01
       -1   -1    0    0    0  501  0.00000000000E+00  0.00000000000E+00  0.15874413211E+04  0.15874413211E+04  0.50400001928E-02 0. -1.
        1   -1    0    0  501    0  0.00000000000E+00  0.00000000000E+00 -0.14995828333E+04  0.14995828334E+04  0.50400001928E-02 0.  1.
    10030    2    1    2    0    0  0.00000000000E+00  0.00000000000E+00  0.87858487708E+02  0.30870241544E+04  0.30857736495E+04 0.  0.
        5    1    3    3  502    0 -0.72384193183E+03  0.83260994087E+03  0.11229261127E+04  0.15742209503E+04  0.46999998093E+01 0. -1.
       -5    1    3    3    0  502  0.72384193183E+03 -0.83260994087E+03 -0.10350676250E+04  0.15128032041E+04  0.46999998093E+01 0.  1.
</event>
<event>
 5   0  0.2933646E-06  0.3129347E+04  0.7818609E-02  0.8207730E-01
        1   -1    0    0  501    0  0.00000000000E+00  0.00000000000E+00  0.12891907935E+04  0.12891907935E+04  0.50400001928E-02 0.  1.
       -1   -1    0    0    0  501  0.00000000000E+00  0.00000000000E+00 -0.18990236108E+04  0.18990236108E+04  0.50400001928E-02 0. -1.
    10030    2    1    2    0    0  0.00000000000E+00  0.00000000000E+00 -0.60983281726E+03  0.31882144043E+04  0.31293473797E+04 0.  0.
        2    1    3    3  502    0 -0.13982318542E+04  0.10799190433E+03  0.40203084704E+03  0.14588842899E+04  0.25500000920E-02 0.  1.
       -2    1    3    3    0  502  0.13982318542E+04 -0.10799190433E+03 -0.10118636643E+04  0.17293301144E+04  0.25500000920E-02 0. -1.
</event>
<event>
 5   0  0.7510251E-06  0.2998972E+04  0.7818609E-02  0.8244024E-01
        2   -1    0    0  501    0  0.00000000000E+00  0.00000000000E+00  0.18174952498E+04  0.18174952498E+04  0.25500000920E-02 0.  1.
       -2   -1    0    0    0  501  0.00000000000E+00  0.00000000000E+00 -0.12371194827E+04  0.12371194827E+04  0.25500000920E-02 0. -1.
    10030    2    1    2    0    0  0.00000000000E+00  0.00000000000E+00  0.58037576712E+03  0.30546147324E+04  0.29989723461E+04 0.  0.
        3    1    3    3  502    0  0.64940888808E+03 -0.10931853209E+04  0.10997124688E+04  0.16811167639E+04  0.10100000352E+00 0.  1.
       -3    1    3    3    0  502 -0.64940888808E+03  0.10931853209E+04 -0.51933670169E+03  0.13734979685E+04  0.10100000352E+00 0. -1.
</event>
<event>
 5   0  0.8237664E-06  0.1752234E+04  0.7818609E-02  0.8732122E-01
        2   -1    0    0  501    0  0.00000000000E+00  0.00000000000E+00  0.15877863833E+04  0.15877863833E+04  0.25500000920E-02 0.  1.
       -2   -1    0    0    0  501  0.00000000000E+00  0.00000000000E+00 -0.48342814795E+03  0.48342814796E+03  0.25500000920E-02 0. -1.
    10030    2    1    2    0    0  0.00000000000E+00  0.00000000000E+00  0.11043582353E+04  0.20712145312E+04  0.17522335810E+04 0.  0.
        5    1    3    3  502    0 -0.45876803234E+03 -0.13651599333E+03  0.14195549455E+04  0.14980864652E+04  0.46999998093E+01 0.  1.
       -5    1    3    3    0  502  0.45876803234E+03  0.13651599333E+03 -0.31519671020E+03  0.57312806601E+03  0.46999998093E+01 0. -1.
</event>
<event>
 5   0  0.7952307E-06  0.3129689E+04  0.7818609E-02  0.8207637E-01
       -2   -1    0    0    0  501  0.00000000000E+00  0.00000000000E+00  0.10780329895E+04  0.10780329895E+04  0.25500000920E-02 0.  1.
        2   -1    0    0  501    0  0.00000000000E+00  0.00000000000E+00 -0.22714877728E+04  0.22714877728E+04  0.25500000920E-02 0. -1.
    10030    2    1    2    0    0  0.00000000000E+00  0.00000000000E+00 -0.11934547833E+04  0.33495207623E+04  0.31296892845E+04 0.  0.
        2    1    3    3  502    0  0.95728323186E+02  0.97744202041E+03 -0.19005695591E+04  0.21393273392E+04  0.25500000920E-02 0. -1.
       -2    1    3    3    0  502 -0.95728323186E+02 -0.97744202041E+03  0.70711477584E+03  0.12101934231E+04  0.25500000920E-02 0.  1.
</event>
<event>
 5   0  0.3938696E-06  0.2958766E+04  0.7818609E-02  0.8255605E-01
       -1   -1    0    0    0  501  0.00000000000E+00  0.00000000000E+00  0.93656011138E+03  0.93656011139E+03  0.50400001928E-02 0. -1.
        1   -1    0    0  501    0  0.00000000000E+00  0.00000000000E+00 -0.23368214365E+04  0.23368214365E+04  0.50400001928E-02 0.  1.
    10030    2    1    2    0    0  0.00000000000E+00  0.00000000000E+00 -0.14002613251E+04  0.32733815479E+04  0.29587657865E+04 0.  0.
        4    1    3    3  502    0 -0.74600598307E+03  0.40647215709E+03  0.63977917903E+03  0.10635147164E+04  0.12699999809E+01 0. -1.
       -4    1    3    3    0  502  0.74600598307E+03 -0.40647215709E+03 -0.20400405042E+04  0.22098668315E+04  0.12699999809E+01 0.  1.
</event>
<event>
 5   0  0.7971763E-06  0.3389100E+04  0.7818609E-02  0.8140587E-01
       -2   -1    0    0    0  501  0.00000000000E+00  0.00000000000E+00  0.17887206370E+04  0.17887206370E+04  0.25500000920E-02 0. -1.
        2   -1    0    0  501    0  0.00000000000E+00  0.00000000000E+00 -0.16053376278E+04  0.16053376278E+04  0.25500000920E-02 0.  1.
    10030    2    1    2    0    0  0.00000000000E+00  0.00000000000E+00  0.18338300923E+03  0.33940582647E+04  0.33891004966E+04 0.  0.
        1    1    3    3  502    0  0.64622651130E+03 -0.11218408366E+04 -0.10032353562E+04  0.16378695756E+04  0.50400001928E-02 0.  1.
       -1    1    3    3    0  502 -0.64622651130E+03  0.11218408366E+04  0.11866183654E+04  0.17561886892E+04  0.50400001928E-02 0. -1.
</event>
<event>
 5   0  0.2933646E-06  0.2309853E+04  0.7818609E-02  0.8474046E-01
        1   -1    0    0  501    0  0.00000000000E+00  0.00000000000E+00  0.90958521884E+03  0.90958521885E+03  0.50400001928E-02 0. -1.
       -1   -1    0    0    0  501  0.00000000000E+00  0.00000000000E+00 -0.14664434534E+04  0.14664434534E+04  0.50400001928E-02 0.  1.
    10030    2    1    2    0    0  0.00000000000E+00  0.00000000000E+00 -0.55685823457E+03  0.23760286723E+04  0.23098530598E+04 0.  0.
        2    1    3    3  502    0 -0.90808791713E+03  0.51897133864E+02 -0.10105342861E+04  0.13595942487E+04  0.25500000920E-02 0.  1.
       -2    1    3    3    0  502  0.90808791713E+03 -0.51897133864E+02  0.45367605150E+03  0.10164344236E+04  0.25500000920E-02 0. -1.
</event>
<event>
 5   0  0.2788054E-06  0.3219229E+04  0.7818609E-02  0.8183757E-01
        1   -1    0    0  501    0  0.00000000000E+00  0.00000000000E+00  0.22694313346E+04  0.22694313346E+04  0.50400001928E-02 0. -1.
       -1   -1    0    0    0  501  0.00000000000E+00  0.00000000000E+00 -0.11416336038E+04  0.11416336038E+04  0.50400001928E-02 0.  1.
    10030    2    1    2    0    0  0.00000000000E+00  0.00000000000E+00  0.11277977309E+04  0.34110649384E+04  0.32192291456E+04 0.  0.
        3    1    3    3  502    0 -0.88195023420E+03  0.13263414486E+04  0.80976317964E+03  0.17868223950E+04  0.10100000352E+00 0. -1.
       -3    1    3    3    0  502  0.88195023420E+03 -0.13263414486E+04  0.31803455123E+03  0.16242425434E+04  0.10100000352E+00 0.  1.
</event>
<event>
 5   0  0.2788054E-06  0.3173814E+04  0.7818609E-02  0.8195767E-01
       -1   -1    0    0    0  501  0.00000000000E+00  0.00000000000E+00  0.15619800314E+04  0.15619800314E+04  0.50400001928E-02 0.  1.
        1   -1    0    0  501    0  0.00000000000E+00  0.00000000000E+00 -0.16122317031E+04  0.16122317031E+04  0.50400001928E-02 0. -1.
    10030    2    1    2    0    0  0.00000000000E+00  0.00000000000E+00 -0.50251671713E+02  0.31742117345E+04  0.31738139367E+04 0.  0.
        3    1    3    3  502    0 -0.77916292492E+03 -0.13518776629E+04  0.26405679885E+03  0.15825277508E+04  0.10100000352E+00 0.  1.
       -3    1    3    3    0  502  0.77916292492E+03  0.13518776629E+04 -0.31430847057E+03  0.15916839837E+04  0.10100000352E+00 0. -1.
</event>
<event>
 5   0  0.2933646E-06  0.1728893E+04  0.7818609E-02  0.8745055E-01
       -1   -1    0    0    0  501  0.00000000000E+00  0.00000000000E+00  0.10040274309E+04  0.10040274309E+04  0.50400001928E-02 0. -1.
        1   -1    0    0  501    0  0.00000000000E+00  0.00000000000E+00 -0.74427062153E+03  0.74427062155E+03  0.50400001928E-02 0.  1.
    10030    2    1    2    0    0  0.00000000000E+00  0.00000000000E+00  0.25975680935E+03  0.17482980524E+04  0.17288934265E+04 0.  0.
        2    1    3    3  502    0  0.34795834042E+03 -0.53482479606E+03  0.71965296017E+03  0.96177593661E+03  0.25500000920E-02 0. -1.
       -2    1    3    3    0  502 -0.34795834042E+03  0.53482479606E+03 -0.45989615082E+03  0.78652211584E+03  0.25500000920E-02 0.  1.
</event>
<event>
 5   0  0.2788054E-06  0.3210800E+04  0.7818609E-02  0.8185971E-01
       -1   -1    0    0    0  501  0.00000000000E+00  0.00000000000E+00  0.14214913926E+04  0.14214913926E+04  0.50400001928E-02 0. -1.
        1   -1    0    0  501    0  0.00000000000E+00  0.00000000000E+00 -0.18131021557E+04  0.18131021557E+04  0.50400001928E-02 0.  1.
    10030    2    1    2    0    0  0.00000000000E+00  0.00000000000E+00 -0.39161076308E+03  0.32345935483E+04  0.32107999678E+04 0.  0.
        3    1    3    3  502    0 -0.75504167999E+03 -0.12254279814E+04  0.52048219048E+03  0.15305761651E+04  0.10100000352E+00 0. -1.
       -3    1    3    3    0  502  0.75504167999E+03  0.12254279814E+04 -0.91209295356E+03  0.17040173832E+04  0.10100000352E+00 0.  1.
</event>
<event>
 5   0  0.2635798E-06  0.2100034E+04  0.7818609E-02  0.8561228E-01
       -1   -1    0    0    0  501  0.00000000000E+00  0.00000000000E+00  0.93155325133E+03  0.93155325135E+03  0.50400001928E-02 0.  1.
        1   -1    0    0  501    0  0.00000000000E+00  0.00000000000E+00 -0.11835458237E+04  0.11835458237E+04  0.50400001928E-02 0. -1.
    10030    2    1    2    0    0  0.00000000000E+00  0.00000000000E+00 -0.25199257237E+03  0.21150990751E+04  0.21000342475E+04 0.  0.
        1    1    3    3  502    0 -0.81942504024E+03 -0.65515833556E+03 -0.16927099740E+03  0.10627052798E+04  0.50400001928E-02 0. -1.
       -1    1    3    3    0  502  0.81942504024E+03  0.65515833556E+03 -0.82721574975E+02  0.10523937952E+04  0.50400001928E-02 0.  1.
</event>
<event>
 5   0  0.2933646E-06  0.2925078E+04  0.7818609E-02  0.8265455E-01
        1   -1    0    0  501    0  0.00000000000E+00  0.00000000000E+00  0.19886568768E+04  0.19886568768E+04  0.50400001928E-02 0. -1.
       -1   -1    0    0    0  501  0.00000000000E+00  0.00000000000E+00 -0.10756104509E+04  0.10756104509E+04  0.50400001928E-02 0.  1.
    10030    2    1    2    0    0  0.00000000000E+00  0.00000000000E+00  0.91304642587E+03  0.30642673277E+04  0.29250778588E+04 0.  0.
        2    1    3    3  502    0 -0.62822978975E+03  0.63655729665E+03 -0.75575577511E+03  0.11709161594E+04  0.25500000920E-02 0.  1.
       -2    1    3    3    0  502  0.62822978975E+03 -0.63655729665E+03  0.16688022010E+04  0.18933511683E+04  0.25500000920E-02 0. -1.
</event>
<event>
 5   0  0.7952307E-06  0.3192724E+04  0.7818609E-02  0.8190742E-01
       -2   -1    0    0    0  501  0.00000000000E+00  0.00000000000E+00  0.18856884677E+04  0.18856884677E+04  0.25500000920E-02 0. -1.
        2   -1    0    0  501    0  0.00000000000E+00  0.00000000000E+00 -0.13514273206E+04  0.13514273207E+04  0.25500000920E-02 0.  1.
    10030    2    1    2    0    0  0.00000000000E+00  0.00000000000E+00  0.53426114704E+03  0.32371157883E+04  0.31927235480E+04 0.  0.
        2    1    3    3  502    0 -0.11053475855E+04 -0.17349844904E+03 -0.88733010557E+03  0.14280230085E+04  0.25500000920E-02 0.  1.
       -2    1    3    3    0  502  0.11053475855E+04  0.17349844904E+03  0.14215912526E+04  0.18090927798E+04  0.25500000920E-02 0. -1.
</event>
<event>
 5   0  0.2933646E-06  0.1667593E+04  0.7818609E-02  0.8780066E-01
        1   -1    0    0  501    0  0.00000000000E+00  0.00000000000E+00  0.10203516294E+04  0.10203516294E+04  0.50400001928E-02 0.  1.
       -1   -1    0    0    0  501  0.00000000000E+00  0.00000000000E+00 -0.68135040757E+03  0.68135040759E+03  0.50400001928E-02 0. -1.
    10030    2    1    2    0    0  0.00000000000E+00  0.00000000000E+00  0.33900122179E+03  0.17017020370E+04  0.16675934739E+04 0.  0.
        2    1    3    3  502    0 -0.41411373379E+03  0.21797503106E+03  0.87369777933E+03  0.99113627130E+03  0.25500000920E-02 0.  1.
       -2    1    3    3    0  502  0.41411373379E+03 -0.21797503106E+03 -0.53469655754E+03  0.71056576566E+03  0.25500000920E-02 0. -1.
</event>
<event>
 5   0  0.4142886E-06  0.3166203E+04  0.7818609E-02  0.8197800E-01
       -1   -1    0    0    0  501  0.00000000000E+00  0.00000000000E+00  0.19042377450E+04  0.19042377450E+04  0.50400001928E-02 0. -1.
        1   -1    0    0  501    0  0.00000000000E+00  0.00000000000E+00 -0.13161224368E+04  0.13161224368E+04  0.50400001928E-02 0.  1.
    10030    2    1    2    0    0  0.00000000000E+00  0.00000000000E+00  0.58811530817E+03  0.32203601818E+04  0.31662027864E+04 0.  0.
        5    1    3    3  502    0 -0.86984594515E+03 -0.11920295893E+04  0.87711820162E+03  0.17166609856E+04  0.46999998093E+01 0. -1.
       -5    1    3    3    0  502  0.86984594515E+03  0.11920295893E+04 -0.28900289345E+03  0.15036991961E+04  0.46999998093E+01 0.  1.
</event>
<event>
 5   0  0.7510251E-06  0.2697949E+04  0.7818609E-02  0.8335671E-01
        2   -1    0    0  501    0  0.00000000000E+00  0.00000000000E+00  0.21781170920E+04  0.21781170920E+04  0.25500000920E-02 0.  1.
       -2   -1    0    0    0  501  0.00000000000E+00  0.00000000000E+00 -0.83546100432E+03  0.83546100432E+03  0.25500000920E-02 0. -1.
    10030    2    1    2    0    0  0.00000000000E+00  0.00000000000E+00  0.13426560876E+04  0.30135780963E+04  0.26979487713E+04 0.  0.
        3    1    3    3  502    0 -0.58178887331E+03  0.12170409143E+04  0.68033368542E+03  0.15108013814E+04  0.10100000352E+00 0. -1.
       -3    1    3    3    0  502  0.58178887331E+03 -0.12170409143E+04  0.66232240222E+03  0.15027767149E+04  0.10100000352E+00 0.  1.
</event>
<event>
 5   0  0.7510251E-06  0.3133918E+04  0.7818609E-02  0.8206491E-01
       -2   -1    0    0    0  501  0.00000000000E+00  0.00000000000E+00  0.12456447709E+04  0.12456447709E+04  0.25500000920E-02 0. -1.
        2   -1    0    0  501    0  0.00000000000E+00  0.00000000000E+00 -0.19711565392E+04  0.19711565392E+04  0.25500000920E-02 0.  1.
    10030    2    1    2    0    0  0.00000000000E+00  0.00000000000E+00 -0.72551176822E+03  0.32168013101E+04  0.31339182093E+04 0.  0.
        3    1    3    3  502    0 -0.14115304760E+04  0.22360239807E+03 -0.10223585869E+04  0.17571663005E+04  0.10100000352E+00 0.  1.
       -3    1    3    3    0  502  0.14115304760E+04 -0.22360239807E+03  0.29684681870E+03  0.14596350096E+04  0.10100000352E+00 0. -1.
</event>
<event>
 5   0  0.7941434E-06  0.3152917E+04  0.7818609E-02  0.8201364E-01
       -2   -1    0    0    0  501  0.00000000000E+00  0.00000000000E+00  0.96476308231E+03  0.96476308231E+03  0.25500000920E-02 0.  1.
        2   -1    0    0  501    0  0.00000000000E+00  0.00000000000E+00 -0.25759911499E+04  0.25759911499E+04  0.25500000920E-02 0. -1.
    10030    2    1    2    0    0  0.00000000000E+00  0.00000000000E+00 -0.16112280676E+04  0.35407542322E+04  0.31529168475E+04 0.  0.
        4    1    3    3  502    0 -0.90730635130E+03  0.11917147101E+04 -0.25335979593E+03  0.15190726001E+04  0.12699999809E+01 0. -1.
       -4    1    3    3    0  502  0.90730635130E+03 -0.11917147101E+04 -0.13578682717E+04  0.20216816321E+04  0.12699999809E+01 0.  1.
</event>
<event>
 5   0  0.7510251E-06  0.3063642E+04  0.7818609E-02  0.8225787E-01
        2   -1    0    0  501    0  0.00000000000E+00  0.00000000000E+00  0.21377111115E+04  0.21377111115E+04  0.25500000920E-02 0. -1.
       -2   -1    0    0    0  501  0.00000000000E+00  0.00000000000E+00 -0.10976582633E+04  0.10976582633E+04  0.25500000920E-02 0.  1.
    10030    2    1    2    0    0  0.00000000000E+00  0.00000000000E+00  0.10400528482E+04  0.32353693748E+04  0.30636424505E+04 0.  0.
        3    1    3    3  502    0 -0.50182265868E+03  0.79556474370E+02  0.20461314548E+04  0.21082716034E+04  0.10100000352E+00 0. -1.
       -3    1    3    3    0  502  0.50182265868E+03 -0.79556474370E+02 -0.10060786066E+04  0.11270977714E+04  0.10100000352E+00 0.  1.
</event>
<event>
 5   0  0.7971763E-06  0.3122160E+04  0.7818609E-02  0.8209682E-01
        2   -1    0    0  501    0  0.00000000000E+00  0.00000000000E+00  0.20226959414E+04  0.20226959414E+04  0.25500000920E-02 0.  1.
       -2   -1    0    0    0  501  0.00000000000E+00  0.00000000000E+00 -0.12048133096E+04  0.12048133096E+04  0.25500000920E-02 0. -1.
    10030    2    1    2    0    0  0.00000000000E+00  0.00000000000E+00  0.81788263177E+03  0.32275092510E+04  0.31221601442E+04 0.  0.
        1    1    3    3  502    0  0.15519362743E+04  0.66534962527E+02  0.24866826753E+03  0.15731398565E+04  0.50400001928E-02 0. -1.
       -1    1    3    3    0  502 -0.15519362743E+04 -0.66534962527E+02  0.56921436424E+03  0.16543693945E+04  0.50400001928E-02 0.  1.
</event>
<event>
 5   0  0.7510251E-06  0.2813066E+04  0.7818609E-02  0.8299223E-01
       -2   -1    0    0    0  501  0.00000000000E+00  0.00000000000E+00  0.13584961744E+04  0.13584961744E+04  0.25500000920E-02 0.  1.
        2   -1    0    0  501    0  0.00000000000E+00  0.00000000000E+00 -0.14562683499E+04  0.14562683499E+04  0.25500000920E-02 0. -1.
    10030    2    1    2    0    0  0.00000000000E+00  0.00000000000E+00 -0.97772175562E+02  0.28147645243E+04  0.28130659305E+04 0.  0.
        3    1    3    3  502    0 -0.24167328736E+03  0.53172692969E+03 -0.13291880896E+04  0.14518541571E+04  0.10100000352E+00 0. -1.
       -3    1    3    3    0  502  0.24167328736E+03 -0.53172692969E+03  0.12314159141E+04  0.13629103673E+04  0.10100000352E+00 0.  1.
</event>
<event>
 5   0  0.8237664E-06  0.3221663E+04  0.7818609E-02  0.8183119E-01
       -2   -1    0    0    0  501  0.00000000000E+00  0.00000000000E+00  0.13766676940E+04  0.13766676940E+04  0.25500000920E-02 0. -1.
        2   -1    0    0  501    0  0.00000000000E+00  0.00000000000E+00 -0.18848249161E+04  0.18848249161E+04  0.25500000920E-02 0.  1.
    10030    2    1    2    0    0  0.00000000000E+00  0.00000000000E+00 -0.50815722205E+03  0.32614926101E+04  0.32216626582E+04 0.  0.
        5    1    3    3  502    0  0.14602573616E+04  0.60644497123E+03  0.57341833121E+02  0.15822254078E+04  0.46999998093E+01 0. -1.
       -5    1    3    3    0  502 -0.14602573616E+04 -0.60644497123E+03 -0.56549905517E+03  0.16792672023E+04  0.46999998093E+01 0.  1.
</event>
<event>
 5   0  0.4142886E-06  0.3231145E+04  0.7818609E-02  0.8180640E-01
       -1   -1    0    0    0  501  0.00000000000E+00  0.00000000000E+00  0.19064861219E+04  0.19064861219E+04  0.50400001928E-02 0. -1.
        1   -1    0    0  501    0  0.00000000000E+00  0.00000000000E+00 -0.13690495800E+04  0.13690495800E+04  0.50400001928E-02 0.  1.
    10030    2    1    2    0    0  0.00000000000E+00  0.00000000000E+00  0.53743654187E+03  0.32755357019E+04  0.32311447040E+04 0.  0.
        5    1    3    3  502    0 -0.15128424818E+03 -0.41088284283E+02  0.18987507162E+04  0.19052169281E+04  0.46999998093E+01 0. -1.
       -5    1    3    3    0  502  0.15128424818E+03  0.41088284283E+02 -0.13613141743E+04  0.13703187739E+04  0.46999998093E+01 0.  1.
</event>
<event>
 5   0  0.2635798E-06  0.3156611E+04  0.7818609E-02  0.8200371E-01
       -1   -1    0    0    0  501  0.00000000000E+00  0.00000000000E+00  0.12798848864E+04  0.12798848864E+04  0.50400001928E-02 0. -1.
        1   -1    0    0  501    0  0.00000000000E+00  0.00000000000E+00 -0.19463062889E+04  0.19463062889E+04  0.50400001928E-02 0.  1.
    10030    2    1    2    0    0  0.00000000000E+00  0.00000000000E+00 -0.66642140251E+03  0.32261911753E+04  0.31566108429E+04 0.  0.
        1    1    3    3  502    0 -0.29182415584E+03 -0.84443899577E+03  0.99654876934E+03  0.13384124944E+04  0.50400001928E-02 0. -1.
       -1    1    3    3    0  502  0.29182415584E+03  0.84443899577E+03 -0.16629701718E+04  0.18877786809E+04  0.50400001928E-02 0.  1.
</event>
<event>
 5   0  0.2788054E-06  0.3318585E+04  0.7818609E-02  0.8158183E-01
       -1   -1    0    0    0  501  0.00000000000E+00  0.00000000000E+00  0.19642034947E+04  0.19642034947E+04  0.50400001928E-02 0.  1.
        1   -1    0    0  501    0  0.00000000000E+00  0.00000000000E+00 -0.14017138474E+04  0.14017138474E+04  0.50400001928E-02 0. -1.
    10030    2    1    2    0    0  0.00000000000E+00  0.00000000000E+00  0.56248964735E+03  0.33659173421E+04  0.33185847813E+04 0.  0.
        3    1    3    3  502    0  0.50579906382E+03  0.14195013599E+04 -0.42323680799E+03  0.15652304014E+04  0.10100000352E+00 0. -1.
       -3    1    3    3    0  502 -0.50579906382E+03 -0.14195013599E+04  0.98572645534E+03  0.18006869407E+04  0.10100000352E+00 0.  1.
</event>
<event>
 5   0  0.2635798E-06  0.3144991E+04  0.7818609E-02  0.8203498E-01
       -1   -1    0    0    0  501  0.00000000000E+00  0.00000000000E+00  0.13531973470E+04  0.13531973470E+04  0.50400001928E-02 0.  1.
        1   -1    0    0  501    0  0.00000000000E+00  0.00000000000E+00 -0.18273328156E+04  0.18273328156E+04  0.50400001928E-02 0. -1.
    10030    2    1    2    0    0  0.00000000000E+00  0.00000000000E+00 -0.47413546858E+03  0.31805301626E+04  0.31449908859E+04 0.  0.
        1    1    3    3  502    0 -0.89370762794E+03 -0.68042387156E+03  0.87584603024E+03  0.14243581846E+04  0.50400001928E-02 0.  1.
       -1    1    3    3    0  502  0.89370762794E+03  0.68042387156E+03 -0.13499814988E+04  0.17561719780E+04  0.50400001928E-02 0. -1.
</event>
<event>
 5   0  0.3938696E-06  0.2106113E+04  0.7818609E-02  0.8558555E-01
       -1   -1    0    0    0  501  0.00000000000E+00  0.00000000000E+00  0.11175417381E+04  0.11175417381E+04  0.50400001928E-02 0.  1.
        1   -1    0    0  501    0  0.00000000000E+00  0.00000000000E+00 -0.99229256745E+03  0.99229256747E+03  0.50400001928E-02 0. -1.
    10030    2    1    2    0    0  0.00000000000E+00  0.00000000000E+00  0.12524917069E+03  0.21098343056E+04  0.21061133498E+04 0.  0.
        4    1    3    3  502    0 -0.11160923603E+03  0.35894769827E+03  0.10480426625E+04  0.11134159632E+04  0.12699999809E+01 0.  1.
       -4    1    3    3    0  502  0.11160923603E+03 -0.35894769827E+03 -0.92279349185E+03  0.99641834244E+03  0.12699999809E+01 0. -1.
</event>
<event>
 5   0  0.7941434E-06  0.3008244E+04  0.7818609E-02  0.8241381E-01
       -2   -1    0    0    0  501  0.00000000000E+00  0.00000000000E+00  0.93573033623E+03  0.93573033623E+03  0.25500000920E-02 0.  1.
        2   -1    0    0  501    0  0.00000000000E+00  0.00000000000E+00 -0.24177726548E+04  0.24177726548E+04  0.25500000920E-02 0. -1.
    10030    2    1    2    0    0  0.00000000000E+00  0.00000000000E+00 -0.14820423186E+04  0.33535029910E+04  0.30082441518E+04 0.  0.
        4    1    3    3  502    0 -0.13807242526E+04 -0.21828947933E+03 -0.12201522887E+03  0.14031888994E+04  0.12699999809E+01 0.  1.
       -4    1    3    3    0  502  0.13807242526E+04  0.21828947933E+03 -0.13600270897E+04  0.19503140916E+04  0.12699999809E+01 0. -1.
</event>
<event>
 5   0  0.8237664E-06  0.3097788E+04  0.7818609E-02  0.8216345E-01
        2   -1    0    0  501    0  0.00000000000E+00  0.00000000000E+00  0.24403054118E+04  0.24403054118E+04  0.25500000920E-02 0.  1.
       -2   -1    0    0    0  501  0.00000000000E+00  0.00000000000E+00 -0.98310324772E+03  0.98310324772E+03  0.25500000920E-02 0. -1.
    10030    2    1    2    0    0  0.00000000000E+00  0.00000000000E+00  0.14572021641E+04  0.34234086595E+04  0.30977877111E+04 0.  0.
        5    1    3    3  502    0 -0.99184558093E+03  0.33713754523E+03  0.19894149722E+04  0.22483801730E+04  0.46999998093E+01 0.  1.
       -5    1    3    3    0  502  0.99184558093E+03 -0.33713754523E+03 -0.53221280817E+03  0.11750284865E+04  0.46999998093E+01 0. -1.
</event>
<event>
 5   0  0.2635798E-06  0.3054455E+04  0.7818609E-02  0.8228350E-01
        1   -1    0    0  501    0  0.00000000000E+00  0.00000000000E+00  0.21374435495E+04  0.21374435495E+04  0.50400001928E-02 0. -1.
       -1   -1    0    0    0  501  0.00000000000E+00  0.00000000000E+00 -0.10912210063E+04  0.10912210064E+04  0.50400001928E-02 0.  1.
    10030    2    1    2    0    0  0.00000000000E+00  0.00000000000E+00  0.10462225431E+04  0.32286645558E+04  0.30544546493E+04 0.  0.
        1    1    3    3  502    0  0.85813657579E+03  0.12592351627E+04  0.63065759697E+03  0.16491817917E+04  0.50400001928E-02 0. -1.
       -1    1    3    3    0  502 -0.85813657579E+03 -0.12592351627E+04  0.41556494615E+03  0.15794827641E+04  0.50400001928E-02 0.  1.
</event>
<event>
 5   0  0.7510251E-06  0.3169520E+04  0.7818609E-02  0.8196914E-01
       -2   -1    0    0    0  501  0.00000000000E+00  0.00000000000E+00  0.23668469268E+04  0.23668469268E+04  0.25500000920E-02 0.  1.
        2   -1    0    0  501    0  0.00000000000E+00  0.00000000000E+00 -0.10611012458E+04  0.10611012458E+04  0.25500000920E-02 0. -1.
    10030    2    1    2    0    0  0.00000000000E+00  0.00000000000E+00  0.13057456810E+04  0.34279481726E+04  0.31695199780E+04 0.  0.
        3    1    3    3  502    0 -0.12481315515E+04  0.41790301301E+03  0.16074397874E+04  0.20775798369E+04  0.10100000352E+00 0.  1.
       -3    1    3    3    0  502  0.12481315515E+04 -0.41790301301E+03 -0.30169410647E+03  0.13503683357E+04  0.10100000352E+00 0. -1.
</event>
<event>
 5   0  0.7971763E-06  0.3138899E+04  0.7818609E-02  0.8205143E-01
       -2   -1    0    0    0  501  0.00000000000E+00  0.00000000000E+00  0.29205918209E+04  0.29205918209E+04  0.25500000920E-02 0.  1.
        2   -1    0    0  501    0  0.00000000000E+00  0.00000000000E+00 -0.84338103459E+03  0.84338103459E+03  0.25500000920E-02 0. -1.
    10030    2    1    2    0    0  0.00000000000E+00  0.00000000000E+00  0.20772107863E+04  0.37639728555E+04  0.31388990118E+04 0.  0.
        1    1    3    3  502    0 -0.74764093851E+03 -0.66742167339E+03 -0.40969961932E+03  0.10827153094E+04  0.50400001928E-02 0. -1.
       -1    1    3    3    0  502  0.74764093851E+03  0.66742167339E+03  0.24869104056E+04  0.26812575461E+04  0.50400001928E-02 0.  1.
</event>
<event>
 5   0  0.7952307E-06  0.2093160E+04  0.7818609E-02  0.8564263E-01
        2   -1    0    0  501    0  0.00000000000E+00  0.00000000000E+00  0.13678455645E+04  0.13678455645E+04  0.25500000920E-02 0.  1.
       -2   -1    0    0    0  501  0.00000000000E+00  0.00000000000E+00 -0.80076973009E+03  0.80076973009E+03  0.25500000920E-02 0. -1.
    10030    2    1    2    0    0  0.00000000000E+00  0.00000000000E+00  0.56707583445E+03  0.21686152946E+04  0.20931596437E+04 0.  0.
        2    1    3    3  502    0  0.10026169777E+04 -0.10047239823E+02 -0.27255228071E+02  0.10030376855E+04  0.25500000920E-02 0. -1.
       -2    1    3    3    0  502 -0.10026169777E+04  0.10047239823E+02  0.59433106252E+03  0.11655776091E+04  0.25500000920E-02 0.  1.
</event>
<event>
 5   0  0.2933646E-06  0.3157012E+04  0.7818609E-02  0.8200263E-01
        1   -1    0    0  501    0  0.00000000000E+00  0.00000000000E+00  0.15018474734E+04  0.15018474735E+04  0.50400001928E-02 0.  1.
       -1   -1    0    0    0  501  0.00000000000E+00  0.00000000000E+00 -0.16590774013E+04  0.16590774013E+04  0.50400001928E-02 0. -1.
    10030    2    1    2    0    0  0.00000000000E+00  0.00000000000E+00 -0.15722992780E+03  0.31609248747E+04  0.31570120072E+04 0.  0.
        2    1    3    3  502    0  0.14677767949E+04  0.24462200355E+03  0.44879455065E+03  0.15542281663E+04  0.25500000920E-02 0. -1.
       -2    1    3    3    0  502 -0.14677767949E+04 -0.24462200355E+03 -0.60602447845E+03  0.16066967084E+04  0.25500000920E-02 0.  1.
</event>
<event>
 5   0  0.3938696E-06  0.3283145E+04  0.7818609E-02  0.8167197E-01
        1   -1    0    0  501    0  0.00000000000E+00  0.00000000000E+00  0.17937505355E+04  0.17937505355E+04  0.50400001928E-02 0. -1.
       -1   -1    0    0    0  501  0.00000000000E+00  0.00000000000E+00 -0.15023048117E+04  0.15023048117E+04  0.50400001928E-02 0.  1.
    10030    2    1    2    0    0  0.00000000000E+00  0.00000000000E+00  0.29144572378E+03  0.32960553472E+04  0.32831448707E+04 0.  0.
        4    1    3    3  502    0 -0.48117799990E+03  0.15521315646E+04 -0.87815596760E+02  0.16273776001E+04  0.12699999809E+01 0.  1.
       -4    1    3    3    0  502  0.48117799990E+03 -0.15521315646E+04  0.37926132054E+03  0.16686777471E+04  0.12699999809E+01 0. -1.
</event>
<event>
 5   0  0.8237664E-06  0.1770504E+04  0.7818609E-02  0.8722144E-01
       -2   -1    0    0    0  501  0.00000000000E+00  0.00000000000E+00  0.42763377305E+03  0.42763377306E+03  0.25500000920E-02 0.  1.
        2   -1    0    0  501    0  0.00000000000E+00  0.00000000000E+00 -0.18325760575E+04  0.18325760575E+04  0.25500000920E-02 0. -1.
    10030    2    1    2    0    0  0.00000000000E+00  0.00000000000E+00 -0.14049422845E+04  0.22602098306E+04  0.17705043506E+04 0.  0.
        5    1    3    3  502    0  0.21434904732E+02 -0.84411872184E+03 -0.10417981712E+04  0.13410299740E+04  0.46999998093E+01 0. -1.
       -5    1    3    3    0  502 -0.21434904732E+02  0.84411872184E+03 -0.36314411327E+03  0.91917985655E+03  0.46999998093E+01 0.  1.
</event>
<event>
 5   0  0.2933646E-06  0.3209312E+04  0.7818609E-02  0.8186362E-01
        1   -1    0    0  501    0  0.00000000000E+00  0.00000000000E+00  0.20015590671E+04  0.20015590671E+04  0.50400001928E-02 0.  1.
       -1   -1    0    0    0  501  0.00000000000E+00  0.00000000000E+00 -0.12864572613E+04  0.12864572613E+04  0.50400001928E-02 0. -1.
    10030    2    1    2    0    0  0.00000000000E+00  0.00000000000E+00  0.71510180578E+03  0.32880163284E+04  0.32093115746E+04 0.  0.
        2    1    3    3  502    0  0.12952027887E+04  0.77944272448E+03  0.90912069463E+03  0.17639675910E+04  0.25500000920E-02 0.  1.
       -2    1    3    3    0  502 -0.12952027887E+04 -0.77944272448E+03 -0.19401888884E+03  0.15240487374E+04  0.25500000920E-02 0. -1.
</event>
<event>
 5   0  0.2580875E-06  0.3198662E+04  0.7818609E-02  0.8189171E-01
       -3   -1    0    0    0  501  0.00000000000E+00  0.00000000000E+00  0.16689532000E+04  0.16689532030E+04  0.10100000352E+00 0.  1.
        3   -1    0    0  501    0  0.00000000000E+00  0.00000000000E+00 -0.15326135004E+04  0.15326135037E+04  0.10100000352E+00 0. -1.
    10030    2    1    2    0    0  0.00000000000E+00  0.00000000000E+00  0.13633969959E+03  0.32015667067E+04  0.31986623554E+04 0.  0.
        4    1    3    3  502    0 -0.12343969124E+04  0.61423246452E+03 -0.74302352831E+03  0.15662384347E+04  0.12699999809E+01 0. -1.
       -4    1    3    3    0  502  0.12343969124E+04 -0.61423246452E+03  0.87936322790E+03  0.16353282720E+04  0.12699999809E+01 0.  1.
</event>
<event>
 5   0  0.3938696E-06  0.3028959E+04  0.7818609E-02  0.8235509E-01
       -1   -1    0    0    0  501  0.00000000000E+00  0.00000000000E+00  0.10432306274E+04  0.10432306275E+04  0.50400001928E-02 0. -1.
        1   -1    0    0  501    0  0.00000000000E+00  0.00000000000E+00 -0.21986012951E+04  0.21986012951E+04  0.50400001928E-02 0.  1.
    10030    2    1    2    0    0  0.00000000000E+00  0.00000000000E+00 -0.11553706676E+04  0.32418319225E+04  0.30289590348E+04 0.  0.
        4    1    3    3  502    0  0.62160419941E+03 -0.75113195420E+02 -0.20535894479E+04  0.21469198882E+04  0.12699999809E+01 0.  1.
       -4    1    3    3    0  502 -0.62160419941E+03  0.75113195420E+02  0.89821878027E+03  0.10949120344E+04  0.12699999809E+01 0. -1.
</event>
<event>
 5   0  0.2788054E-06  0.3231991E+04  0.7818609E-02  0.8180419E-01
        1   -1    0    0  501    0  0.00000000000E+00  0.00000000000E+00  0.91919341138E+03  0.91919341139E+03  0.50400001928E-02 0. -1.
       -1   -1    0    0    0  501  0.00000000000E+00  0.00000000000E+00 -0.28410145999E+04  0.28410145999E+04  0.50400001928E-02 0.  1.
    10030    2    1    2    0    0  0.00000000000E+00  0.00000000000E+00 -0.19218211885E+04  0.37602080113E+04  0.32319912759E+04 0.  0.
        3    1    3    3  502    0 -0.10583751483E+04 -0.14260102149E+02 -0.23815774501E+04  0.26061988539E+04  0.10100000352E+00 0.  1.
       -3    1    3    3    0  502  0.10583751483E+04  0.14260102149E+02  0.45975626157E+03  0.11540091574E+04  0.10100000352E+00 0. -1.
</event>
<event>
 5   0  0.4142886E-06  0.3224775E+04  0.7818609E-02  0.8182305E-01
       -1   -1    0    0    0  501  0.00000000000E+00  0.00000000000E+00  0.15370018272E+04  0.15370018272E+04  0.50400001928E-02 0. -1.
        1   -1    0    0  501    0  0.00000000000E+00  0.00000000000E+00 -0.16914704908E+04  0.16914704908E+04  0.50400001928E-02 0.  1.
    10030    2    1    2    0    0  0.00000000000E+00  0.00000000000E+00 -0.15446866358E+03  0.32284723180E+04  0.32247748666E+04 0.  0.
        5    1    3    3  502    0  0.14883250655E+04 -0.56196006475E+03  0.18547944496E+03  0.16016664226E+04  0.46999998093E+01 0.  1.
       -5    1    3    3    0  502 -0.14883250655E+04  0.56196006475E+03 -0.33994810854E+03  0.16268058954E+04  0.46999998093E+01 0. -1.
</event>
<event>
 5   0  0.2635798E-06  0.3173870E+04  0.7818609E-02  0.8195752E-01
        1   -1    0    0  501    0  0.00000000000E+00  0.00000000000E+00  0.16984933350E+04  0.16984933350E+04  0.50400001928E-02 0. -1.
       -1   -1    0    0    0  501  0.00000000000E+00  0.00000000000E+00 -0.14827037761E+04  0.14827037761E+04  0.50400001928E-02 0.  1.
    10030    2    1    2    0    0  0.00000000000E+00  0.00000000000E+00  0.21578955884E+03  0.31811971111E+04  0.31738698659E+04 0.  0.
        1    1    3    3  502    0 -0.76177473646E+03 -0.45501738282E+03  0.14266148646E+04  0.16800510527E+04  0.50400001928E-02 0. -1.
       -1    1    3    3    0  502  0.76177473646E+03  0.45501738282E+03 -0.12108253057E+04  0.15011460584E+04  0.50400001928E-02 0.  1.
</event>
<event>
 5   0  0.7971763E-06  0.2963577E+04  0.7818609E-02  0.8254209E-01
       -2   -1    0    0    0  501  0.00000000000E+00  0.00000000000E+00  0.80761744423E+03  0.80761744423E+03  0.25500000920E-02 0.  1.
        2   -1    0    0  501    0  0.00000000000E+00  0.00000000000E+00 -0.27187338687E+04  0.27187338687E+04  0.25500000920E-02 0. -1.
    10030    2    1    2    0    0  0.00000000000E+00  0.00000000000E+00 -0.19111164245E+04  0.35263513129E+04  0.29635768244E+04 0.  0.
        1    1    3    3  502    0 -0.79575843590E+03 -0.10883590120E+04 -0.22404721894E+03  0.13667311307E+04  0.50400001928E-02 0.  1.
       -1    1    3    3    0  502  0.79575843590E+03  0.10883590120E+04 -0.16870692055E+04  0.21596201822E+04  0.50400001928E-02 0. -1.
</event>
<event>
 5   0  0.2635798E-06  0.3204582E+04  0.7818609E-02  0.8187608E-01
        1   -1    0    0  501    0  0.00000000000E+00  0.00000000000E+00  0.29883926726E+04  0.29883926726E+04  0.50400001928E-02 0. -1.
       -1   -1    0    0    0  501  0.00000000000E+00  0.00000000000E+00 -0.85910256782E+03  0.85910256783E+03  0.50400001928E-02 0.  1.
    10030    2    1    2    0    0  0.00000000000E+00  0.00000000000E+00  0.21292901048E+04  0.38474952404E+04  0.32045816068E+04 0.  0.
        1    1    3    3  502    0 -0.96569296841E+03 -0.12784139202E+04  0.10895636398E+04  0.19375381250E+04  0.50400001928E-02 0. -1.
       -1    1    3    3    0  502  0.96569296841E+03  0.12784139202E+04  0.10397264650E+04  0.19099571154E+04  0.50400001928E-02 0.  1.
</event>
<event>
 5   0  0.7941434E-06  0.3229227E+04  0.7818609E-02  0.8181141E-01
        2   -1    0    0  501    0  0.00000000000E+00  0.00000000000E+00  0.19503809354E+04  0.19503809354E+04  0.25500000920E-02 0.  1.
       -2   -1    0    0    0  501  0.00000000000E+00  0.00000000000E+00 -0.13366502048E+04  0.13366502048E+04  0.25500000920E-02 0. -1.
    10030    2    1    2    0    0  0.00000000000E+00  0.00000000000E+00  0.61373073057E+03  0.32870311402E+04  0.32292271996E+04 0.  0.
        4    1    3    3  502    0 -0.27120586160E+03 -0.10142128034E+04 -0.94179383105E+03  0.14103749371E+04  0.12699999809E+01 0. -1.
       -4    1    3    3    0  502  0.27120586160E+03  0.10142128034E+04  0.15555245616E+04  0.18766562031E+04  0.12699999809E+01 0.  1.
</event>
<event>
 5   0  0.8237664E-06  0.2150348E+04  0.7818609E-02  0.8539383E-01
       -2   -1    0    0    0  501  0.00000000000E+00  0.00000000000E+00  0.54500426590E+03  0.54500426591E+03  0.25500000920E-02 0. -1.
        2   -1    0    0  501    0  0.00000000000E+00  0.00000000000E+00 -0.21210831831E+04  0.21210831831E+04  0.25500000920E-02 0.  1.
    10030    2    1    2    0    0  0.00000000000E+00  0.00000000000E+00 -0.15760789172E+04  0.26660874490E+04  0.21503482352E+04 0.  0.
        5    1    3    3  502    0  0.78645792622E+03 -0.45545002980E+03 -0.15003018218E+04  0.17541033168E+04  0.46999998093E+01 0.  1.
       -5    1    3    3    0  502 -0.78645792622E+03  0.45545002980E+03 -0.75777095433E+02  0.91198413229E+03  0.46999998093E+01 0. -1.
</event>
<event>
 5   0  0.2933646E-06  0.3073640E+04  0.7818609E-02  0.8223010E-01
        1   -1    0    0  501    0  0.00000000000E+00  0.00000000000E+00  0.22493326240E+04  0.22493326240E+04  0.50400001928E-02 0.  1.
       -1   -1    0    0    0  501  0.00000000000E+00  0.00000000000E+00 -0.10500072261E+04  0.10500072261E+04  0.50400001928E-02 0. -1.
    10030    2    1    2    0    0  0.00000000000E+00  0.00000000000E+00  0.11993253978E+04  0.32993398501E+04  0.30736398678E+04 0.  0.
        2    1    3    3  502    0  0.12992800895E+04 -0.62422314062E+03  0.11717441712E+04  0.18576242039E+04  0.25500000920E-02 0.  1.
       -2    1    3    3    0  502 -0.12992800895E+04  0.62422314062E+03  0.27581226654E+02  0.14417156462E+04  0.25500000920E-02 0. -1.
</event>
<event>
 5   0  0.2635798E-06  0.3174949E+04  0.7818609E-02  0.8195465E-01
        1   -1    0    0  501    0  0.00000000000E+00  0.00000000000E+00  0.26473608102E+04  0.26473608102E+04  0.50400001928E-02 0. -1.
       -1   -1    0    0    0  501  0.00000000000E+00  0.00000000000E+00 -0.95191979798E+03  0.95191979799E+03  0.50400001928E-02 0.  1.
    10030    2    1    2    0    0  0.00000000000E+00  0.00000000000E+00  0.16954410122E+04  0.35992806082E+04  0.31749489241E+04 0.  0.
        1    1    3    3  502    0  0.15465825234E+04 -0.21351409301E+03  0.11734735800E+04  0.19530862789E+04  0.50400001928E-02 0. -1.
       -1    1    3    3    0  502 -0.15465825234E+04  0.21351409301E+03  0.52196743216E+03  0.16461943293E+04  0.50400001928E-02 0.  1.
</event>
<event>
 5   0  0.7952307E-06  0.1857709E+04  0.7818609E-02  0.8676198E-01
        2   -1    0    0  501    0  0.00000000000E+00  0.00000000000E+00  0.11844930333E+04  0.11844930333E+04  0.25500000920E-02 0. -1.
       -2   -1    0    0    0  501  0.00000000000E+00  0.00000000000E+00 -0.72838847074E+03  0.72838847074E+03  0.25500000920E-02 0.  1.
    10030    2    1    2    0    0  0.00000000000E+00  0.00000000000E+00  0.45610456257E+03  0.19128815040E+04  0.18577094166E+04 0.  0.
        2    1    3    3  502    0  0.46570116178E+03 -0.78066820805E+03  0.31461612505E+02  0.90956597133E+03  0.25500000920E-02 0.  1.
       -2    1    3    3    0  502 -0.46570116178E+03  0.78066820805E+03  0.42464295006E+03  0.10033155327E+04  0.25500000920E-02 0. -1.
</event>
<event>
 5   0  0.2788054E-06  0.3213631E+04  0.7818609E-02  0.8185227E-01
        1   -1    0    0  501    0  0.00000000000E+00  0.00000000000E+00  0.21101248630E+04  0.21101248630E+04  0.50400001928E-02 0.  1.
       -1   -1    0    0    0  501  0.00000000000E+00  0.00000000000E+00 -0.12235557223E+04  0.12235557223E+04  0.50400001928E-02 0. -1.
    10030    2    1    2    0    0  0.00000000000E+00  0.00000000000E+00  0.88656914078E+03  0.33336805853E+04  0.32136305642E+04 0.  0.
        3    1    3    3  502    0  0.12935516046E+04  0.94712281958E+03  0.55471207124E+03  0.16964736607E+04  0.10100000352E+00 0.  1.
       -3    1    3    3    0  502 -0.12935516046E+04 -0.94712281958E+03  0.33185706954E+03  0.16372069246E+04  0.10100000352E+00 0. -1.
</event>
<event>
 5   0  0.2788054E-06  0.3072694E+04  0.7818609E-02  0.8223272E-01
        1   -1    0    0  501    0  0.00000000000E+00  0.00000000000E+00  0.24450403418E+04  0.24450403418E+04  0.50400001928E-02 0.  1.
       -1   -1    0    0    0  501  0.00000000000E+00  0.00000000000E+00 -0.96536733419E+03  0.96536733421E+03  0.50400001928E-02 0. -1.
    10030    2    1    2    0    0  0.00000000000E+00  0.00000000000E+00  0.14796730076E+04  0.34104076760E+04  0.30726939820E+04 0.  0.
        3    1    3    3  502    0  0.13629433239E+03 -0.15288132366E+04  0.66524928763E+03  0.16728426950E+04  0.10100000352E+00 0.  1.
       -3    1    3    3    0  502 -0.13629433239E+03  0.15288132366E+04  0.81442371993E+03  0.17375649810E+04  0.10100000352E+00 0. -1.
</event>
<event>
 5   0  0.7952307E-06  0.2439746E+04  0.7818609E-02  0.8424772E-01
        2   -1    0    0  501    0  0.00000000000E+00  0.00000000000E+00  0.28610445708E+04  0.28610445708E+04  0.25500000920E-02 0. -1.
       -2   -1    0    0    0  501  0.00000000000E+00  0.00000000000E+00 -0.52012109380E+03  0.52012109381E+03  0.25500000920E-02 0.  1.
    10030    2    1    2    0    0  0.00000000000E+00  0.00000000000E+00  0.23409234770E+04  0.33811656646E+04  0.24397455864E+04 0.  0.
        2    1    3    3  502    0  0.46760046757E+03 -0.36667442606E+03  0.26469085037E+04  0.27127891476E+04  0.25500000920E-02 0. -1.
       -2    1    3    3    0  502 -0.46760046757E+03  0.36667442606E+03 -0.30598502671E+03  0.66837651707E+03  0.25500000920E-02 0.  1.
</event>
<event>
 5   0  0.4142886E-06  0.3096906E+04  0.7818609E-02  0.8216588E-01
        1   -1    0    0  501    0  0.00000000000E+00  0.00000000000E+00  0.16035638858E+04  0.16035638858E+04  0.50400001928E-02 0. -1.
       -1   -1    0    0    0  501  0.00000000000E+00  0.00000000000E+00 -0.14952357683E+04  0.14952357683E+04  0.50400001928E-02 0.  1.
    10030    2    1    2    0    0  0.00000000000E+00  0.00000000000E+00  0.10832811748E+03  0.30987996542E+04  0.30969056033E+04 0.  0.
        5    1    3    3  502    0  0.57004650362E+03 -0.32032670738E+03  0.14586327632E+04  0.15984973706E+04  0.46999998093E+01 0. -1.
       -5    1    3    3    0  502 -0.57004650362E+03  0.32032670738E+03 -0.13503046458E+04  0.15003022836E+04  0.46999998093E+01 0.  1.
</event>
<event>
 5   0  0.7510251E-06  0.1582985E+04  0.7818609E-02  0.8831070E-01
       -2   -1    0    0    0  501  0.00000000000E+00  0.00000000000E+00  0.29220745936E+03  0.29220745938E+03  0.25500000920E-02 0.  1.
        2   -1    0    0  501    0  0.00000000000E+00  0.00000000000E+00 -0.21438884122E+04  0.21438884122E+04  0.25500000920E-02 0. -1.
    10030    2    1    2    0    0  0.00000000000E+00  0.00000000000E+00 -0.18516809529E+04  0.24360958716E+04  0.15829847581E+04 0.  0.
        3    1    3    3  502    0  0.12569645660E+03 -0.45289141642E+03  0.54190525368E+02  0.47312456871E+03  0.10100000352E+00 0.  1.
       -3    1    3    3    0  502 -0.12569645660E+03  0.45289141642E+03 -0.19058714782E+04  0.19629713029E+04  0.10100000352E+00 0. -1.
</event>
<event>
 5   0  0.7510251E-06  0.2091627E+04  0.7818609E-02  0.8564941E-01
       -2   -1    0    0    0  501  0.00000000000E+00  0.00000000000E+00  0.11149579776E+04  0.11149579776E+04  0.25500000920E-02 0. -1.
        2   -1    0    0  501    0  0.00000000000E+00  0.00000000000E+00 -0.98095732025E+03  0.98095732025E+03  0.25500000920E-02 0.  1.
    10030    2    1    2    0    0  0.00000000000E+00  0.00000000000E+00  0.13400065732E+03  0.20959152978E+04  0.20916272994E+04 0.  0.
        3    1    3    3  502    0 -0.25896473883E+03 -0.41749779386E+02 -0.94745866020E+03  0.98309903012E+03  0.10100000352E+00 0.  1.
       -3    1    3    3    0  502  0.25896473883E+03  0.41749779386E+02  0.10814593175E+04  0.11128162677E+04  0.10100000352E+00 0. -1.
</event>
<event>
 5   0  0.7952307E-06  0.3150948E+04  0.7818609E-02  0.8201893E-01
        2   -1    0    0  501    0  0.00000000000E+00  0.00000000000E+00  0.20763936085E+04  0.20763936085E+04  0.25500000920E-02 0. -1.
       -2   -1    0    0    0  501  0.00000000000E+00  0.00000000000E+00 -0.11953985342E+04  0.11953985342E+04  0.25500000920E-02 0.  1.
    10030    2    1    2    0    0  0.00000000000E+00  0.00000000000E+00  0.88099507440E+03  0.32717921427E+04  0.31509477152E+04 0.  0.
        2    1    3    3  502    0 -0.14864164197E+04  0.52180046757E+03  0.41951421468E+03  0.16302458946E+04  0.25500000920E-02 0.  1.
       -2    1    3    3    0  502  0.14864164197E+04 -0.52180046757E+03  0.46148085972E+03  0.16415462481E+04  0.25500000920E-02 0. -1.
</event>
<event>
 5   0  0.2635798E-06  0.2913475E+04  0.7818609E-02  0.8268880E-01
        1   -1    0    0  501    0  0.00000000000E+00  0.00000000000E+00  0.21969135520E+04  0.21969135520E+04  0.50400001928E-02 0. -1.
       -1   -1    0    0    0  501  0.00000000000E+00  0.00000000000E+00 -0.96593878584E+03  0.96593878585E+03  0.50400001928E-02 0.  1.
    10030    2    1    2    0    0  0.00000000000E+00  0.00000000000E+00  0.12309747662E+04  0.31628523379E+04  0.29134749074E+04 0.  0.
        1    1    3    3  502    0 -0.10739125360E+04  0.97043889023E+03  0.43695994176E+03  0.15119437044E+04  0.50400001928E-02 0.  1.
       -1    1    3    3    0  502  0.10739125360E+04 -0.97043889023E+03  0.79401482441E+03  0.16509086335E+04  0.50400001928E-02 0. -1.
</event>
<event>
 5   0  0.7971763E-06  0.2148361E+04  0.7818609E-02  0.8540234E-01
        2   -1    0    0  501    0  0.00000000000E+00  0.00000000000E+00  0.12563361648E+04  0.12563361648E+04  0.25500000920E-02 0.  1.
       -2   -1    0    0    0  501  0.00000000000E+00  0.00000000000E+00 -0.91843509410E+03  0.91843509410E+03  0.25500000920E-02 0. -1.
    10030    2    1    2    0    0  0.00000000000E+00  0.00000000000E+00  0.33790107072E+03  0.21747712589E+04  0.21483605133E+04 0.  0.
        1    1    3    3  502    0  0.44736339611E+03  0.64242682427E+03 -0.57563033759E+03  0.97169775049E+03  0.50400001928E-02 0. -1.
       -1    1    3    3    0  502 -0.44736339611E+03 -0.64242682427E+03  0.91353140831E+03  0.12030735084E+04  0.50400001928E-02 0.  1.
</event>
<event>
 5   0  0.7952307E-06  0.1598476E+04  0.7818609E-02  0.8821485E-01
       -2   -1    0    0    0  501  0.00000000000E+00  0.00000000000E+00  0.44594092942E+03  0.44594092942E+03  0.25500000920E-02 0.  1.
        2   -1    0    0  501    0  0.00000000000E+00  0.00000000000E+00 -0.14324341257E+04  0.14324341257E+04  0.25500000920E-02 0. -1.
    10030    2    1    2    0    0  0.00000000000E+00  0.00000000000E+00 -0.98649319628E+03  0.18783750551E+04  0.15984755304E+04 0.  0.
        2    1    3    3  502    0 -0.29350372359E+03 -0.13293380245E+03  0.36623993213E+03  0.48779864647E+03  0.25500000920E-02 0.  1.
       -2    1    3    3    0  502  0.29350372359E+03  0.13293380245E+03 -0.13527331284E+04  0.13905764087E+04  0.25500000920E-02 0. -1.
</event>
<event>
 5   0  0.7971763E-06  0.3077217E+04  0.7818609E-02  0.8222018E-01
        2   -1    0    0  501    0  0.00000000000E+00  0.00000000000E+00  0.20880295702E+04  0.20880295702E+04  0.25500000920E-02 0.  1.
       -2   -1    0    0    0  501  0.00000000000E+00  0.00000000000E+00 -0.11337560349E+04  0.11337560349E+04  0.25500000920E-02 0. -1.
    10030    2    1    2    0    0  0.00000000000E+00  0.00000000000E+00  0.95427353531E+03  0.32217856052E+04  0.30772170066E+04 0.  0.
        1    1    3    3  502    0 -0.36607135225E+03  0.67935097114E+03  0.18707576787E+04  0.20236749416E+04  0.50400001928E-02 0.  1.
       -1    1    3    3    0  502  0.36607135225E+03 -0.67935097114E+03 -0.91648414340E+03  0.11981106635E+04  0.50400001928E-02 0. -1.
</event>
<event>
 5   0  0.7510251E-06  0.3232124E+04  0.7818609E-02  0.8180384E-01
       -2   -1    0    0    0  501  0.00000000000E+00  0.00000000000E+00  0.11181128827E+04  0.11181128827E+04  0.25500000920E-02 0.  1.
        2   -1    0    0  501    0  0.00000000000E+00  0.00000000000E+00 -0.23357719905E+04  0.23357719905E+04  0.25500000920E-02 0. -1.
    10030    2    1    2    0    0  0.00000000000E+00  0.00000000000E+00 -0.12176591078E+04  0.34538848733E+04  0.32321242264E+04 0.  0.
        3    1    3    3  502    0  0.84116510877E+03 -0.11867671184E+04  0.14352283413E+03  0.14617023458E+04  0.10100000352E+00 0.  1.
       -3    1    3    3    0  502 -0.84116510877E+03  0.11867671184E+04 -0.13611819419E+04  0.19921825275E+04  0.10100000352E+00 0. -1.
</event>
<event>
 5   0  0.2933646E-06  0.1672312E+04  0.7818609E-02  0.8777316E-01
        1   -1    0    0  501    0  0.00000000000E+00  0.00000000000E+00  0.75532902946E+03  0.75532902948E+03  0.50400001928E-02 0.  1.
       -1   -1    0    0    0  501  0.00000000000E+00  0.00000000000E+00 -0.92563172643E+03  0.92563172644E+03  0.50400001928E-02 0. -1.
    10030    2    1    2    0    0  0.00000000000E+00  0.00000000000E+00 -0.17030269696E+03  0.16809607559E+04  0.16723115901E+04 0.  0.
        2    1    3    3  502    0  0.52704178292E+03  0.26772020137E+03  0.50926946389E+03  0.78025799197E+03  0.25500000920E-02 0.  1.
       -2    1    3    3    0  502 -0.52704178292E+03 -0.26772020137E+03 -0.67957216086E+03  0.90070276395E+03  0.25500000920E-02 0. -1.
</event>
<event>
 5   0  0.7510251E-06  0.3261968E+04  0.7818609E-02  0.8172641E-01
        2   -1    0    0  501    0  0.00000000000E+00  0.00000000000E+00  0.24644528465E+04  0.24644528465E+04  0.25500000920E-02 0.  1.
       -2   -1    0    0    0  501  0.00000000000E+00  0.00000000000E+00 -0.10793909111E+04  0.10793909111E+04  0.25500000920E-02 0. -1.
    10030    2    1    2    0    0  0.00000000000E+00  0.00000000000E+00  0.13850619354E+04  0.35438437577E+04  0.32619675066E+04 0.  0.
        3    1    3    3  502    0 -0.18143299848E+03 -0.15702008518E+04  0.25571818035E+03  0.16011996896E+04  0.10100000352E+00 0.  1.
       -3    1    3    3    0  502  0.18143299848E+03  0.15702008518E+04  0.11293437551E+04  0.19426440681E+04  0.10100000352E+00 0. -1.
</event>
<event>
 5   0  0.7941434E-06  0.3223524E+04  0.7818609E-02  0.8182632E-01
       -2   -1    0    0    0  501  0.00000000000E+00  0.00000000000E+00  0.12887862490E+04  0.12887862490E+04  0.25500000920E-02 0.  1.
        2   -1    0    0  501    0  0.00000000000E+00  0.00000000000E+00 -0.20156773270E+04  0.20156773270E+04  0.25500000920E-02 0. -1.
    10030    2    1    2    0    0  0.00000000000E+00  0.00000000000E+00 -0.72689107799E+03  0.33044635759E+04  0.32235242958E+04 0.  0.
        4    1    3    3  502    0 -0.27013317880E+02  0.11537533026E+04  0.78992694167E+03  0.13985215725E+04  0.12699999809E+01 0.  1.
       -4    1    3    3    0  502  0.27013317880E+02 -0.11537533026E+04 -0.15168180197E+04  0.19059420034E+04  0.12699999809E+01 0. -1.
</event>
<event>
 5   0  0.2635798E-06  0.3292603E+04  0.7818609E-02  0.8164780E-01
        1   -1    0    0  501    0  0.00000000000E+00  0.00000000000E+00  0.95935350193E+03  0.95935350194E+03  0.50400001928E-02 0.  1.
       -1   -1    0    0    0  501  0.00000000000E+00  0.00000000000E+00 -0.28251398670E+04  0.28251398670E+04  0.50400001928E-02 0. -1.
    10030    2    1    2    0    0  0.00000000000E+00  0.00000000000E+00 -0.18657863651E+04  0.37844933689E+04  0.32926025116E+04 0.  0.
        1    1    3    3  502    0 -0.49093549848E+03 -0.14495519572E+04 -0.23555245430E+03  0.15484519686E+04  0.50400001928E-02 0.  1.
       -1    1    3    3    0  502  0.49093549848E+03  0.14495519572E+04 -0.16302339108E+04  0.22360414004E+04  0.50400001928E-02 0. -1.
</event>
<event>
 5   0  0.2933646E-06  0.3164508E+04  0.7818609E-02  0.8198254E-01
       -1   -1    0    0    0  501  0.00000000000E+00  0.00000000000E+00  0.23239357148E+04  0.23239357148E+04  0.50400001928E-02 0.  1.
        1   -1    0    0  501    0  0.00000000000E+00  0.00000000000E+00 -0.10772790883E+04  0.10772790883E+04  0.50400001928E-02 0. -1.
    10030    2    1    2    0    0  0.00000000000E+00  0.00000000000E+00  0.12466566264E+04  0.34012148031E+04  0.31645077647E+04 0.  0.
        2    1    3    3  502    0  0.14217272717E+04  0.45469088347E+03  0.59211452713E+02  0.14938400955E+04  0.25500000920E-02 0.  1.
       -2    1    3    3    0  502 -0.14217272717E+04 -0.45469088347E+03  0.11874451737E+04  0.19073747076E+04  0.25500000920E-02 0. -1.
</event>
<event>
 5   0  0.4142886E-06  0.3210920E+04  0.7818609E-02  0.8185939E-01
        1   -1    0    0  501    0  0.00000000000E+00  0.00000000000E+00  0.14985285149E+04  0.14985285149E+04  0.50400001928E-02 0. -1.
       -1   -1    0    0    0  501  0.00000000000E+00  0.00000000000E+00 -0.17200215293E+04  0.17200215293E+04  0.50400001928E-02 0.  1.
    10030    2    1    2    0    0  0.00000000000E+00  0.00000000000E+00 -0.22149301441E+03  0.32185500443E+04  0.32109196863E+04 0.  0.
        5    1    3    3  502    0  0.33176413984E+03 -0.48666251797E+03 -0.16078053984E+04  0.17122990802E+04  0.46999998093E+01 0.  1.
       -5    1    3    3    0  502 -0.33176413984E+03  0.48666251797E+03  0.13863123840E+04  0.15062509641E+04  0.46999998093E+01 0. -1.
</event>
<event>
 5   0  0.2788054E-06  0.2227234E+04  0.7818609E-02  0.8507177E-01
       -1   -1    0    0    0  501  0.00000000000E+00  0.00000000000E+00  0.64542866227E+03  0.64542866229E+03  0.50400001928E-02 0. -1.
        1   -1    0    0  501    0  0.00000000000E+00  0.00000000000E+00 -0.19214254727E+04  0.19214254727E+04  0.50400001928E-02 0.  1.
    10030    2    1    2    0    0  0.00000000000E+00  0.00000000000E+00 -0.12759968104E+04  0.25668541350E+04  0.22272342244E+04 0.  0.
        3    1    3    3  502    0 -0.17266822595E+03  0.10667198728E+04 -0.94818062719E+03  0.14376202959E+04  0.10100000352E+00 0.  1.
       -3    1    3    3    0  502  0.17266822595E+03 -0.10667198728E+04 -0.32781618323E+03  0.11292338391E+04  0.10100000352E+00 0. -1.
</event>
<event>
 5   0  0.7941434E-06  0.3059071E+04  0.7818609E-02  0.8227061E-01
        2   -1    0    0  501    0  0.00000000000E+00  0.00000000000E+00  0.17809790710E+04  0.17809790710E+04  0.25500000920E-02 0.  1.
       -2   -1    0    0    0  501  0.00000000000E+00  0.00000000000E+00 -0.13135917171E+04  0.13135917171E+04  0.25500000920E-02 0. -1.
    10030    2    1    2    0    0  0.00000000000E+00  0.00000000000E+00  0.46738735395E+03  0.30945707881E+04  0.30590713336E+04 0.  0.
        4    1    3    3  502    0  0.19848972860E+03  0.96275998595E+03  0.14191168435E+04  0.17263253434E+04  0.12699999809E+01 0.  1.
       -4    1    3    3    0  502 -0.19848972860E+03 -0.96275998595E+03 -0.95172948953E+03  0.13682454447E+04  0.12699999809E+01 0. -1.
</event>
<event>
 5   0  0.2635798E-06  0.3245799E+04  0.7818609E-02  0.8176826E-01
       -1   -1    0    0    0  501  0.00000000000E+00  0.00000000000E+00  0.24150875330E+04  0.24150875330E+04  0.50400001928E-02 0.  1.
        1   -1    0    0  501    0  0.00000000000E+00  0.00000000000E+00 -0.10905618175E+04  0.10905618175E+04  0.50400001928E-02 0. -1.
    10030    2    1    2    0    0  0.00000000000E+00  0.00000000000E+00  0.13245257155E+04  0.35056493505E+04  0.32457986686E+04 0.  0.
        1    1    3    3  502    0 -0.13754686614E+04 -0.83329780499E+03  0.42686239147E+03  0.16638842423E+04  0.50400001928E-02 0.  1.
       -1    1    3    3    0  502  0.13754686614E+04  0.83329780499E+03  0.89766332408E+03  0.18417651082E+04  0.50400001928E-02 0. -1.
</event>
<event>
 5   0  0.8237664E-06  0.3127965E+04  0.7818609E-02  0.8208105E-01
        2   -1    0    0  501    0  0.00000000000E+00  0.00000000000E+00  0.10567618598E+04  0.10567618598E+04  0.25500000920E-02 0. -1.
       -2   -1    0    0    0  501  0.00000000000E+00  0.00000000000E+00 -0.23146566658E+04  0.23146566658E+04  0.25500000920E-02 0.  1.
    10030    2    1    2    0    0  0.00000000000E+00  0.00000000000E+00 -0.12578948060E+04  0.33714185256E+04  0.31279647587E+04 0.  0.
        5    1    3    3  502    0 -0.38202876634E+03  0.17401979694E+03  0.99489414595E+03  0.10798450443E+04  0.46999998093E+01 0. -1.
       -5    1    3    3    0  502  0.38202876634E+03 -0.17401979694E+03 -0.22527889520E+04  0.22915734813E+04  0.46999998093E+01 0.  1.
</event>
<event>
 5   0  0.8237664E-06  0.3368040E+04  0.7818609E-02  0.8145795E-01
        2   -1    0    0  501    0  0.00000000000E+00  0.00000000000E+00  0.18330801174E+04  0.18330801174E+04  0.25500000920E-02 0. -1.
       -2   -1    0    0    0  501  0.00000000000E+00  0.00000000000E+00 -0.15470805202E+04  0.15470805202E+04  0.25500000920E-02 0.  1.
    10030    2    1    2    0    0  0.00000000000E+00  0.00000000000E+00  0.28599959729E+03  0.33801606376E+04  0.33680395138E+04 0.  0.
        5    1    3    3  502    0  0.58491200292E+03  0.46347033005E+03 -0.13720601386E+04  0.15618892124E+04  0.46999998093E+01 0.  1.
       -5    1    3    3    0  502 -0.58491200292E+03 -0.46347033005E+03  0.16580597359E+04  0.18182714252E+04  0.46999998093E+01 0. -1.
</event>
<event>
 5   0  0.8237664E-06  0.2640810E+04  0.7818609E-02  0.8354470E-01
       -2   -1    0    0    0  501  0.00000000000E+00  0.00000000000E+00  0.10357963563E+04  0.10357963563E+04  0.25500000920E-02 0.  1.
        2   -1    0    0  501    0  0.00000000000E+00  0.00000000000E+00 -0.16832160782E+04  0.16832160782E+04  0.25500000920E-02 0. -1.
    10030    2    1    2    0    0  0.00000000000E+00  0.00000000000E+00 -0.64741972188E+03  0.27190124345E+04  0.26408097854E+04 0.  0.
        5    1    3    3  502    0  0.32051855091E+03 -0.75972544204E+03  0.73810640684E+03  0.11066788362E+04  0.46999998093E+01 0.  1.
       -5    1    3    3    0  502 -0.32051855091E+03  0.75972544204E+03 -0.13855261287E+04  0.16123335983E+04  0.46999998093E+01 0. -1.
</event>
<event>
 5   0  0.7952307E-06  0.3209047E+04  0.7818609E-02  0.8186432E-01
       -2   -1    0    0    0  501  0.00000000000E+00  0.00000000000E+00  0.17105707924E+04  0.17105707924E+04  0.25500000920E-02 0.  1.
        2   -1    0    0  501    0  0.00000000000E+00  0.00000000000E+00 -0.15050508938E+04  0.15050508938E+04  0.25500000920E-02 0. -1.
    10030    2    1    2    0    0  0.00000000000E+00  0.00000000000E+00  0.20551989862E+03  0.32156216863E+04  0.32090472730E+04 0.  0.
        2    1    3    3  502    0  0.14738287200E+04  0.39141057932E+03 -0.39738459949E+03  0.15758451248E+04  0.25500000920E-02 0.  1.
       -2    1    3    3    0  502 -0.14738287200E+04 -0.39141057932E+03  0.60290449811E+03  0.16397765614E+04  0.25500000920E-02 0. -1.
</event>
<event>
 5   0  0.2635798E-06  0.2943428E+04  0.7818609E-02  0.8260072E-01
        1   -1    0    0  501    0  0.00000000000E+00  0.00000000000E+00  0.81729025475E+03  0.81729025477E+03  0.50400001928E-02 0.  1.
       -1   -1    0    0    0  501  0.00000000000E+00  0.00000000000E+00 -0.26501502835E+04  0.26501502835E+04  0.50400001928E-02 0. -1.
    10030    2    1    2    0    0  0.00000000000E+00  0.00000000000E+00 -0.18328600288E+04  0.34674405383E+04  0.29434279338E+04 0.  0.
        1    1    3    3  502    0 -0.50269209619E+03  0.12094493312E+04 -0.12576786522E+03  0.13157828789E+04  0.50400001928E-02 0. -1.
       -1    1    3    3    0  502  0.50269209619E+03 -0.12094493312E+04 -0.17070921635E+04  0.21516576594E+04  0.50400001928E-02 0.  1.
</event>
<event>
 5   0  0.7971763E-06  0.3013175E+04  0.7818609E-02  0.8239979E-01
       -2   -1    0    0    0  501  0.00000000000E+00  0.00000000000E+00  0.74542342351E+03  0.74542342351E+03  0.25500000920E-02 0. -1.
        2   -1    0    0  501    0  0.00000000000E+00  0.00000000000E+00 -0.30449888961E+04  0.30449888961E+04  0.25500000920E-02 0.  1.
    10030    2    1    2    0    0  0.00000000000E+00  0.00000000000E+00 -0.22995654725E+04  0.37904123196E+04  0.30131751011E+04 0.  0.
        1    1    3    3  502    0 -0.26164891856E+03  0.12658791092E+04 -0.17627864545E+03  0.13046011791E+04  0.50400001928E-02 0. -1.
       -1    1    3    3    0  502  0.26164891856E+03 -0.12658791092E+04 -0.21232868271E+04  0.24858111404E+04  0.50400001928E-02 0.  1.
</event>
<event>
 5   0  0.8237664E-06  0.3259008E+04  0.7818609E-02  0.8173405E-01
        2   -1    0    0  501    0  0.00000000000E+00  0.00000000000E+00  0.16471698929E+04  0.16471698929E+04  0.25500000920E-02 0.  1.
       -2   -1    0    0    0  501  0.00000000000E+00  0.00000000000E+00 -0.16120273401E+04  0.16120273401E+04  0.25500000920E-02 0. -1.
    10030    2    1    2    0    0  0.00000000000E+00  0.00000000000E+00  0.35142552750E+02  0.32591972330E+04  0.32590077638E+04 0.  0.
        5    1    3    3  502    0 -0.11429311074E+04  0.45223856603E+03  0.10874229707E+04  0.16411343773E+04  0.46999998093E+01 0.  1.
       -5    1    3    3    0  502  0.11429311074E+04 -0.45223856603E+03 -0.10522804180E+04  0.16180628557E+04  0.46999998093E+01 0. -1.
</event>
<event>
 5   0  0.7941434E-06  0.2758895E+04  0.7818609E-02  0.8316144E-01
        2   -1    0    0  501    0  0.00000000000E+00  0.00000000000E+00  0.20520827736E+04  0.20520827736E+04  0.25500000920E-02 0.  1.
       -2   -1    0    0    0  501  0.00000000000E+00  0.00000000000E+00 -0.92729006288E+03  0.92729006288E+03  0.25500000920E-02 0. -1.
    10030    2    1    2    0    0  0.00000000000E+00  0.00000000000E+00  0.11247927107E+04  0.29793728364E+04  0.27588954051E+04 0.  0.
        4    1    3    3  502    0 -0.64101218417E+03 -0.36857470993E+03  0.18199900350E+04  0.19644615745E+04  0.12699999809E+01 0.  1.
       -4    1    3    3    0  502  0.64101218417E+03  0.36857470993E+03 -0.69519732433E+03  0.10149112620E+04  0.12699999809E+01 0. -1.
</event>
<event>
 5   0  0.7510251E-06  0.3358204E+04  0.7818609E-02  0.8148241E-01
       -2   -1    0    0    0  501  0.00000000000E+00  0.00000000000E+00  0.14555087864E+04  0.14555087864E+04  0.25500000920E-02 0.  1.
        2   -1    0    0  501    0  0.00000000000E+00  0.00000000000E+00 -0.19370432229E+04  0.19370432229E+04  0.25500000920E-02 0. -1.
    10030    2    1    2    0    0  0.00000000000E+00  0.00000000000E+00 -0.48153443647E+03  0.33925520093E+04  0.33582039429E+04 0.  0.
        3    1    3    3  502    0  0.13439162417E+03 -0.77926515489E+03  0.12556217633E+04  0.14838804915E+04  0.10100000352E+00 0.  1.
       -3    1    3    3    0  502 -0.13439162417E+03  0.77926515489E+03 -0.17371561998E+04  0.19086715178E+04  0.10100000352E+00 0. -1.
</event>
<event>
 5   0  0.8237664E-06  0.3346142E+04  0.7818609E-02  0.8151253E-01
        2   -1    0    0  501    0  0.00000000000E+00  0.00000000000E+00  0.19492761214E+04  0.19492761214E+04  0.25500000920E-02 0. -1.
       -2   -1    0    0    0  501  0.00000000000E+00  0.00000000000E+00 -0.14360031507E+04  0.14360031507E+04  0.25500000920E-02 0.  1.
    10030    2    1    2    0    0  0.00000000000E+00  0.00000000000E+00  0.51327297065E+03  0.33852792721E+04  0.33461420483E+04 0.  0.
        5    1    3    3  502    0  0.68355427389E+03  0.14890761756E+04 -0.85774877359E+02  0.16407235360E+04  0.46999998093E+01 0.  1.
       -5    1    3    3    0  502 -0.68355427389E+03 -0.14890761756E+04  0.59904784801E+03  0.17445557361E+04  0.46999998093E+01 0. -1.
</event>
<event>
 5   0  0.2635798E-06  0.3264149E+04  0.7818609E-02  0.8172078E-01
        1   -1    0    0  501    0  0.00000000000E+00  0.00000000000E+00  0.22410034863E+04  0.22410034863E+04  0.50400001928E-02 0. -1.
       -1   -1    0    0    0  501  0.00000000000E+00  0.00000000000E+00 -0.11886046205E+04  0.11886046205E+04  0.50400001928E-02 0.  1.
    10030    2    1    2    0    0  0.00000000000E+00  0.00000000000E+00  0.10523988657E+04  0.34296081068E+04  0.32641489540E+04 0.  0.
        1    1    3    3  502    0 -0.13230492591E+04  0.46187918359E+03 -0.35279249179E+03  0.14450793281E+04  0.50400001928E-02 0. -1.
       -1    1    3    3    0  502  0.13230492591E+04 -0.46187918359E+03  0.14051913575E+04  0.19845287787E+04  0.50400001928E-02 0.  1.
</event>
<event>
 5   0  0.2788054E-06  0.3396952E+04  0.7818609E-02  0.8138655E-01
        1   -1    0    0  501    0  0.00000000000E+00  0.00000000000E+00  0.23096620800E+04  0.23096620800E+04  0.50400001928E-02 0.  1.
       -1   -1    0    0    0  501  0.00000000000E+00  0.00000000000E+00 -0.12490229294E+04  0.12490229294E+04  0.50400001928E-02 0. -1.
    10030    2    1    2    0    0  0.00000000000E+00  0.00000000000E+00  0.10606391506E+04  0.35586850093E+04  0.33969521027E+04 0.  0.
        3    1    3    3  502    0  0.16427774775E+04  0.14853933270E+03  0.95462035646E+03  0.19058021433E+04  0.10100000352E+00 0.  1.
       -3    1    3    3    0  502 -0.16427774775E+04 -0.14853933270E+03  0.10601879412E+03  0.16528828661E+04  0.10100000352E+00 0. -1.
</event>
<event>
 5   0  0.7971763E-06  0.3183585E+04  0.7818609E-02  0.8193166E-01
        2   -1    0    0  501    0  0.00000000000E+00  0.00000000000E+00  0.17462732443E+04  0.17462732443E+04  0.25500000920E-02 0. -1.
       -2   -1    0    0    0  501  0.00000000000E+00  0.00000000000E+00 -0.14509777989E+04  0.14509777989E+04  0.25500000920E-02 0.  1.
    10030    2    1    2    0    0  0.00000000000E+00  0.00000000000E+00  0.29529544548E+03  0.31972510432E+04  0.31835852169E+04 0.  0.
        1    1    3    3  502    0 -0.77078617144E+03 -0.12467725858E+04  0.77099758375E+03  0.16561975960E+04  0.50400001928E-02 0. -1.
       -1    1    3    3    0  502  0.77078617144E+03  0.12467725858E+04 -0.47570213827E+03  0.15410534472E+04  0.50400001928E-02 0.  1.
</event>
<event>
 5   0  0.8237664E-06  0.2470687E+04  0.7818609E-02  0.8413503E-01
       -2   -1    0    0    0  501  0.00000000000E+00  0.00000000000E+00  0.16532952554E+04  0.16532952554E+04  0.25500000920E-02 0. -1.
        2   -1    0    0  501    0  0.00000000000E+00  0.00000000000E+00 -0.92304983996E+03  0.92304983996E+03  0.25500000920E-02 0.  1.
    10030    2    1    2    0    0  0.00000000000E+00  0.00000000000E+00  0.73024541542E+03  0.25763450953E+04  0.24706872897E+04 0.  0.
        5    1    3    3  502    0 -0.26038840216E+03 -0.24033455786E+03 -0.86890839833E+03  0.93839581966E+03  0.46999998093E+01 0.  1.
       -5    1    3    3    0  502  0.26038840216E+03  0.24033455786E+03  0.15991538138E+04  0.16379492757E+04  0.46999998093E+01 0. -1.
</event>
<event>
 5   0  0.2635798E-06  0.3238473E+04  0.7818609E-02  0.8178730E-01
        1   -1    0    0  501    0  0.00000000000E+00  0.00000000000E+00  0.17744887257E+04  0.17744887257E+04  0.50400001928E-02 0.  1.
       -1   -1    0    0    0  501  0.00000000000E+00  0.00000000000E+00 -0.14775674512E+04  0.14775674512E+04  0.50400001928E-02 0. -1.
    10030    2    1    2    0    0  0.00000000000E+00  0.00000000000E+00  0.29692127456E+03  0.32520561769E+04  0.32384729634E+04 0.  0.
        1    1    3    3  502    0 -0.11426792131E+04  0.48530765203E+03 -0.89546081902E+03  0.15307153163E+04  0.50400001928E-02 0. -1.
       -1    1    3    3    0  502  0.11426792131E+04 -0.48530765203E+03  0.11923820936E+04  0.17213408606E+04  0.50400001928E-02 0.  1.
</event>
<event>
 5   0  0.7941434E-06  0.2829098E+04  0.7818609E-02  0.8294291E-01
        2   -1    0    0  501    0  0.00000000000E+00  0.00000000000E+00  0.16371636596E+04  0.16371636596E+04  0.25500000920E-02 0. -1.
       -2   -1    0    0    0  501  0.00000000000E+00  0.00000000000E+00 -0.12222047942E+04  0.12222047942E+04  0.25500000920E-02 0.  1.
    10030    2    1    2    0    0  0.00000000000E+00  0.00000000000E+00  0.41495886544E+03  0.28593684539E+04  0.28290982830E+04 0.  0.
        4    1    3    3  502    0 -0.11924334085E+04 -0.59215740905E+03  0.69050483903E+03  0.14997821097E+04  0.12699999809E+01 0. -1.
       -4    1    3    3    0  502  0.11924334085E+04  0.59215740905E+03 -0.27554597359E+03  0.13595863442E+04  0.12699999809E+01 0.  1.
</event>
<event>
 5   0  0.2635798E-06  0.3206395E+04  0.7818609E-02  0.8187130E-01
        1   -1    0    0  501    0  0.00000000000E+00  0.00000000000E+00  0.26739266003E+04  0.26739266003E+04  0.50400001928E-02 0. -1.
       -1   -1    0    0    0  501  0.00000000000E+00  0.00000000000E+00 -0.96122390544E+03  0.96122390545E+03  0.50400001928E-02 0.  1.
    10030    2    1    2    0    0  0.00000000000E+00  0.00000000000E+00  0.17127026949E+04  0.36351505058E+04  0.32063949661E+04 0.  0.
        1    1    3    3  502    0 -0.23635779787E+03  0.11786809190E+04  0.20588890796E+04  0.23841514129E+04  0.50400001928E-02 0. -1.
       -1    1    3    3    0  502  0.23635779787E+03 -0.11786809190E+04 -0.34618638472E+03  0.12509990929E+04  0.50400001928E-02 0.  1.
</event>
<event>
 5   0  0.7941434E-06  0.3126189E+04  0.7818609E-02  0.8208587E-01
        2   -1    0    0  501    0  0.00000000000E+00  0.00000000000E+00  0.22019978530E+04  0.22019978530E+04  0.25500000920E-02 0. -1.
       -2   -1    0    0    0  501  0.00000000000E+00  0.00000000000E+00 -0.11095667762E+04  0.11095667762E+04  0.25500000920E-02 0.  1.
    10030    2    1    2    0    0  0.00000000000E+00  0.00000000000E+00  0.10924310768E+04  0.33115646292E+04  0.31261885157E+04 0.  0.
        4    1    3    3  502    0 -0.29477213249E+03  0.15097220442E+04  0.25206094499E+03  0.15587455192E+04  0.12699999809E+01 0. -1.
       -4    1    3    3    0  502  0.29477213249E+03 -0.15097220442E+04  0.84037013183E+03  0.17528191100E+04  0.12699999809E+01 0.  1.
</event>
<event>
 5   0  0.7971763E-06  0.3132749E+04  0.7818609E-02  0.8206807E-01
        2   -1    0    0  501    0  0.00000000000E+00  0.00000000000E+00  0.21322583987E+04  0.21322583987E+04  0.25500000920E-02 0. -1.
       -2   -1    0    0    0  501  0.00000000000E+00  0.00000000000E+00 -0.11506714652E+04  0.11506714652E+04  0.25500000920E-02 0.  1.
    10030    2    1    2    0    0  0.00000000000E+00  0.00000000000E+00  0.98158693348E+03  0.32829298639E+04  0.31327488861E+04 0.  0.
        1    1    3    3  502    0  0.13777131522E+04  0.39812040328E+03 -0.16943766251E+03  0.14440576536E+04  0.50400001928E-02 0. -1.
       -1    1    3    3    0  502 -0.13777131522E+04 -0.39812040328E+03  0.11510245960E+04  0.18388722103E+04  0.50400001928E-02 0.  1.
</event>
<event>
 5   0  0.2933646E-06  0.3211564E+04  0.7818609E-02  0.8185770E-01
        1   -1    0    0  501    0  0.00000000000E+00  0.00000000000E+00  0.21112128106E+04  0.21112128107E+04  0.50400001928E-02 0.  1.
       -1   -1    0    0    0  501  0.00000000000E+00  0.00000000000E+00 -0.12213528277E+04  0.12213528277E+04  0.50400001928E-02 0. -1.
    10030    2    1    2    0    0  0.00000000000E+00  0.00000000000E+00  0.88985998293E+03  0.33325656384E+04  0.32115639406E+04 0.  0.
        2    1    3    3  502    0  0.11853152037E+04  0.10623488664E+04  0.66500188278E+03  0.17250463038E+04  0.25500000920E-02 0. -1.
       -2    1    3    3    0  502 -0.11853152037E+04 -0.10623488664E+04  0.22485810015E+03  0.16075193346E+04  0.25500000920E-02 0.  1.
</event>
<event>
 5   0  0.2788054E-06  0.3095568E+04  0.7818609E-02  0.8216955E-01
       -1   -1    0    0    0  501  0.00000000000E+00  0.00000000000E+00  0.75256687357E+03  0.75256687359E+03  0.50400001928E-02 0.  1.
        1   -1    0    0  501    0  0.00000000000E+00  0.00000000000E+00 -0.31832859544E+04  0.31832859544E+04  0.50400001928E-02 0. -1.
    10030    2    1    2    0    0  0.00000000000E+00  0.00000000000E+00 -0.24307190809E+04  0.39358528280E+04  0.30955681601E+04 0.  0.
        3    1    3    3  502    0 -0.15329801114E+04  0.13697856767E+03 -0.10070422512E+04  0.18392730238E+04  0.10100000352E+00 0. -1.
       -3    1    3    3    0  502  0.15329801114E+04 -0.13697856767E+03 -0.14236768296E+04  0.20965798042E+04  0.10100000352E+00 0.  1.
</event>
<event>
 5   0  0.7941434E-06  0.1764584E+04  0.7818609E-02  0.8725363E-01
        2   -1    0    0  501    0  0.00000000000E+00  0.00000000000E+00  0.14635115875E+04  0.14635115875E+04  0.25500000920E-02 0. -1.
       -2   -1    0    0    0  501  0.00000000000E+00  0.00000000000E+00 -0.53189846072E+03  0.53189846073E+03  0.25500000920E-02 0.  1.
    10030    2    1    2    0    0  0.00000000000E+00  0.00000000000E+00  0.93161312681E+03  0.19954100483E+04  0.17645844391E+04 0.  0.
        4    1    3    3  502    0 -0.67846344897E+03  0.56256306192E+03  0.41989932534E+03  0.97627194293E+03  0.12699999809E+01 0. -1.
       -4    1    3    3    0  502  0.67846344897E+03 -0.56256306192E+03  0.51171380147E+03  0.10191381053E+04  0.12699999809E+01 0.  1.
</event>
<event>
 5   0  0.3938696E-06  0.3160214E+04  0.7818609E-02  0.8199404E-01
       -1   -1    0    0    0  501  0.00000000000E+00  0.00000000000E+00  0.12650569545E+04  0.12650569545E+04  0.50400001928E-02 0. -1.
        1   -1    0    0  501    0  0.00000000000E+00  0.00000000000E+00 -0.19736175214E+04  0.19736175214E+04  0.50400001928E-02 0.  1.
    10030    2    1    2    0    0  0.00000000000E+00  0.00000000000E+00 -0.70856056685E+03  0.32386744759E+04  0.31602142781E+04 0.  0.
        4    1    3    3  502    0 -0.10372157949E+04  0.54836256004E+03 -0.14389617181E+04  0.18566449692E+04  0.12699999809E+01 0.  1.
       -4    1    3    3    0  502  0.10372157949E+04 -0.54836256004E+03  0.73040115129E+03  0.13820295066E+04  0.12699999809E+01 0. -1.
</event>
<event>
 5   0  0.7941434E-06  0.3201129E+04  0.7818609E-02  0.8188519E-01
       -2   -1    0    0    0  501  0.00000000000E+00  0.00000000000E+00  0.14707946197E+04  0.14707946197E+04  0.25500000920E-02 0. -1.
        2   -1    0    0  501    0  0.00000000000E+00  0.00000000000E+00 -0.17417844533E+04  0.17417844533E+04  0.25500000920E-02 0.  1.
    10030    2    1    2    0    0  0.00000000000E+00  0.00000000000E+00 -0.27098983357E+03  0.32125790729E+04  0.32011293023E+04 0.  0.
        4    1    3    3  502    0  0.15982989144E+04  0.77020100765E+02 -0.99115099353E+02  0.16032207993E+04  0.12699999809E+01 0. -1.
       -4    1    3    3    0  502 -0.15982989144E+04 -0.77020100765E+02 -0.17187473422E+03  0.16093582736E+04  0.12699999809E+01 0.  1.
</event>
<event>
 5   0  0.2933646E-06  0.1618352E+04  0.7818609E-02  0.8809352E-01
        1   -1    0    0  501    0  0.00000000000E+00  0.00000000000E+00  0.10385799686E+04  0.10385799686E+04  0.50400001928E-02 0. -1.
       -1   -1    0    0    0  501  0.00000000000E+00  0.00000000000E+00 -0.63044339845E+03  0.63044339847E+03  0.50400001928E-02 0.  1.
    10030    2    1    2    0    0  0.00000000000E+00  0.00000000000E+00  0.40813657017E+03  0.16690233671E+04  0.16183521063E+04 0.  0.
        2    1    3    3  502    0  0.72202579977E+03  0.36438815090E+03  0.17745518194E+03  0.82800381742E+03  0.25500000920E-02 0. -1.
       -2    1    3    3    0  502 -0.72202579977E+03 -0.36438815090E+03  0.23068138823E+03  0.84101954968E+03  0.25500000920E-02 0.  1.
</event>
<event>
 5   0  0.7971763E-06  0.3144266E+04  0.7818609E-02  0.8203693E-01
        2   -1    0    0  501    0  0.00000000000E+00  0.00000000000E+00  0.17371545707E+04  0.17371545707E+04  0.25500000920E-02 0. -1.
       -2   -1    0    0    0  501  0.00000000000E+00  0.00000000000E+00 -0.14227879929E+04  0.14227879929E+04  0.25500000920E-02 0.  1.
    10030    2    1    2    0    0  0.00000000000E+00  0.00000000000E+00  0.31436657786E+03  0.31599425636E+04  0.31442663151E+04 0.  0.
        1    1    3    3  502    0  0.38686116834E+03 -0.10724135668E+04 -0.93074339504E+03  0.14717390017E+04  0.50400001928E-02 0.  1.
       -1    1    3    3    0  502 -0.38686116834E+03  0.10724135668E+04  0.12451099729E+04  0.16882035619E+04  0.50400001928E-02 0. -1.
</event>
<event>
 5   0  0.2788054E-06  0.2664128E+04  0.7818609E-02  0.8346739E-01
       -1   -1    0    0    0  501  0.00000000000E+00  0.00000000000E+00  0.22925057538E+04  0.22925057538E+04  0.50400001928E-02 0. -1.
        1   -1    0    0  501    0  0.00000000000E+00  0.00000000000E+00 -0.77399807254E+03  0.77399807256E+03  0.50400001928E-02 0.  1.
    10030    2    1    2    0    0  0.00000000000E+00  0.00000000000E+00  0.15185076813E+04  0.30665038264E+04  0.26641284014E+04 0.  0.
        3    1    3    3  502    0 -0.11877193342E+04  0.41170051227E+02  0.66695537049E+02  0.11903026905E+04  0.10100000352E+00 0.  1.
       -3    1    3    3    0  502  0.11877193342E+04 -0.41170051227E+02  0.14518121442E+04  0.18762011359E+04  0.10100000352E+00 0. -1.
</event>
<event>
 5   0  0.2635798E-06  0.3350661E+04  0.7818609E-02  0.8150123E-01
       -1   -1    0    0    0  501  0.00000000000E+00  0.00000000000E+00  0.15236962539E+04  0.15236962539E+04  0.50400001928E-02 0.  1.
        1   -1    0    0  501    0  0.00000000000E+00  0.00000000000E+00 -0.18420553020E+04  0.18420553020E+04  0.50400001928E-02 0. -1.
    10030    2    1    2    0    0  0.00000000000E+00  0.00000000000E+00 -0.31835904813E+03  0.33657515559E+04  0.33506612859E+04 0.  0.
        1    1    3    3  502    0  0.81936998517E+03  0.60898433363E+03  0.11751491248E+04  0.15566645614E+04  0.50400001928E-02 0.  1.
       -1    1    3    3    0  502 -0.81936998517E+03 -0.60898433363E+03 -0.14935081729E+04  0.18090869945E+04  0.50400001928E-02 0. -1.
</event>
<event>
 5   0  0.2788054E-06  0.3203010E+04  0.7818609E-02  0.8188023E-01
       -1   -1    0    0    0  501  0.00000000000E+00  0.00000000000E+00  0.14095052562E+04  0.14095052562E+04  0.50400001928E-02 0. -1.
        1   -1    0    0  501    0  0.00000000000E+00  0.00000000000E+00 -0.18196586797E+04  0.18196586797E+04  0.50400001928E-02 0.  1.
    10030    2    1    2    0    0  0.00000000000E+00  0.00000000000E+00 -0.41015342354E+03  0.32291639359E+04  0.32030101302E+04 0.  0.
        3    1    3    3  502    0 -0.62216966058E+03 -0.19419711501E+03 -0.16798992630E+04  0.18019070869E+04  0.10100000352E+00 0.  1.
       -3    1    3    3    0  502  0.62216966058E+03  0.19419711501E+03  0.12697458394E+04  0.14272568490E+04  0.10100000352E+00 0. -1.
</event>
<event>
 5   0  0.7510251E-06  0.1730897E+04  0.7818609E-02  0.8743936E-01
        2   -1    0    0  501    0  0.00000000000E+00  0.00000000000E+00  0.19357344638E+04  0.19357344638E+04  0.25500000920E-02 0.  1.
       -2   -1    0    0    0  501  0.00000000000E+00  0.00000000000E+00 -0.38693366232E+03  0.38693366232E+03  0.25500000920E-02 0. -1.
    10030    2    1    2    0    0  0.00000000000E+00  0.00000000000E+00  0.15488008015E+04  0.23226681262E+04  0.17308966756E+04 0.  0.
        3    1    3    3  502    0  0.11751691144E+03  0.42778646060E+03 -0.22274851993E+03  0.49641554536E+03  0.10100000352E+00 0. -1.
       -3    1    3    3    0  502 -0.11751691144E+03 -0.42778646060E+03  0.17715493215E+04  0.18262525808E+04  0.10100000352E+00 0.  1.
</event>
<event>
 5   0  0.7952307E-06  0.2634280E+04  0.7818609E-02  0.8356650E-01
        2   -1    0    0  501    0  0.00000000000E+00  0.00000000000E+00  0.95811370089E+03  0.95811370090E+03  0.25500000920E-02 0.  1.
       -2   -1    0    0    0  501  0.00000000000E+00  0.00000000000E+00 -0.18107011430E+04  0.18107011430E+04  0.25500000920E-02 0. -1.
    10030    2    1    2    0    0  0.00000000000E+00  0.00000000000E+00 -0.85258744207E+03  0.27688148439E+04  0.26342798434E+04 0.  0.
        2    1    3    3  502    0  0.10095894013E+04  0.38142795520E+03 -0.12199041144E+04  0.16287799399E+04  0.25500000920E-02 0. -1.
       -2    1    3    3    0  502 -0.10095894013E+04 -0.38142795520E+03  0.36731667238E+03  0.11400349039E+04  0.25500000920E-02 0.  1.
</event>
<event>
 5   0  0.3938696E-06  0.1807683E+04  0.7818609E-02  0.8702224E-01
        1   -1    0    0  501    0  0.00000000000E+00  0.00000000000E+00  0.92544671884E+03  0.92544671886E+03  0.50400001928E-02 0.  1.
       -1   -1    0    0    0  501  0.00000000000E+00  0.00000000000E+00 -0.88274101730E+03  0.88274101732E+03  0.50400001928E-02 0. -1.
    10030    2    1    2    0    0  0.00000000000E+00  0.00000000000E+00  0.42705701540E+02  0.18081877362E+04  0.18076833551E+04 0.  0.
        4    1    3    3  502    0 -0.26124799930E+03  0.44147844540E+03  0.76572070503E+03  0.92167431661E+03  0.12699999809E+01 0.  1.
       -4    1    3    3    0  502  0.26124799930E+03 -0.44147844540E+03 -0.72301500349E+03  0.88651341956E+03  0.12699999809E+01 0. -1.
</event>
<event>
 5   0  0.7971763E-06  0.3194978E+04  0.7818609E-02  0.8190145E-01
        2   -1    0    0  501    0  0.00000000000E+00  0.00000000000E+00  0.17258367769E+04  0.17258367769E+04  0.25500000920E-02 0.  1.
       -2   -1    0    0    0  501  0.00000000000E+00  0.00000000000E+00 -0.14786858181E+04  0.14786858181E+04  0.25500000920E-02 0. -1.
    10030    2    1    2    0    0  0.00000000000E+00  0.00000000000E+00  0.24715095879E+03  0.32045225949E+04  0.31949775375E+04 0.  0.
        1    1    3    3  502    0  0.75921864448E+03 -0.57575706877E+03  0.14096156099E+04  0.17014480068E+04  0.50400001928E-02 0.  1.
       -1    1    3    3    0  502 -0.75921864448E+03  0.57575706877E+03 -0.11624646511E+04  0.15030745881E+04  0.50400001928E-02 0. -1.
</event>
<event>
 5   0  0.2580875E-06  0.1592940E+04  0.7818609E-02  0.8824897E-01
        4   -1    0    0  501    0  0.00000000000E+00  0.00000000000E+00  0.10200918565E+04  0.10200926470E+04  0.12699999809E+01 0.  1.
       -4   -1    0    0    0  501  0.00000000000E+00  0.00000000000E+00 -0.62186817147E+03  0.62186946829E+03  0.12699999809E+01 0. -1.
    10030    2    1    2    0    0  0.00000000000E+00  0.00000000000E+00  0.39822368499E+03  0.16419621153E+04  0.15929398874E+04 0.  0.
        2    1    3    3  502    0  0.21483523569E+03 -0.13701943774E+03 -0.57872078133E+03  0.63233396838E+03  0.25500000920E-02 0. -1.
       -2    1    3    3    0  502 -0.21483523569E+03  0.13701943774E+03  0.97694446632E+03  0.10096281469E+04  0.25500000920E-02 0.  1.
</event>
<event>
 5   0  0.3938696E-06  0.3205331E+04  0.7818609E-02  0.8187411E-01
       -1   -1    0    0    0  501  0.00000000000E+00  0.00000000000E+00  0.10080588427E+04  0.10080588427E+04  0.50400001928E-02 0.  1.
        1   -1    0    0  501    0  0.00000000000E+00  0.00000000000E+00 -0.25480032652E+04  0.25480032653E+04  0.50400001928E-02 0. -1.
    10030    2    1    2    0    0  0.00000000000E+00  0.00000000000E+00 -0.15399444225E+04  0.35560621080E+04  0.32053313232E+04 0.  0.
        4    1    3    3  502    0 -0.13273724182E+04  0.88893104025E+03 -0.62781177765E+03  0.17164688089E+04  0.12699999809E+01 0.  1.
       -4    1    3    3    0  502  0.13273724182E+04 -0.88893104025E+03 -0.91213264489E+03  0.18395932990E+04  0.12699999809E+01 0. -1.
</event>
<event>
 5   0  0.7971763E-06  0.3164045E+04  0.7818609E-02  0.8198378E-01
       -2   -1    0    0    0  501  0.00000000000E+00  0.00000000000E+00  0.17514313348E+04  0.17514313348E+04  0.25500000920E-02 0.  1.
        2   -1    0    0  501    0  0.00000000000E+00  0.00000000000E+00 -0.14290002849E+04  0.14290002849E+04  0.25500000920E-02 0. -1.
    10030    2    1    2    0    0  0.00000000000E+00  0.00000000000E+00  0.32243104995E+03  0.31804316197E+04  0.31640454336E+04 0.  0.
        1    1    3    3  502    0  0.14004059362E+04  0.73445471608E+03  0.20873997591E+03  0.15950338221E+04  0.50400001928E-02 0. -1.
       -1    1    3    3    0  502 -0.14004059362E+04 -0.73445471608E+03  0.11369107404E+03  0.15853977976E+04  0.50400001928E-02 0.  1.
</event>
<event>
 5   0  0.2635798E-06  0.2781406E+04  0.7818609E-02  0.8309065E-01
       -1   -1    0    0    0  501  0.00000000000E+00  0.00000000000E+00  0.11801197970E+04  0.11801197971E+04  0.50400001928E-02 0.  1.
        1   -1    0    0  501    0  0.00000000000E+00  0.00000000000E+00 -0.16388626123E+04  0.16388626123E+04  0.50400001928E-02 0. -1.
    10030    2    1    2    0    0  0.00000000000E+00  0.00000000000E+00 -0.45874281522E+03  0.28189824093E+04  0.27814055536E+04 0.  0.
        1    1    3    3  502    0  0.98470572447E+03 -0.77615502174E+03 -0.83915772294E+03  0.15087238533E+04  0.50400001928E-02 0. -1.
       -1    1    3    3    0  502 -0.98470572447E+03  0.77615502174E+03  0.38041490772E+03  0.13102585560E+04  0.50400001928E-02 0.  1.
</event>
<event>
 5   0  0.7971763E-06  0.3067067E+04  0.7818609E-02  0.8224835E-01
        2   -1    0    0  501    0  0.00000000000E+00  0.00000000000E+00  0.29038877295E+04  0.29038877295E+04  0.25500000920E-02 0.  1.
       -2   -1    0    0    0  501  0.00000000000E+00  0.00000000000E+00 -0.80985376764E+03  0.80985376764E+03  0.25500000920E-02 0. -1.
    10030    2    1    2    0    0  0.00000000000E+00  0.00000000000E+00  0.20940339618E+04  0.37137414971E+04  0.30670666237E+04 0.  0.
        1    1    3    3  502    0  0.84788057744E+03 -0.11948181603E+04  0.49847289442E+03  0.15475681362E+04  0.50400001928E-02 0. -1.
       -1    1    3    3    0  502 -0.84788057744E+03  0.11948181603E+04  0.15955610674E+04  0.21661733609E+04  0.50400001928E-02 0.  1.
</event>
<event>
 5   0  0.3938696E-06  0.3274719E+04  0.7818609E-02  0.8169358E-01
       -1   -1    0    0    0  501  0.00000000000E+00  0.00000000000E+00  0.78610552812E+03  0.78610552814E+03  0.50400001928E-02 0.  1.
        1   -1    0    0  501    0  0.00000000000E+00  0.00000000000E+00 -0.34104143381E+04  0.34104143381E+04  0.50400001928E-02 0. -1.
    10030    2    1    2    0    0  0.00000000000E+00  0.00000000000E+00 -0.26243088100E+04  0.41965198663E+04  0.32747186532E+04 0.  0.
        4    1    3    3  502    0  0.38261371053E+03  0.38210555112E+03 -0.32926874772E+04  0.33367934217E+04  0.12699999809E+01 0. -1.
       -4    1    3    3    0  502 -0.38261371053E+03 -0.38210555112E+03  0.66837866725E+03  0.85972644452E+03  0.12699999809E+01 0.  1.
</event>
<event>
 5   0  0.7952307E-06  0.3062483E+04  0.7818609E-02  0.8226110E-01
        2   -1    0    0  501    0  0.00000000000E+00  0.00000000000E+00  0.18993632910E+04  0.18993632910E+04  0.25500000920E-02 0.  1.
       -2   -1    0    0    0  501  0.00000000000E+00  0.00000000000E+00 -0.12344663775E+04  0.12344663775E+04  0.25500000920E-02 0. -1.
    10030    2    1    2    0    0  0.00000000000E+00  0.00000000000E+00  0.66489691346E+03  0.31338296685E+04  0.30624827323E+04 0.  0.
        2    1    3    3  502    0 -0.11949609313E+04 -0.12139896659E+03  0.13043279509E+04  0.17731161101E+04  0.25500000920E-02 0.  1.
       -2    1    3    3    0  502  0.11949609313E+04  0.12139896659E+03 -0.63943103743E+03  0.13607135584E+04  0.25500000920E-02 0. -1.
</event>
<event>
 5   0  0.7952307E-06  0.2932410E+04  0.7818609E-02  0.8263299E-01
        2   -1    0    0  501    0  0.00000000000E+00  0.00000000000E+00  0.18139371139E+04  0.18139371139E+04  0.25500000920E-02 0.  1.
       -2   -1    0    0    0  501  0.00000000000E+00  0.00000000000E+00 -0.11851335015E+04  0.11851335015E+04  0.25500000920E-02 0. -1.
    10030    2    1    2    0    0  0.00000000000E+00  0.00000000000E+00  0.62880361236E+03  0.29990706153E+04  0.29324103691E+04 0.  0.
        2    1    3    3  502    0 -0.61357726033E+03  0.12621491958E+04 -0.11981999480E+03  0.14084936911E+04  0.25500000920E-02 0. -1.
       -2    1    3    3    0  502  0.61357726033E+03 -0.12621491958E+04  0.74862360716E+03  0.15905769242E+04  0.25500000920E-02 0.  1.
</event>
<event>
 5   0  0.2635798E-06  0.3268011E+04  0.7818609E-02  0.8171083E-01
       -1   -1    0    0    0  501  0.00000000000E+00  0.00000000000E+00  0.25621194777E+04  0.25621194777E+04  0.50400001928E-02 0.  1.
        1   -1    0    0  501    0  0.00000000000E+00  0.00000000000E+00 -0.10420956420E+04  0.10420956421E+04  0.50400001928E-02 0. -1.
    10030    2    1    2    0    0  0.00000000000E+00  0.00000000000E+00  0.15200238356E+04  0.36042151197E+04  0.32680107357E+04 0.  0.
        1    1    3    3  502    0 -0.10472011238E+04  0.74417311772E+03  0.18736175899E+04  0.22717541012E+04  0.50400001928E-02 0.  1.
       -1    1    3    3    0  502  0.10472011238E+04 -0.74417311772E+03 -0.35359375430E+03  0.13324610186E+04  0.50400001928E-02 0. -1.
</event>
<event>
 5   0  0.2580875E-06  0.1930445E+04  0.7818609E-02  0.8639849E-01
       -3   -1    0    0    0  501  0.00000000000E+00  0.00000000000E+00  0.61849309410E+03  0.61849310235E+03  0.10100000352E+00 0. -1.
        3   -1    0    0  501    0  0.00000000000E+00  0.00000000000E+00 -0.15063289499E+04  0.15063289533E+04  0.10100000352E+00 0.  1.
    10030    2    1    2    0    0  0.00000000000E+00  0.00000000000E+00 -0.88783585578E+03  0.21248220556E+04  0.19304445761E+04 0.  0.
        5    1    3    3  502    0  0.49308311473E+03  0.10516216085E+03  0.46202589358E+03  0.68387137273E+03  0.46999998093E+01 0. -1.
       -5    1    3    3    0  502 -0.49308311473E+03 -0.10516216085E+03 -0.13498617494E+04  0.14409506829E+04  0.46999998093E+01 0.  1.
</event>
<event>
 5   0  0.2933646E-06  0.1637750E+04  0.7818609E-02  0.8797687E-01
        1   -1    0    0  501    0  0.00000000000E+00  0.00000000000E+00  0.78170978271E+03  0.78170978273E+03  0.50400001928E-02 0.  1.
       -1   -1    0    0    0  501  0.00000000000E+00  0.00000000000E+00 -0.85780666205E+03  0.85780666207E+03  0.50400001928E-02 0. -1.
    10030    2    1    2    0    0  0.00000000000E+00  0.00000000000E+00 -0.76096879343E+02  0.16395164448E+04  0.16377495040E+04 0.  0.
        2    1    3    3  502    0  0.17164939161E+03  0.13853346716E+03 -0.82750614288E+03  0.85640028706E+03  0.25500000920E-02 0. -1.
       -2    1    3    3    0  502 -0.17164939161E+03 -0.13853346716E+03  0.75140926354E+03  0.78311615773E+03  0.25500000920E-02 0.  1.
</event>
<event>
 5   0  0.7510251E-06  0.2550794E+04  0.7818609E-02  0.8385110E-01
       -2   -1    0    0    0  501  0.00000000000E+00  0.00000000000E+00  0.12285162475E+04  0.12285162475E+04  0.25500000920E-02 0. -1.
        2   -1    0    0  501    0  0.00000000000E+00  0.00000000000E+00 -0.13240669310E+04  0.13240669310E+04  0.25500000920E-02 0.  1.
    10030    2    1    2    0    0  0.00000000000E+00  0.00000000000E+00 -0.95550683569E+02  0.25525831785E+04  0.25507941802E+04 0.  0.
        3    1    3    3  502    0 -0.20314365378E+03  0.12501115763E+04  0.10263453178E+03  0.12706613060E+04  0.10100000352E+00 0. -1.
       -3    1    3    3    0  502  0.20314365378E+03 -0.12501115763E+04 -0.19818521535E+03  0.12819218725E+04  0.10100000352E+00 0.  1.
</event>
<event>
 5   0  0.2933646E-06  0.3272825E+04  0.7818609E-02  0.8169845E-01
       -1   -1    0    0    0  501  0.00000000000E+00  0.00000000000E+00  0.16953040554E+04  0.16953040554E+04  0.50400001928E-02 0. -1.
        1   -1    0    0  501    0  0.00000000000E+00  0.00000000000E+00 -0.15795664190E+04  0.15795664191E+04  0.50400001928E-02 0.  1.
    10030    2    1    2    0    0  0.00000000000E+00  0.00000000000E+00  0.11573763637E+03  0.32748704745E+04  0.32728246858E+04 0.  0.
        2    1    3    3  502    0 -0.52114791551E+03  0.15152248792E+03 -0.14868873389E+04  0.15828418028E+04  0.25500000920E-02 0.  1.
       -2    1    3    3    0  502  0.52114791551E+03 -0.15152248792E+03  0.16026249753E+04  0.16920286716E+04  0.25500000920E-02 0. -1.
</event>
<event>
 5   0  0.2635798E-06  0.3431691E+04  0.7818609E-02  0.8130172E-01
        1   -1    0    0  501    0  0.00000000000E+00  0.00000000000E+00  0.17045887580E+04  0.17045887580E+04  0.50400001928E-02 0. -1.
       -1   -1    0    0    0  501  0.00000000000E+00  0.00000000000E+00 -0.17271770644E+04  0.17271770644E+04  0.50400001928E-02 0.  1.
    10030    2    1    2    0    0  0.00000000000E+00  0.00000000000E+00 -0.22588306439E+02  0.34317658224E+04  0.34316914821E+04 0.  0.
        1    1    3    3  502    0 -0.72750657102E+03 -0.79440610816E+03 -0.13469052553E+04  0.17246740684E+04  0.50400001928E-02 0.  1.
       -1    1    3    3    0  502  0.72750657102E+03  0.79440610816E+03  0.13243169488E+04  0.17070917540E+04  0.50400001928E-02 0. -1.
</event>
<event>
 5   0  0.7971763E-06  0.3187675E+04  0.7818609E-02  0.8192080E-01
       -2   -1    0    0    0  501  0.00000000000E+00  0.00000000000E+00  0.12175750190E+04  0.12175750190E+04  0.25500000920E-02 0. -1.
        2   -1    0    0  501    0  0.00000000000E+00  0.00000000000E+00 -0.20863750513E+04  0.20863750514E+04  0.25500000920E-02 0.  1.
    10030    2    1    2    0    0  0.00000000000E+00  0.00000000000E+00 -0.86880003233E+03  0.33039500704E+04  0.31876751044E+04 0.  0.
        1    1    3    3  502    0  0.47380877613E+03  0.67547811852E+03  0.97899537276E+03  0.12803114406E+04  0.50400001928E-02 0. -1.
       -1    1    3    3    0  502 -0.47380877613E+03 -0.67547811852E+03 -0.18477954051E+04  0.20236386298E+04  0.50400001928E-02 0.  1.
</event>
<event>
 5   0  0.2580875E-06  0.3184021E+04  0.7818609E-02  0.8193050E-01
       -3   -1    0    0    0  501  0.00000000000E+00  0.00000000000E+00  0.15191182112E+04  0.15191182145E+04  0.10100000352E+00 0.  1.
        3   -1    0    0  501    0  0.00000000000E+00  0.00000000000E+00 -0.16684004339E+04  0.16684004370E+04  0.10100000352E+00 0. -1.
    10030    2    1    2    0    0  0.00000000000E+00  0.00000000000E+00 -0.14928222273E+03  0.31875186515E+04  0.31840210382E+04 0.  0.
        3    1    3    3  502    0  0.68710463806E+02 -0.88955669069E+03 -0.13945982008E+04  0.16555773572E+04  0.10100000352E+00 0. -1.
       -3    1    3    3    0  502 -0.68710463806E+02  0.88955669069E+03  0.12453159781E+04  0.15319412943E+04  0.10100000352E+00 0.  1.
</event>
<event>
 5   0  0.7952307E-06  0.3187590E+04  0.7818609E-02  0.8192102E-01
       -2   -1    0    0    0  501  0.00000000000E+00  0.00000000000E+00  0.11709452136E+04  0.11709452136E+04  0.25500000920E-02 0.  1.
        2   -1    0    0  501    0  0.00000000000E+00  0.00000000000E+00 -0.21693430215E+04  0.21693430215E+04  0.25500000920E-02 0. -1.
    10030    2    1    2    0    0  0.00000000000E+00  0.00000000000E+00 -0.99839780795E+03  0.33402882351E+04  0.31875895769E+04 0.  0.
        2    1    3    3  502    0  0.38070343210E+02 -0.26850758955E+03 -0.21449876640E+04  0.21620633098E+04  0.25500000920E-02 0. -1.
       -2    1    3    3    0  502 -0.38070343210E+02  0.26850758955E+03  0.11465898561E+04  0.11782249253E+04  0.25500000920E-02 0.  1.
</event>
<event>
 5   0  0.7952307E-06  0.1974192E+04  0.7818609E-02  0.8618782E-01
        2   -1    0    0  501    0  0.00000000000E+00  0.00000000000E+00  0.12865899586E+04  0.12865899586E+04  0.25500000920E-02 0.  1.
       -2   -1    0    0    0  501  0.00000000000E+00  0.00000000000E+00 -0.75731895162E+03  0.75731895162E+03  0.25500000920E-02 0. -1.
    10030    2    1    2    0    0  0.00000000000E+00  0.00000000000E+00  0.52927100700E+03  0.20439089102E+04  0.19741924512E+04 0.  0.
        2    1    3    3  502    0  0.88840336368E+03 -0.40903878530E+03  0.12656291723E+03  0.98620050522E+03  0.25500000920E-02 0. -1.
       -2    1    3    3    0  502 -0.88840336368E+03  0.40903878530E+03  0.40270808977E+03  0.10577084050E+04  0.25500000920E-02 0.  1.
</event>
<event>
 5   0  0.2788054E-06  0.3260339E+04  0.7818609E-02  0.8173061E-01
        1   -1    0    0  501    0  0.00000000000E+00  0.00000000000E+00  0.20747915509E+04  0.20747915509E+04  0.50400001928E-02 0. -1.
       -1   -1    0    0    0  501  0.00000000000E+00  0.00000000000E+00 -0.12808289429E+04  0.12808289429E+04  0.50400001928E-02 0.  1.
    10030    2    1    2    0    0  0.00000000000E+00  0.00000000000E+00  0.79396260802E+03  0.33556204939E+04  0.32603392885E+04 0.  0.
        3    1    3    3  502    0  0.98253157563E+02 -0.25591349758E+03 -0.12569369186E+04  0.12864819582E+04  0.10100000352E+00 0.  1.
       -3    1    3    3    0  502 -0.98253157563E+02  0.25591349758E+03  0.20508995266E+04  0.20691385357E+04  0.10100000352E+00 0. -1.
</event>
<event>
 5   0  0.8237664E-06  0.3211065E+04  0.7818609E-02  0.8185901E-01
       -2   -1    0    0    0  501  0.00000000000E+00  0.00000000000E+00  0.16921429734E+04  0.16921429734E+04  0.25500000920E-02 0. -1.
        2   -1    0    0  501    0  0.00000000000E+00  0.00000000000E+00 -0.15233549384E+04  0.15233549384E+04  0.25500000920E-02 0.  1.
    10030    2    1    2    0    0  0.00000000000E+00  0.00000000000E+00  0.16878803498E+03  0.32154979118E+04  0.32110648421E+04 0.  0.
        5    1    3    3  502    0 -0.10654695474E+04 -0.61536866618E+03 -0.94844074396E+03  0.15535333555E+04  0.46999998093E+01 0.  1.
       -5    1    3    3    0  502  0.10654695474E+04  0.61536866618E+03  0.11172287789E+04  0.16619645563E+04  0.46999998093E+01 0. -1.
</event>
<event>
 5   0  0.3938696E-06  0.2291519E+04  0.7818609E-02  0.8481273E-01
        1   -1    0    0  501    0  0.00000000000E+00  0.00000000000E+00  0.14247834348E+04  0.14247834348E+04  0.50400001928E-02 0.  1.
       -1   -1    0    0    0  501  0.00000000000E+00  0.00000000000E+00 -0.92137814149E+03  0.92137814150E+03  0.50400001928E-02 0. -1.
    10030    2    1    2    0    0  0.00000000000E+00  0.00000000000E+00  0.50340529335E+03  0.23461615764E+04  0.22915185474E+04 0.  0.
        4    1    3    3  502    0 -0.37723227401E+03  0.10031944129E+04 -0.16299847375E+03  0.10841002417E+04  0.12699999809E+01 0. -1.
       -4    1    3    3    0  502  0.37723227401E+03 -0.10031944129E+04  0.66640376709E+03  0.12620613346E+04  0.12699999809E+01 0.  1.
</event>
<event>
 5   0  0.7952307E-06  0.3041846E+04  0.7818609E-02  0.8231881E-01
        2   -1    0    0  501    0  0.00000000000E+00  0.00000000000E+00  0.15393997819E+04  0.15393997819E+04  0.25500000920E-02 0. -1.
       -2   -1    0    0    0  501  0.00000000000E+00  0.00000000000E+00 -0.15026681517E+04  0.15026681517E+04  0.25500000920E-02 0.  1.
    10030    2    1    2    0    0  0.00000000000E+00  0.00000000000E+00  0.36731630179E+02  0.30420679336E+04  0.30418461664E+04 0.  0.
        2    1    3    3  502    0 -0.14379091712E+04 -0.47557944796E+03  0.15783360620E+03  0.15227179789E+04  0.25500000920E-02 0.  1.
       -2    1    3    3    0  502  0.14379091712E+04  0.47557944796E+03 -0.12110197602E+03  0.15193499546E+04  0.25500000920E-02 0. -1.
</event>
<event>
 5   0  0.4142886E-06  0.3104178E+04  0.7818609E-02  0.8214592E-01
        1   -1    0    0  501    0  0.00000000000E+00  0.00000000000E+00  0.17653217800E+04  0.17653217800E+04  0.50400001928E-02 0. -1.
       -1   -1    0    0    0  501  0.00000000000E+00  0.00000000000E+00 -0.13646123637E+04  0.13646123637E+04  0.50400001928E-02 0.  1.
    10030    2    1    2    0    0  0.00000000000E+00  0.00000000000E+00  0.40070941636E+03  0.31299341437E+04  0.31041777829E+04 0.  0.
        5    1    3    3  502    0  0.14983832371E+03 -0.11844481816E+04 -0.79963471155E+03  0.14369435550E+04  0.46999998093E+01 0.  1.
       -5    1    3    3    0  502 -0.14983832371E+03  0.11844481816E+04  0.12003441279E+04  0.16929905888E+04  0.46999998093E+01 0. -1.
</event>
<event>
 5   0  0.2933646E-06  0.3107135E+04  0.7818609E-02  0.8213782E-01
       -1   -1    0    0    0  501  0.00000000000E+00  0.00000000000E+00  0.17121896818E+04  0.17121896818E+04  0.50400001928E-02 0.  1.
        1   -1    0    0  501    0  0.00000000000E+00  0.00000000000E+00 -0.14096409364E+04  0.14096409364E+04  0.50400001928E-02 0. -1.
    10030    2    1    2    0    0  0.00000000000E+00  0.00000000000E+00  0.30254874537E+03  0.31218306182E+04  0.31071354437E+04 0.  0.
        2    1    3    3  502    0  0.50892088345E+03 -0.13567905521E+04 -0.41145630849E+03  0.15063788905E+04  0.25500000920E-02 0. -1.
       -2    1    3    3    0  502 -0.50892088345E+03  0.13567905521E+04  0.71400505386E+03  0.16154517278E+04  0.25500000920E-02 0.  1.
</event>
<event>
 5   0  0.4142886E-06  0.3291944E+04  0.7818609E-02  0.8164948E-01
        1   -1    0    0  501    0  0.00000000000E+00  0.00000000000E+00  0.18773930618E+04  0.18773930618E+04  0.50400001928E-02 0.  1.
       -1   -1    0    0    0  501  0.00000000000E+00  0.00000000000E+00 -0.14430778698E+04  0.14430778699E+04  0.50400001928E-02 0. -1.
    10030    2    1    2    0    0  0.00000000000E+00  0.00000000000E+00  0.43431519197E+03  0.33204709317E+04  0.32919443376E+04 0.  0.
        5    1    3    3  502    0  0.12882809490E+03  0.12966128762E+04  0.12315566047E+04  0.17929181212E+04  0.46999998093E+01 0. -1.
       -5    1    3    3    0  502 -0.12882809490E+03 -0.12966128762E+04 -0.79724141273E+03  0.15275528105E+04  0.46999998093E+01 0.  1.
</event>
<event>
 5   0  0.7952307E-06  0.2840140E+04  0.7818609E-02  0.8290914E-01
        2   -1    0    0  501    0  0.00000000000E+00  0.00000000000E+00  0.13745875698E+04  0.13745875698E+04  0.25500000920E-02 0.  1.
       -2   -1    0    0    0  501  0.00000000000E+00  0.00000000000E+00 -0.14670575624E+04  0.14670575624E+04  0.25500000920E-02 0. -1.
    10030    2    1    2    0    0  0.00000000000E+00  0.00000000000E+00 -0.92469992579E+02  0.28416451323E+04  0.28401402004E+04 0.  0.
        2    1    3    3  502    0 -0.13157878799E+03 -0.10221397591E+04 -0.10237462495E+04  0.14526317661E+04  0.25500000920E-02 0. -1.
       -2    1    3    3    0  502  0.13157878799E+03  0.10221397591E+04  0.93127625691E+03  0.13890133661E+04  0.25500000920E-02 0.  1.
</event>
<event>
 5   0  0.7952307E-06  0.3100358E+04  0.7818609E-02  0.8215640E-01
       -2   -1    0    0    0  501  0.00000000000E+00  0.00000000000E+00  0.10688416089E+04  0.10688416090E+04  0.25500000920E-02 0. -1.
        2   -1    0    0  501    0  0.00000000000E+00  0.00000000000E+00 -0.22482800490E+04  0.22482800490E+04  0.25500000920E-02 0.  1.
    10030    2    1    2    0    0  0.00000000000E+00  0.00000000000E+00 -0.11794384400E+04  0.33171216579E+04  0.31003582147E+04 0.  0.
        2    1    3    3  502    0  0.59880300854E+03  0.56682340672E+03 -0.19942056590E+04  0.21579411549E+04  0.25500000920E-02 0.  1.
       -2    1    3    3    0  502 -0.59880300854E+03 -0.56682340672E+03  0.81476721901E+03  0.11591805030E+04  0.25500000920E-02 0. -1.
</event>
<event>
 5   0  0.5346446E-06  0.1583829E+04  0.7818609E-02  0.8830544E-01
        1   -1    0    0  501    0  0.00000000000E+00  0.00000000000E+00  0.16262206475E+04  0.16262206475E+04  0.50400001928E-02 0. -1.
       -1   -1    0    0    0  501  0.00000000000E+00  0.00000000000E+00 -0.38563562727E+03  0.38563562730E+03  0.50400001928E-02 0.  1.
    10030    2    1    2    0    0  0.00000000000E+00  0.00000000000E+00  0.12405850202E+04  0.20118562748E+04  0.15838290558E+04 0.  0.
        4    1    3    3  502    0  0.61174507107E+03 -0.50133138042E+03  0.57009243531E+03  0.97497291381E+03  0.12699999809E+01 0. -1.
       -4    1    3    3    0  502 -0.61174507107E+03  0.50133138042E+03  0.67049258493E+03  0.10368833610E+04  0.12699999809E+01 0.  1.
</event>
<event>
 5   0  0.7941434E-06  0.3201814E+04  0.7818609E-02  0.8188338E-01
        2   -1    0    0  501    0  0.00000000000E+00  0.00000000000E+00  0.24402725085E+04  0.24402725085E+04  0.25500000920E-02 0. -1.
       -2   -1    0    0    0  501  0.00000000000E+00  0.00000000000E+00 -0.10502531896E+04  0.10502531896E+04  0.25500000920E-02 0.  1.
    10030    2    1    2    0    0  0.00000000000E+00  0.00000000000E+00  0.13900193189E+04  0.34905256980E+04  0.32018144765E+04 0.  0.
        4    1    3    3  502    0  0.13611384539E+04  0.15758165462E+03  0.15975321112E+04  0.21046710735E+04  0.12699999809E+01 0. -1.
       -4    1    3    3    0  502 -0.13611384539E+04 -0.15758165462E+03 -0.20751279229E+03  0.13858546245E+04  0.12699999809E+01 0.  1.
</event>
<event>
 5   0  0.4142886E-06  0.2161780E+04  0.7818609E-02  0.8534507E-01
        1   -1    0    0  501    0  0.00000000000E+00  0.00000000000E+00  0.16438552674E+04  0.16438552675E+04  0.50400001928E-02 0. -1.
       -1   -1    0    0    0  501  0.00000000000E+00  0.00000000000E+00 -0.71072142665E+03  0.71072142667E+03  0.50400001928E-02 0.  1.
    10030    2    1    2    0    0  0.00000000000E+00  0.00000000000E+00  0.93313384080E+03  0.23545766941E+04  0.21617799712E+04 0.  0.
        5    1    3    3  502    0 -0.14408573408E+03 -0.22459399132E+03 -0.67427125747E+03  0.72516686242E+03  0.46999998093E+01 0.  1.
       -5    1    3    3    0  502  0.14408573408E+03  0.22459399132E+03  0.16074050983E+04  0.16294098317E+04  0.46999998093E+01 0. -1.
</event>
<event>
 5   0  0.7952307E-06  0.1681556E+04  0.7818609E-02  0.8771954E-01
       -2   -1    0    0    0  501  0.00000000000E+00  0.00000000000E+00  0.49313870600E+03  0.49313870601E+03  0.25500000920E-02 0.  1.
        2   -1    0    0  501    0  0.00000000000E+00  0.00000000000E+00 -0.14334860106E+04  0.14334860106E+04  0.25500000920E-02 0. -1.
    10030    2    1    2    0    0  0.00000000000E+00  0.00000000000E+00 -0.94034730455E+03  0.19266247166E+04  0.16815557515E+04 0.  0.
        2    1    3    3  502    0 -0.55547705913E+03  0.32649833304E+03 -0.10890336540E+04  0.12653656484E+04  0.25500000920E-02 0. -1.
       -2    1    3    3    0  502  0.55547705913E+03 -0.32649833304E+03  0.14868634941E+03  0.66125906815E+03  0.25500000920E-02 0.  1.
</event>
<event>
 5   0  0.2635798E-06  0.2376916E+04  0.7818609E-02  0.8448197E-01
        1   -1    0    0  501    0  0.00000000000E+00  0.00000000000E+00  0.62795321000E+03  0.62795321002E+03  0.50400001928E-02 0. -1.
       -1   -1    0    0    0  501  0.00000000000E+00  0.00000000000E+00 -0.22492633827E+04  0.22492633827E+04  0.50400001928E-02 0.  1.
    10030    2    1    2    0    0  0.00000000000E+00  0.00000000000E+00 -0.16213101727E+04  0.28772165927E+04  0.23769157842E+04 0.  0.
        1    1    3    3  502    0  0.10305910679E+04  0.49470379027E+03 -0.41732744416E+03  0.12169683583E+04  0.50400001928E-02 0. -1.
       -1    1    3    3    0  502 -0.10305910679E+04 -0.49470379027E+03 -0.12039827285E+04  0.16602482344E+04  0.50400001928E-02 0.  1.
</event>
<event>
 5   0  0.7952307E-06  0.3169399E+04  0.7818609E-02  0.8196946E-01
        2   -1    0    0  501    0  0.00000000000E+00  0.00000000000E+00  0.12842258379E+04  0.12842258379E+04  0.25500000920E-02 0.  1.
       -2   -1    0    0    0  501  0.00000000000E+00  0.00000000000E+00 -0.19554760733E+04  0.19554760733E+04  0.25500000920E-02 0. -1.
    10030    2    1    2    0    0  0.00000000000E+00  0.00000000000E+00 -0.67125023545E+03  0.32397019112E+04  0.31693992483E+04 0.  0.
        2    1    3    3  502    0 -0.26876052564E+03 -0.12162970475E+04  0.66572808067E+03  0.14123755185E+04  0.25500000920E-02 0. -1.
       -2    1    3    3    0  502  0.26876052564E+03  0.12162970475E+04 -0.13369783161E+04  0.18273263927E+04  0.25500000920E-02 0.  1.
</event>
<event>
 5   0  0.7952307E-06  0.2180436E+04  0.7818609E-02  0.8526615E-01
        2   -1    0    0  501    0  0.00000000000E+00  0.00000000000E+00  0.20459939030E+04  0.20459939030E+04  0.25500000920E-02 0.  1.
       -2   -1    0    0    0  501  0.00000000000E+00  0.00000000000E+00 -0.58092821166E+03  0.58092821166E+03  0.25500000920E-02 0. -1.
    10030    2    1    2    0    0  0.00000000000E+00  0.00000000000E+00  0.14650656913E+04  0.26269221147E+04  0.21804362675E+04 0.  0.
        2    1    3    3  502    0  0.10823681502E+04  0.84064206949E+02  0.85293729552E+03  0.13806120503E+04  0.25500000920E-02 0.  1.
       -2    1    3    3    0  502 -0.10823681502E+04 -0.84064206949E+02  0.61212839582E+03  0.12463100643E+04  0.25500000920E-02 0. -1.
</event>
<event>
 5   0  0.4142886E-06  0.3199549E+04  0.7818609E-02  0.8188936E-01
       -1   -1    0    0    0  501  0.00000000000E+00  0.00000000000E+00  0.88126242214E+03  0.88126242215E+03  0.50400001928E-02 0.  1.
        1   -1    0    0  501    0  0.00000000000E+00  0.00000000000E+00 -0.29041045451E+04  0.29041045451E+04  0.50400001928E-02 0. -1.
    10030    2    1    2    0    0  0.00000000000E+00  0.00000000000E+00 -0.20228421230E+04  0.37853669673E+04  0.31995488467E+04 0.  0.
        5    1    3    3  502    0 -0.13818549264E+04  0.27405067295E+03 -0.19082572597E+04  0.23719390102E+04  0.46999998093E+01 0. -1.
       -5    1    3    3    0  502  0.13818549264E+04 -0.27405067295E+03 -0.11458486323E+03  0.14134279570E+04  0.46999998093E+01 0.  1.
</event>
<event>
 5   0  0.2635798E-06  0.2885945E+04  0.7818609E-02  0.8277072E-01
       -1   -1    0    0    0  501  0.00000000000E+00  0.00000000000E+00  0.11262552998E+04  0.11262552998E+04  0.50400001928E-02 0.  1.
        1   -1    0    0  501    0  0.00000000000E+00  0.00000000000E+00 -0.18487547875E+04  0.18487547875E+04  0.50400001928E-02 0. -1.
    10030    2    1    2    0    0  0.00000000000E+00  0.00000000000E+00 -0.72249948774E+03  0.29750100874E+04  0.28859451675E+04 0.  0.
        1    1    3    3  502    0 -0.10651745229E+03 -0.14365281777E+04 -0.44878625193E+03  0.15087638228E+04  0.50400001928E-02 0. -1.
       -1    1    3    3    0  502  0.10651745229E+03  0.14365281777E+04 -0.27371323581E+03  0.14662462646E+04  0.50400001928E-02 0.  1.
</event>
<event>
 5   0  0.2788054E-06  0.2961110E+04  0.7818609E-02  0.8254924E-01
       -1   -1    0    0    0  501  0.00000000000E+00  0.00000000000E+00  0.98494091244E+03  0.98494091245E+03  0.50400001928E-02 0.  1.
        1   -1    0    0  501    0  0.00000000000E+00  0.00000000000E+00 -0.22255572460E+04  0.22255572460E+04  0.50400001928E-02 0. -1.
    10030    2    1    2    0    0  0.00000000000E+00  0.00000000000E+00 -0.12406163336E+04  0.32104981585E+04  0.29611095114E+04 0.  0.
        3    1    3    3  502    0  0.41258901274E+02  0.88285139771E+03 -0.19081666657E+04  0.21029096323E+04  0.10100000352E+00 0. -1.
       -3    1    3    3    0  502 -0.41258901274E+02 -0.88285139771E+03  0.66755033206E+03  0.11075885262E+04  0.10100000352E+00 0.  1.
</event>
<event>
 5   0  0.3938696E-06  0.3037355E+04  0.7818609E-02  0.8233144E-01
        1   -1    0    0  501    0  0.00000000000E+00  0.00000000000E+00  0.15364478163E+04  0.15364478163E+04  0.50400001928E-02 0.  1.
       -1   -1    0    0    0  501  0.00000000000E+00  0.00000000000E+00 -0.15011122939E+04  0.15011122939E+04  0.50400001928E-02 0. -1.
    10030    2    1    2    0    0  0.00000000000E+00  0.00000000000E+00  0.35335522417E+02  0.30375601102E+04  0.30373545766E+04 0.  0.
        4    1    3    3  502    0  0.14852432814E+04 -0.31395268729E+03  0.60858625902E+02  0.15192824885E+04  0.12699999809E+01 0.  1.
       -4    1    3    3    0  502 -0.14852432814E+04  0.31395268729E+03 -0.25523103485E+02  0.15182776216E+04  0.12699999809E+01 0. -1.
</event>
<event>
 5   0  0.3938696E-06  0.3244268E+04  0.7818609E-02  0.8177223E-01
       -1   -1    0    0    0  501  0.00000000000E+00  0.00000000000E+00  0.27662962361E+04  0.27662962361E+04  0.50400001928E-02 0. -1.
        1   -1    0    0  501    0  0.00000000000E+00  0.00000000000E+00 -0.95120669476E+03  0.95120669478E+03  0.50400001928E-02 0.  1.
    10030    2    1    2    0    0  0.00000000000E+00  0.00000000000E+00  0.18150895413E+04  0.37175029309E+04  0.32442684843E+04 0.  0.
        4    1    3    3  502    0  0.89827079709E+03  0.29563798273E+03 -0.60266629116E+03  0.11213833034E+04  0.12699999809E+01 0.  1.
       -4    1    3    3    0  502 -0.89827079709E+03 -0.29563798273E+03  0.24177558325E+04  0.25961196275E+04  0.12699999809E+01 0. -1.
</event>
<event>
 5   0  0.7971763E-06  0.3053788E+04  0.7818609E-02  0.8228536E-01
        2   -1    0    0  501    0  0.00000000000E+00  0.00000000000E+00  0.23586971179E+04  0.23586971180E+04  0.25500000920E-02 0.  1.
       -2   -1    0    0    0  501  0.00000000000E+00  0.00000000000E+00 -0.98842955913E+03  0.98842955913E+03  0.25500000920E-02 0. -1.
    10030    2    1    2    0    0  0.00000000000E+00  0.00000000000E+00  0.13702675588E+04  0.33471266771E+04  0.30537884356E+04 0.  0.
        1    1    3    3  502    0 -0.14065747703E+04 -0.50424437873E+03  0.10294614476E+04  0.18145263432E+04  0.50400001928E-02 0.  1.
       -1    1    3    3    0  502  0.14065747703E+04  0.50424437873E+03  0.34080611126E+03  0.15326003339E+04  0.50400001928E-02 0. -1.
</event>
<event>
 5   0  0.7510251E-06  0.2554937E+04  0.7818609E-02  0.8383671E-01
        2   -1    0    0  501    0  0.00000000000E+00  0.00000000000E+00  0.20243839838E+04  0.20243839838E+04  0.25500000920E-02 0. -1.
       -2   -1    0    0    0  501  0.00000000000E+00  0.00000000000E+00 -0.80613453431E+03  0.80613453432E+03  0.25500000920E-02 0.  1.
    10030    2    1    2    0    0  0.00000000000E+00  0.00000000000E+00  0.12182494495E+04  0.28305185182E+04  0.25549370560E+04 0.  0.
        3    1    3    3  502    0  0.45412320749E+03 -0.18754460217E+03 -0.69727232340E+03  0.85298860987E+03  0.10100000352E+00 0.  1.
       -3    1    3    3    0  502 -0.45412320749E+03  0.18754460217E+03  0.19155217729E+04  0.19775299083E+04  0.10100000352E+00 0. -1.
</event>
<event>
 5   0  0.7952307E-06  0.3213195E+04  0.7818609E-02  0.8185341E-01
        2   -1    0    0  501    0  0.00000000000E+00  0.00000000000E+00  0.17715230192E+04  0.17715230192E+04  0.25500000920E-02 0.  1.
       -2   -1    0    0    0  501  0.00000000000E+00  0.00000000000E+00 -0.14570264430E+04  0.14570264430E+04  0.25500000920E-02 0. -1.
    10030    2    1    2    0    0  0.00000000000E+00  0.00000000000E+00  0.31449657624E+03  0.32285494623E+04  0.32131952219E+04 0.  0.
        2    1    3    3  502    0 -0.96725380234E+03  0.99881565959E+03 -0.65154737640E+03  0.15354890503E+04  0.25500000920E-02 0.  1.
       -2    1    3    3    0  502  0.96725380234E+03 -0.99881565959E+03  0.96604395265E+03  0.16930604119E+04  0.25500000920E-02 0. -1.
</event>
<event>
 5   0  0.7941434E-06  0.2735880E+04  0.7818609E-02  0.8323456E-01
        2   -1    0    0  501    0  0.00000000000E+00  0.00000000000E+00  0.89254851071E+03  0.89254851071E+03  0.25500000920E-02 0. -1.
       -2   -1    0    0    0  501  0.00000000000E+00  0.00000000000E+00 -0.20965353081E+04  0.20965353081E+04  0.25500000920E-02 0.  1.
    10030    2    1    2    0    0  0.00000000000E+00  0.00000000000E+00 -0.12039867974E+04  0.29890838188E+04  0.27358797246E+04 0.  0.
        4    1    3    3  502    0  0.43998323355E+03  0.79148635865E+03 -0.17221746600E+04  0.19457448636E+04  0.12699999809E+01 0.  1.
       -4    1    3    3    0  502 -0.43998323355E+03 -0.79148635865E+03  0.51818786258E+03  0.10433389553E+04  0.12699999809E+01 0. -1.
</event>
<event>
 5   0  0.3938696E-06  0.2976811E+04  0.7818609E-02  0.8250384E-01
       -1   -1    0    0    0  501  0.00000000000E+00  0.00000000000E+00  0.15198469920E+04  0.15198469920E+04  0.50400001928E-02 0.  1.
        1   -1    0    0  501    0  0.00000000000E+00  0.00000000000E+00 -0.14576142089E+04  0.14576142089E+04  0.50400001928E-02 0. -1.
    10030    2    1    2    0    0  0.00000000000E+00  0.00000000000E+00  0.62232783090E+02  0.29774612010E+04  0.29768107572E+04 0.  0.
        4    1    3    3  502    0  0.27228632839E+03 -0.13002502938E+04 -0.64026666285E+03  0.14746978279E+04  0.12699999809E+01 0. -1.
       -4    1    3    3    0  502 -0.27228632839E+03  0.13002502938E+04  0.70249944594E+03  0.15027633731E+04  0.12699999809E+01 0.  1.
</event>
<event>
 5   0  0.8237664E-06  0.3169048E+04  0.7818609E-02  0.8197040E-01
       -2   -1    0    0    0  501  0.00000000000E+00  0.00000000000E+00  0.14681993219E+04  0.14681993219E+04  0.25500000920E-02 0.  1.
        2   -1    0    0  501    0  0.00000000000E+00  0.00000000000E+00 -0.17100655050E+04  0.17100655050E+04  0.25500000920E-02 0. -1.
    10030    2    1    2    0    0  0.00000000000E+00  0.00000000000E+00 -0.24186618315E+03  0.31782648269E+04  0.31690484470E+04 0.  0.
        5    1    3    3  502    0  0.14217052387E+04 -0.23882481348E+03 -0.78042579581E+03  0.16393198559E+04  0.46999998093E+01 0. -1.
       -5    1    3    3    0  502 -0.14217052387E+04  0.23882481348E+03  0.53855961266E+03  0.15389449710E+04  0.46999998093E+01 0.  1.
</event>
<event>
 5   0  0.7510251E-06  0.3234295E+04  0.7818609E-02  0.8179818E-01
       -2   -1    0    0    0  501  0.00000000000E+00  0.00000000000E+00  0.17048923180E+04  0.17048923180E+04  0.25500000920E-02 0. -1.
        2   -1    0    0  501    0  0.00000000000E+00  0.00000000000E+00 -0.15339187768E+04  0.15339187768E+04  0.25500000920E-02 0.  1.
    10030    2    1    2    0    0  0.00000000000E+00  0.00000000000E+00  0.17097354114E+03  0.32388110948E+04  0.32342951869E+04 0.  0.
        3    1    3    3  502    0 -0.36169969050E+03 -0.77583577890E+03 -0.12884414872E+04  0.15468772731E+04  0.10100000352E+00 0.  1.
       -3    1    3    3    0  502  0.36169969050E+03  0.77583577890E+03  0.14594150283E+04  0.16919338217E+04  0.10100000352E+00 0. -1.
</event>
<event>
 5   0  0.2635798E-06  0.3172123E+04  0.7818609E-02  0.8196218E-01
        1   -1    0    0  501    0  0.00000000000E+00  0.00000000000E+00  0.14021661666E+04  0.14021661666E+04  0.50400001928E-02 0.  1.
       -1   -1    0    0    0  501  0.00000000000E+00  0.00000000000E+00 -0.17940750087E+04  0.17940750087E+04  0.50400001928E-02 0. -1.
    10030    2    1    2    0    0  0.00000000000E+00  0.00000000000E+00 -0.39190884209E+03  0.31962411754E+04  0.31721231235E+04 0.  0.
        1    1    3    3  502    0 -0.65865217449E+03  0.89412866994E+03  0.94504323637E+03  0.14582165422E+04  0.50400001928E-02 0.  1.
       -1    1    3    3    0  502  0.65865217449E+03 -0.89412866994E+03 -0.13369520785E+04  0.17380246332E+04  0.50400001928E-02 0. -1.
</event>
<event>
 5   0  0.2952521E-06  0.1784259E+04  0.7818609E-02  0.8714715E-01
        1   -1    0    0  501    0  0.00000000000E+00  0.00000000000E+00  0.86878569615E+03  0.86878569617E+03  0.50400001928E-02 0.  1.
       -1   -1    0    0    0  501  0.00000000000E+00  0.00000000000E+00 -0.91610055161E+03  0.91610055163E+03  0.50400001928E-02 0. -1.
    10030    2    1    2    0    0  0.00000000000E+00  0.00000000000E+00 -0.47314855461E+02  0.17848862478E+04  0.17842590120E+04 0.  0.
        3    1    3    3  502    0  0.44179131877E+03  0.37760469273E+03 -0.70074850683E+03  0.91039186801E+03  0.10100000352E+00 0. -1.
       -3    1    3    3    0  502 -0.44179131877E+03 -0.37760469273E+03  0.65343365137E+03  0.87449437978E+03  0.10100000352E+00 0.  1.
</event>
<event>
 5   0  0.7941434E-06  0.2802177E+04  0.7818609E-02  0.8302593E-01
       -2   -1    0    0    0  501  0.00000000000E+00  0.00000000000E+00  0.88787298907E+03  0.88787298907E+03  0.25500000920E-02 0.  1.
        2   -1    0    0  501    0  0.00000000000E+00  0.00000000000E+00 -0.22109565788E+04  0.22109565788E+04  0.25500000920E-02 0. -1.
    10030    2    1    2    0    0  0.00000000000E+00  0.00000000000E+00 -0.13230835898E+04  0.30988295679E+04  0.28021767441E+04 0.  0.
        4    1    3    3  502    0 -0.68075913848E+03 -0.87201622398E+03  0.28924611213E+03  0.11434641340E+04  0.12699999809E+01 0.  1.
       -4    1    3    3    0  502  0.68075913848E+03  0.87201622398E+03 -0.16123297019E+04  0.19553654339E+04  0.12699999809E+01 0. -1.
</event>
<event>
 5   0  0.7510251E-06  0.3166768E+04  0.7818609E-02  0.8197649E-01
        2   -1    0    0  501    0  0.00000000000E+00  0.00000000000E+00  0.27186301450E+04  0.27186301450E+04  0.25500000920E-02 0.  1.
       -2   -1    0    0    0  501  0.00000000000E+00  0.00000000000E+00 -0.92219406746E+03  0.92219406746E+03  0.25500000920E-02 0. -1.
    10030    2    1    2    0    0  0.00000000000E+00  0.00000000000E+00  0.17964360776E+04  0.36408242125E+04  0.31667678105E+04 0.  0.
        3    1    3    3  502    0  0.61570754922E+03 -0.92589324896E+03  0.21942335924E+04  0.24598851931E+04  0.10100000352E+00 0.  1.
       -3    1    3    3    0  502 -0.61570754922E+03  0.92589324896E+03 -0.39779751485E+03  0.11809390194E+04  0.10100000352E+00 0. -1.
</event>
<event>
 5   0  0.7952307E-06  0.3185633E+04  0.7818609E-02  0.8192622E-01
       -2   -1    0    0    0  501  0.00000000000E+00  0.00000000000E+00  0.17758421094E+04  0.17758421094E+04  0.25500000920E-02 0.  1.
        2   -1    0    0  501    0  0.00000000000E+00  0.00000000000E+00 -0.14286540993E+04  0.14286540993E+04  0.25500000920E-02 0. -1.
    10030    2    1    2    0    0  0.00000000000E+00  0.00000000000E+00  0.34718801011E+03  0.32044962088E+04  0.31856328159E+04 0.  0.
        2    1    3    3  502    0  0.34350764574E+03  0.96618128789E+03 -0.10524588466E+04  0.14694126063E+04  0.25500000920E-02 0. -1.
       -2    1    3    3    0  502 -0.34350764574E+03 -0.96618128789E+03  0.13996468568E+04  0.17350836024E+04  0.25500000920E-02 0.  1.
</event>
<event>
 5   0  0.7952307E-06  0.3172903E+04  0.7818609E-02  0.8196010E-01
        2   -1    0    0  501    0  0.00000000000E+00  0.00000000000E+00  0.13150413960E+04  0.13150413960E+04  0.25500000920E-02 0. -1.
       -2   -1    0    0    0  501  0.00000000000E+00  0.00000000000E+00 -0.19138776892E+04  0.19138776892E+04  0.25500000920E-02 0.  1.
    10030    2    1    2    0    0  0.00000000000E+00  0.00000000000E+00 -0.59883629320E+03  0.32289190853E+04  0.31729030167E+04 0.  0.
        2    1    3    3  502    0 -0.10766233381E+03 -0.13468994637E+04 -0.11454184344E+04  0.17713590074E+04  0.25500000920E-02 0.  1.
       -2    1    3    3    0  502  0.10766233381E+03  0.13468994637E+04  0.54658214120E+03  0.14575600778E+04  0.25500000920E-02 0. -1.
</event>
<event>
 5   0  0.7941434E-06  0.3254733E+04  0.7818609E-02  0.8174510E-01
       -2   -1    0    0    0  501  0.00000000000E+00  0.00000000000E+00  0.14179034366E+04  0.14179034366E+04  0.25500000920E-02 0. -1.
        2   -1    0    0  501    0  0.00000000000E+00  0.00000000000E+00 -0.18677731896E+04  0.18677731896E+04  0.25500000920E-02 0.  1.
    10030    2    1    2    0    0  0.00000000000E+00  0.00000000000E+00 -0.44986975301E+03  0.32856766262E+04  0.32547331837E+04 0.  0.
        4    1    3    3  502    0  0.14392354328E+04 -0.51284312672E+03 -0.79054160448E+03  0.17202803100E+04  0.12699999809E+01 0. -1.
       -4    1    3    3    0  502 -0.14392354328E+04  0.51284312672E+03  0.34067185146E+03  0.15653963162E+04  0.12699999809E+01 0.  1.
</event>
<event>
 5   0  0.8237664E-06  0.3194420E+04  0.7818609E-02  0.8190292E-01
        2   -1    0    0  501    0  0.00000000000E+00  0.00000000000E+00  0.79475755321E+03  0.79475755322E+03  0.25500000920E-02 0. -1.
       -2   -1    0    0    0  501  0.00000000000E+00  0.00000000000E+00 -0.32098852315E+04  0.32098852315E+04  0.25500000920E-02 0.  1.
    10030    2    1    2    0    0  0.00000000000E+00  0.00000000000E+00 -0.24151276783E+04  0.40046427847E+04  0.31944204687E+04 0.  0.
        5    1    3    3  502    0 -0.88866215737E+03  0.41235079227E+03  0.37386041186E+03  0.10485930113E+04  0.46999998093E+01 0. -1.
       -5    1    3    3    0  502  0.88866215737E+03 -0.41235079227E+03 -0.27889880901E+04  0.29560497734E+04  0.46999998093E+01 0.  1.
</event>
<event>
 5   0  0.8237664E-06  0.2263571E+04  0.7818609E-02  0.8492425E-01
       -2   -1    0    0    0  501  0.00000000000E+00  0.00000000000E+00  0.53952119081E+03  0.53952119082E+03  0.25500000920E-02 0. -1.
        2   -1    0    0  501    0  0.00000000000E+00  0.00000000000E+00 -0.23742129267E+04  0.23742129267E+04  0.25500000920E-02 0.  1.
    10030    2    1    2    0    0  0.00000000000E+00  0.00000000000E+00 -0.18346917359E+04  0.29137341175E+04  0.22635707945E+04 0.  0.
        5    1    3    3  502    0  0.14601940080E+03 -0.60579586373E+03  0.29880006002E+03  0.69109612919E+03  0.46999998093E+01 0. -1.
       -5    1    3    3    0  502 -0.14601940080E+03  0.60579586373E+03 -0.21334917959E+04  0.22226379883E+04  0.46999998093E+01 0.  1.
</event>
<event>
 5   0  0.7510251E-06  0.3209921E+04  0.7818609E-02  0.8186202E-01
       -2   -1    0    0    0  501  0.00000000000E+00  0.00000000000E+00  0.12068499252E+04  0.12068499252E+04  0.25500000920E-02 0. -1.
        2   -1    0    0  501    0  0.00000000000E+00  0.00000000000E+00 -0.21343975847E+04  0.21343975847E+04  0.25500000920E-02 0.  1.
    10030    2    1    2    0    0  0.00000000000E+00  0.00000000000E+00 -0.92754765957E+03  0.33412475099E+04  0.32099206005E+04 0.  0.
        3    1    3    3  502    0 -0.79285519781E+03  0.94678286848E+03 -0.15308391419E+04  0.19668466268E+04  0.10100000352E+00 0.  1.
       -3    1    3    3    0  502  0.79285519781E+03 -0.94678286848E+03  0.60329148230E+03  0.13744008831E+04  0.10100000352E+00 0. -1.
</event>
<event>
 5   0  0.2635798E-06  0.3208877E+04  0.7818609E-02  0.8186477E-01
        1   -1    0    0  501    0  0.00000000000E+00  0.00000000000E+00  0.21229158766E+04  0.21229158766E+04  0.50400001928E-02 0. -1.
       -1   -1    0    0    0  501  0.00000000000E+00  0.00000000000E+00 -0.12125880877E+04  0.12125880877E+04  0.50400001928E-02 0.  1.
    10030    2    1    2    0    0  0.00000000000E+00  0.00000000000E+00  0.91032778895E+03  0.33355039643E+04  0.32088767525E+04 0.  0.
        1    1    3    3  502    0  0.32009146817E+03  0.31022397505E+03 -0.11469309785E+04  0.12305072662E+04  0.50400001928E-02 0.  1.
       -1    1    3    3    0  502 -0.32009146817E+03 -0.31022397505E+03  0.20572587675E+04  0.21049966981E+04  0.50400001928E-02 0. -1.
</event>
<event>
 5   0  0.2635798E-06  0.3244319E+04  0.7818609E-02  0.8177210E-01
        1   -1    0    0  501    0  0.00000000000E+00  0.00000000000E+00  0.16674919188E+04  0.16674919188E+04  0.50400001928E-02 0.  1.
       -1   -1    0    0    0  501  0.00000000000E+00  0.00000000000E+00 -0.15780596895E+04  0.15780596895E+04  0.50400001928E-02 0. -1.
    10030    2    1    2    0    0  0.00000000000E+00  0.00000000000E+00  0.89432229320E+02  0.32455516083E+04  0.32443192072E+04 0.  0.
        1    1    3    3  502    0  0.11944367144E+04  0.10961295725E+04 -0.12074061848E+02  0.16212109324E+04  0.50400001928E-02 0. -1.
       -1    1    3    3    0  502 -0.11944367144E+04 -0.10961295725E+04  0.10150629117E+03  0.16243406759E+04  0.50400001928E-02 0.  1.
</event>
<event>
 5   0  0.7952307E-06  0.3209039E+04  0.7818609E-02  0.8186434E-01
       -2   -1    0    0    0  501  0.00000000000E+00  0.00000000000E+00  0.13787399372E+04  0.13787399372E+04  0.25500000920E-02 0.  1.
        2   -1    0    0  501    0  0.00000000000E+00  0.00000000000E+00 -0.18672719626E+04  0.18672719626E+04  0.25500000920E-02 0. -1.
    10030    2    1    2    0    0  0.00000000000E+00  0.00000000000E+00 -0.48853202534E+03  0.32460118998E+04  0.32090387523E+04 0.  0.
        2    1    3    3  502    0 -0.30516248572E+03 -0.65825608437E+01 -0.18376340188E+04  0.18628113860E+04  0.25500000920E-02 0. -1.
       -2    1    3    3    0  502  0.30516248572E+03  0.65825608437E+01  0.13491019934E+04  0.13832005138E+04  0.25500000920E-02 0.  1.
</event>
<event>
 5   0  0.7941434E-06  0.3201067E+04  0.7818609E-02  0.8188535E-01
        2   -1    0    0  501    0  0.00000000000E+00  0.00000000000E+00  0.17924109807E+04  0.17924109807E+04  0.25500000920E-02 0.  1.
       -2   -1    0    0    0  501  0.00000000000E+00  0.00000000000E+00 -0.14291967437E+04  0.14291967437E+04  0.25500000920E-02 0. -1.
    10030    2    1    2    0    0  0.00000000000E+00  0.00000000000E+00  0.36321423699E+03  0.32216077244E+04  0.32010672826E+04 0.  0.
        4    1    3    3  502    0 -0.13512214592E+04 -0.63881265167E+03 -0.39462714881E+03  0.15458373897E+04  0.12699999809E+01 0. -1.
       -4    1    3    3    0  502  0.13512214592E+04  0.63881265167E+03  0.75784138580E+03  0.16757703347E+04  0.12699999809E+01 0.  1.
</event>
<event>
 5   0  0.2580875E-06  0.3128265E+04  0.7818609E-02  0.8208023E-01
        3   -1    0    0  501    0  0.00000000000E+00  0.00000000000E+00  0.20504419767E+04  0.20504419792E+04  0.10100000352E+00 0.  1.
       -3   -1    0    0    0  501  0.00000000000E+00  0.00000000000E+00 -0.11931627394E+04  0.11931627437E+04  0.10100000352E+00 0. -1.
    10030    2    1    2    0    0  0.00000000000E+00  0.00000000000E+00  0.85727923731E+03  0.32436047229E+04  0.31282653192E+04 0.  0.
        5    1    3    3  502    0  0.95850492601E+03  0.12323536378E+04  0.32993685702E+03  0.15957153886E+04  0.46999998093E+01 0.  1.
       -5    1    3    3    0  502 -0.95850492601E+03 -0.12323536378E+04  0.52734238029E+03  0.16478893343E+04  0.46999998093E+01 0. -1.
</event>
<event>
 5   0  0.7971763E-06  0.2497577E+04  0.7818609E-02  0.8403849E-01
        2   -1    0    0  501    0  0.00000000000E+00  0.00000000000E+00  0.13233233167E+04  0.13233233167E+04  0.25500000920E-02 0. -1.
       -2   -1    0    0    0  501  0.00000000000E+00  0.00000000000E+00 -0.11784522460E+04  0.11784522460E+04  0.25500000920E-02 0.  1.
    10030    2    1    2    0    0  0.00000000000E+00  0.00000000000E+00  0.14487107077E+03  0.25017755627E+04  0.24975774941E+04 0.  0.
        1    1    3    3  502    0  0.10921534861E+04 -0.15308818839E+03  0.65928555173E+03  0.12848706820E+04  0.50400001928E-02 0. -1.
       -1    1    3    3    0  502 -0.10921534861E+04  0.15308818839E+03 -0.51441448096E+03  0.12169048808E+04  0.50400001928E-02 0.  1.
</event>
<event>
 5   0  0.2580875E-06  0.1672703E+04  0.7818609E-02  0.8777088E-01
        3   -1    0    0  501    0  0.00000000000E+00  0.00000000000E+00  0.32606084012E+03  0.32606085576E+03  0.10100000352E+00 0. -1.
       -3   -1    0    0    0  501  0.00000000000E+00  0.00000000000E+00 -0.21452550465E+04  0.21452550488E+04  0.10100000352E+00 0.  1.
    10030    2    1    2    0    0  0.00000000000E+00  0.00000000000E+00 -0.18191942063E+04  0.24713159046E+04  0.16727028248E+04 0.  0.
        5    1    3    3  502    0 -0.80580832001E+03 -0.15789945446E+03 -0.67505023568E+03  0.10630024445E+04  0.46999998093E+01 0.  1.
       -5    1    3    3    0  502  0.80580832001E+03  0.15789945446E+03 -0.11441439707E+04  0.14083134601E+04  0.46999998093E+01 0. -1.
</event>
<event>
 5   0  0.3938696E-06  0.3082324E+04  0.7818609E-02  0.8220606E-01
        1   -1    0    0  501    0  0.00000000000E+00  0.00000000000E+00  0.17928926299E+04  0.17928926299E+04  0.50400001928E-02 0. -1.
       -1   -1    0    0    0  501  0.00000000000E+00  0.00000000000E+00 -0.13247755888E+04  0.13247755888E+04  0.50400001928E-02 0.  1.
    10030    2    1    2    0    0  0.00000000000E+00  0.00000000000E+00  0.46811704106E+03  0.31176682187E+04  0.30823240514E+04 0.  0.
        4    1    3    3  502    0  0.53913088337E+03  0.29726519425E+03 -0.11949940157E+04  0.13442622570E+04  0.12699999809E+01 0.  1.
       -4    1    3    3    0  502 -0.53913088337E+03 -0.29726519425E+03  0.16631110568E+04  0.17734059617E+04  0.12699999809E+01 0. -1.
</event>
<event>
 5   0  0.2635798E-06  0.3179355E+04  0.7818609E-02  0.8194291E-01
        1   -1    0    0  501    0  0.00000000000E+00  0.00000000000E+00  0.21334147285E+04  0.21334147285E+04  0.50400001928E-02 0.  1.
       -1   -1    0    0    0  501  0.00000000000E+00  0.00000000000E+00 -0.11845207246E+04  0.11845207246E+04  0.50400001928E-02 0. -1.
    10030    2    1    2    0    0  0.00000000000E+00  0.00000000000E+00  0.94889400393E+03  0.33179354532E+04  0.31793546264E+04 0.  0.
        1    1    3    3  502    0 -0.10483063790E+03 -0.82651444511E+03  0.18873269505E+04  0.20630362597E+04  0.50400001928E-02 0.  1.
       -1    1    3    3    0  502  0.10483063790E+03  0.82651444511E+03 -0.93843294656E+03  0.12548991935E+04  0.50400001928E-02 0. -1.
</event>
<event>
 5   0  0.2635798E-06  0.3226867E+04  0.7818609E-02  0.8181758E-01
       -1   -1    0    0    0  501  0.00000000000E+00  0.00000000000E+00  0.16371217394E+04  0.16371217395E+04  0.50400001928E-02 0. -1.
        1   -1    0    0  501    0  0.00000000000E+00  0.00000000000E+00 -0.15900877914E+04  0.15900877914E+04  0.50400001928E-02 0.  1.
    10030    2    1    2    0    0  0.00000000000E+00  0.00000000000E+00  0.47033948045E+02  0.32272095309E+04  0.32268667719E+04 0.  0.
        1    1    3    3  502    0 -0.14273534828E+02  0.15680257823E+04  0.40337135553E+03  0.16191408334E+04  0.50400001928E-02 0.  1.
       -1    1    3    3    0  502  0.14273534828E+02 -0.15680257823E+04 -0.35633740748E+03  0.16080686975E+04  0.50400001928E-02 0. -1.
</event>
<event>
 5   0  0.2788054E-06  0.3031808E+04  0.7818609E-02  0.8234706E-01
       -1   -1    0    0    0  501  0.00000000000E+00  0.00000000000E+00  0.13852400649E+04  0.13852400649E+04  0.50400001928E-02 0. -1.
        1   -1    0    0  501    0  0.00000000000E+00  0.00000000000E+00 -0.16588930870E+04  0.16588930870E+04  0.50400001928E-02 0.  1.
    10030    2    1    2    0    0  0.00000000000E+00  0.00000000000E+00 -0.27365302214E+03  0.30441331519E+04  0.30318081519E+04 0.  0.
        3    1    3    3  502    0 -0.35354290713E+03  0.10358778140E+04 -0.11898653701E+04  0.16167297368E+04  0.10100000352E+00 0.  1.
       -3    1    3    3    0  502  0.35354290713E+03 -0.10358778140E+04  0.91621234796E+03  0.14274034151E+04  0.10100000352E+00 0. -1.
</event>
<event>
 5   0  0.2933646E-06  0.3079098E+04  0.7818609E-02  0.8221498E-01
        1   -1    0    0  501    0  0.00000000000E+00  0.00000000000E+00  0.11863292857E+04  0.11863292857E+04  0.50400001928E-02 0.  1.
       -1   -1    0    0    0  501  0.00000000000E+00  0.00000000000E+00 -0.19979375120E+04  0.19979375120E+04  0.50400001928E-02 0. -1.
    10030    2    1    2    0    0  0.00000000000E+00  0.00000000000E+00 -0.81160822628E+03  0.31842667978E+04  0.30790984275E+04 0.  0.
        2    1    3    3  502    0  0.12711289903E+04 -0.82775059595E+03 -0.13361911552E+03  0.15227586897E+04  0.25500000920E-02 0.  1.
       -2    1    3    3    0  502 -0.12711289903E+04  0.82775059595E+03 -0.67798911076E+03  0.16615081081E+04  0.25500000920E-02 0. -1.
</event>
<event>
 5   0  0.2580875E-06  0.1997924E+04  0.7818609E-02  0.8607592E-01
       -3   -1    0    0    0  501  0.00000000000E+00  0.00000000000E+00  0.14232986132E+04  0.14232986168E+04  0.10100000352E+00 0.  1.
        3   -1    0    0  501    0  0.00000000000E+00  0.00000000000E+00 -0.70113554121E+03  0.70113554848E+03  0.10100000352E+00 0. -1.
    10030    2    1    2    0    0  0.00000000000E+00  0.00000000000E+00  0.72216307203E+03  0.21244341653E+04  0.19979241778E+04 0.  0.
        2    1    3    3  502    0  0.67101421892E+03 -0.49017047652E+03 -0.22846059616E+03  0.86181286951E+03  0.25500000920E-02 0. -1.
       -2    1    3    3    0  502 -0.67101421892E+03  0.49017047652E+03  0.95062366819E+03  0.12626212958E+04  0.25500000920E-02 0.  1.
</event>
<event>
 5   0  0.7510251E-06  0.3138643E+04  0.7818609E-02  0.8205212E-01
       -2   -1    0    0    0  501  0.00000000000E+00  0.00000000000E+00  0.13779079645E+04  0.13779079645E+04  0.25500000920E-02 0.  1.
        2   -1    0    0  501    0  0.00000000000E+00  0.00000000000E+00 -0.17873259455E+04  0.17873259455E+04  0.25500000920E-02 0. -1.
    10030    2    1    2    0    0  0.00000000000E+00  0.00000000000E+00 -0.40941798100E+03  0.31652339100E+04  0.31386434366E+04 0.  0.
        3    1    3    3  502    0  0.45838564887E+03  0.80256537950E+03 -0.14837369517E+04  0.17480571912E+04  0.10100000352E+00 0. -1.
       -3    1    3    3    0  502 -0.45838564887E+03 -0.80256537950E+03  0.10743189707E+04  0.14171767189E+04  0.10100000352E+00 0.  1.
</event>
<event>
 5   0  0.2788054E-06  0.3184711E+04  0.7818609E-02  0.8192867E-01
        1   -1    0    0  501    0  0.00000000000E+00  0.00000000000E+00  0.85418502632E+03  0.85418502634E+03  0.50400001928E-02 0. -1.
       -1   -1    0    0    0  501  0.00000000000E+00  0.00000000000E+00 -0.29684388013E+04  0.29684388013E+04  0.50400001928E-02 0.  1.
    10030    2    1    2    0    0  0.00000000000E+00  0.00000000000E+00 -0.21142537750E+04  0.38226238277E+04  0.31847109606E+04 0.  0.
        3    1    3    3  502    0  0.61964047713E+03  0.10831422689E+04  0.13017082619E+03  0.12546298058E+04  0.10100000352E+00 0. -1.
       -3    1    3    3    0  502 -0.61964047713E+03 -0.10831422689E+04 -0.22444246012E+04  0.25679940218E+04  0.10100000352E+00 0.  1.
</event>
<event>
 5   0  0.2933646E-06  0.3202998E+04  0.7818609E-02  0.8188026E-01
        1   -1    0    0  501    0  0.00000000000E+00  0.00000000000E+00  0.11345747145E+04  0.11345747146E+04  0.50400001928E-02 0. -1.
       -1   -1    0    0    0  501  0.00000000000E+00  0.00000000000E+00 -0.22605822679E+04  0.22605822679E+04  0.50400001928E-02 0.  1.
    10030    2    1    2    0    0  0.00000000000E+00  0.00000000000E+00 -0.11260075533E+04  0.33951569824E+04  0.32029982712E+04 0.  0.
        2    1    3    3  502    0  0.70386872888E+03  0.89970270312E+03 -0.17527977615E+04  0.20921749770E+04  0.25500000920E-02 0.  1.
       -2    1    3    3    0  502 -0.70386872888E+03 -0.89970270312E+03  0.62679020818E+03  0.13029820055E+04  0.25500000920E-02 0. -1.
</event>
<event>
 5   0  0.8237664E-06  0.3194707E+04  0.7818609E-02  0.8190216E-01
       -2   -1    0    0    0  501  0.00000000000E+00  0.00000000000E+00  0.17949477463E+04  0.17949477463E+04  0.25500000920E-02 0. -1.
        2   -1    0    0  501    0  0.00000000000E+00  0.00000000000E+00 -0.14215110076E+04  0.14215110076E+04  0.25500000920E-02 0.  1.
    10030    2    1    2    0    0  0.00000000000E+00  0.00000000000E+00  0.37343673872E+03  0.32164587539E+04  0.31947068594E+04 0.  0.
        5    1    3    3  502    0 -0.43343532020E+03  0.55787231531E+03 -0.12556658363E+04  0.14407659350E+04  0.46999998093E+01 0.  1.
       -5    1    3    3    0  502  0.43343532020E+03 -0.55787231531E+03  0.16291025750E+04  0.17756928189E+04  0.46999998093E+01 0. -1.
</event>
<event>
 5   0  0.7510251E-06  0.3083646E+04  0.7818609E-02  0.8220240E-01
        2   -1    0    0  501    0  0.00000000000E+00  0.00000000000E+00  0.12962744390E+04  0.12962744390E+04  0.25500000920E-02 0.  1.
       -2   -1    0    0    0  501  0.00000000000E+00  0.00000000000E+00 -0.18338854193E+04  0.18338854193E+04  0.25500000920E-02 0. -1.
    10030    2    1    2    0    0  0.00000000000E+00  0.00000000000E+00 -0.53761098029E+03  0.31301598583E+04  0.30836464084E+04 0.  0.
        3    1    3    3  502    0 -0.44732228409E+03 -0.52365743526E+03  0.11314601595E+04  0.13245816087E+04  0.10100000352E+00 0.  1.
       -3    1    3    3    0  502  0.44732228409E+03  0.52365743526E+03 -0.16690711398E+04  0.18055782496E+04  0.10100000352E+00 0. -1.
</event>
<event>
 5   0  0.2635798E-06  0.3124505E+04  0.7818609E-02  0.8209045E-01
        1   -1    0    0  501    0  0.00000000000E+00  0.00000000000E+00  0.19480971954E+04  0.19480971954E+04  0.50400001928E-02 0.  1.
       -1   -1    0    0    0  501  0.00000000000E+00  0.00000000000E+00 -0.12528289231E+04  0.12528289231E+04  0.50400001928E-02 0. -1.
    10030    2    1    2    0    0  0.00000000000E+00  0.00000000000E+00  0.69526827234E+03  0.32009261186E+04  0.31245047681E+04 0.  0.
        1    1    3    3  502    0  0.38894353846E+03 -0.15127804347E+04  0.37751588885E+03  0.16069536291E+04  0.50400001928E-02 0.  1.
       -1    1    3    3    0  502 -0.38894353846E+03  0.15127804347E+04  0.31775238349E+03  0.15939724894E+04  0.50400001928E-02 0. -1.
</event>
<event>
 5   0  0.7941434E-06  0.3204858E+04  0.7818609E-02  0.8187535E-01
        2   -1    0    0  501    0  0.00000000000E+00  0.00000000000E+00  0.21723316524E+04  0.21723316524E+04  0.25500000920E-02 0.  1.
       -2   -1    0    0    0  501  0.00000000000E+00  0.00000000000E+00 -0.11820382069E+04  0.11820382069E+04  0.25500000920E-02 0. -1.
    10030    2    1    2    0    0  0.00000000000E+00  0.00000000000E+00  0.99029344555E+03  0.33543698593E+04  0.32048581942E+04 0.  0.
        4    1    3    3  502    0 -0.10536651859E+04  0.32017293708E+03 -0.72322780086E+03  0.13174904548E+04  0.12699999809E+01 0. -1.
       -4    1    3    3    0  502  0.10536651859E+04 -0.32017293708E+03  0.17135212464E+04  0.20368794045E+04  0.12699999809E+01 0.  1.
</event>
<event>
 5   0  0.7971763E-06  0.2952885E+04  0.7818609E-02  0.8257314E-01
        2   -1    0    0  501    0  0.00000000000E+00  0.00000000000E+00  0.26405502665E+04  0.26405502665E+04  0.25500000920E-02 0. -1.
       -2   -1    0    0    0  501  0.00000000000E+00  0.00000000000E+00 -0.82554122086E+03  0.82554122086E+03  0.25500000920E-02 0.  1.
    10030    2    1    2    0    0  0.00000000000E+00  0.00000000000E+00  0.18150090456E+04  0.34660914873E+04  0.29528854300E+04 0.  0.
        1    1    3    3  502    0  0.29922669643E+03  0.13814142709E+04  0.14083204530E+04  0.19952965950E+04  0.50400001928E-02 0.  1.
       -1    1    3    3    0  502 -0.29922669643E+03 -0.13814142709E+04  0.40668859264E+03  0.14707948923E+04  0.50400001928E-02 0. -1.
</event>
<event>
 5   0  0.7510251E-06  0.2754878E+04  0.7818609E-02  0.8317415E-01
        2   -1    0    0  501    0  0.00000000000E+00  0.00000000000E+00  0.14301241789E+04  0.14301241789E+04  0.25500000920E-02 0. -1.
       -2   -1    0    0    0  501  0.00000000000E+00  0.00000000000E+00 -0.13266945044E+04  0.13266945044E+04  0.25500000920E-02 0.  1.
    10030    2    1    2    0    0  0.00000000000E+00  0.00000000000E+00  0.10342967450E+03  0.27568186834E+04  0.27548777751E+04 0.  0.
        3    1    3    3  502    0 -0.12666503103E+03 -0.11107755662E+04 -0.75350820284E+03  0.13481991732E+04  0.10100000352E+00 0.  1.
       -3    1    3    3    0  502  0.12666503103E+03  0.11107755662E+04  0.85693787734E+03  0.14086195102E+04  0.10100000352E+00 0. -1.
</event>
<event>
 5   0  0.2933646E-06  0.3160308E+04  0.7818609E-02  0.8199379E-01
        1   -1    0    0  501    0  0.00000000000E+00  0.00000000000E+00  0.24627213994E+04  0.24627213994E+04  0.50400001928E-02 0.  1.
       -1   -1    0    0    0  501  0.00000000000E+00  0.00000000000E+00 -0.10138728640E+04  0.10138728640E+04  0.50400001928E-02 0. -1.
    10030    2    1    2    0    0  0.00000000000E+00  0.00000000000E+00  0.14488485354E+04  0.34765942634E+04  0.31603078321E+04 0.  0.
        2    1    3    3  502    0  0.24218796343E+03 -0.10993607740E+04  0.19442930913E+04  0.22466697011E+04  0.25500000920E-02 0.  1.
       -2    1    3    3    0  502 -0.24218796343E+03  0.10993607740E+04 -0.49544455586E+03  0.12299245623E+04  0.25500000920E-02 0. -1.
</event>
<event>
 5   0  0.2788054E-06  0.1912520E+04  0.7818609E-02  0.8648650E-01
       -1   -1    0    0    0  501  0.00000000000E+00  0.00000000000E+00  0.78649655060E+03  0.78649655062E+03  0.50400001928E-02 0. -1.
        1   -1    0    0  501    0  0.00000000000E+00  0.00000000000E+00 -0.11626659404E+04  0.11626659404E+04  0.50400001928E-02 0.  1.
    10030    2    1    2    0    0  0.00000000000E+00  0.00000000000E+00 -0.37616938976E+03  0.19491624910E+04  0.19125195441E+04 0.  0.
        3    1    3    3  502    0 -0.30681831132E+03  0.53769295466E+03  0.55470121199E+03  0.83123079493E+03  0.10100000352E+00 0. -1.
       -3    1    3    3    0  502  0.30681831132E+03 -0.53769295466E+03 -0.93087060175E+03  0.11179316961E+04  0.10100000352E+00 0.  1.
</event>
<event>
 5   0  0.7952307E-06  0.3225096E+04  0.7818609E-02  0.8182221E-01
        2   -1    0    0  501    0  0.00000000000E+00  0.00000000000E+00  0.17058883657E+04  0.17058883657E+04  0.25500000920E-02 0.  1.
       -2   -1    0    0    0  501  0.00000000000E+00  0.00000000000E+00 -0.15243147492E+04  0.15243147492E+04  0.25500000920E-02 0. -1.
    10030    2    1    2    0    0  0.00000000000E+00  0.00000000000E+00  0.18157361655E+03  0.32302031149E+04  0.32250958413E+04 0.  0.
        2    1    3    3  502    0 -0.15059128830E+04  0.56161110869E+03 -0.40302647985E+02  0.16077328609E+04  0.25500000920E-02 0. -1.
       -2    1    3    3    0  502  0.15059128830E+04 -0.56161110869E+03  0.22187626453E+03  0.16224702540E+04  0.25500000920E-02 0.  1.
</event>
<event>
 5   0  0.7941434E-06  0.3268423E+04  0.7818609E-02  0.8170977E-01
       -2   -1    0    0    0  501  0.00000000000E+00  0.00000000000E+00  0.17178963755E+04  0.17178963755E+04  0.25500000920E-02 0. -1.
        2   -1    0    0  501    0  0.00000000000E+00  0.00000000000E+00 -0.15546028972E+04  0.15546028972E+04  0.25500000920E-02 0.  1.
    10030    2    1    2    0    0  0.00000000000E+00  0.00000000000E+00  0.16329347838E+03  0.32724992727E+04  0.32684226669E+04 0.  0.
        4    1    3    3  502    0  0.15631571741E+04 -0.27320473433E+02 -0.39480212694E+03  0.16124754546E+04  0.12699999809E+01 0.  1.
       -4    1    3    3    0  502 -0.15631571741E+04  0.27320473433E+02  0.55809560532E+03  0.16600238181E+04  0.12699999809E+01 0. -1.
</event>
<event>
 5   0  0.2933646E-06  0.3270974E+04  0.7818609E-02  0.8170321E-01
       -1   -1    0    0    0  501  0.00000000000E+00  0.00000000000E+00  0.12838418590E+04  0.12838418590E+04  0.50400001928E-02 0. -1.
        1   -1    0    0  501    0  0.00000000000E+00  0.00000000000E+00 -0.20834479575E+04  0.20834479575E+04  0.50400001928E-02 0.  1.
    10030    2    1    2    0    0  0.00000000000E+00  0.00000000000E+00 -0.79960609847E+03  0.33672898165E+04  0.32709739827E+04 0.  0.
        2    1    3    3  502    0 -0.14551276076E+04  0.71017583317E+03 -0.16264677306E+03  0.16273291127E+04  0.25500000920E-02 0. -1.
       -2    1    3    3    0  502  0.14551276076E+04 -0.71017583317E+03 -0.63695932541E+03  0.17399607037E+04  0.25500000920E-02 0.  1.
</event>
<event>
 5   0  0.4142886E-06  0.3124697E+04  0.7818609E-02  0.8208993E-01
       -1   -1    0    0    0  501  0.00000000000E+00  0.00000000000E+00  0.85340477244E+03  0.85340477246E+03  0.50400001928E-02 0. -1.
        1   -1    0    0  501    0  0.00000000000E+00  0.00000000000E+00 -0.28602280521E+04  0.28602280522E+04  0.50400001928E-02 0.  1.
    10030    2    1    2    0    0  0.00000000000E+00  0.00000000000E+00 -0.20068232797E+04  0.37136328246E+04  0.31246966381E+04 0.  0.
        5    1    3    3  502    0 -0.53275413605E+03 -0.98191897185E+03 -0.23014766994E+04  0.25582824169E+04  0.46999998093E+01 0.  1.
       -5    1    3    3    0  502  0.53275413605E+03  0.98191897185E+03  0.29465341973E+03  0.11553504077E+04  0.46999998093E+01 0. -1.
</event>
<event>
 5   0  0.2933646E-06  0.3256715E+04  0.7818609E-02  0.8173997E-01
        1   -1    0    0  501    0  0.00000000000E+00  0.00000000000E+00  0.22706579836E+04  0.22706579836E+04  0.50400001928E-02 0.  1.
       -1   -1    0    0    0  501  0.00000000000E+00  0.00000000000E+00 -0.11677447067E+04  0.11677447067E+04  0.50400001928E-02 0. -1.
    10030    2    1    2    0    0  0.00000000000E+00  0.00000000000E+00  0.11029132769E+04  0.34384026903E+04  0.32567154258E+04 0.  0.
        2    1    3    3  502    0  0.83631003317E+03  0.13855613463E+04  0.36154929593E+03  0.16582860457E+04  0.25500000920E-02 0. -1.
       -2    1    3    3    0  502 -0.83631003317E+03 -0.13855613463E+04  0.74136398095E+03  0.17801166446E+04  0.25500000920E-02 0.  1.
</event>
<event>
 5   0  0.7952307E-06  0.3443591E+04  0.7818609E-02  0.8127290E-01
        2   -1    0    0  501    0  0.00000000000E+00  0.00000000000E+00  0.27063729831E+04  0.27063729831E+04  0.25500000920E-02 0. -1.
       -2   -1    0    0    0  501  0.00000000000E+00  0.00000000000E+00 -0.10954071620E+04  0.10954071620E+04  0.25500000920E-02 0.  1.
    10030    2    1    2    0    0  0.00000000000E+00  0.00000000000E+00  0.16109658211E+04  0.38017801451E+04  0.34435913513E+04 0.  0.
        2    1    3    3  502    0  0.44235204969E+03  0.76413677299E+03 -0.82644552924E+03  0.12093769290E+04  0.25500000920E-02 0.  1.
       -2    1    3    3    0  502 -0.44235204969E+03 -0.76413677299E+03  0.24374113504E+04  0.25924032161E+04  0.25500000920E-02 0. -1.
</event>
<event>
 5   0  0.7510251E-06  0.1794383E+04  0.7818609E-02  0.8709292E-01
        2   -1    0    0  501    0  0.00000000000E+00  0.00000000000E+00  0.21074274798E+04  0.21074274798E+04  0.25500000920E-02 0. -1.
       -2   -1    0    0    0  501  0.00000000000E+00  0.00000000000E+00 -0.38195994359E+03  0.38195994360E+03  0.25500000920E-02 0.  1.
    10030    2    1    2    0    0  0.00000000000E+00  0.00000000000E+00  0.17254675363E+04  0.24893874234E+04  0.17943833273E+04 0.  0.
        3    1    3    3  502    0  0.87703949296E+03 -0.68551886544E+02  0.61825300351E+03  0.10752369134E+04  0.10100000352E+00 0.  1.
       -3    1    3    3    0  502 -0.87703949296E+03  0.68551886544E+02  0.11072145327E+04  0.14141505101E+04  0.10100000352E+00 0. -1.
</event>
<event>
 5   0  0.7952307E-06  0.1716942E+04  0.7818609E-02  0.8751760E-01
        2   -1    0    0  501    0  0.00000000000E+00  0.00000000000E+00  0.60553837195E+03  0.60553837195E+03  0.25500000920E-02 0. -1.
       -2   -1    0    0    0  501  0.00000000000E+00  0.00000000000E+00 -0.12170534073E+04  0.12170534073E+04  0.25500000920E-02 0.  1.
    10030    2    1    2    0    0  0.00000000000E+00  0.00000000000E+00 -0.61151503531E+03  0.18225917792E+04  0.17169420943E+04 0.  0.
        2    1    3    3  502    0  0.10244573918E+03 -0.36524255633E+03  0.51174419575E+03  0.63700814463E+03  0.25500000920E-02 0. -1.
       -2    1    3    3    0  502 -0.10244573918E+03  0.36524255633E+03 -0.11232592311E+04  0.11855836346E+04  0.25500000920E-02 0.  1.
</event>
<event>
 5   0  0.2788054E-06  0.3166859E+04  0.7818609E-02  0.8197625E-01
        1   -1    0    0  501    0  0.00000000000E+00  0.00000000000E+00  0.21220591068E+04  0.21220591068E+04  0.50400001928E-02 0.  1.
       -1   -1    0    0    0  501  0.00000000000E+00  0.00000000000E+00 -0.11815172315E+04  0.11815172315E+04  0.50400001928E-02 0. -1.
    10030    2    1    2    0    0  0.00000000000E+00  0.00000000000E+00  0.94054187529E+03  0.33035763383E+04  0.31668592649E+04 0.  0.
        3    1    3    3  502    0 -0.11648767726E+04 -0.64534321305E+03  0.13639001316E+04  0.19062081043E+04  0.10100000352E+00 0.  1.
       -3    1    3    3    0  502  0.11648767726E+04  0.64534321305E+03 -0.42335825627E+03  0.13973682339E+04  0.10100000352E+00 0. -1.
</event>
<event>
 5   0  0.4142886E-06  0.3206211E+04  0.7818609E-02  0.8187179E-01
       -1   -1    0    0    0  501  0.00000000000E+00  0.00000000000E+00  0.12189934383E+04  0.12189934383E+04  0.50400001928E-02 0. -1.
        1   -1    0    0  501    0  0.00000000000E+00  0.00000000000E+00 -0.21082541302E+04  0.21082541303E+04  0.50400001928E-02 0.  1.
    10030    2    1    2    0    0  0.00000000000E+00  0.00000000000E+00 -0.88926069198E+03  0.33272475685E+04  0.32062114409E+04 0.  0.
        5    1    3    3  502    0 -0.99239664628E+03 -0.71284594524E+03  0.63229542583E+03  0.13757979651E+04  0.46999998093E+01 0. -1.
       -5    1    3    3    0  502  0.99239664628E+03  0.71284594524E+03 -0.15215561178E+04  0.19514496035E+04  0.46999998093E+01 0.  1.
</event>
<event>
 5   0  0.8237664E-06  0.2708543E+04  0.7818609E-02  0.8332238E-01
        2   -1    0    0  501    0  0.00000000000E+00  0.00000000000E+00  0.11649815180E+04  0.11649815180E+04  0.25500000920E-02 0. -1.
       -2   -1    0    0    0  501  0.00000000000E+00  0.00000000000E+00 -0.15743179466E+04  0.15743179466E+04  0.25500000920E-02 0.  1.
    10030    2    1    2    0    0  0.00000000000E+00  0.00000000000E+00 -0.40933642857E+03  0.27392994647E+04  0.27085430115E+04 0.  0.
        5    1    3    3  502    0 -0.60290266695E+03 -0.10997992721E+04 -0.72133041293E+03  0.14468551135E+04  0.46999998093E+01 0.  1.
       -5    1    3    3    0  502  0.60290266695E+03  0.10997992721E+04  0.31199398436E+03  0.12924443512E+04  0.46999998093E+01 0. -1.
</event>
<event>
 5   0  0.6673728E-06  0.1621071E+04  0.7818609E-02  0.8807707E-01
        1   -1    0    0  501    0  0.00000000000E+00  0.00000000000E+00  0.12091150657E+04  0.12091150658E+04  0.50400001928E-02 0. -1.
       -1   -1    0    0    0  501  0.00000000000E+00  0.00000000000E+00 -0.54334599284E+03  0.54334599286E+03  0.50400001928E-02 0.  1.
    10030    2    1    2    0    0  0.00000000000E+00  0.00000000000E+00  0.66576907290E+03  0.17524610586E+04  0.16210710359E+04 0.  0.
        5    1    3    3  502    0 -0.47783474121E+03 -0.49753785194E+02 -0.37282282871E+03  0.60812863002E+03  0.46999998093E+01 0.  1.
       -5    1    3    3    0  502  0.47783474121E+03  0.49753785194E+02  0.10385919016E+04  0.11443324286E+04  0.46999998093E+01 0. -1.
</event>
<event>
 5   0  0.2933646E-06  0.2968191E+04  0.7818609E-02  0.8252873E-01
       -1   -1    0    0    0  501  0.00000000000E+00  0.00000000000E+00  0.19088487958E+04  0.19088487958E+04  0.50400001928E-02 0. -1.
        1   -1    0    0  501    0  0.00000000000E+00  0.00000000000E+00 -0.11538571776E+04  0.11538571776E+04  0.50400001928E-02 0.  1.
    10030    2    1    2    0    0  0.00000000000E+00  0.00000000000E+00  0.75499161812E+03  0.30627059734E+04  0.29681906165E+04 0.  0.
        2    1    3    3  502    0  0.13887379770E+04 -0.31384128947E+03 -0.54708818117E+02  0.14248096640E+04  0.25500000920E-02 0.  1.
       -2    1    3    3    0  502 -0.13887379770E+04  0.31384128947E+03  0.80970043624E+03  0.16378963094E+04  0.25500000920E-02 0. -1.
</event>
<event>
 5   0  0.8237664E-06  0.2485089E+04  0.7818609E-02  0.8408317E-01
        2   -1    0    0  501    0  0.00000000000E+00  0.00000000000E+00  0.13593425049E+04  0.13593425049E+04  0.25500000920E-02 0. -1.
       -2   -1    0    0    0  501  0.00000000000E+00  0.00000000000E+00 -0.11357822303E+04  0.11357822303E+04  0.25500000920E-02 0.  1.
    10030    2    1    2    0    0  0.00000000000E+00  0.00000000000E+00  0.22356027460E+03  0.24951247353E+04  0.24850891831E+04 0.  0.
        5    1    3    3  502    0  0.55626580484E+03 -0.64992234884E+03 -0.79300505211E+03  0.11664946669E+04  0.46999998093E+01 0.  1.
       -5    1    3    3    0  502 -0.55626580484E+03  0.64992234884E+03  0.10165653267E+04  0.13286300684E+04  0.46999998093E+01 0. -1.
</event>
<event>
 5   0  0.2635798E-06  0.1820462E+04  0.7818609E-02  0.8695493E-01
        1   -1    0    0  501    0  0.00000000000E+00  0.00000000000E+00  0.85267924723E+03  0.85267924724E+03  0.50400001928E-02 0.  1.
       -1   -1    0    0    0  501  0.00000000000E+00  0.00000000000E+00 -0.97166732093E+03  0.97166732094E+03  0.50400001928E-02 0. -1.
    10030    2    1    2    0    0  0.00000000000E+00  0.00000000000E+00 -0.11898807370E+03  0.18243465682E+04  0.18204620950E+04 0.  0.
        1    1    3    3  502    0  0.44245678320E+02  0.24316527780E+03  0.81840806281E+03  0.85491449261E+03  0.50400001928E-02 0.  1.
       -1    1    3    3    0  502 -0.44245678320E+02 -0.24316527780E+03 -0.93739613651E+03  0.96943207557E+03  0.50400001928E-02 0. -1.
</event>
<event>
 5   0  0.7510251E-06  0.3204944E+04  0.7818609E-02  0.8187513E-01
        2   -1    0    0  501    0  0.00000000000E+00  0.00000000000E+00  0.25447630298E+04  0.25447630298E+04  0.25500000920E-02 0.  1.
       -2   -1    0    0    0  501  0.00000000000E+00  0.00000000000E+00 -0.10090986262E+04  0.10090986262E+04  0.25500000920E-02 0. -1.
    10030    2    1    2    0    0  0.00000000000E+00  0.00000000000E+00  0.15356644036E+04  0.35538616560E+04  0.32049442287E+04 0.  0.
        3    1    3    3  502    0  0.15604185699E+04 -0.31864266283E+03  0.96456686999E+03  0.18619421357E+04  0.10100000352E+00 0. -1.
       -3    1    3    3    0  502 -0.15604185699E+04  0.31864266283E+03  0.57109753360E+03  0.16919195202E+04  0.10100000352E+00 0.  1.
</event>
<event>
 5   0  0.7971763E-06  0.3199959E+04  0.7818609E-02  0.8188828E-01
       -2   -1    0    0    0  501  0.00000000000E+00  0.00000000000E+00  0.21904206884E+04  0.21904206884E+04  0.25500000920E-02 0. -1.
        2   -1    0    0  501    0  0.00000000000E+00  0.00000000000E+00 -0.11686956229E+04  0.11686956229E+04  0.25500000920E-02 0.  1.
    10030    2    1    2    0    0  0.00000000000E+00  0.00000000000E+00  0.10217250655E+04  0.33591163114E+04  0.31999594191E+04 0.  0.
        1    1    3    3  502    0 -0.41181787297E+03 -0.16871870925E+03 -0.11024148139E+04  0.11888559144E+04  0.50400001928E-02 0.  1.
       -1    1    3    3    0  502  0.41181787297E+03  0.16871870925E+03  0.21241398794E+04  0.21702603969E+04  0.50400001928E-02 0. -1.
</event>
<event>
 5   0  0.7510251E-06  0.3271623E+04  0.7818609E-02  0.8170154E-01
        2   -1    0    0  501    0  0.00000000000E+00  0.00000000000E+00  0.20163287326E+04  0.20163287326E+04  0.25500000920E-02 0. -1.
       -2   -1    0    0    0  501  0.00000000000E+00  0.00000000000E+00 -0.13271045044E+04  0.13271045044E+04  0.25500000920E-02 0.  1.
    10030    2    1    2    0    0  0.00000000000E+00  0.00000000000E+00  0.68922422820E+03  0.33434332369E+04  0.32716228042E+04 0.  0.
        3    1    3    3  502    0 -0.15708560902E+04  0.33242400377E+03  0.25043496199E+02  0.16058398928E+04  0.10100000352E+00 0. -1.
       -3    1    3    3    0  502  0.15708560902E+04 -0.33242400377E+03  0.66418073200E+03  0.17375933441E+04  0.10100000352E+00 0.  1.
</event>
<event>
 5   0  0.2933646E-06  0.2369019E+04  0.7818609E-02  0.8451194E-01
       -1   -1    0    0    0  501  0.00000000000E+00  0.00000000000E+00  0.19086741147E+04  0.19086741147E+04  0.50400001928E-02 0.  1.
        1   -1    0    0  501    0  0.00000000000E+00  0.00000000000E+00 -0.73509801311E+03  0.73509801312E+03  0.50400001928E-02 0. -1.
    10030    2    1    2    0    0  0.00000000000E+00  0.00000000000E+00  0.11735761016E+04  0.26437721278E+04  0.23690188259E+04 0.  0.
        2    1    3    3  502    0  0.10825041308E+02 -0.11546045135E+04  0.29187886562E+03  0.11909752459E+04  0.25500000920E-02 0. -1.
       -2    1    3    3    0  502 -0.10825041308E+02  0.11546045135E+04  0.88169723597E+03  0.14527968819E+04  0.25500000920E-02 0.  1.
</event>
<event>
 5   0  0.7941434E-06  0.3308405E+04  0.7818609E-02  0.8160760E-01
       -2   -1    0    0    0  501  0.00000000000E+00  0.00000000000E+00  0.13827871609E+04  0.13827871609E+04  0.25500000920E-02 0.  1.
        2   -1    0    0  501    0  0.00000000000E+00  0.00000000000E+00 -0.19788921815E+04  0.19788921815E+04  0.25500000920E-02 0. -1.
    10030    2    1    2    0    0  0.00000000000E+00  0.00000000000E+00 -0.59610502060E+03  0.33616793423E+04  0.33084054777E+04 0.  0.
        4    1    3    3  502    0  0.85345384409E+01 -0.43977116193E+03 -0.19183820677E+04  0.19681623114E+04  0.12699999809E+01 0. -1.
       -4    1    3    3    0  502 -0.85345384409E+01  0.43977116193E+03  0.13222770471E+04  0.13935170309E+04  0.12699999809E+01 0.  1.
</event>
<event>
 5   0  0.4142886E-06  0.3275143E+04  0.7818609E-02  0.8169249E-01
       -1   -1    0    0    0  501  0.00000000000E+00  0.00000000000E+00  0.15280611463E+04  0.15280611463E+04  0.50400001928E-02 0.  1.
        1   -1    0    0  501    0  0.00000000000E+00  0.00000000000E+00 -0.17549295313E+04  0.17549295313E+04  0.50400001928E-02 0. -1.
    10030    2    1    2    0    0  0.00000000000E+00  0.00000000000E+00 -0.22686838503E+03  0.32829906776E+04  0.32751425198E+04 0.  0.
        5    1    3    3  502    0  0.14080981173E+03 -0.21204425404E+03 -0.17349716419E+04  0.17535503577E+04  0.46999998093E+01 0. -1.
       -5    1    3    3    0  502 -0.14080981173E+03  0.21204425404E+03  0.15081032569E+04  0.15294403199E+04  0.46999998093E+01 0.  1.
</event>
<event>
 5   0  0.2933646E-06  0.3203873E+04  0.7818609E-02  0.8187795E-01
       -1   -1    0    0    0  501  0.00000000000E+00  0.00000000000E+00  0.17695736244E+04  0.17695736244E+04  0.50400001928E-02 0. -1.
        1   -1    0    0  501    0  0.00000000000E+00  0.00000000000E+00 -0.14501800832E+04  0.14501800833E+04  0.50400001928E-02 0.  1.
    10030    2    1    2    0    0  0.00000000000E+00  0.00000000000E+00  0.31939354113E+03  0.32197537076E+04  0.32038729225E+04 0.  0.
        2    1    3    3  502    0 -0.87772192921E+03 -0.10124077748E+04 -0.72262728878E+03  0.15223519587E+04  0.25500000920E-02 0.  1.
       -2    1    3    3    0  502  0.87772192921E+03  0.10124077748E+04  0.10420208299E+04  0.16974017490E+04  0.25500000920E-02 0. -1.
</event>
<event>
 5   0  0.2933646E-06  0.3001590E+04  0.7818609E-02  0.8243277E-01
       -1   -1    0    0    0  501  0.00000000000E+00  0.00000000000E+00  0.16221880571E+04  0.16221880571E+04  0.50400001928E-02 0. -1.
        1   -1    0    0  501    0  0.00000000000E+00  0.00000000000E+00 -0.13884862262E+04  0.13884862262E+04  0.50400001928E-02 0.  1.
    10030    2    1    2    0    0  0.00000000000E+00  0.00000000000E+00  0.23370183092E+03  0.30106742833E+04  0.30015900944E+04 0.  0.
        2    1    3    3  502    0 -0.86154341273E+03  0.39408929641E+03  0.12843419800E+04  0.15959629529E+04  0.25500000920E-02 0. -1.
       -2    1    3    3    0  502  0.86154341273E+03 -0.39408929641E+03 -0.10506401491E+04  0.14147113304E+04  0.25500000920E-02 0.  1.
</event>
<event>
 5   0  0.2788054E-06  0.3064451E+04  0.7818609E-02  0.8225562E-01
        1   -1    0    0  501    0  0.00000000000E+00  0.00000000000E+00  0.18976635488E+04  0.18976635488E+04  0.50400001928E-02 0.  1.
       -1   -1    0    0    0  501  0.00000000000E+00  0.00000000000E+00 -0.12371610739E+04  0.12371610739E+04  0.50400001928E-02 0. -1.
    10030    2    1    2    0    0  0.00000000000E+00  0.00000000000E+00  0.66050247488E+03  0.31348246227E+04  0.30644513205E+04 0.  0.
        3    1    3    3  502    0  0.29873946632E+03 -0.16518900296E+03 -0.11977654527E+04  0.12454616675E+04  0.10100000352E+00 0. -1.
       -3    1    3    3    0  502 -0.29873946632E+03  0.16518900296E+03  0.18582679276E+04  0.18893629552E+04  0.10100000352E+00 0.  1.
</event>
<event>
 5   0  0.4142886E-06  0.3121943E+04  0.7818609E-02  0.8209741E-01
       -1   -1    0    0    0  501  0.00000000000E+00  0.00000000000E+00  0.12293219184E+04  0.12293219184E+04  0.50400001928E-02 0.  1.
        1   -1    0    0  501    0  0.00000000000E+00  0.00000000000E+00 -0.19820947353E+04  0.19820947353E+04  0.50400001928E-02 0. -1.
    10030    2    1    2    0    0  0.00000000000E+00  0.00000000000E+00 -0.75277281686E+03  0.32114166537E+04  0.31219433067E+04 0.  0.
        5    1    3    3  502    0 -0.11771460522E+01 -0.14526415097E+04 -0.96411178011E+03  0.17434742200E+04  0.46999998093E+01 0. -1.
       -5    1    3    3    0  502  0.11771460522E+01  0.14526415097E+04  0.21133896324E+03  0.14679424337E+04  0.46999998093E+01 0.  1.
</event>
<event>
 5   0  0.8237664E-06  0.3229492E+04  0.7818609E-02  0.8181072E-01
       -2   -1    0    0    0  501  0.00000000000E+00  0.00000000000E+00  0.16207983349E+04  0.16207983349E+04  0.25500000920E-02 0.  1.
        2   -1    0    0  501    0  0.00000000000E+00  0.00000000000E+00 -0.16087161563E+04  0.16087161563E+04  0.25500000920E-02 0. -1.
    10030    2    1    2    0    0  0.00000000000E+00  0.00000000000E+00  0.12082178630E+02  0.32295144912E+04  0.32294918904E+04 0.  0.
        5    1    3    3  502    0 -0.16034426434E+04  0.11605076046E+03 -0.14524211554E+03  0.16141912687E+04  0.46999998093E+01 0. -1.
       -5    1    3    3    0  502  0.16034426434E+04 -0.11605076046E+03  0.15732429417E+03  0.16153232225E+04  0.46999998093E+01 0.  1.
</event>
<event>
 5   0  0.2788054E-06  0.1746969E+04  0.7818609E-02  0.8735021E-01
       -1   -1    0    0    0  501  0.00000000000E+00  0.00000000000E+00  0.10425715323E+04  0.10425715323E+04  0.50400001928E-02 0.  1.
        1   -1    0    0  501    0  0.00000000000E+00  0.00000000000E+00 -0.73182007019E+03  0.73182007021E+03  0.50400001928E-02 0. -1.
    10030    2    1    2    0    0  0.00000000000E+00  0.00000000000E+00  0.31075146212E+03  0.17743916025E+04  0.17469685423E+04 0.  0.
        3    1    3    3  502    0  0.42294454953E+03  0.51876220469E+03  0.72541504133E+03  0.98702751197E+03  0.10100000352E+00 0.  1.
       -3    1    3    3    0  502 -0.42294454953E+03 -0.51876220469E+03 -0.41466357921E+03  0.78736409056E+03  0.10100000352E+00 0. -1.
</event>
<event>
 5   0  0.4256176E-06  0.1716862E+04  0.7818609E-02  0.8751806E-01
        1   -1    0    0  501    0  0.00000000000E+00  0.00000000000E+00  0.80180884919E+03  0.80180884921E+03  0.50400001928E-02 0. -1.
       -1   -1    0    0    0  501  0.00000000000E+00  0.00000000000E+00 -0.91905125750E+03  0.91905125751E+03  0.50400001928E-02 0.  1.
    10030    2    1    2    0    0  0.00000000000E+00  0.00000000000E+00 -0.11724240830E+03  0.17208601067E+04  0.17168615916E+04 0.  0.
        5    1    3    3  502    0 -0.46335935220E+03 -0.26241972694E+03 -0.73347623389E+03  0.90640800859E+03  0.46999998093E+01 0.  1.
       -5    1    3    3    0  502  0.46335935220E+03  0.26241972694E+03  0.61623382559E+03  0.81445209813E+03  0.46999998093E+01 0. -1.
</event>
<event>
 5   0  0.2635798E-06  0.1679149E+04  0.7818609E-02  0.8773347E-01
       -1   -1    0    0    0  501  0.00000000000E+00  0.00000000000E+00  0.37014110382E+03  0.37014110385E+03  0.50400001928E-02 0. -1.
        1   -1    0    0  501    0  0.00000000000E+00  0.00000000000E+00 -0.19043684015E+04  0.19043684015E+04  0.50400001928E-02 0.  1.
    10030    2    1    2    0    0  0.00000000000E+00  0.00000000000E+00 -0.15342272976E+04  0.22745095053E+04  0.16791486203E+04 0.  0.
        1    1    3    3  502    0 -0.34178592655E+03 -0.51084597759E+03  0.76003562686E+01  0.61468609700E+03  0.50400001928E-02 0. -1.
       -1    1    3    3    0  502  0.34178592655E+03  0.51084597759E+03 -0.15418276539E+04  0.16598234083E+04  0.50400001928E-02 0.  1.
</event>
<event>
 5   0  0.2933646E-06  0.3145043E+04  0.7818609E-02  0.8203484E-01
       -1   -1    0    0    0  501  0.00000000000E+00  0.00000000000E+00  0.21023041373E+04  0.21023041373E+04  0.50400001928E-02 0. -1.
        1   -1    0    0  501    0  0.00000000000E+00  0.00000000000E+00 -0.11762445878E+04  0.11762445878E+04  0.50400001928E-02 0.  1.
    10030    2    1    2    0    0  0.00000000000E+00  0.00000000000E+00  0.92605954944E+03  0.32785487251E+04  0.31450429971E+04 0.  0.
        2    1    3    3  502    0  0.65995203168E+03  0.52867256723E+03 -0.91906828817E+03  0.12488866585E+04  0.25500000920E-02 0.  1.
       -2    1    3    3    0  502 -0.65995203168E+03 -0.52867256723E+03  0.18451278376E+04  0.20296620666E+04  0.25500000920E-02 0. -1.
</event>
<event>
 5   0  0.7952307E-06  0.3246814E+04  0.7818609E-02  0.8176562E-01
       -2   -1    0    0    0  501  0.00000000000E+00  0.00000000000E+00  0.12854720151E+04  0.12854720151E+04  0.25500000920E-02 0. -1.
        2   -1    0    0  501    0  0.00000000000E+00  0.00000000000E+00 -0.20501805281E+04  0.20501805281E+04  0.25500000920E-02 0.  1.
    10030    2    1    2    0    0  0.00000000000E+00  0.00000000000E+00 -0.76470851302E+03  0.33356525432E+04  0.32468136348E+04 0.  0.
        2    1    3    3  502    0  0.43625334870E+03  0.29784799401E+03  0.11947112360E+04  0.13062792003E+04  0.25500000920E-02 0. -1.
       -2    1    3    3    0  502 -0.43625334870E+03 -0.29784799401E+03 -0.19594197490E+04  0.20293733428E+04  0.25500000920E-02 0.  1.
</event>
<event>
 5   0  0.7510251E-06  0.3223236E+04  0.7818609E-02  0.8182707E-01
        2   -1    0    0  501    0  0.00000000000E+00  0.00000000000E+00  0.13844599328E+04  0.13844599328E+04  0.25500000920E-02 0. -1.
       -2   -1    0    0    0  501  0.00000000000E+00  0.00000000000E+00 -0.18760477568E+04  0.18760477568E+04  0.25500000920E-02 0.  1.
    10030    2    1    2    0    0  0.00000000000E+00  0.00000000000E+00 -0.49158782400E+03  0.32605076895E+04  0.32232362316E+04 0.  0.
        3    1    3    3  502    0 -0.58370904666E+03  0.26125324759E+03 -0.17422047065E+04  0.18558681957E+04  0.10100000352E+00 0.  1.
       -3    1    3    3    0  502  0.58370904666E+03 -0.26125324759E+03  0.12506168825E+04  0.14046394938E+04  0.10100000352E+00 0. -1.
</event>
<event>
 5   0  0.7941434E-06  0.3078703E+04  0.7818609E-02  0.8221607E-01
       -2   -1    0    0    0  501  0.00000000000E+00  0.00000000000E+00  0.10419337765E+04  0.10419337765E+04  0.25500000920E-02 0. -1.
        2   -1    0    0  501    0  0.00000000000E+00  0.00000000000E+00 -0.22742364696E+04  0.22742364696E+04  0.25500000920E-02 0.  1.
    10030    2    1    2    0    0  0.00000000000E+00  0.00000000000E+00 -0.12323026931E+04  0.33161702462E+04  0.30787034891E+04 0.  0.
        4    1    3    3  502    0  0.15238451241E+04 -0.21038779090E+03 -0.67741730652E+03  0.16808518093E+04  0.12699999809E+01 0.  1.
       -4    1    3    3    0  502 -0.15238451241E+04  0.21038779090E+03 -0.55488538656E+03  0.16353184368E+04  0.12699999809E+01 0. -1.
</event>
<event>
 5   0  0.4142886E-06  0.3412451E+04  0.7818609E-02  0.8134857E-01
       -1   -1    0    0    0  501  0.00000000000E+00  0.00000000000E+00  0.15204141461E+04  0.15204141462E+04  0.50400001928E-02 0. -1.
        1   -1    0    0  501    0  0.00000000000E+00  0.00000000000E+00 -0.19147447126E+04  0.19147447126E+04  0.50400001928E-02 0.  1.
    10030    2    1    2    0    0  0.00000000000E+00  0.00000000000E+00 -0.39433056647E+03  0.34351588588E+04  0.34124507014E+04 0.  0.
        5    1    3    3  502    0  0.73393460463E+03  0.13359896718E+04  0.57452219732E+03  0.16289954733E+04  0.46999998093E+01 0. -1.
       -5    1    3    3    0  502 -0.73393460463E+03 -0.13359896718E+04 -0.96885276379E+03  0.18061633854E+04  0.46999998093E+01 0.  1.
</event>
<event>
 5   0  0.7971763E-06  0.3354450E+04  0.7818609E-02  0.8149177E-01
       -2   -1    0    0    0  501  0.00000000000E+00  0.00000000000E+00  0.11369348953E+04  0.11369348953E+04  0.25500000920E-02 0.  1.
        2   -1    0    0  501    0  0.00000000000E+00  0.00000000000E+00 -0.24742702206E+04  0.24742702206E+04  0.25500000920E-02 0. -1.
    10030    2    1    2    0    0  0.00000000000E+00  0.00000000000E+00 -0.13373353253E+04  0.36112051159E+04  0.33544502705E+04 0.  0.
        1    1    3    3  502    0 -0.38437035096E+03 -0.31795559660E+03 -0.23925626114E+04  0.24440114930E+04  0.50400001928E-02 0. -1.
       -1    1    3    3    0  502  0.38437035096E+03  0.31795559660E+03  0.10552272861E+04  0.11671936230E+04  0.50400001928E-02 0.  1.
</event>
<event>
 5   0  0.8237664E-06  0.3119366E+04  0.7818609E-02  0.8210443E-01
        2   -1    0    0  501    0  0.00000000000E+00  0.00000000000E+00  0.19186130797E+04  0.19186130797E+04  0.25500000920E-02 0.  1.
       -2   -1    0    0    0  501  0.00000000000E+00  0.00000000000E+00 -0.12679007373E+04  0.12679007373E+04  0.25500000920E-02 0. -1.
    10030    2    1    2    0    0  0.00000000000E+00  0.00000000000E+00  0.65071234241E+03  0.31865138170E+04  0.31193659217E+04 0.  0.
        5    1    3    3  502    0 -0.10292747967E+03 -0.13705866486E+03 -0.12582431876E+04  0.12698728884E+04  0.46999998093E+01 0. -1.
       -5    1    3    3    0  502  0.10292747967E+03  0.13705866486E+03  0.19089555300E+04  0.19166409286E+04  0.46999998093E+01 0.  1.
</event>
<event>
 5   0  0.3938696E-06  0.3198152E+04  0.7818609E-02  0.8189305E-01
       -1   -1    0    0    0  501  0.00000000000E+00  0.00000000000E+00  0.17220088509E+04  0.17220088509E+04  0.50400001928E-02 0. -1.
        1   -1    0    0  501    0  0.00000000000E+00  0.00000000000E+00 -0.14849196300E+04  0.14849196300E+04  0.50400001928E-02 0.  1.
    10030    2    1    2    0    0  0.00000000000E+00  0.00000000000E+00  0.23708922092E+03  0.32069284809E+04  0.31981524328E+04 0.  0.
        4    1    3    3  502    0 -0.13214081173E+04 -0.85066977806E+03  0.41479508181E+03  0.16253661300E+04  0.12699999809E+01 0. -1.
       -4    1    3    3    0  502  0.13214081173E+04  0.85066977806E+03 -0.17770586089E+03  0.15815623509E+04  0.12699999809E+01 0.  1.
</event>
<event>
 5   0  0.2933646E-06  0.1692419E+04  0.7818609E-02  0.8765700E-01
        1   -1    0    0  501    0  0.00000000000E+00  0.00000000000E+00  0.11223814973E+04  0.11223814973E+04  0.50400001928E-02 0.  1.
       -1   -1    0    0    0  501  0.00000000000E+00  0.00000000000E+00 -0.63799192516E+03  0.63799192518E+03  0.50400001928E-02 0. -1.
    10030    2    1    2    0    0  0.00000000000E+00  0.00000000000E+00  0.48438957212E+03  0.17603734225E+04  0.16924187806E+04 0.  0.
        2    1    3    3  502    0  0.41501161528E+03  0.96876671914E+02  0.10026099211E+04  0.10894247952E+04  0.25500000920E-02 0.  1.
       -2    1    3    3    0  502 -0.41501161528E+03 -0.96876671914E+02 -0.51822034899E+03  0.67094862731E+03  0.25500000920E-02 0. -1.
</event>
<event>
 5   0  0.2933646E-06  0.2437661E+04  0.7818609E-02  0.8425537E-01
       -1   -1    0    0    0  501  0.00000000000E+00  0.00000000000E+00  0.11794334890E+04  0.11794334890E+04  0.50400001928E-02 0. -1.
        1   -1    0    0  501    0  0.00000000000E+00  0.00000000000E+00 -0.12595438383E+04  0.12595438383E+04  0.50400001928E-02 0.  1.
    10030    2    1    2    0    0  0.00000000000E+00  0.00000000000E+00 -0.80110349246E+02  0.24389773273E+04  0.24376613249E+04 0.  0.
        2    1    3    3  502    0 -0.83754998807E+03 -0.83745337970E+03 -0.32783875284E+03  0.12289411677E+04  0.25500000920E-02 0. -1.
       -2    1    3    3    0  502  0.83754998807E+03  0.83745337970E+03  0.24772840360E+03  0.12100361596E+04  0.25500000920E-02 0.  1.
</event>
<event>
 5   0  0.4142886E-06  0.2013558E+04  0.7818609E-02  0.8600308E-01
        1   -1    0    0  501    0  0.00000000000E+00  0.00000000000E+00  0.10454905770E+04  0.10454905771E+04  0.50400001928E-02 0. -1.
       -1   -1    0    0    0  501  0.00000000000E+00  0.00000000000E+00 -0.96950121147E+03  0.96950121148E+03  0.50400001928E-02 0.  1.
    10030    2    1    2    0    0  0.00000000000E+00  0.00000000000E+00  0.75989365574E+02  0.20149917885E+04  0.20135584233E+04 0.  0.
        5    1    3    3  502    0 -0.99152004569E+02 -0.10573091294E+03 -0.95899367545E+03  0.96989747165E+03  0.46999998093E+01 0.  1.
       -5    1    3    3    0  502  0.99152004569E+02  0.10573091294E+03  0.10349830410E+04  0.10450943169E+04  0.46999998093E+01 0. -1.
</event>
<event>
 5   0  0.2933646E-06  0.2926508E+04  0.7818609E-02  0.8265034E-01
        1   -1    0    0  501    0  0.00000000000E+00  0.00000000000E+00  0.12704084814E+04  0.12704084814E+04  0.50400001928E-02 0.  1.
       -1   -1    0    0    0  501  0.00000000000E+00  0.00000000000E+00 -0.16853725682E+04  0.16853725682E+04  0.50400001928E-02 0. -1.
    10030    2    1    2    0    0  0.00000000000E+00  0.00000000000E+00 -0.41496408674E+03  0.29557810496E+04  0.29265075465E+04 0.  0.
        2    1    3    3  502    0  0.12794895693E+04 -0.69493259296E+03 -0.60816763691E+02  0.14573000877E+04  0.25500000920E-02 0.  1.
       -2    1    3    3    0  502 -0.12794895693E+04  0.69493259296E+03 -0.35414732305E+03  0.14984809619E+04  0.25500000920E-02 0. -1.
</event>
<event>
 5   0  0.7952307E-06  0.3172322E+04  0.7818609E-02  0.8196165E-01
        2   -1    0    0  501    0  0.00000000000E+00  0.00000000000E+00  0.14836382716E+04  0.14836382716E+04  0.25500000920E-02 0. -1.
       -2   -1    0    0    0  501  0.00000000000E+00  0.00000000000E+00 -0.16957677764E+04  0.16957677764E+04  0.25500000920E-02 0.  1.
    10030    2    1    2    0    0  0.00000000000E+00  0.00000000000E+00 -0.21212950482E+03  0.31794060481E+04  0.31723215303E+04 0.  0.
        2    1    3    3  502    0  0.35688769414E+03  0.15157483536E+04 -0.40847370364E+03  0.16098797049E+04  0.25500000920E-02 0. -1.
       -2    1    3    3    0  502 -0.35688769414E+03 -0.15157483536E+04  0.19634419882E+03  0.15695263432E+04  0.25500000920E-02 0.  1.
</event>
<event>
 5   0  0.7952307E-06  0.3156129E+04  0.7818609E-02  0.8200501E-01
        2   -1    0    0  501    0  0.00000000000E+00  0.00000000000E+00  0.23501228766E+04  0.23501228766E+04  0.25500000920E-02 0. -1.
       -2   -1    0    0    0  501  0.00000000000E+00  0.00000000000E+00 -0.10596411052E+04  0.10596411052E+04  0.25500000920E-02 0.  1.
    10030    2    1    2    0    0  0.00000000000E+00  0.00000000000E+00  0.12904817714E+04  0.34097639818E+04  0.31561285160E+04 0.  0.
        2    1    3    3  502    0  0.14675942865E+04  0.12181416845E+03  0.12579267624E+04  0.19367631298E+04  0.25500000920E-02 0. -1.
       -2    1    3    3    0  502 -0.14675942865E+04 -0.12181416845E+03  0.32555009024E+02  0.14730008520E+04  0.25500000920E-02 0.  1.
</event>
<event>
 5   0  0.7510251E-06  0.3144059E+04  0.7818609E-02  0.8203749E-01
       -2   -1    0    0    0  501  0.00000000000E+00  0.00000000000E+00  0.98506610787E+03  0.98506610787E+03  0.25500000920E-02 0.  1.
        2   -1    0    0  501    0  0.00000000000E+00  0.00000000000E+00 -0.25087427296E+04  0.25087427296E+04  0.25500000920E-02 0. -1.
    10030    2    1    2    0    0  0.00000000000E+00  0.00000000000E+00 -0.15236766218E+04  0.34938088375E+04  0.31440594373E+04 0.  0.
        3    1    3    3  502    0 -0.11386527981E+04  0.78504031946E+03  0.68593564213E+02  0.13847467585E+04  0.10100000352E+00 0.  1.
       -3    1    3    3    0  502  0.11386527981E+04 -0.78504031946E+03 -0.15922701860E+04  0.21090620790E+04  0.10100000352E+00 0. -1.
</event>
<event>
 5   0  0.2635798E-06  0.3139792E+04  0.7818609E-02  0.8204901E-01
        1   -1    0    0  501    0  0.00000000000E+00  0.00000000000E+00  0.21926068002E+04  0.21926068002E+04  0.50400001928E-02 0.  1.
       -1   -1    0    0    0  501  0.00000000000E+00  0.00000000000E+00 -0.11240379256E+04  0.11240379256E+04  0.50400001928E-02 0. -1.
    10030    2    1    2    0    0  0.00000000000E+00  0.00000000000E+00  0.10685688746E+04  0.33166447258E+04  0.31397918398E+04 0.  0.
        1    1    3    3  502    0  0.42417430052E+03 -0.10807051193E+04  0.16505598859E+04  0.20179681189E+04  0.50400001928E-02 0. -1.
       -1    1    3    3    0  502 -0.42417430052E+03  0.10807051193E+04 -0.58199101123E+03  0.12986766069E+04  0.50400001928E-02 0.  1.
</event>
<event>
 5   0  0.2933646E-06  0.3159284E+04  0.7818609E-02  0.8199654E-01
       -1   -1    0    0    0  501  0.00000000000E+00  0.00000000000E+00  0.19568479019E+04  0.19568479019E+04  0.50400001928E-02 0. -1.
        1   -1    0    0  501    0  0.00000000000E+00  0.00000000000E+00 -0.12751471795E+04  0.12751471795E+04  0.50400001928E-02 0.  1.
    10030    2    1    2    0    0  0.00000000000E+00  0.00000000000E+00  0.68170072243E+03  0.32319950814E+04  0.31592841486E+04 0.  0.
        2    1    3    3  502    0  0.15987643755E+03  0.10127541499E+04 -0.88848750622E+03  0.13567024331E+04  0.25500000920E-02 0.  1.
       -2    1    3    3    0  502 -0.15987643755E+03 -0.10127541499E+04  0.15701882286E+04  0.18752926483E+04  0.25500000920E-02 0. -1.
</event>
<event>
 5   0  0.2933646E-06  0.3115239E+04  0.7818609E-02  0.8211568E-01
        1   -1    0    0  501    0  0.00000000000E+00  0.00000000000E+00  0.26755340424E+04  0.26755340424E+04  0.50400001928E-02 0.  1.
       -1   -1    0    0    0  501  0.00000000000E+00  0.00000000000E+00 -0.90680152093E+03  0.90680152095E+03  0.50400001928E-02 0. -1.
    10030    2    1    2    0    0  0.00000000000E+00  0.00000000000E+00  0.17687325215E+04  0.35823355634E+04  0.31152388923E+04 0.  0.
        2    1    3    3  502    0  0.11276196688E+04  0.92464946386E+03  0.15138733034E+04  0.21019788598E+04  0.25500000920E-02 0.  1.
       -2    1    3    3    0  502 -0.11276196688E+04 -0.92464946386E+03  0.25485921809E+03  0.14803567035E+04  0.25500000920E-02 0. -1.
</event>
<event>
 5   0  0.7510251E-06  0.3147190E+04  0.7818609E-02  0.8202905E-01
       -2   -1    0    0    0  501  0.00000000000E+00  0.00000000000E+00  0.98636157540E+03  0.98636157540E+03  0.25500000920E-02 0. -1.
        2   -1    0    0  501    0  0.00000000000E+00  0.00000000000E+00 -0.25104400766E+04  0.25104400767E+04  0.25500000920E-02 0.  1.
    10030    2    1    2    0    0  0.00000000000E+00  0.00000000000E+00 -0.15240785012E+04  0.34968016521E+04  0.31471902573E+04 0.  0.
        3    1    3    3  502    0 -0.14574266057E+04  0.59336129996E+03 -0.76829254653E+03  0.17511263206E+04  0.10100000352E+00 0.  1.
       -3    1    3    3    0  502  0.14574266057E+04 -0.59336129996E+03 -0.75578595472E+03  0.17456753315E+04  0.10100000352E+00 0. -1.
</event>
<event>
 5   0  0.7952307E-06  0.3169798E+04  0.7818609E-02  0.8196839E-01
        2   -1    0    0  501    0  0.00000000000E+00  0.00000000000E+00  0.12779143433E+04  0.12779143433E+04  0.25500000920E-02 0.  1.
       -2   -1    0    0    0  501  0.00000000000E+00  0.00000000000E+00 -0.19656280045E+04  0.19656280045E+04  0.25500000920E-02 0. -1.
    10030    2    1    2    0    0  0.00000000000E+00  0.00000000000E+00 -0.68771366125E+03  0.32435423478E+04  0.31697976091E+04 0.  0.
        2    1    3    3  502    0 -0.97534145012E+03  0.12619061124E+02  0.93438648207E+03  0.13507510070E+04  0.25500000920E-02 0.  1.
       -2    1    3    3    0  502  0.97534145012E+03 -0.12619061124E+02 -0.16221001433E+04  0.18927913408E+04  0.25500000920E-02 0. -1.
</event>
<event>
 5   0  0.7952307E-06  0.1918678E+04  0.7818609E-02  0.8645614E-01
        2   -1    0    0  501    0  0.00000000000E+00  0.00000000000E+00  0.15764981659E+04  0.15764981659E+04  0.25500000920E-02 0.  1.
       -2   -1    0    0    0  501  0.00000000000E+00  0.00000000000E+00 -0.58378226476E+03  0.58378226477E+03  0.25500000920E-02 0. -1.
    10030    2    1    2    0    0  0.00000000000E+00  0.00000000000E+00  0.99271590113E+03  0.21602804307E+04  0.19186783677E+04 0.  0.
        2    1    3    3  502    0  0.95492176842E+03  0.50160278628E+02  0.40958140513E+03  0.10402636996E+04  0.25500000920E-02 0. -1.
       -2    1    3    3    0  502 -0.95492176842E+03 -0.50160278628E+02  0.58313449600E+03  0.11200167310E+04  0.25500000920E-02 0.  1.
</event>
<event>
 5   0  0.3938696E-06  0.3229034E+04  0.7818609E-02  0.8181191E-01
        1   -1    0    0  501    0  0.00000000000E+00  0.00000000000E+00  0.19660758100E+04  0.19660758100E+04  0.50400001928E-02 0.  1.
       -1   -1    0    0    0  501  0.00000000000E+00  0.00000000000E+00 -0.13258211141E+04  0.13258211141E+04  0.50400001928E-02 0. -1.
    10030    2    1    2    0    0  0.00000000000E+00  0.00000000000E+00  0.64025469594E+03  0.32918969241E+04  0.32290338003E+04 0.  0.
        4    1    3    3  502    0 -0.93487792572E+03  0.66025771402E+03  0.14810352939E+04  0.18717382669E+04  0.12699999809E+01 0.  1.
       -4    1    3    3    0  502  0.93487792572E+03 -0.66025771402E+03 -0.84078059800E+03  0.14201586573E+04  0.12699999809E+01 0. -1.
</event>
<event>
 5   0  0.7971763E-06  0.3182222E+04  0.7818609E-02  0.8193528E-01
       -2   -1    0    0    0  501  0.00000000000E+00  0.00000000000E+00  0.10798069303E+04  0.10798069303E+04  0.25500000920E-02 0.  1.
        2   -1    0    0  501    0  0.00000000000E+00  0.00000000000E+00 -0.23445244846E+04  0.23445244846E+04  0.25500000920E-02 0. -1.
    10030    2    1    2    0    0  0.00000000000E+00  0.00000000000E+00 -0.12647175543E+04  0.34243314149E+04  0.31822217312E+04 0.  0.
        1    1    3    3  502    0 -0.58594641305E+03  0.32474352623E+03 -0.21853662308E+04  0.22857421376E+04  0.50400001928E-02 0. -1.
       -1    1    3    3    0  502  0.58594641305E+03 -0.32474352623E+03  0.92064867651E+03  0.11385892773E+04  0.50400001928E-02 0.  1.
</event>
<event>
 5   0  0.7510251E-06  0.2995773E+04  0.7818609E-02  0.8244939E-01
        2   -1    0    0  501    0  0.00000000000E+00  0.00000000000E+00  0.16203470925E+04  0.16203470925E+04  0.25500000920E-02 0. -1.
       -2   -1    0    0    0  501  0.00000000000E+00  0.00000000000E+00 -0.13846807695E+04  0.13846807695E+04  0.25500000920E-02 0.  1.
    10030    2    1    2    0    0  0.00000000000E+00  0.00000000000E+00  0.23566632307E+03  0.30050278620E+04  0.29957726608E+04 0.  0.
        3    1    3    3  502    0 -0.59108589063E+03 -0.13636210825E+04 -0.69340373096E+02  0.14878350326E+04  0.10100000352E+00 0. -1.
       -3    1    3    3    0  502  0.59108589063E+03  0.13636210825E+04  0.30500669616E+03  0.15171928294E+04  0.10100000352E+00 0.  1.
</event>
<event>
 5   0  0.2933646E-06  0.3191197E+04  0.7818609E-02  0.8191146E-01
       -1   -1    0    0    0  501  0.00000000000E+00  0.00000000000E+00  0.10661532494E+04  0.10661532494E+04  0.50400001928E-02 0. -1.
        1   -1    0    0  501    0  0.00000000000E+00  0.00000000000E+00 -0.23879637291E+04  0.23879637291E+04  0.50400001928E-02 0.  1.
    10030    2    1    2    0    0  0.00000000000E+00  0.00000000000E+00 -0.13218104796E+04  0.34541169785E+04  0.31911974488E+04 0.  0.
        2    1    3    3  502    0  0.32296950260E+03 -0.11971897386E+04 -0.17478106632E+04  0.21429919935E+04  0.25500000920E-02 0.  1.
       -2    1    3    3    0  502 -0.32296950260E+03  0.11971897386E+04  0.42600018354E+03  0.13111249850E+04  0.25500000920E-02 0. -1.
</event>
<event>
 5   0  0.7510251E-06  0.3184381E+04  0.7818609E-02  0.8192954E-01
        2   -1    0    0  501    0  0.00000000000E+00  0.00000000000E+00  0.18563988962E+04  0.18563988962E+04  0.25500000920E-02 0.  1.
       -2   -1    0    0    0  501  0.00000000000E+00  0.00000000000E+00 -0.13655851675E+04  0.13655851675E+04  0.25500000920E-02 0. -1.
    10030    2    1    2    0    0  0.00000000000E+00  0.00000000000E+00  0.49081372871E+03  0.32219840637E+04  0.31843811315E+04 0.  0.
        3    1    3    3  502    0 -0.71560571115E+02 -0.14262965500E+04  0.95772872572E+03  0.17195019878E+04  0.10100000352E+00 0.  1.
       -3    1    3    3    0  502  0.71560571115E+02  0.14262965500E+04 -0.46691499701E+03  0.15024820759E+04  0.10100000352E+00 0. -1.
</event>
<event>
 5   0  0.7952307E-06  0.3217244E+04  0.7818609E-02  0.8184278E-01
       -2   -1    0    0    0  501  0.00000000000E+00  0.00000000000E+00  0.14037008237E+04  0.14037008237E+04  0.25500000920E-02 0.  1.
        2   -1    0    0  501    0  0.00000000000E+00  0.00000000000E+00 -0.18434587930E+04  0.18434587930E+04  0.25500000920E-02 0. -1.
    10030    2    1    2    0    0  0.00000000000E+00  0.00000000000E+00 -0.43975796924E+03  0.32471596167E+04  0.32172439299E+04 0.  0.
        2    1    3    3  502    0  0.53673592660E+03  0.83333961250E+03 -0.14985946234E+04  0.17967543544E+04  0.25500000920E-02 0. -1.
       -2    1    3    3    0  502 -0.53673592660E+03 -0.83333961250E+03  0.10588366542E+04  0.14504052623E+04  0.25500000920E-02 0.  1.
</event>
<event>
 5   0  0.8237664E-06  0.3182117E+04  0.7818609E-02  0.8193556E-01
       -2   -1    0    0    0  501  0.00000000000E+00  0.00000000000E+00  0.11205721342E+04  0.11205721342E+04  0.25500000920E-02 0.  1.
        2   -1    0    0  501    0  0.00000000000E+00  0.00000000000E+00 -0.22590847139E+04  0.22590847139E+04  0.25500000920E-02 0. -1.
    10030    2    1    2    0    0  0.00000000000E+00  0.00000000000E+00 -0.11385125797E+04  0.33796568482E+04  0.31821171438E+04 0.  0.
        5    1    3    3  502    0  0.12866509154E+04 -0.91893455567E+03 -0.75785813243E+03  0.17533631496E+04  0.46999998093E+01 0. -1.
       -5    1    3    3    0  502 -0.12866509154E+04  0.91893455567E+03 -0.38065444725E+03  0.16262936985E+04  0.46999998093E+01 0.  1.
</event>
<event>
 5   0  0.4142886E-06  0.3129083E+04  0.7818609E-02  0.8207801E-01
        1   -1    0    0  501    0  0.00000000000E+00  0.00000000000E+00  0.14004046294E+04  0.14004046294E+04  0.50400001928E-02 0. -1.
       -1   -1    0    0    0  501  0.00000000000E+00  0.00000000000E+00 -0.17479165751E+04  0.17479165751E+04  0.50400001928E-02 0.  1.
    10030    2    1    2    0    0  0.00000000000E+00  0.00000000000E+00 -0.34751194570E+03  0.31483212046E+04  0.31290832291E+04 0.  0.
        5    1    3    3  502    0  0.88402928929E+01 -0.33975087036E+03 -0.17103189376E+04  0.17437665449E+04  0.46999998093E+01 0.  1.
       -5    1    3    3    0  502 -0.88402928929E+01  0.33975087036E+03  0.13628069920E+04  0.14045546597E+04  0.46999998093E+01 0. -1.
</event>
<event>
 5   0  0.7971763E-06  0.3186997E+04  0.7818609E-02  0.8192260E-01
        2   -1    0    0  501    0  0.00000000000E+00  0.00000000000E+00  0.22335126055E+04  0.22335126055E+04  0.25500000920E-02 0.  1.
       -2   -1    0    0    0  501  0.00000000000E+00  0.00000000000E+00 -0.11368810299E+04  0.11368810299E+04  0.25500000920E-02 0. -1.
    10030    2    1    2    0    0  0.00000000000E+00  0.00000000000E+00  0.10966315756E+04  0.33703936354E+04  0.31869974027E+04 0.  0.
        1    1    3    3  502    0 -0.43764695502E+03  0.14146341553E+03  0.21617884575E+04  0.22101755791E+04  0.50400001928E-02 0.  1.
       -1    1    3    3    0  502  0.43764695502E+03 -0.14146341553E+03 -0.10651568819E+04  0.11602180563E+04  0.50400001928E-02 0. -1.
</event>
<event>
 5   0  0.3938696E-06  0.2324313E+04  0.7818609E-02  0.8468396E-01
        1   -1    0    0  501    0  0.00000000000E+00  0.00000000000E+00  0.12939916423E+04  0.12939916423E+04  0.50400001928E-02 0.  1.
       -1   -1    0    0    0  501  0.00000000000E+00  0.00000000000E+00 -0.10437533042E+04  0.10437533042E+04  0.50400001928E-02 0. -1.
    10030    2    1    2    0    0  0.00000000000E+00  0.00000000000E+00  0.25023833805E+03  0.23377449465E+04  0.23243132769E+04 0.  0.
        4    1    3    3  502    0 -0.48858049713E+03 -0.10256980207E+04  0.37115310669E+03  0.11952085899E+04  0.12699999809E+01 0.  1.
       -4    1    3    3    0  502  0.48858049713E+03  0.10256980207E+04 -0.12091476865E+03  0.11425363566E+04  0.12699999809E+01 0. -1.
</event>
<event>
 5   0  0.7952307E-06  0.3147827E+04  0.7818609E-02  0.8202733E-01
       -2   -1    0    0    0  501  0.00000000000E+00  0.00000000000E+00  0.10416797230E+04  0.10416797231E+04  0.25500000920E-02 0. -1.
        2   -1    0    0  501    0  0.00000000000E+00  0.00000000000E+00 -0.23780864596E+04  0.23780864596E+04  0.25500000920E-02 0.  1.
    10030    2    1    2    0    0  0.00000000000E+00  0.00000000000E+00 -0.13364067366E+04  0.34197661827E+04  0.31478274696E+04 0.  0.
        2    1    3    3  502    0  0.60721978699E+02  0.79884940408E+03  0.80358632969E+03  0.11347239833E+04  0.25500000920E-02 0. -1.
       -2    1    3    3    0  502 -0.60721978699E+02 -0.79884940408E+03 -0.21399930662E+04  0.22850421993E+04  0.25500000920E-02 0.  1.
</event>
<event>
 5   0  0.2635798E-06  0.3184372E+04  0.7818609E-02  0.8192957E-01
        1   -1    0    0  501    0  0.00000000000E+00  0.00000000000E+00  0.18601932898E+04  0.18601932898E+04  0.50400001928E-02 0.  1.
       -1   -1    0    0    0  501  0.00000000000E+00  0.00000000000E+00 -0.13627917225E+04  0.13627917225E+04  0.50400001928E-02 0. -1.
    10030    2    1    2    0    0  0.00000000000E+00  0.00000000000E+00  0.49740156725E+03  0.32229850123E+04  0.31843718486E+04 0.  0.
        1    1    3    3  502    0  0.24458440400E+03  0.38264211031E+03 -0.12958508272E+04  0.13731226754E+04  0.50400001928E-02 0. -1.
       -1    1    3    3    0  502 -0.24458440400E+03 -0.38264211031E+03  0.17932523944E+04  0.18498623369E+04  0.50400001928E-02 0.  1.
</event>
<event>
 5   0  0.7941434E-06  0.3090442E+04  0.7818609E-02  0.8218366E-01
       -2   -1    0    0    0  501  0.00000000000E+00  0.00000000000E+00  0.17887602229E+04  0.17887602229E+04  0.25500000920E-02 0.  1.
        2   -1    0    0  501    0  0.00000000000E+00  0.00000000000E+00 -0.13348391644E+04  0.13348391644E+04  0.25500000920E-02 0. -1.
    10030    2    1    2    0    0  0.00000000000E+00  0.00000000000E+00  0.45392105851E+03  0.31235993873E+04  0.30904415226E+04 0.  0.
        4    1    3    3  502    0 -0.15330648341E+04 -0.12468637680E+03  0.37643609791E+03  0.15835214639E+04  0.12699999809E+01 0. -1.
       -4    1    3    3    0  502  0.15330648341E+04  0.12468637680E+03  0.77484960598E+02  0.15400779234E+04  0.12699999809E+01 0.  1.
</event>
<event>
 5   0  0.3938696E-06  0.2936022E+04  0.7818609E-02  0.8262240E-01
       -1   -1    0    0    0  501  0.00000000000E+00  0.00000000000E+00  0.19596310931E+04  0.19596310931E+04  0.50400001928E-02 0.  1.
        1   -1    0    0  501    0  0.00000000000E+00  0.00000000000E+00 -0.10997256089E+04  0.10997256089E+04  0.50400001928E-02 0. -1.
    10030    2    1    2    0    0  0.00000000000E+00  0.00000000000E+00  0.85990548418E+03  0.30593567019E+04  0.29360221368E+04 0.  0.
        4    1    3    3  502    0 -0.69066307156E+02  0.31866516603E+03  0.19214206782E+04  0.19488911407E+04  0.12699999809E+01 0.  1.
       -4    1    3    3    0  502  0.69066307156E+02 -0.31866516603E+03 -0.10615151940E+04  0.11104655613E+04  0.12699999809E+01 0. -1.
</event>
<event>
 5   0  0.2580875E-06  0.1968838E+04  0.7818609E-02  0.8621330E-01
        4   -1    0    0  501    0  0.00000000000E+00  0.00000000000E+00  0.13015187273E+04  0.13015193470E+04  0.12699999809E+01 0.  1.
       -4   -1    0    0    0  501  0.00000000000E+00  0.00000000000E+00 -0.74457589193E+03  0.74457697503E+03  0.12699999809E+01 0. -1.
    10030    2    1    2    0    0  0.00000000000E+00  0.00000000000E+00  0.55694283542E+03  0.20460963220E+04  0.19688384487E+04 0.  0.
        1    1    3    3  502    0  0.72038678360E+03 -0.16776703419E+03  0.95356045998E+03  0.12068058860E+04  0.50400001928E-02 0.  1.
       -1    1    3    3    0  502 -0.72038678360E+03  0.16776703419E+03 -0.39661762456E+03  0.83929043595E+03  0.50400001928E-02 0. -1.
</event>
<event>
 5   0  0.3938696E-06  0.3156610E+04  0.7818609E-02  0.8200371E-01
        1   -1    0    0  501    0  0.00000000000E+00  0.00000000000E+00  0.22114680194E+04  0.22114680194E+04  0.50400001928E-02 0. -1.
       -1   -1    0    0    0  501  0.00000000000E+00  0.00000000000E+00 -0.11264222146E+04  0.11264222146E+04  0.50400001928E-02 0.  1.
    10030    2    1    2    0    0  0.00000000000E+00  0.00000000000E+00  0.10850458048E+04  0.33378902341E+04  0.31566100197E+04 0.  0.
        4    1    3    3  502    0 -0.19183272877E+03 -0.15664292915E+04  0.56719908493E+03  0.16769665876E+04  0.12699999809E+01 0.  1.
       -4    1    3    3    0  502  0.19183272877E+03  0.15664292915E+04  0.51784671987E+03  0.16609236465E+04  0.12699999809E+01 0. -1.
</event>
<event>
 5   0  0.4142886E-06  0.3116665E+04  0.7818609E-02  0.8211179E-01
        1   -1    0    0  501    0  0.00000000000E+00  0.00000000000E+00  0.28632340107E+04  0.28632340107E+04  0.50400001928E-02 0. -1.
       -1   -1    0    0    0  501  0.00000000000E+00  0.00000000000E+00 -0.84813213112E+03  0.84813213113E+03  0.50400001928E-02 0.  1.
    10030    2    1    2    0    0  0.00000000000E+00  0.00000000000E+00  0.20151018796E+04  0.37113661418E+04  0.31166653740E+04 0.  0.
        5    1    3    3  502    0 -0.15335207603E+04 -0.21190808015E+03  0.12198623294E+04  0.19709584342E+04  0.46999998093E+01 0. -1.
       -5    1    3    3    0  502  0.15335207603E+04  0.21190808015E+03  0.79523955015E+03  0.17404077076E+04  0.46999998093E+01 0.  1.
</event>
<event>
 5   0  0.7971763E-06  0.3079818E+04  0.7818609E-02  0.8221299E-01
       -2   -1    0    0    0  501  0.00000000000E+00  0.00000000000E+00  0.89872551158E+03  0.89872551158E+03  0.25500000920E-02 0. -1.
        2   -1    0    0  501    0  0.00000000000E+00  0.00000000000E+00 -0.26385359883E+04  0.26385359883E+04  0.25500000920E-02 0.  1.
    10030    2    1    2    0    0  0.00000000000E+00  0.00000000000E+00 -0.17398104768E+04  0.35372614999E+04  0.30798179206E+04 0.  0.
        1    1    3    3  502    0 -0.83231311243E+03  0.36081359939E+03 -0.22990691097E+04  0.24715683972E+04  0.50400001928E-02 0.  1.
       -1    1    3    3    0  502  0.83231311243E+03 -0.36081359939E+03  0.55925863297E+03  0.10656931027E+04  0.50400001928E-02 0. -1.
</event>
<event>
 5   0  0.4142886E-06  0.1720606E+04  0.7818609E-02  0.8749698E-01
       -1   -1    0    0    0  501  0.00000000000E+00  0.00000000000E+00  0.76471422190E+03  0.76471422192E+03  0.50400001928E-02 0.  1.
        1   -1    0    0  501    0  0.00000000000E+00  0.00000000000E+00 -0.96784083930E+03  0.96784083931E+03  0.50400001928E-02 0. -1.
    10030    2    1    2    0    0  0.00000000000E+00  0.00000000000E+00 -0.20312661740E+03  0.17325550612E+04  0.17206064679E+04 0.  0.
        5    1    3    3  502    0 -0.59408896044E+03 -0.26656588399E+02 -0.72752914602E+03  0.93966643812E+03  0.46999998093E+01 0. -1.
       -5    1    3    3    0  502  0.59408896044E+03  0.26656588399E+02  0.52440252862E+03  0.79288862310E+03  0.46999998093E+01 0.  1.
</event>
<event>
 5   0  0.7971763E-06  0.1722442E+04  0.7818609E-02  0.8748667E-01
       -2   -1    0    0    0  501  0.00000000000E+00  0.00000000000E+00  0.15304001032E+04  0.15304001032E+04  0.25500000920E-02 0. -1.
        2   -1    0    0  501    0  0.00000000000E+00  0.00000000000E+00 -0.48464561567E+03  0.48464561568E+03  0.25500000920E-02 0.  1.
    10030    2    1    2    0    0  0.00000000000E+00  0.00000000000E+00  0.10457544875E+04  0.20150457189E+04  0.17224421038E+04 0.  0.
        1    1    3    3  502    0  0.30534560018E+03 -0.63288939263E+02  0.14620345627E+04  0.14949202279E+04  0.50400001928E-02 0. -1.
       -1    1    3    3    0  502 -0.30534560018E+03  0.63288939263E+02 -0.41628007513E+03  0.52012549097E+03  0.50400001928E-02 0.  1.
</event>
<event>
 5   0  0.2788054E-06  0.2815251E+04  0.7818609E-02  0.8298549E-01
       -1   -1    0    0    0  501  0.00000000000E+00  0.00000000000E+00  0.11953187327E+04  0.11953187327E+04  0.50400001928E-02 0.  1.
        1   -1    0    0  501    0  0.00000000000E+00  0.00000000000E+00 -0.16576413795E+04  0.16576413795E+04  0.50400001928E-02 0. -1.
    10030    2    1    2    0    0  0.00000000000E+00  0.00000000000E+00 -0.46232264686E+03  0.28529601122E+04  0.28152511739E+04 0.  0.
        3    1    3    3  502    0  0.59264567603E+03 -0.53629176385E+03 -0.14053755801E+04  0.16167616660E+04  0.10100000352E+00 0. -1.
       -3    1    3    3    0  502 -0.59264567603E+03  0.53629176385E+03  0.94305293324E+03  0.12361984462E+04  0.10100000352E+00 0.  1.
</event>
<event>
 5   0  0.4142886E-06  0.1847557E+04  0.7818609E-02  0.8681410E-01
       -1   -1    0    0    0  501  0.00000000000E+00  0.00000000000E+00  0.11974409428E+04  0.11974409428E+04  0.50400001928E-02 0.  1.
        1   -1    0    0  501    0  0.00000000000E+00  0.00000000000E+00 -0.71265868328E+03  0.71265868329E+03  0.50400001928E-02 0. -1.
    10030    2    1    2    0    0  0.00000000000E+00  0.00000000000E+00  0.48478225951E+03  0.19100996261E+04  0.18475569660E+04 0.  0.
        5    1    3    3  502    0  0.29957633522E+03 -0.73957039154E+03  0.72358683503E+03  0.10771770247E+04  0.46999998093E+01 0.  1.
       -5    1    3    3    0  502 -0.29957633522E+03  0.73957039154E+03 -0.23880457552E+03  0.83292260142E+03  0.46999998093E+01 0. -1.
</event>
<event>
 5   0  0.7941434E-06  0.3218998E+04  0.7818609E-02  0.8183818E-01
        2   -1    0    0  501    0  0.00000000000E+00  0.00000000000E+00  0.19525054377E+04  0.19525054377E+04  0.25500000920E-02 0. -1.
       -2   -1    0    0    0  501  0.00000000000E+00  0.00000000000E+00 -0.13267501591E+04  0.13267501591E+04  0.25500000920E-02 0.  1.
    10030    2    1    2    0    0  0.00000000000E+00  0.00000000000E+00  0.62575527859E+03  0.32792555968E+04  0.32189979186E+04 0.  0.
        4    1    3    3  502    0 -0.80699461149E+03  0.66134312568E+03  0.15613265664E+04  0.18778597639E+04  0.12699999809E+01 0. -1.
       -4    1    3    3    0  502  0.80699461149E+03 -0.66134312568E+03 -0.93557128785E+03  0.14013958329E+04  0.12699999809E+01 0.  1.
</event>
<event>
 5   0  0.7952307E-06  0.2033808E+04  0.7818609E-02  0.8590976E-01
       -2   -1    0    0    0  501  0.00000000000E+00  0.00000000000E+00  0.13444550213E+04  0.13444550213E+04  0.25500000920E-02 0.  1.
        2   -1    0    0  501    0  0.00000000000E+00  0.00000000000E+00 -0.76915449091E+03  0.76915449092E+03  0.25500000920E-02 0. -1.
    10030    2    1    2    0    0  0.00000000000E+00  0.00000000000E+00  0.57530053039E+03  0.21136095122E+04  0.20338078744E+04 0.  0.
        2    1    3    3  502    0 -0.60164339934E+03  0.62535197637E+03  0.83859687774E+03  0.12067661736E+04  0.25500000920E-02 0.  1.
       -2    1    3    3    0  502  0.60164339934E+03 -0.62535197637E+03 -0.26329634734E+03  0.90684333865E+03  0.25500000920E-02 0. -1.
</event>
<event>
 5   0  0.2635798E-06  0.3063609E+04  0.7818609E-02  0.8225797E-01
       -1   -1    0    0    0  501  0.00000000000E+00  0.00000000000E+00  0.15407083967E+04  0.15407083967E+04  0.50400001928E-02 0.  1.
        1   -1    0    0  501    0  0.00000000000E+00  0.00000000000E+00 -0.15229516116E+04  0.15229516116E+04  0.50400001928E-02 0. -1.
    10030    2    1    2    0    0  0.00000000000E+00  0.00000000000E+00  0.17756785159E+02  0.30636600083E+04  0.30636085493E+04 0.  0.
        1    1    3    3  502    0 -0.13913643753E+04  0.60724003667E+03 -0.19554874040E+03  0.15306451571E+04  0.50400001928E-02 0. -1.
       -1    1    3    3    0  502  0.13913643753E+04 -0.60724003667E+03  0.21330552556E+03  0.15330148513E+04  0.50400001928E-02 0.  1.
</event>
<event>
 5   0  0.8237664E-06  0.3177953E+04  0.7818609E-02  0.8194664E-01
       -2   -1    0    0    0  501  0.00000000000E+00  0.00000000000E+00  0.16592977232E+04  0.16592977232E+04  0.25500000920E-02 0. -1.
        2   -1    0    0  501    0  0.00000000000E+00  0.00000000000E+00 -0.15216354716E+04  0.15216354716E+04  0.25500000920E-02 0.  1.
    10030    2    1    2    0    0  0.00000000000E+00  0.00000000000E+00  0.13766225157E+03  0.31809331949E+04  0.31779529724E+04 0.  0.
        5    1    3    3  502    0  0.50144883215E+03 -0.14876233687E+04  0.31472380232E+03  0.16011081725E+04  0.46999998093E+01 0. -1.
       -5    1    3    3    0  502 -0.50144883215E+03  0.14876233687E+04 -0.17706155075E+03  0.15798250223E+04  0.46999998093E+01 0.  1.
</event>
<event>
 5   0  0.2635798E-06  0.3291816E+04  0.7818609E-02  0.8164981E-01
       -1   -1    0    0    0  501  0.00000000000E+00  0.00000000000E+00  0.12784596358E+04  0.12784596358E+04  0.50400001928E-02 0.  1.
        1   -1    0    0  501    0  0.00000000000E+00  0.00000000000E+00 -0.21189668524E+04  0.21189668524E+04  0.50400001928E-02 0. -1.
    10030    2    1    2    0    0  0.00000000000E+00  0.00000000000E+00 -0.84050721666E+03  0.33974264882E+04  0.32918162709E+04 0.  0.
        1    1    3    3  502    0  0.35014233940E+03  0.79674993399E+02 -0.20780449775E+04  0.21088429744E+04  0.50400001928E-02 0. -1.
       -1    1    3    3    0  502 -0.35014233940E+03 -0.79674993399E+02  0.12375377608E+04  0.12885835137E+04  0.50400001928E-02 0.  1.
</event>
<event>
 5   0  0.7941434E-06  0.3152586E+04  0.7818609E-02  0.8201453E-01
       -2   -1    0    0    0  501  0.00000000000E+00  0.00000000000E+00  0.90482612817E+03  0.90482612818E+03  0.25500000920E-02 0. -1.
        2   -1    0    0  501    0  0.00000000000E+00  0.00000000000E+00 -0.27460514369E+04  0.27460514369E+04  0.25500000920E-02 0.  1.
    10030    2    1    2    0    0  0.00000000000E+00  0.00000000000E+00 -0.18412253087E+04  0.36508775651E+04  0.31525856622E+04 0.  0.
        4    1    3    3  502    0 -0.11152700977E+04 -0.62304856679E+03  0.14874641205E+03  0.12861353022E+04  0.12699999809E+01 0.  1.
       -4    1    3    3    0  502  0.11152700977E+04  0.62304856679E+03 -0.19899717208E+04  0.23647422629E+04  0.12699999809E+01 0. -1.
</event>
<event>
 5   0  0.2933646E-06  0.3131556E+04  0.7818609E-02  0.8207131E-01
       -1   -1    0    0    0  501  0.00000000000E+00  0.00000000000E+00  0.12856121885E+04  0.12856121885E+04  0.50400001928E-02 0. -1.
        1   -1    0    0  501    0  0.00000000000E+00  0.00000000000E+00 -0.19069984282E+04  0.19069984283E+04  0.50400001928E-02 0.  1.
    10030    2    1    2    0    0  0.00000000000E+00  0.00000000000E+00 -0.62138623979E+03  0.31926106167E+04  0.31315557940E+04 0.  0.
        2    1    3    3  502    0  0.77067286204E+03  0.37393813112E+03  0.10255453960E+04  0.13362296754E+04  0.25500000920E-02 0. -1.
       -2    1    3    3    0  502 -0.77067286204E+03 -0.37393813112E+03 -0.16469316358E+04  0.18563809413E+04  0.25500000920E-02 0.  1.
</event>
<event>
 5   0  0.2933646E-06  0.1688981E+04  0.7818609E-02  0.8767674E-01
       -1   -1    0    0    0  501  0.00000000000E+00  0.00000000000E+00  0.50192212095E+03  0.50192212097E+03  0.50400001928E-02 0. -1.
        1   -1    0    0  501    0  0.00000000000E+00  0.00000000000E+00 -0.14208669238E+04  0.14208669238E+04  0.50400001928E-02 0.  1.
    10030    2    1    2    0    0  0.00000000000E+00  0.00000000000E+00 -0.91894480289E+03  0.19227890448E+04  0.16889813972E+04 0.  0.
        2    1    3    3  502    0 -0.41645619481E+03  0.42003011157E+03  0.22671312559E+03  0.63345078589E+03  0.25500000920E-02 0. -1.
       -2    1    3    3    0  502  0.41645619481E+03 -0.42003011157E+03 -0.11456579285E+04  0.12893382589E+04  0.25500000920E-02 0.  1.
</event>
<event>
 5   0  0.7952307E-06  0.3129872E+04  0.7818609E-02  0.8207587E-01
        2   -1    0    0  501    0  0.00000000000E+00  0.00000000000E+00  0.26224899009E+04  0.26224899009E+04  0.25500000920E-02 0.  1.
       -2   -1    0    0    0  501  0.00000000000E+00  0.00000000000E+00 -0.93385472378E+03  0.93385472379E+03  0.25500000920E-02 0. -1.
    10030    2    1    2    0    0  0.00000000000E+00  0.00000000000E+00  0.16886351771E+04  0.35563446247E+04  0.31298719348E+04 0.  0.
        2    1    3    3  502    0  0.37837211123E+03  0.54266015348E+02 -0.87999564891E+03  0.95942826573E+03  0.25500000920E-02 0. -1.
       -2    1    3    3    0  502 -0.37837211123E+03 -0.54266015348E+02  0.25686308260E+04  0.25969163589E+04  0.25500000920E-02 0.  1.
</event>
<event>
 5   0  0.2635798E-06  0.3112361E+04  0.7818609E-02  0.8212354E-01
        1   -1    0    0  501    0  0.00000000000E+00  0.00000000000E+00  0.12713666780E+04  0.12713666780E+04  0.50400001928E-02 0. -1.
       -1   -1    0    0    0  501  0.00000000000E+00  0.00000000000E+00 -0.19047993781E+04  0.19047993781E+04  0.50400001928E-02 0.  1.
    10030    2    1    2    0    0  0.00000000000E+00  0.00000000000E+00 -0.63343270015E+03  0.31761660561E+04  0.31123614556E+04 0.  0.
        1    1    3    3  502    0 -0.10531059271E+04 -0.24239025154E+03  0.82602233947E+03  0.13601830880E+04  0.50400001928E-02 0. -1.
       -1    1    3    3    0  502  0.10531059271E+04  0.24239025154E+03 -0.14594550396E+04  0.18159829681E+04  0.50400001928E-02 0.  1.
</event>
<event>
 5   0  0.4142886E-06  0.3121209E+04  0.7818609E-02  0.8209941E-01
        1   -1    0    0  501    0  0.00000000000E+00  0.00000000000E+00  0.16020241871E+04  0.16020241871E+04  0.50400001928E-02 0. -1.
       -1   -1    0    0    0  501  0.00000000000E+00  0.00000000000E+00 -0.15202553017E+04  0.15202553017E+04  0.50400001928E-02 0.  1.
    10030    2    1    2    0    0  0.00000000000E+00  0.00000000000E+00  0.81768885327E+02  0.31222794888E+04  0.31212085889E+04 0.  0.
        5    1    3    3  502    0 -0.65306983620E+03 -0.63540489133E+03  0.13082935299E+04  0.15943317212E+04  0.46999998093E+01 0. -1.
       -5    1    3    3    0  502  0.65306983620E+03  0.63540489133E+03 -0.12265246445E+04  0.15279477676E+04  0.46999998093E+01 0.  1.
</event>
<event>
 5   0  0.7952307E-06  0.3154830E+04  0.7818609E-02  0.8200849E-01
        2   -1    0    0  501    0  0.00000000000E+00  0.00000000000E+00  0.23435285333E+04  0.23435285333E+04  0.25500000920E-02 0.  1.
       -2   -1    0    0    0  501  0.00000000000E+00  0.00000000000E+00 -0.10617484934E+04  0.10617484934E+04  0.25500000920E-02 0. -1.
    10030    2    1    2    0    0  0.00000000000E+00  0.00000000000E+00  0.12817800399E+04  0.34052770267E+04  0.31548298778E+04 0.  0.
        2    1    3    3  502    0  0.10972394592E+04 -0.67634112867E+03  0.16223986134E+04  0.20720880807E+04  0.25500000920E-02 0.  1.
       -2    1    3    3    0  502 -0.10972394592E+04  0.67634112867E+03 -0.34061857352E+03  0.13331889460E+04  0.25500000920E-02 0. -1.
</event>
<event>
 5   0  0.7952307E-06  0.3004541E+04  0.7818609E-02  0.8242435E-01
        2   -1    0    0  501    0  0.00000000000E+00  0.00000000000E+00  0.16040329672E+04  0.16040329672E+04  0.25500000920E-02 0.  1.
       -2   -1    0    0    0  501  0.00000000000E+00  0.00000000000E+00 -0.14069637772E+04  0.14069637772E+04  0.25500000920E-02 0. -1.
    10030    2    1    2    0    0  0.00000000000E+00  0.00000000000E+00  0.19706918996E+03  0.30109967444E+04  0.30045407518E+04 0.  0.
        2    1    3    3  502    0  0.10241641209E+03 -0.11101287853E+04  0.11076447600E+04  0.15715444492E+04  0.25500000920E-02 0.  1.
       -2    1    3    3    0  502 -0.10241641209E+03  0.11101287853E+04 -0.91057557006E+03  0.14394522952E+04  0.25500000920E-02 0. -1.
</event>
<event>
 5   0  0.2635798E-06  0.3027697E+04  0.7818609E-02  0.8235866E-01
       -1   -1    0    0    0  501  0.00000000000E+00  0.00000000000E+00  0.12222050875E+04  0.12222050876E+04  0.50400001928E-02 0. -1.
        1   -1    0    0  501    0  0.00000000000E+00  0.00000000000E+00 -0.18750836854E+04  0.18750836854E+04  0.50400001928E-02 0.  1.
    10030    2    1    2    0    0  0.00000000000E+00  0.00000000000E+00 -0.65287859790E+03  0.30972887730E+04  0.30276966955E+04 0.  0.
        1    1    3    3  502    0 -0.10477144411E+04 -0.10139022378E+04  0.90398622537E+02  0.14607789733E+04  0.50400001928E-02 0. -1.
       -1    1    3    3    0  502  0.10477144411E+04  0.10139022378E+04 -0.74327722043E+03  0.16365097997E+04  0.50400001928E-02 0.  1.
</event>
<event>
 5   0  0.7510251E-06  0.3207110E+04  0.7818609E-02  0.8186942E-01
       -2   -1    0    0    0  501  0.00000000000E+00  0.00000000000E+00  0.13518397888E+04  0.13518397888E+04  0.25500000920E-02 0. -1.
        2   -1    0    0  501    0  0.00000000000E+00  0.00000000000E+00 -0.19021406354E+04  0.19021406354E+04  0.25500000920E-02 0.  1.
    10030    2    1    2    0    0  0.00000000000E+00  0.00000000000E+00 -0.55030084656E+03  0.32539804242E+04  0.32071104720E+04 0.  0.
        3    1    3    3  502    0 -0.41408198165E+03 -0.14026147677E+04  0.39218307173E+03  0.15141332986E+04  0.10100000352E+00 0. -1.
       -3    1    3    3    0  502  0.41408198165E+03  0.14026147677E+04 -0.94248391829E+03  0.17398471256E+04  0.10100000352E+00 0.  1.
</event>
<event>
 5   0  0.7510251E-06  0.2525965E+04  0.7818609E-02  0.8393793E-01
       -2   -1    0    0    0  501  0.00000000000E+00  0.00000000000E+00  0.84691675198E+03  0.84691675199E+03  0.25500000920E-02 0.  1.
        2   -1    0    0  501    0  0.00000000000E+00  0.00000000000E+00 -0.18834499319E+04  0.18834499319E+04  0.25500000920E-02 0. -1.
    10030    2    1    2    0    0  0.00000000000E+00  0.00000000000E+00 -0.10365331799E+04  0.27303666839E+04  0.25259653987E+04 0.  0.
        3    1    3    3  502    0  0.12375862014E+04  0.23717699062E+03 -0.42621205906E+03  0.13302365430E+04  0.10100000352E+00 0. -1.
       -3    1    3    3    0  502 -0.12375862014E+04 -0.23717699062E+03 -0.61032112083E+03  0.14001301409E+04  0.10100000352E+00 0.  1.
</event>
<event>
 5   0  0.7941434E-06  0.1663483E+04  0.7818609E-02  0.8782470E-01
       -2   -1    0    0    0  501  0.00000000000E+00  0.00000000000E+00  0.11477137276E+04  0.11477137276E+04  0.25500000920E-02 0.  1.
        2   -1    0    0  501    0  0.00000000000E+00  0.00000000000E+00 -0.60275836496E+03  0.60275836496E+03  0.25500000920E-02 0. -1.
    10030    2    1    2    0    0  0.00000000000E+00  0.00000000000E+00  0.54495536261E+03  0.17504720925E+04  0.16634831528E+04 0.  0.
        4    1    3    3  502    0  0.41466600485E+03  0.18691229144E+03 -0.46029051169E+03  0.64711132607E+03  0.12699999809E+01 0. -1.
       -4    1    3    3    0  502 -0.41466600485E+03 -0.18691229144E+03  0.10052458743E+04  0.11033607665E+04  0.12699999809E+01 0.  1.
</event>
<event>
 5   0  0.3938696E-06  0.3200584E+04  0.7818609E-02  0.8188663E-01
       -1   -1    0    0    0  501  0.00000000000E+00  0.00000000000E+00  0.19807667255E+04  0.19807667255E+04  0.50400001928E-02 0.  1.
        1   -1    0    0  501    0  0.00000000000E+00  0.00000000000E+00 -0.12929009711E+04  0.12929009711E+04  0.50400001928E-02 0. -1.
    10030    2    1    2    0    0  0.00000000000E+00  0.00000000000E+00  0.68786575442E+03  0.32736676966E+04  0.32005844609E+04 0.  0.
        4    1    3    3  502    0  0.32925954111E+03  0.10071490648E+03  0.19424296524E+04  0.19727113081E+04  0.12699999809E+01 0.  1.
       -4    1    3    3    0  502 -0.32925954111E+03 -0.10071490648E+03 -0.12545638980E+04  0.13009563885E+04  0.12699999809E+01 0. -1.
</event>
<event>
 5   0  0.2635798E-06  0.3158301E+04  0.7818609E-02  0.8199917E-01
       -1   -1    0    0    0  501  0.00000000000E+00  0.00000000000E+00  0.18493714397E+04  0.18493714397E+04  0.50400001928E-02 0. -1.
        1   -1    0    0  501    0  0.00000000000E+00  0.00000000000E+00 -0.13484132699E+04  0.13484132699E+04  0.50400001928E-02 0.  1.
    10030    2    1    2    0    0  0.00000000000E+00  0.00000000000E+00  0.50095816981E+03  0.31977847096E+04  0.31583014361E+04 0.  0.
        1    1    3    3  502    0  0.15228708914E+04  0.41317726159E+03  0.18752633400E+03  0.15890303104E+04  0.50400001928E-02 0. -1.
       -1    1    3    3    0  502 -0.15228708914E+04 -0.41317726159E+03  0.31343183581E+03  0.16087543992E+04  0.50400001928E-02 0.  1.
</event>
<event>
 5   0  0.8237664E-06  0.3319270E+04  0.7818609E-02  0.8158009E-01
       -2   -1    0    0    0  501  0.00000000000E+00  0.00000000000E+00  0.10250005250E+04  0.10250005250E+04  0.25500000920E-02 0.  1.
        2   -1    0    0  501    0  0.00000000000E+00  0.00000000000E+00 -0.26872062906E+04  0.26872062906E+04  0.25500000920E-02 0. -1.
    10030    2    1    2    0    0  0.00000000000E+00  0.00000000000E+00 -0.16622057655E+04  0.37122068156E+04  0.33192697141E+04 0.  0.
        5    1    3    3  502    0 -0.49939415074E+03 -0.12062502974E+04 -0.19770645675E+04  0.23692278683E+04  0.46999998093E+01 0. -1.
       -5    1    3    3    0  502  0.49939415074E+03  0.12062502974E+04  0.31485880200E+03  0.13429789473E+04  0.46999998093E+01 0.  1.
</event>
<event>
 5   0  0.2635798E-06  0.3157381E+04  0.7818609E-02  0.8200164E-01
       -1   -1    0    0    0  501  0.00000000000E+00  0.00000000000E+00  0.14617294825E+04  0.14617294825E+04  0.50400001928E-02 0.  1.
        1   -1    0    0  501    0  0.00000000000E+00  0.00000000000E+00 -0.17050102570E+04  0.17050102570E+04  0.50400001928E-02 0. -1.
    10030    2    1    2    0    0  0.00000000000E+00  0.00000000000E+00 -0.24328077446E+03  0.31667397395E+04  0.31573810417E+04 0.  0.
        1    1    3    3  502    0 -0.59650031070E+03  0.10709143429E+04  0.87609141720E+03  0.15067203861E+04  0.50400001928E-02 0.  1.
       -1    1    3    3    0  502  0.59650031070E+03 -0.10709143429E+04 -0.11193721917E+04  0.16600193535E+04  0.50400001928E-02 0. -1.
</event>
<event>
 5   0  0.7510251E-06  0.3156407E+04  0.7818609E-02  0.8200426E-01
        2   -1    0    0  501    0  0.00000000000E+00  0.00000000000E+00  0.23978748575E+04  0.23978748575E+04  0.25500000920E-02 0. -1.
       -2   -1    0    0    0  501  0.00000000000E+00  0.00000000000E+00 -0.10387224299E+04  0.10387224299E+04  0.25500000920E-02 0.  1.
    10030    2    1    2    0    0  0.00000000000E+00  0.00000000000E+00  0.13591524276E+04  0.34365972875E+04  0.31564070705E+04 0.  0.
        3    1    3    3  502    0 -0.10796109901E+04 -0.45879164151E+03  0.18290791965E+04  0.21729197817E+04  0.10100000352E+00 0. -1.
       -3    1    3    3    0  502  0.10796109901E+04  0.45879164151E+03 -0.46992676891E+03  0.12636775058E+04  0.10100000352E+00 0.  1.
</event>
<event>
 5   0  0.7510251E-06  0.3164447E+04  0.7818609E-02  0.8198270E-01
        2   -1    0    0  501    0  0.00000000000E+00  0.00000000000E+00  0.25819010316E+04  0.25819010316E+04  0.25500000920E-02 0.  1.
       -2   -1    0    0    0  501  0.00000000000E+00  0.00000000000E+00 -0.96960791766E+03  0.96960791767E+03  0.25500000920E-02 0. -1.
    10030    2    1    2    0    0  0.00000000000E+00  0.00000000000E+00  0.16122931140E+04  0.35515089493E+04  0.31644473027E+04 0.  0.
        3    1    3    3  502    0  0.11618602119E+04  0.10734664166E+04  0.84473811473E+03  0.17932740427E+04  0.10100000352E+00 0.  1.
       -3    1    3    3    0  502 -0.11618602119E+04 -0.10734664166E+04  0.76755499923E+03  0.17582349066E+04  0.10100000352E+00 0. -1.
</event>
<event>
 5   0  0.3938696E-06  0.1852258E+04  0.7818609E-02  0.8678992E-01
       -1   -1    0    0    0  501  0.00000000000E+00  0.00000000000E+00  0.41587520839E+03  0.41587520842E+03  0.50400001928E-02 0.  1.
        1   -1    0    0  501    0  0.00000000000E+00  0.00000000000E+00 -0.20624344631E+04  0.20624344631E+04  0.50400001928E-02 0. -1.
    10030    2    1    2    0    0  0.00000000000E+00  0.00000000000E+00 -0.16465592547E+04  0.24783096715E+04  0.18522584724E+04 0.  0.
        4    1    3    3  502    0  0.40619140781E+03  0.75514788098E+03 -0.12915275668E+04  0.15502531569E+04  0.12699999809E+01 0. -1.
       -4    1    3    3    0  502 -0.40619140781E+03 -0.75514788098E+03 -0.35503168793E+03  0.92805651458E+03  0.12699999809E+01 0.  1.
</event>
<event>
 5   0  0.2788054E-06  0.3132107E+04  0.7818609E-02  0.8206981E-01
       -1   -1    0    0    0  501  0.00000000000E+00  0.00000000000E+00  0.15678223869E+04  0.15678223869E+04  0.50400001928E-02 0. -1.
        1   -1    0    0  501    0  0.00000000000E+00  0.00000000000E+00 -0.15642863570E+04  0.15642863570E+04  0.50400001928E-02 0.  1.
    10030    2    1    2    0    0  0.00000000000E+00  0.00000000000E+00  0.35360299078E+01  0.31321087439E+04  0.31321067478E+04 0.  0.
        3    1    3    3  502    0 -0.12176356193E+04  0.98327812041E+03  0.57002063660E+02  0.15661167290E+04  0.10100000352E+00 0. -1.
       -3    1    3    3    0  502  0.12176356193E+04 -0.98327812041E+03 -0.53466033753E+02  0.15659920148E+04  0.10100000352E+00 0.  1.
</event>
<event>
 5   0  0.3938696E-06  0.3171693E+04  0.7818609E-02  0.8196333E-01
        1   -1    0    0  501    0  0.00000000000E+00  0.00000000000E+00  0.20267299353E+04  0.20267299353E+04  0.50400001928E-02 0. -1.
       -1   -1    0    0    0  501  0.00000000000E+00  0.00000000000E+00 -0.12408706126E+04  0.12408706126E+04  0.50400001928E-02 0.  1.
    10030    2    1    2    0    0  0.00000000000E+00  0.00000000000E+00  0.78585932273E+03  0.32676005479E+04  0.31716933120E+04 0.  0.
        4    1    3    3  502    0  0.40449051857E+03 -0.14204456683E+04 -0.20214302087E+03  0.14906850405E+04  0.12699999809E+01 0. -1.
       -4    1    3    3    0  502 -0.40449051857E+03  0.14204456683E+04  0.98800234360E+03  0.17769155073E+04  0.12699999809E+01 0.  1.
</event>
<event>
 5   0  0.8237664E-06  0.2992916E+04  0.7818609E-02  0.8245757E-01
        2   -1    0    0  501    0  0.00000000000E+00  0.00000000000E+00  0.11568645779E+04  0.11568645779E+04  0.25500000920E-02 0.  1.
       -2   -1    0    0    0  501  0.00000000000E+00  0.00000000000E+00 -0.19357382864E+04  0.19357382864E+04  0.25500000920E-02 0. -1.
    10030    2    1    2    0    0  0.00000000000E+00  0.00000000000E+00 -0.77887370856E+03  0.30926028643E+04  0.29929163407E+04 0.  0.
        5    1    3    3  502    0  0.98337931565E+03 -0.11097153488E+04 -0.59831308563E+03  0.15989070243E+04  0.46999998093E+01 0.  1.
       -5    1    3    3    0  502 -0.98337931565E+03  0.11097153488E+04 -0.18056062293E+03  0.14936958400E+04  0.46999998093E+01 0. -1.
</event>
<event>
 5   0  0.3938696E-06  0.2095474E+04  0.7818609E-02  0.8563240E-01
        1   -1    0    0  501    0  0.00000000000E+00  0.00000000000E+00  0.17209959788E+04  0.17209959788E+04  0.50400001928E-02 0. -1.
       -1   -1    0    0    0  501  0.00000000000E+00  0.00000000000E+00 -0.63785924291E+03  0.63785924293E+03  0.50400001928E-02 0.  1.
    10030    2    1    2    0    0  0.00000000000E+00  0.00000000000E+00  0.10831367359E+04  0.23588552217E+04  0.20954743541E+04 0.  0.
        4    1    3    3  502    0  0.44535122578E+03 -0.93082221830E+03  0.74601016710E+03  0.12733029878E+04  0.12699999809E+01 0. -1.
       -4    1    3    3    0  502 -0.44535122578E+03  0.93082221830E+03  0.33712656881E+03  0.10855522340E+04  0.12699999809E+01 0.  1.
</event>
<event>
 5   0  0.2933646E-06  0.3801677E+04  0.7818609E-02  0.8045795E-01
       -1   -1    0    0    0  501  0.00000000000E+00  0.00000000000E+00  0.17203894915E+04  0.17203894915E+04  0.50400001928E-02 0. -1.
        1   -1    0    0  501    0  0.00000000000E+00  0.00000000000E+00 -0.21002141841E+04  0.21002141841E+04  0.50400001928E-02 0.  1.
    10030    2    1    2    0    0  0.00000000000E+00  0.00000000000E+00 -0.37982469260E+03  0.38206036755E+04  0.38016766891E+04 0.  0.
        2    1    3    3  502    0  0.79326593911E+03  0.75287307082E+03 -0.17523543725E+04  0.20656317575E+04  0.25500000920E-02 0.  1.
       -2    1    3    3    0  502 -0.79326593911E+03 -0.75287307082E+03  0.13725296799E+04  0.17549719180E+04  0.25500000920E-02 0. -1.
</event>
<event>
 5   0  0.7952307E-06  0.3166916E+04  0.7818609E-02  0.8197610E-01
        2   -1    0    0  501    0  0.00000000000E+00  0.00000000000E+00  0.86729223009E+03  0.86729223009E+03  0.25500000920E-02 0. -1.
       -2   -1    0    0    0  501  0.00000000000E+00  0.00000000000E+00 -0.28909964786E+04  0.28909964786E+04  0.25500000920E-02 0.  1.
    10030    2    1    2    0    0  0.00000000000E+00  0.00000000000E+00 -0.20237042485E+04  0.37582887087E+04  0.31669157129E+04 0.  0.
        2    1    3    3  502    0  0.52879875063E+03 -0.11565892583E+04  0.10771865215E+03  0.12762954749E+04  0.25500000920E-02 0. -1.
       -2    1    3    3    0  502 -0.52879875063E+03  0.11565892583E+04 -0.21314229007E+04  0.24819932338E+04  0.25500000920E-02 0.  1.
</event>
<event>
 5   0  0.7941434E-06  0.3177937E+04  0.7818609E-02  0.8194668E-01
       -2   -1    0    0    0  501  0.00000000000E+00  0.00000000000E+00  0.14248238636E+04  0.14248238636E+04  0.25500000920E-02 0. -1.
        2   -1    0    0  501    0  0.00000000000E+00  0.00000000000E+00 -0.17720233101E+04  0.17720233101E+04  0.25500000920E-02 0.  1.
    10030    2    1    2    0    0  0.00000000000E+00  0.00000000000E+00 -0.34719944645E+03  0.31968471737E+04  0.31779371291E+04 0.  0.
        4    1    3    3  502    0  0.79824695616E+03 -0.29804439661E+03  0.11755709906E+04  0.14518944287E+04  0.12699999809E+01 0. -1.
       -4    1    3    3    0  502 -0.79824695616E+03  0.29804439661E+03 -0.15227704370E+04  0.17449527450E+04  0.12699999809E+01 0.  1.
</event>
<event>
 5   0  0.7510251E-06  0.2994009E+04  0.7818609E-02  0.8245444E-01
       -2   -1    0    0    0  501  0.00000000000E+00  0.00000000000E+00  0.17873040754E+04  0.17873040754E+04  0.25500000920E-02 0.  1.
        2   -1    0    0  501    0  0.00000000000E+00  0.00000000000E+00 -0.12538562164E+04  0.12538562164E+04  0.25500000920E-02 0. -1.
    10030    2    1    2    0    0  0.00000000000E+00  0.00000000000E+00  0.53344785903E+03  0.30411602918E+04  0.29940089015E+04 0.  0.
        3    1    3    3  502    0  0.33683796888E+03  0.82164032172E+03  0.14908883750E+04  0.17353099989E+04  0.10100000352E+00 0.  1.
       -3    1    3    3    0  502 -0.33683796888E+03 -0.82164032172E+03 -0.95744051594E+03  0.13058502928E+04  0.10100000352E+00 0. -1.
</event>
<event>
 5   0  0.2635798E-06  0.1814260E+04  0.7818609E-02  0.8698753E-01
       -1   -1    0    0    0  501  0.00000000000E+00  0.00000000000E+00  0.99463183068E+03  0.99463183070E+03  0.50400001928E-02 0. -1.
        1   -1    0    0  501    0  0.00000000000E+00  0.00000000000E+00 -0.82732639894E+03  0.82732639895E+03  0.50400001928E-02 0.  1.
    10030    2    1    2    0    0  0.00000000000E+00  0.00000000000E+00  0.16730543175E+03  0.18219582297E+04  0.18142603681E+04 0.  0.
        1    1    3    3  502    0 -0.41467689128E+03 -0.15475275585E+03  0.87883297104E+03  0.98399833872E+03  0.50400001928E-02 0. -1.
       -1    1    3    3    0  502  0.41467689128E+03  0.15475275585E+03 -0.71152753929E+03  0.83795989093E+03  0.50400001928E-02 0.  1.
</event>
<event>
 5   0  0.2788054E-06  0.3194177E+04  0.7818609E-02  0.8190357E-01
       -1   -1    0    0    0  501  0.00000000000E+00  0.00000000000E+00  0.17697668829E+04  0.17697668829E+04  0.50400001928E-02 0. -1.
        1   -1    0    0  501    0  0.00000000000E+00  0.00000000000E+00 -0.14412586542E+04  0.14412586542E+04  0.50400001928E-02 0.  1.
    10030    2    1    2    0    0  0.00000000000E+00  0.00000000000E+00  0.32850822868E+03  0.32110255371E+04  0.31941770996E+04 0.  0.
        3    1    3    3  502    0 -0.68755332947E+03 -0.11757546950E+04 -0.67414931892E+03  0.15197387927E+04  0.10100000352E+00 0.  1.
       -3    1    3    3    0  502  0.68755332947E+03  0.11757546950E+04  0.10026575476E+04  0.16912867444E+04  0.10100000352E+00 0. -1.
</event>
<event>
 5   0  0.2580875E-06  0.3043053E+04  0.7818609E-02  0.8231543E-01
       -3   -1    0    0    0  501  0.00000000000E+00  0.00000000000E+00  0.10858543650E+04  0.10858543697E+04  0.10100000352E+00 0. -1.
        3   -1    0    0  501    0  0.00000000000E+00  0.00000000000E+00 -0.21320017143E+04  0.21320017167E+04  0.10100000352E+00 0.  1.
    10030    2    1    2    0    0  0.00000000000E+00  0.00000000000E+00 -0.10461473492E+04  0.32178560864E+04  0.30430533213E+04 0.  0.
        4    1    3    3  502    0 -0.70244350624E+03 -0.10312070390E+03  0.89995615081E+03  0.11462911695E+04  0.12699999809E+01 0. -1.
       -4    1    3    3    0  502  0.70244350624E+03  0.10312070390E+03 -0.19461035000E+04  0.20715649169E+04  0.12699999809E+01 0.  1.
</event>
<event>
 5   0  0.7952307E-06  0.1656862E+04  0.7818609E-02  0.8786357E-01
        2   -1    0    0  501    0  0.00000000000E+00  0.00000000000E+00  0.63005370233E+03  0.63005370234E+03  0.25500000920E-02 0. -1.
       -2   -1    0    0    0  501  0.00000000000E+00  0.00000000000E+00 -0.10892694787E+04  0.10892694787E+04  0.25500000920E-02 0.  1.
    10030    2    1    2    0    0  0.00000000000E+00  0.00000000000E+00 -0.45921577638E+03  0.17193231811E+04  0.16568624178E+04 0.  0.
        2    1    3    3  502    0 -0.79990244332E+03  0.19771972331E+03 -0.31864009799E+03  0.88344129396E+03  0.25500000920E-02 0. -1.
       -2    1    3    3    0  502  0.79990244332E+03 -0.19771972331E+03 -0.14057567839E+03  0.83588188710E+03  0.25500000920E-02 0.  1.
</event>
<event>
 5   0  0.7952307E-06  0.1692702E+04  0.7818609E-02  0.8765538E-01
        2   -1    0    0  501    0  0.00000000000E+00  0.00000000000E+00  0.10537906292E+04  0.10537906292E+04  0.25500000920E-02 0.  1.
       -2   -1    0    0    0  501  0.00000000000E+00  0.00000000000E+00 -0.67974589251E+03  0.67974589252E+03  0.25500000920E-02 0. -1.
    10030    2    1    2    0    0  0.00000000000E+00  0.00000000000E+00  0.37404473671E+03  0.17335365217E+04  0.16927018069E+04 0.  0.
        2    1    3    3  502    0 -0.19659230111E+03  0.78059800298E+03  0.45472468901E+03  0.92453032287E+03  0.25500000920E-02 0.  1.
       -2    1    3    3    0  502  0.19659230111E+03 -0.78059800298E+03 -0.80679952295E+02  0.80900619887E+03  0.25500000920E-02 0. -1.
</event>
<event>
 5   0  0.2788054E-06  0.2581409E+04  0.7818609E-02  0.8374544E-01
        1   -1    0    0  501    0  0.00000000000E+00  0.00000000000E+00  0.10624200104E+04  0.10624200104E+04  0.50400001928E-02 0.  1.
       -1   -1    0    0    0  501  0.00000000000E+00  0.00000000000E+00 -0.15680408864E+04  0.15680408864E+04  0.50400001928E-02 0. -1.
    10030    2    1    2    0    0  0.00000000000E+00  0.00000000000E+00 -0.50562087601E+03  0.26304608969E+04  0.25814089292E+04 0.  0.
        3    1    3    3  502    0  0.61758598068E+03  0.20360972420E+03 -0.13889170930E+04  0.15336101411E+04  0.10100000352E+00 0. -1.
       -3    1    3    3    0  502 -0.61758598068E+03 -0.20360972420E+03  0.88329621700E+03  0.10968507558E+04  0.10100000352E+00 0.  1.
</event>
<event>
 5   0  0.2635798E-06  0.3256038E+04  0.7818609E-02  0.8174172E-01
        1   -1    0    0  501    0  0.00000000000E+00  0.00000000000E+00  0.22093464125E+04  0.22093464125E+04  0.50400001928E-02 0.  1.
       -1   -1    0    0    0  501  0.00000000000E+00  0.00000000000E+00 -0.11996516859E+04  0.11996516859E+04  0.50400001928E-02 0. -1.
    10030    2    1    2    0    0  0.00000000000E+00  0.00000000000E+00  0.10096947266E+04  0.34089980984E+04  0.32560381746E+04 0.  0.
        1    1    3    3  502    0 -0.28920394841E+02  0.74826243003E+03  0.20183410129E+04  0.21527734432E+04  0.50400001928E-02 0.  1.
       -1    1    3    3    0  502  0.28920394841E+02 -0.74826243003E+03 -0.10086462863E+04  0.12562246552E+04  0.50400001928E-02 0. -1.
</event>
<event>
 5   0  0.7510251E-06  0.2957687E+04  0.7818609E-02  0.8255918E-01
        2   -1    0    0  501    0  0.00000000000E+00  0.00000000000E+00  0.19710830068E+04  0.19710830068E+04  0.25500000920E-02 0. -1.
       -2   -1    0    0    0  501  0.00000000000E+00  0.00000000000E+00 -0.11095311854E+04  0.11095311854E+04  0.25500000920E-02 0.  1.
    10030    2    1    2    0    0  0.00000000000E+00  0.00000000000E+00  0.86155182136E+03  0.30806141922E+04  0.29576869781E+04 0.  0.
        3    1    3    3  502    0  0.41745564473E+03  0.58827644186E+03 -0.91386388288E+03  0.11642532345E+04  0.10100000352E+00 0.  1.
       -3    1    3    3    0  502 -0.41745564473E+03 -0.58827644186E+03  0.17754157042E+04  0.19163609578E+04  0.10100000352E+00 0. -1.
</event>
<event>
 5   0  0.8237664E-06  0.2028313E+04  0.7818609E-02  0.8593497E-01
        2   -1    0    0  501    0  0.00000000000E+00  0.00000000000E+00  0.13261135802E+04  0.13261135802E+04  0.25500000920E-02 0. -1.
       -2   -1    0    0    0  501  0.00000000000E+00  0.00000000000E+00 -0.77558446270E+03  0.77558446270E+03  0.25500000920E-02 0.  1.
    10030    2    1    2    0    0  0.00000000000E+00  0.00000000000E+00  0.55052911748E+03  0.21016980429E+04  0.20283126865E+04 0.  0.
        5    1    3    3  502    0 -0.78019577384E+03 -0.62951987356E+02  0.94343838238E+03  0.12258737576E+04  0.46999998093E+01 0. -1.
       -5    1    3    3    0  502  0.78019577384E+03  0.62951987356E+02 -0.39290926490E+03  0.87582428528E+03  0.46999998093E+01 0.  1.
</event>
<event>
 5   0  0.2933646E-06  0.3392960E+04  0.7818609E-02  0.8139636E-01
       -1   -1    0    0    0  501  0.00000000000E+00  0.00000000000E+00  0.17388602942E+04  0.17388602943E+04  0.50400001928E-02 0.  1.
        1   -1    0    0  501    0  0.00000000000E+00  0.00000000000E+00 -0.16551330246E+04  0.16551330246E+04  0.50400001928E-02 0. -1.
    10030    2    1    2    0    0  0.00000000000E+00  0.00000000000E+00  0.83727269681E+02  0.33939933188E+04  0.33929604172E+04 0.  0.
        2    1    3    3  502    0 -0.10184220870E+04  0.11021216363E+04 -0.74969859460E+03  0.16774694129E+04  0.25500000920E-02 0. -1.
       -2    1    3    3    0  502  0.10184220870E+04 -0.11021216363E+04  0.83342586428E+03  0.17165239059E+04  0.25500000920E-02 0.  1.
</event>
<event>
 5   0  0.2933646E-06  0.3240603E+04  0.7818609E-02  0.8178176E-01
       -1   -1    0    0    0  501  0.00000000000E+00  0.00000000000E+00  0.11493432009E+04  0.11493432009E+04  0.50400001928E-02 0.  1.
        1   -1    0    0  501    0  0.00000000000E+00  0.00000000000E+00 -0.22842412720E+04  0.22842412720E+04  0.50400001928E-02 0. -1.
    10030    2    1    2    0    0  0.00000000000E+00  0.00000000000E+00 -0.11348980711E+04  0.34335844729E+04  0.32406031384E+04 0.  0.
        2    1    3    3  502    0  0.59351835023E+03 -0.60331092483E+03  0.89654576238E+03  0.12328999992E+04  0.25500000920E-02 0.  1.
       -2    1    3    3    0  502 -0.59351835023E+03  0.60331092483E+03 -0.20314438335E+04  0.22006844737E+04  0.25500000920E-02 0. -1.
</event>
<event>
 5   0  0.2788054E-06  0.3183872E+04  0.7818609E-02  0.8193090E-01
        1   -1    0    0  501    0  0.00000000000E+00  0.00000000000E+00  0.14927665085E+04  0.14927665085E+04  0.50400001928E-02 0. -1.
       -1   -1    0    0    0  501  0.00000000000E+00  0.00000000000E+00 -0.16976938684E+04  0.16976938684E+04  0.50400001928E-02 0.  1.
    10030    2    1    2    0    0  0.00000000000E+00  0.00000000000E+00 -0.20492735990E+03  0.31904603769E+04  0.31838722013E+04 0.  0.
        3    1    3    3  502    0  0.15418574404E+04  0.22214564778E+03 -0.43114770907E+03  0.16163419850E+04  0.10100000352E+00 0.  1.
       -3    1    3    3    0  502 -0.15418574404E+04 -0.22214564778E+03  0.22622034917E+03  0.15741183919E+04  0.10100000352E+00 0. -1.
</event>
<event>
 5   0  0.7510251E-06  0.3244742E+04  0.7818609E-02  0.8177100E-01
       -2   -1    0    0    0  501  0.00000000000E+00  0.00000000000E+00  0.13835465493E+04  0.13835465493E+04  0.25500000920E-02 0.  1.
        2   -1    0    0  501    0  0.00000000000E+00  0.00000000000E+00 -0.19024212109E+04  0.19024212109E+04  0.25500000920E-02 0. -1.
    10030    2    1    2    0    0  0.00000000000E+00  0.00000000000E+00 -0.51887466159E+03  0.32859677603E+04  0.32447423945E+04 0.  0.
        3    1    3    3  502    0 -0.28074791853E+03  0.15709435447E+04  0.36517496591E+02  0.15962507798E+04  0.10100000352E+00 0. -1.
       -3    1    3    3    0  502  0.28074791853E+03 -0.15709435447E+04 -0.55539215819E+03  0.16897169804E+04  0.10100000352E+00 0.  1.
</event>
<event>
 5   0  0.4142886E-06  0.3198152E+04  0.7818609E-02  0.8189305E-01
       -1   -1    0    0    0  501  0.00000000000E+00  0.00000000000E+00  0.14151429418E+04  0.14151429418E+04  0.50400001928E-02 0. -1.
        1   -1    0    0  501    0  0.00000000000E+00  0.00000000000E+00 -0.18069162677E+04  0.18069162677E+04  0.50400001928E-02 0.  1.
    10030    2    1    2    0    0  0.00000000000E+00  0.00000000000E+00 -0.39177332596E+03  0.32220592095E+04  0.31981524683E+04 0.  0.
        5    1    3    3  502    0 -0.27390028961E+03 -0.14243640697E+04  0.48233821593E+03  0.15285635794E+04  0.46999998093E+01 0. -1.
       -5    1    3    3    0  502  0.27390028961E+03  0.14243640697E+04 -0.87411154189E+03  0.16934956301E+04  0.46999998093E+01 0.  1.
</event>
<event>
 5   0  0.3938696E-06  0.3224879E+04  0.7818609E-02  0.8182277E-01
        1   -1    0    0  501    0  0.00000000000E+00  0.00000000000E+00  0.30287818230E+04  0.30287818230E+04  0.50400001928E-02 0. -1.
       -1   -1    0    0    0  501  0.00000000000E+00  0.00000000000E+00 -0.85841832211E+03  0.85841832213E+03  0.50400001928E-02 0.  1.
    10030    2    1    2    0    0  0.00000000000E+00  0.00000000000E+00  0.21703635009E+04  0.38872001451E+04  0.32248794151E+04 0.  0.
        4    1    3    3  502    0  0.42207639369E+03  0.10665218754E+04  0.24512232736E+04  0.27063101342E+04  0.12699999809E+01 0. -1.
       -4    1    3    3    0  502 -0.42207639369E+03 -0.10665218754E+04 -0.28085977271E+03  0.11808900109E+04  0.12699999809E+01 0.  1.
</event>
<event>
 5   0  0.7510251E-06  0.3138921E+04  0.7818609E-02  0.8205137E-01
        2   -1    0    0  501    0  0.00000000000E+00  0.00000000000E+00  0.11456347315E+04  0.11456347315E+04  0.25500000920E-02 0.  1.
       -2   -1    0    0    0  501  0.00000000000E+00  0.00000000000E+00 -0.21500793837E+04  0.21500793837E+04  0.25500000920E-02 0. -1.
    10030    2    1    2    0    0  0.00000000000E+00  0.00000000000E+00 -0.10044446522E+04  0.32957141152E+04  0.31389205899E+04 0.  0.
        3    1    3    3  502    0  0.83813338505E+03  0.86886037593E+03 -0.15552245014E+04  0.19687836813E+04  0.10100000352E+00 0. -1.
       -3    1    3    3    0  502 -0.83813338505E+03 -0.86886037593E+03  0.55077984911E+03  0.13269304339E+04  0.10100000352E+00 0.  1.
</event>
<event>
 5   0  0.8237664E-06  0.3146282E+04  0.7818609E-02  0.8203150E-01
       -2   -1    0    0    0  501  0.00000000000E+00  0.00000000000E+00  0.99271551417E+03  0.99271551418E+03  0.25500000920E-02 0.  1.
        2   -1    0    0  501    0  0.00000000000E+00  0.00000000000E+00 -0.24929331009E+04  0.24929331009E+04  0.25500000920E-02 0. -1.
    10030    2    1    2    0    0  0.00000000000E+00  0.00000000000E+00 -0.15002175868E+04  0.34856486151E+04  0.31462824826E+04 0.  0.
        5    1    3    3  502    0  0.67179148034E+03  0.12171338894E+04  0.65531339143E+02  0.13917740996E+04  0.46999998093E+01 0.  1.
       -5    1    3    3    0  502 -0.67179148034E+03 -0.12171338894E+04 -0.15657489259E+04  0.20938745155E+04  0.46999998093E+01 0. -1.
</event>
<event>
 5   0  0.8237664E-06  0.3157754E+04  0.7818609E-02  0.8200064E-01
        2   -1    0    0  501    0  0.00000000000E+00  0.00000000000E+00  0.13383464044E+04  0.13383464044E+04  0.25500000920E-02 0.  1.
       -2   -1    0    0    0  501  0.00000000000E+00  0.00000000000E+00 -0.18626364957E+04  0.18626364957E+04  0.25500000920E-02 0. -1.
    10030    2    1    2    0    0  0.00000000000E+00  0.00000000000E+00 -0.52429009133E+03  0.32009829001E+04  0.31577541745E+04 0.  0.
        5    1    3    3  502    0 -0.12513055591E+04 -0.93373863834E+03 -0.23987672651E+02  0.15614835719E+04  0.46999998093E+01 0. -1.
       -5    1    3    3    0  502  0.12513055591E+04  0.93373863834E+03 -0.50030241868E+03  0.16394993282E+04  0.46999998093E+01 0.  1.
</event>
<event>
 5   0  0.8237664E-06  0.2294303E+04  0.7818609E-02  0.8480171E-01
       -2   -1    0    0    0  501  0.00000000000E+00  0.00000000000E+00  0.78650813679E+03  0.78650813680E+03  0.25500000920E-02 0.  1.
        2   -1    0    0  501    0  0.00000000000E+00  0.00000000000E+00 -0.16731628858E+04  0.16731628858E+04  0.25500000920E-02 0. -1.
    10030    2    1    2    0    0  0.00000000000E+00  0.00000000000E+00 -0.88665474904E+03  0.24596710226E+04  0.22943027036E+04 0.  0.
        5    1    3    3  502    0  0.42064151103E+03  0.37195896290E+03 -0.15157489377E+04  0.16164187833E+04  0.46999998093E+01 0. -1.
       -5    1    3    3    0  502 -0.42064151103E+03 -0.37195896290E+03  0.62909418868E+03  0.84325223931E+03  0.46999998093E+01 0.  1.
</event>
<event>
 5   0  0.7952307E-06  0.2174298E+04  0.7818609E-02  0.8529203E-01
       -2   -1    0    0    0  501  0.00000000000E+00  0.00000000000E+00  0.15507005994E+04  0.15507005994E+04  0.25500000920E-02 0.  1.
        2   -1    0    0  501    0  0.00000000000E+00  0.00000000000E+00 -0.76216710386E+03  0.76216710386E+03  0.25500000920E-02 0. -1.
    10030    2    1    2    0    0  0.00000000000E+00  0.00000000000E+00  0.78853349559E+03  0.23128677033E+04  0.21742980337E+04 0.  0.
        2    1    3    3  502    0 -0.33808903942E+03  0.10332414136E+04  0.39531308191E+03  0.11567905817E+04  0.25500000920E-02 0.  1.
       -2    1    3    3    0  502  0.33808903942E+03 -0.10332414136E+04  0.39322041368E+03  0.11560771216E+04  0.25500000920E-02 0. -1.
</event>
<event>
 5   0  0.7941434E-06  0.3310365E+04  0.7818609E-02  0.8160263E-01
       -2   -1    0    0    0  501  0.00000000000E+00  0.00000000000E+00  0.14215949541E+04  0.14215949541E+04  0.25500000920E-02 0. -1.
        2   -1    0    0  501    0  0.00000000000E+00  0.00000000000E+00 -0.19271514255E+04  0.19271514255E+04  0.25500000920E-02 0.  1.
    10030    2    1    2    0    0  0.00000000000E+00  0.00000000000E+00 -0.50555647147E+03  0.33487463796E+04  0.33103647788E+04 0.  0.
        4    1    3    3  502    0  0.69021291777E+03  0.12163525551E+04  0.64276548187E+03  0.15391739628E+04  0.12699999809E+01 0. -1.
       -4    1    3    3    0  502 -0.69021291777E+03 -0.12163525551E+04 -0.11483219533E+04  0.18095724168E+04  0.12699999809E+01 0.  1.
</event>
<event>
 5   0  0.7510251E-06  0.3094658E+04  0.7818609E-02  0.8217206E-01
        2   -1    0    0  501    0  0.00000000000E+00  0.00000000000E+00  0.12265624232E+04  0.12265624232E+04  0.25500000920E-02 0. -1.
       -2   -1    0    0    0  501  0.00000000000E+00  0.00000000000E+00 -0.19519812360E+04  0.19519812360E+04  0.25500000920E-02 0.  1.
    10030    2    1    2    0    0  0.00000000000E+00  0.00000000000E+00 -0.72541881280E+03  0.31785436591E+04  0.30946578711E+04 0.  0.
        3    1    3    3  502    0 -0.14215882853E+04  0.60377321418E+03 -0.26651453617E+03  0.15673178859E+04  0.10100000352E+00 0.  1.
       -3    1    3    3    0  502  0.14215882853E+04 -0.60377321418E+03 -0.45890427662E+03  0.16112257733E+04  0.10100000352E+00 0. -1.
</event>
<event>
 5   0  0.8237664E-06  0.2988411E+04  0.7818609E-02  0.8247048E-01
       -2   -1    0    0    0  501  0.00000000000E+00  0.00000000000E+00  0.93501856749E+03  0.93501856750E+03  0.25500000920E-02 0. -1.
        2   -1    0    0  501    0  0.00000000000E+00  0.00000000000E+00 -0.23878129322E+04  0.23878129322E+04  0.25500000920E-02 0.  1.
    10030    2    1    2    0    0  0.00000000000E+00  0.00000000000E+00 -0.14527943647E+04  0.33228314997E+04  0.29884105657E+04 0.  0.
        5    1    3    3  502    0  0.51615465759E+03 -0.13991371238E+04 -0.62312143533E+03  0.16162619636E+04  0.46999998093E+01 0. -1.
       -5    1    3    3    0  502 -0.51615465759E+03  0.13991371238E+04 -0.82967292933E+03  0.17065695361E+04  0.46999998093E+01 0.  1.
</event>
<event>
 5   0  0.7971763E-06  0.3179248E+04  0.7818609E-02  0.8194319E-01
       -2   -1    0    0    0  501  0.00000000000E+00  0.00000000000E+00  0.15854399654E+04  0.15854399654E+04  0.25500000920E-02 0.  1.
        2   -1    0    0  501    0  0.00000000000E+00  0.00000000000E+00 -0.15938187481E+04  0.15938187481E+04  0.25500000920E-02 0. -1.
    10030    2    1    2    0    0  0.00000000000E+00  0.00000000000E+00 -0.83787827022E+01  0.31792587136E+04  0.31792476726E+04 0.  0.
        1    1    3    3  502    0  0.78801590002E+03  0.61821837642E+03 -0.12385926904E+04  0.15928825670E+04  0.50400001928E-02 0. -1.
       -1    1    3    3    0  502 -0.78801590002E+03 -0.61821837642E+03  0.12302139077E+04  0.15863761465E+04  0.50400001928E-02 0.  1.
</event>
<event>
 5   0  0.7971763E-06  0.3397628E+04  0.7818609E-02  0.8138489E-01
        2   -1    0    0  501    0  0.00000000000E+00  0.00000000000E+00  0.13057840537E+04  0.13057840537E+04  0.25500000920E-02 0.  1.
       -2   -1    0    0    0  501  0.00000000000E+00  0.00000000000E+00 -0.22101426573E+04  0.22101426573E+04  0.25500000920E-02 0. -1.
    10030    2    1    2    0    0  0.00000000000E+00  0.00000000000E+00 -0.90435860360E+03  0.35159267111E+04  0.33976280188E+04 0.  0.
        1    1    3    3  502    0  0.92154824997E+03  0.14231412235E+03 -0.19216444160E+04  0.21359358015E+04  0.50400001928E-02 0. -1.
       -1    1    3    3    0  502 -0.92154824997E+03 -0.14231412235E+03  0.10172858124E+04  0.13799909096E+04  0.50400001928E-02 0.  1.
</event>
<event>
 5   0  0.2933646E-06  0.3103875E+04  0.7818609E-02  0.8214675E-01
        1   -1    0    0  501    0  0.00000000000E+00  0.00000000000E+00  0.21819234781E+04  0.21819234781E+04  0.50400001928E-02 0. -1.
       -1   -1    0    0    0  501  0.00000000000E+00  0.00000000000E+00 -0.11038474557E+04  0.11038474557E+04  0.50400001928E-02 0.  1.
    10030    2    1    2    0    0  0.00000000000E+00  0.00000000000E+00  0.10780760224E+04  0.32857709339E+04  0.31038754356E+04 0.  0.
        2    1    3    3  502    0 -0.11501239690E+04 -0.85972855629E+03  0.11622595913E+04  0.18473672326E+04  0.25500000920E-02 0. -1.
       -2    1    3    3    0  502  0.11501239690E+04  0.85972855629E+03 -0.84183568920E+02  0.14384037013E+04  0.25500000920E-02 0.  1.
</event>
<event>
 5   0  0.8181367E-06  0.1628960E+04  0.7818609E-02  0.8802951E-01
        2   -1    0    0  501    0  0.00000000000E+00  0.00000000000E+00  0.15186265134E+04  0.15186265134E+04  0.25500000920E-02 0.  1.
       -2   -1    0    0    0  501  0.00000000000E+00  0.00000000000E+00 -0.43682763158E+03  0.43682763158E+03  0.25500000920E-02 0. -1.
    10030    2    1    2    0    0  0.00000000000E+00  0.00000000000E+00  0.10817988819E+04  0.19554541450E+04  0.16289604331E+04 0.  0.
        3    1    3    3  502    0 -0.45385141240E+02 -0.15185399274E+03  0.14999365830E+04  0.15082868458E+04  0.10100000352E+00 0.  1.
       -3    1    3    3    0  502  0.45385141240E+02  0.15185399274E+03 -0.41813770112E+03  0.44716729918E+03  0.10100000352E+00 0. -1.
</event>
<event>
 5   0  0.2635798E-06  0.3260947E+04  0.7818609E-02  0.8172904E-01
       -1   -1    0    0    0  501  0.00000000000E+00  0.00000000000E+00  0.20516547420E+04  0.20516547420E+04  0.50400001928E-02 0. -1.
        1   -1    0    0  501    0  0.00000000000E+00  0.00000000000E+00 -0.12957561643E+04  0.12957561643E+04  0.50400001928E-02 0.  1.
    10030    2    1    2    0    0  0.00000000000E+00  0.00000000000E+00  0.75589857768E+03  0.33474109063E+04  0.32609472727E+04 0.  0.
        1    1    3    3  502    0  0.14876748538E+04  0.55436691945E+03  0.75920682035E+03  0.17597994625E+04  0.50400001928E-02 0. -1.
       -1    1    3    3    0  502 -0.14876748538E+04 -0.55436691945E+03 -0.33082426638E+01  0.15876114438E+04  0.50400001928E-02 0.  1.
</event>
<event>
 5   0  0.2788054E-06  0.3200666E+04  0.7818609E-02  0.8188641E-01
       -1   -1    0    0    0  501  0.00000000000E+00  0.00000000000E+00  0.19509023037E+04  0.19509023037E+04  0.50400001928E-02 0.  1.
        1   -1    0    0  501    0  0.00000000000E+00  0.00000000000E+00 -0.13127594163E+04  0.13127594163E+04  0.50400001928E-02 0. -1.
    10030    2    1    2    0    0  0.00000000000E+00  0.00000000000E+00  0.63814288738E+03  0.32636617199E+04  0.32006657866E+04 0.  0.
        3    1    3    3  502    0  0.20804667023E+03  0.14654919368E+04  0.93941652668E+03  0.17531267651E+04  0.10100000352E+00 0.  1.
       -3    1    3    3    0  502 -0.20804667023E+03 -0.14654919368E+04 -0.30127363930E+03  0.15105349548E+04  0.10100000352E+00 0. -1.
</event>
<event>
 5   0  0.7941434E-06  0.3269493E+04  0.7818609E-02  0.8170701E-01
        2   -1    0    0  501    0  0.00000000000E+00  0.00000000000E+00  0.20323943091E+04  0.20323943091E+04  0.25500000920E-02 0. -1.
       -2   -1    0    0    0  501  0.00000000000E+00  0.00000000000E+00 -0.13149005723E+04  0.13149005723E+04  0.25500000920E-02 0.  1.
    10030    2    1    2    0    0  0.00000000000E+00  0.00000000000E+00  0.71749373681E+03  0.33472948815E+04  0.32694931964E+04 0.  0.
        4    1    3    3  502    0  0.69379587613E+03 -0.12428537550E+04  0.11818412690E+04  0.18500779908E+04  0.12699999809E+01 0. -1.
       -4    1    3    3    0  502 -0.69379587613E+03  0.12428537550E+04 -0.46434753218E+03  0.14972168907E+04  0.12699999809E+01 0.  1.
</event>
<event>
 5   0  0.3938696E-06  0.3212492E+04  0.7818609E-02  0.8185526E-01
        1   -1    0    0  501    0  0.00000000000E+00  0.00000000000E+00  0.15206758543E+04  0.15206758543E+04  0.50400001928E-02 0. -1.
       -1   -1    0    0    0  501  0.00000000000E+00  0.00000000000E+00 -0.16966311354E+04  0.16966311354E+04  0.50400001928E-02 0.  1.
    10030    2    1    2    0    0  0.00000000000E+00  0.00000000000E+00 -0.17595528116E+03  0.32173069897E+04  0.32124918685E+04 0.  0.
        4    1    3    3  502    0 -0.60168776863E+03  0.14810750039E+04  0.68503314176E+02  0.16000955144E+04  0.12699999809E+01 0. -1.
       -4    1    3    3    0  502  0.60168776863E+03 -0.14810750039E+04 -0.24445859534E+03  0.16172114753E+04  0.12699999809E+01 0.  1.
</event>
<event>
 5   0  0.7952307E-06  0.3203213E+04  0.7818609E-02  0.8187969E-01
        2   -1    0    0  501    0  0.00000000000E+00  0.00000000000E+00  0.27610209710E+04  0.27610209710E+04  0.25500000920E-02 0. -1.
       -2   -1    0    0    0  501  0.00000000000E+00  0.00000000000E+00 -0.92905618389E+03  0.92905618390E+03  0.25500000920E-02 0.  1.
    10030    2    1    2    0    0  0.00000000000E+00  0.00000000000E+00  0.18319647871E+04  0.36900771549E+04  0.32032131412E+04 0.  0.
        2    1    3    3  502    0  0.15660221091E+04  0.19449002068E+03  0.12312412551E+04  0.20015510591E+04  0.25500000920E-02 0. -1.
       -2    1    3    3    0  502 -0.15660221091E+04 -0.19449002068E+03  0.60072353208E+03  0.16885260958E+04  0.25500000920E-02 0.  1.
</event>
<event>
 5   0  0.7971763E-06  0.3183338E+04  0.7818609E-02  0.8193231E-01
        2   -1    0    0  501    0  0.00000000000E+00  0.00000000000E+00  0.20785179323E+04  0.20785179323E+04  0.25500000920E-02 0.  1.
       -2   -1    0    0    0  501  0.00000000000E+00  0.00000000000E+00 -0.12188543089E+04  0.12188543089E+04  0.25500000920E-02 0. -1.
    10030    2    1    2    0    0  0.00000000000E+00  0.00000000000E+00  0.85966362336E+03  0.32973722412E+04  0.31833382088E+04 0.  0.
        1    1    3    3  502    0 -0.48022263303E+03 -0.81757848221E+03 -0.89438576562E+03  0.13034470644E+04  0.50400001928E-02 0. -1.
       -1    1    3    3    0  502  0.48022263303E+03  0.81757848221E+03  0.17540493890E+04  0.19939251768E+04  0.50400001928E-02 0.  1.
</event>
<event>
 5   0  0.8237664E-06  0.3159080E+04  0.7818609E-02  0.8199708E-01
        2   -1    0    0  501    0  0.00000000000E+00  0.00000000000E+00  0.14888001064E+04  0.14888001064E+04  0.25500000920E-02 0. -1.
       -2   -1    0    0    0  501  0.00000000000E+00  0.00000000000E+00 -0.16758101422E+04  0.16758101422E+04  0.25500000920E-02 0.  1.
    10030    2    1    2    0    0  0.00000000000E+00  0.00000000000E+00 -0.18701003573E+03  0.31646102486E+04  0.31590798141E+04 0.  0.
        5    1    3    3  502    0 -0.71963000976E+03 -0.87802354594E+01  0.13150076133E+04  0.14990702307E+04  0.46999998093E+01 0. -1.
       -5    1    3    3    0  502  0.71963000976E+03  0.87802354594E+01 -0.15020176490E+04  0.16655400180E+04  0.46999998093E+01 0.  1.
</event>
<event>
 5   0  0.2933646E-06  0.3206224E+04  0.7818609E-02  0.8187175E-01
       -1   -1    0    0    0  501  0.00000000000E+00  0.00000000000E+00  0.82069967827E+03  0.82069967829E+03  0.50400001928E-02 0.  1.
        1   -1    0    0  501    0  0.00000000000E+00  0.00000000000E+00 -0.31314353724E+04  0.31314353724E+04  0.50400001928E-02 0. -1.
    10030    2    1    2    0    0  0.00000000000E+00  0.00000000000E+00 -0.23107356941E+04  0.39521350507E+04  0.32062239489E+04 0.  0.
        2    1    3    3  502    0 -0.13068484014E+04  0.31969167702E+03 -0.80834954363E+02  0.13478092604E+04  0.25500000920E-02 0.  1.
       -2    1    3    3    0  502  0.13068484014E+04 -0.31969167702E+03 -0.22299007398E+04  0.26043257903E+04  0.25500000920E-02 0. -1.
</event>
<event>
 5   0  0.3938696E-06  0.3112135E+04  0.7818609E-02  0.8212416E-01
       -1   -1    0    0    0  501  0.00000000000E+00  0.00000000000E+00  0.11906941032E+04  0.11906941032E+04  0.50400001928E-02 0. -1.
        1   -1    0    0  501    0  0.00000000000E+00  0.00000000000E+00 -0.20335580454E+04  0.20335580454E+04  0.50400001928E-02 0.  1.
    10030    2    1    2    0    0  0.00000000000E+00  0.00000000000E+00 -0.84286394221E+03  0.32242521486E+04  0.31121346842E+04 0.  0.
        4    1    3    3  502    0  0.15862605499E+03  0.78009005474E+03 -0.18066265936E+04  0.19742350368E+04  0.12699999809E+01 0.  1.
       -4    1    3    3    0  502 -0.15862605499E+03 -0.78009005474E+03  0.96376265137E+03  0.12500171118E+04  0.12699999809E+01 0. -1.
</event>
<event>
 5   0  0.7941434E-06  0.2799352E+04  0.7818609E-02  0.8303470E-01
        2   -1    0    0  501    0  0.00000000000E+00  0.00000000000E+00  0.18701015842E+04  0.18701015842E+04  0.25500000920E-02 0.  1.
       -2   -1    0    0    0  501  0.00000000000E+00  0.00000000000E+00 -0.10475862114E+04  0.10475862114E+04  0.25500000920E-02 0. -1.
    10030    2    1    2    0    0  0.00000000000E+00  0.00000000000E+00  0.82251537283E+03  0.29176877956E+04  0.27993518061E+04 0.  0.
        4    1    3    3  502    0  0.11113790671E+04  0.53771363892E+03 -0.27600367179E+03  0.12651004023E+04  0.12699999809E+01 0. -1.
       -4    1    3    3    0  502 -0.11113790671E+04 -0.53771363892E+03  0.10985190446E+04  0.16525873933E+04  0.12699999809E+01 0.  1.
</event>
<event>
 5   0  0.7510251E-06  0.3127460E+04  0.7818609E-02  0.8208242E-01
       -2   -1    0    0    0  501  0.00000000000E+00  0.00000000000E+00  0.13554636391E+04  0.13554636391E+04  0.25500000920E-02 0. -1.
        2   -1    0    0  501    0  0.00000000000E+00  0.00000000000E+00 -0.18039962965E+04  0.18039962965E+04  0.25500000920E-02 0.  1.
    10030    2    1    2    0    0  0.00000000000E+00  0.00000000000E+00 -0.44853265740E+03  0.31594599357E+04  0.31274599183E+04 0.  0.
        3    1    3    3  502    0  0.61602298908E+03 -0.13219843287E+04 -0.79406266097E+03  0.16606210911E+04  0.10100000352E+00 0.  1.
       -3    1    3    3    0  502 -0.61602298908E+03  0.13219843287E+04  0.34553000357E+03  0.14988388446E+04  0.10100000352E+00 0. -1.
</event>
<event>
 5   0  0.2635798E-06  0.3269627E+04  0.7818609E-02  0.8170667E-01
       -1   -1    0    0    0  501  0.00000000000E+00  0.00000000000E+00  0.28964962692E+04  0.28964962692E+04  0.50400001928E-02 0. -1.
        1   -1    0    0  501    0  0.00000000000E+00  0.00000000000E+00 -0.92270626538E+03  0.92270626540E+03  0.50400001928E-02 0.  1.
    10030    2    1    2    0    0  0.00000000000E+00  0.00000000000E+00  0.19737900039E+04  0.38192025346E+04  0.32696270462E+04 0.  0.
        1    1    3    3  502    0  0.39887148331E+03 -0.14875989826E+04  0.34650514670E+03  0.15786434081E+04  0.50400001928E-02 0.  1.
       -1    1    3    3    0  502 -0.39887148331E+03  0.14875989826E+04  0.16272848572E+04  0.22405591266E+04  0.50400001928E-02 0. -1.
</event>
<event>
 5   0  0.2788054E-06  0.2928470E+04  0.7818609E-02  0.8264457E-01
       -1   -1    0    0    0  501  0.00000000000E+00  0.00000000000E+00  0.11197355452E+04  0.11197355452E+04  0.50400001928E-02 0.  1.
        1   -1    0    0  501    0  0.00000000000E+00  0.00000000000E+00 -0.19147240150E+04  0.19147240150E+04  0.50400001928E-02 0. -1.
    10030    2    1    2    0    0  0.00000000000E+00  0.00000000000E+00 -0.79498846987E+03  0.30344595602E+04  0.29284702756E+04 0.  0.
        3    1    3    3  502    0 -0.65063122375E+03  0.46653540756E+03  0.87284940168E+03  0.11844164656E+04  0.10100000352E+00 0.  1.
       -3    1    3    3    0  502  0.65063122375E+03 -0.46653540756E+03 -0.16678378715E+04  0.18500430946E+04  0.10100000352E+00 0. -1.
</event>
<event>
 5   0  0.2933646E-06  0.3159681E+04  0.7818609E-02  0.8199547E-01
       -1   -1    0    0    0  501  0.00000000000E+00  0.00000000000E+00  0.81171491423E+03  0.81171491425E+03  0.50400001928E-02 0. -1.
        1   -1    0    0  501    0  0.00000000000E+00  0.00000000000E+00 -0.30748437658E+04  0.30748437658E+04  0.50400001928E-02 0.  1.
    10030    2    1    2    0    0  0.00000000000E+00  0.00000000000E+00 -0.22631288515E+04  0.38865586800E+04  0.31596813407E+04 0.  0.
        2    1    3    3  502    0 -0.91305353955E+03 -0.70784608513E+03 -0.24570420742E+04  0.27151001087E+04  0.25500000920E-02 0.  1.
       -2    1    3    3    0  502  0.91305353955E+03  0.70784608513E+03  0.19391322262E+03  0.11714585713E+04  0.25500000920E-02 0. -1.
</event>
<event>
 5   0  0.2933646E-06  0.1787776E+04  0.7818609E-02  0.8712827E-01
        1   -1    0    0  501    0  0.00000000000E+00  0.00000000000E+00  0.22640008475E+04  0.22640008475E+04  0.50400001928E-02 0.  1.
       -1   -1    0    0    0  501  0.00000000000E+00  0.00000000000E+00 -0.35293073188E+03  0.35293073192E+03  0.50400001928E-02 0. -1.
    10030    2    1    2    0    0  0.00000000000E+00  0.00000000000E+00  0.19110701156E+04  0.26169315794E+04  0.17877756863E+04 0.  0.
        2    1    3    3  502    0  0.38484424052E+03  0.38190462732E+03  0.19958362629E+04  0.20681679386E+04  0.25500000920E-02 0.  1.
       -2    1    3    3    0  502 -0.38484424052E+03 -0.38190462732E+03 -0.84766147250E+02  0.54876364088E+03  0.25500000920E-02 0. -1.
</event>
<event>
 5   0  0.8237664E-06  0.2744608E+04  0.7818609E-02  0.8320675E-01
       -2   -1    0    0    0  501  0.00000000000E+00  0.00000000000E+00  0.77966641346E+03  0.77966641347E+03  0.25500000920E-02 0.  1.
        2   -1    0    0  501    0  0.00000000000E+00  0.00000000000E+00 -0.24154155765E+04  0.24154155765E+04  0.25500000920E-02 0. -1.
    10030    2    1    2    0    0  0.00000000000E+00  0.00000000000E+00 -0.16357491630E+04  0.31950819900E+04  0.27446080956E+04 0.  0.
        5    1    3    3  502    0 -0.35970937999E+03  0.10433976288E+04  0.13153565578E+03  0.11114824194E+04  0.46999998093E+01 0.  1.
       -5    1    3    3    0  502  0.35970937999E+03 -0.10433976288E+04 -0.17672848188E+04  0.20835995706E+04  0.46999998093E+01 0. -1.
</event>
<event>
 5   0  0.2788054E-06  0.3160710E+04  0.7818609E-02  0.8199271E-01
       -1   -1    0    0    0  501  0.00000000000E+00  0.00000000000E+00  0.16698748265E+04  0.16698748266E+04  0.50400001928E-02 0.  1.
        1   -1    0    0  501    0  0.00000000000E+00  0.00000000000E+00 -0.14956340628E+04  0.14956340628E+04  0.50400001928E-02 0. -1.
    10030    2    1    2    0    0  0.00000000000E+00  0.00000000000E+00  0.17424076376E+03  0.31655088893E+04  0.31607098387E+04 0.  0.
        3    1    3    3  502    0 -0.74354612903E+03  0.11899811244E+03 -0.13044136812E+04  0.15061595064E+04  0.10100000352E+00 0. -1.
       -3    1    3    3    0  502  0.74354612903E+03 -0.11899811244E+03  0.14786544450E+04  0.16593493829E+04  0.10100000352E+00 0.  1.
</event>
<event>
 5   0  0.4142886E-06  0.3112421E+04  0.7818609E-02  0.8212337E-01
       -1   -1    0    0    0  501  0.00000000000E+00  0.00000000000E+00  0.17469054966E+04  0.17469054966E+04  0.50400001928E-02 0. -1.
        1   -1    0    0  501    0  0.00000000000E+00  0.00000000000E+00 -0.13863317414E+04  0.13863317414E+04  0.50400001928E-02 0.  1.
    10030    2    1    2    0    0  0.00000000000E+00  0.00000000000E+00  0.36057375520E+03  0.31332372380E+04  0.31124206265E+04 0.  0.
        5    1    3    3  502    0  0.14110154890E+04 -0.25460803379E+03  0.78929456403E+03  0.16367033817E+04  0.46999998093E+01 0. -1.
       -5    1    3    3    0  502 -0.14110154890E+04  0.25460803379E+03 -0.42872080883E+03  0.14965338563E+04  0.46999998093E+01 0.  1.
</event>
<event>
 5   0  0.2635798E-06  0.2938648E+04  0.7818609E-02  0.8261471E-01
        1   -1    0    0  501    0  0.00000000000E+00  0.00000000000E+00  0.16283804886E+04  0.16283804886E+04  0.50400001928E-02 0. -1.
       -1   -1    0    0    0  501  0.00000000000E+00  0.00000000000E+00 -0.13258038254E+04  0.13258038254E+04  0.50400001928E-02 0.  1.
    10030    2    1    2    0    0  0.00000000000E+00  0.00000000000E+00  0.30257666319E+03  0.29541843140E+04  0.29386480435E+04 0.  0.
        1    1    3    3  502    0  0.92327834401E+03  0.10953839271E+04  0.47951754900E+03  0.15107104051E+04  0.50400001928E-02 0. -1.
       -1    1    3    3    0  502 -0.92327834401E+03 -0.10953839271E+04 -0.17694088581E+03  0.14434739088E+04  0.50400001928E-02 0.  1.
</event>
<event>
 5   0  0.7952307E-06  0.3077565E+04  0.7818609E-02  0.8221922E-01
       -2   -1    0    0    0  501  0.00000000000E+00  0.00000000000E+00  0.10655707374E+04  0.10655707374E+04  0.25500000920E-02 0.  1.
        2   -1    0    0  501    0  0.00000000000E+00  0.00000000000E+00 -0.22221435915E+04  0.22221435915E+04  0.25500000920E-02 0. -1.
    10030    2    1    2    0    0  0.00000000000E+00  0.00000000000E+00 -0.11565728540E+04  0.32877143289E+04  0.30775647421E+04 0.  0.
        2    1    3    3  502    0 -0.53417258067E+03  0.13127031671E+04  0.62079651221E+02  0.14185851522E+04  0.25500000920E-02 0. -1.
       -2    1    3    3    0  502  0.53417258067E+03 -0.13127031671E+04 -0.12186525053E+04  0.18691291768E+04  0.25500000920E-02 0.  1.
</event>
<event>
 5   0  0.7971763E-06  0.1972378E+04  0.7818609E-02  0.8619645E-01
        2   -1    0    0  501    0  0.00000000000E+00  0.00000000000E+00  0.63893641846E+03  0.63893641846E+03  0.25500000920E-02 0. -1.
       -2   -1    0    0    0  501  0.00000000000E+00  0.00000000000E+00 -0.15221682709E+04  0.15221682709E+04  0.25500000920E-02 0.  1.
    10030    2    1    2    0    0  0.00000000000E+00  0.00000000000E+00 -0.88323185245E+03  0.21611046894E+04  0.19723779996E+04 0.  0.
        1    1    3    3  502    0 -0.86986925330E+03 -0.42091781161E+03 -0.22600134648E+03  0.99243182668E+03  0.50400001928E-02 0. -1.
       -1    1    3    3    0  502  0.86986925330E+03  0.42091781161E+03 -0.65723050597E+03  0.11686728627E+04  0.50400001928E-02 0.  1.
</event>
<event>
 5   0  0.2933646E-06  0.3179269E+04  0.7818609E-02  0.8194314E-01
        1   -1    0    0  501    0  0.00000000000E+00  0.00000000000E+00  0.19462506077E+04  0.19462506077E+04  0.50400001928E-02 0. -1.
       -1   -1    0    0    0  501  0.00000000000E+00  0.00000000000E+00 -0.12983616954E+04  0.12983616954E+04  0.50400001928E-02 0.  1.
    10030    2    1    2    0    0  0.00000000000E+00  0.00000000000E+00  0.64788891234E+03  0.32446123031E+04  0.31792686195E+04 0.  0.
        2    1    3    3  502    0  0.98762669283E+03  0.13149255673E+03  0.15880469940E+04  0.18747239882E+04  0.25500000920E-02 0. -1.
       -2    1    3    3    0  502 -0.98762669283E+03 -0.13149255673E+03 -0.94015808163E+03  0.13698883149E+04  0.25500000920E-02 0.  1.
</event>
<event>
 5   0  0.2788054E-06  0.3050358E+04  0.7818609E-02  0.8229495E-01
       -1   -1    0    0    0  501  0.00000000000E+00  0.00000000000E+00  0.13426546689E+04  0.13426546689E+04  0.50400001928E-02 0.  1.
        1   -1    0    0  501    0  0.00000000000E+00  0.00000000000E+00 -0.17325156730E+04  0.17325156730E+04  0.50400001928E-02 0. -1.
    10030    2    1    2    0    0  0.00000000000E+00  0.00000000000E+00 -0.38986100410E+03  0.30751703420E+04  0.30503575249E+04 0.  0.
        3    1    3    3  502    0 -0.14713819216E+04 -0.25962857907E+03  0.11382617191E+03  0.14984419127E+04  0.10100000352E+00 0.  1.
       -3    1    3    3    0  502  0.14713819216E+04  0.25962857907E+03 -0.50368717601E+03  0.15767284293E+04  0.10100000352E+00 0. -1.
</event>
<event>
 5   0  0.7952307E-06  0.2526078E+04  0.7818609E-02  0.8393754E-01
       -2   -1    0    0    0  501  0.00000000000E+00  0.00000000000E+00  0.13916935821E+04  0.13916935821E+04  0.25500000920E-02 0. -1.
        2   -1    0    0  501    0  0.00000000000E+00  0.00000000000E+00 -0.11462774155E+04  0.11462774155E+04  0.25500000920E-02 0.  1.
    10030    2    1    2    0    0  0.00000000000E+00  0.00000000000E+00  0.24541616657E+03  0.25379709976E+04  0.25260775305E+04 0.  0.
        2    1    3    3  502    0 -0.28794857956E+03 -0.64153870956E+03  0.11768288446E+04  0.13709166385E+04  0.25500000920E-02 0. -1.
       -2    1    3    3    0  502  0.28794857956E+03  0.64153870956E+03 -0.93141267802E+03  0.11670543591E+04  0.25500000920E-02 0.  1.
</event>
<event>
 5   0  0.7510251E-06  0.2480388E+04  0.7818609E-02  0.8410006E-01
        2   -1    0    0  501    0  0.00000000000E+00  0.00000000000E+00  0.21877447529E+04  0.21877447529E+04  0.25500000920E-02 0. -1.
       -2   -1    0    0    0  501  0.00000000000E+00  0.00000000000E+00 -0.70304403880E+03  0.70304403880E+03  0.25500000920E-02 0.  1.
    10030    2    1    2    0    0  0.00000000000E+00  0.00000000000E+00  0.14847007141E+04  0.28907887917E+04  0.24803877979E+04 0.  0.
        3    1    3    3  502    0  0.10378315777E+04 -0.76091102037E+02 -0.43964185857E+02  0.10415455340E+04  0.10100000352E+00 0.  1.
       -3    1    3    3    0  502 -0.10378315777E+04  0.76091102037E+02  0.15286649000E+04  0.18492432577E+04  0.10100000352E+00 0. -1.
</event>
<event>
 5   0  0.2635798E-06  0.3169098E+04  0.7818609E-02  0.8197026E-01
        1   -1    0    0  501    0  0.00000000000E+00  0.00000000000E+00  0.23330241608E+04  0.23330241608E+04  0.50400001928E-02 0. -1.
       -1   -1    0    0    0  501  0.00000000000E+00  0.00000000000E+00 -0.10761981183E+04  0.10761981183E+04  0.50400001928E-02 0.  1.
    10030    2    1    2    0    0  0.00000000000E+00  0.00000000000E+00  0.12568260425E+04  0.34092222791E+04  0.31690984281E+04 0.  0.
        1    1    3    3  502    0 -0.10232764074E+04  0.11505537964E+04  0.22600073484E+03  0.15562599321E+04  0.50400001928E-02 0. -1.
       -1    1    3    3    0  502  0.10232764074E+04 -0.11505537964E+04  0.10308253076E+04  0.18529623469E+04  0.50400001928E-02 0.  1.
</event>
<event>
 5   0  0.7952307E-06  0.2614368E+04  0.7818609E-02  0.8363337E-01
        2   -1    0    0  501    0  0.00000000000E+00  0.00000000000E+00  0.21519824750E+04  0.21519824750E+04  0.25500000920E-02 0. -1.
       -2   -1    0    0    0  501  0.00000000000E+00  0.00000000000E+00 -0.79402592529E+03  0.79402592529E+03  0.25500000920E-02 0.  1.
    10030    2    1    2    0    0  0.00000000000E+00  0.00000000000E+00  0.13579565497E+04  0.29460084003E+04  0.26143678975E+04 0.  0.
        2    1    3    3  502    0  0.58579445779E+03 -0.78466330464E+03 -0.29682585285E+03  0.10232092823E+04  0.25500000920E-02 0.  1.
       -2    1    3    3    0  502 -0.58579445779E+03  0.78466330464E+03  0.16547824025E+04  0.19227991180E+04  0.25500000920E-02 0. -1.
</event>
<event>
 5   0  0.3938696E-06  0.3145496E+04  0.7818609E-02  0.8203362E-01
        1   -1    0    0  501    0  0.00000000000E+00  0.00000000000E+00  0.13928997533E+04  0.13928997533E+04  0.50400001928E-02 0. -1.
       -1   -1    0    0    0  501  0.00000000000E+00  0.00000000000E+00 -0.17758182069E+04  0.17758182069E+04  0.50400001928E-02 0.  1.
    10030    2    1    2    0    0  0.00000000000E+00  0.00000000000E+00 -0.38291845362E+03  0.31687179603E+04  0.31454962994E+04 0.  0.
        4    1    3    3  502    0  0.71801044918E+03 -0.59698919698E+03 -0.14663454853E+04  0.17384204904E+04  0.12699999809E+01 0.  1.
       -4    1    3    3    0  502 -0.71801044918E+03  0.59698919698E+03  0.10834270316E+04  0.14302974698E+04  0.12699999809E+01 0. -1.
</event>
<event>
 5   0  0.2788054E-06  0.3166082E+04  0.7818609E-02  0.8197833E-01
       -1   -1    0    0    0  501  0.00000000000E+00  0.00000000000E+00  0.15939174793E+04  0.15939174793E+04  0.50400001928E-02 0.  1.
        1   -1    0    0  501    0  0.00000000000E+00  0.00000000000E+00 -0.15722383138E+04  0.15722383138E+04  0.50400001928E-02 0. -1.
    10030    2    1    2    0    0  0.00000000000E+00  0.00000000000E+00  0.21679165537E+02  0.31661557931E+04  0.31660815719E+04 0.  0.
        3    1    3    3  502    0  0.69467966451E+03  0.13796433262E+04  0.35729044988E+03  0.15854501000E+04  0.10100000352E+00 0.  1.
       -3    1    3    3    0  502 -0.69467966451E+03 -0.13796433262E+04 -0.33561128435E+03  0.15807056931E+04  0.10100000352E+00 0. -1.
</event>
<event>
 5   0  0.8237664E-06  0.3179909E+04  0.7818609E-02  0.8194143E-01
       -2   -1    0    0    0  501  0.00000000000E+00  0.00000000000E+00  0.18825988285E+04  0.18825988285E+04  0.25500000920E-02 0. -1.
        2   -1    0    0  501    0  0.00000000000E+00  0.00000000000E+00 -0.13428008704E+04  0.13428008704E+04  0.25500000920E-02 0.  1.
    10030    2    1    2    0    0  0.00000000000E+00  0.00000000000E+00  0.53979795803E+03  0.32253996989E+04  0.31799090210E+04 0.  0.
        5    1    3    3  502    0  0.15645540359E+04 -0.11190849642E+03  0.62177188450E+01  0.15685705572E+04  0.46999998093E+01 0. -1.
       -5    1    3    3    0  502 -0.15645540359E+04  0.11190849642E+03  0.53358023918E+03  0.16568291417E+04  0.46999998093E+01 0.  1.
</event>
<event>
 5   0  0.7952307E-06  0.3206608E+04  0.7818609E-02  0.8187074E-01
       -2   -1    0    0    0  501  0.00000000000E+00  0.00000000000E+00  0.18364207031E+04  0.18364207031E+04  0.25500000920E-02 0.  1.
        2   -1    0    0  501    0  0.00000000000E+00  0.00000000000E+00 -0.13997796938E+04  0.13997796938E+04  0.25500000920E-02 0. -1.
    10030    2    1    2    0    0  0.00000000000E+00  0.00000000000E+00  0.43664100937E+03  0.32362003969E+04  0.32066084322E+04 0.  0.
        2    1    3    3  502    0  0.11877824497E+04 -0.10282481193E+03 -0.86357252376E+03  0.14721268946E+04  0.25500000920E-02 0. -1.
       -2    1    3    3    0  502 -0.11877824497E+04  0.10282481193E+03  0.13002135331E+04  0.17640735023E+04  0.25500000920E-02 0.  1.
</event>
<event>
 5   0  0.2933646E-06  0.1653525E+04  0.7818609E-02  0.8788324E-01
        1   -1    0    0  501    0  0.00000000000E+00  0.00000000000E+00  0.15961827509E+04  0.15961827509E+04  0.50400001928E-02 0.  1.
       -1   -1    0    0    0  501  0.00000000000E+00  0.00000000000E+00 -0.42823167801E+03  0.42823167804E+03  0.50400001928E-02 0. -1.
    10030    2    1    2    0    0  0.00000000000E+00  0.00000000000E+00  0.11679510729E+04  0.20244144289E+04  0.16535247417E+04 0.  0.
        2    1    3    3  502    0  0.24021416456E+03 -0.73571816934E+03  0.93997597755E+03  0.12175955437E+04  0.25500000920E-02 0.  1.
       -2    1    3    3    0  502 -0.24021416456E+03  0.73571816934E+03  0.22797509534E+03  0.80681888528E+03  0.25500000920E-02 0. -1.
</event>
<event>
 5   0  0.2635798E-06  0.2606906E+04  0.7818609E-02  0.8365859E-01
        1   -1    0    0  501    0  0.00000000000E+00  0.00000000000E+00  0.11712186469E+04  0.11712186469E+04  0.50400001928E-02 0. -1.
       -1   -1    0    0    0  501  0.00000000000E+00  0.00000000000E+00 -0.14506171224E+04  0.14506171224E+04  0.50400001928E-02 0.  1.
    10030    2    1    2    0    0  0.00000000000E+00  0.00000000000E+00 -0.27939847551E+03  0.26218357693E+04  0.26069060767E+04 0.  0.
        1    1    3    3  502    0  0.53253633489E+03 -0.11151080335E+04 -0.55671704821E+03  0.13553577927E+04  0.50400001928E-02 0.  1.
       -1    1    3    3    0  502 -0.53253633489E+03  0.11151080335E+04  0.27731857270E+03  0.12664779766E+04  0.50400001928E-02 0. -1.
</event>
<event>
 5   0  0.7952307E-06  0.2845877E+04  0.7818609E-02  0.8289165E-01
       -2   -1    0    0    0  501  0.00000000000E+00  0.00000000000E+00  0.15935476547E+04  0.15935476547E+04  0.25500000920E-02 0. -1.
        2   -1    0    0  501    0  0.00000000000E+00  0.00000000000E+00 -0.12705949945E+04  0.12705949945E+04  0.25500000920E-02 0.  1.
    10030    2    1    2    0    0  0.00000000000E+00  0.00000000000E+00  0.32295266017E+03  0.28641426492E+04  0.28458767883E+04 0.  0.
        2    1    3    3  502    0  0.40248306613E+03 -0.76466668014E+03  0.12992392622E+04  0.15603622691E+04  0.25500000920E-02 0. -1.
       -2    1    3    3    0  502 -0.40248306613E+03  0.76466668014E+03 -0.97628660204E+03  0.13037803801E+04  0.25500000920E-02 0.  1.
</event>
<event>
 5   0  0.2635798E-06  0.3180556E+04  0.7818609E-02  0.8193971E-01
        1   -1    0    0  501    0  0.00000000000E+00  0.00000000000E+00  0.17718097534E+04  0.17718097534E+04  0.50400001928E-02 0. -1.
       -1   -1    0    0    0  501  0.00000000000E+00  0.00000000000E+00 -0.14273451298E+04  0.14273451298E+04  0.50400001928E-02 0.  1.
    10030    2    1    2    0    0  0.00000000000E+00  0.00000000000E+00  0.34446462358E+03  0.31991548832E+04  0.31805559404E+04 0.  0.
        1    1    3    3  502    0  0.69932746439E+02 -0.29642347821E+03  0.17422012657E+04  0.17686217000E+04  0.50400001928E-02 0. -1.
       -1    1    3    3    0  502 -0.69932746439E+02  0.29642347821E+03 -0.13977366422E+04  0.14305331832E+04  0.50400001928E-02 0.  1.
</event>
<event>
 5   0  0.2580875E-06  0.2232465E+04  0.7818609E-02  0.8505036E-01
        4   -1    0    0  501    0  0.00000000000E+00  0.00000000000E+00  0.14147331332E+04  0.14147337032E+04  0.12699999809E+01 0. -1.
       -4   -1    0    0    0  501  0.00000000000E+00  0.00000000000E+00 -0.88071275032E+03  0.88071366600E+03  0.12699999809E+01 0.  1.
    10030    2    1    2    0    0  0.00000000000E+00  0.00000000000E+00  0.53402038283E+03  0.22954473692E+04  0.22324651969E+04 0.  0.
        2    1    3    3  502    0 -0.77137049999E+02  0.23443465869E+03  0.13863290380E+04  0.14081256816E+04  0.25500000920E-02 0. -1.
       -2    1    3    3    0  502  0.77137049999E+02 -0.23443465869E+03 -0.85230865512E+03  0.88732168759E+03  0.25500000920E-02 0.  1.
</event>
<event>
 5   0  0.2788054E-06  0.3029812E+04  0.7818609E-02  0.8235269E-01
        1   -1    0    0  501    0  0.00000000000E+00  0.00000000000E+00  0.13330929852E+04  0.13330929852E+04  0.50400001928E-02 0. -1.
       -1   -1    0    0    0  501  0.00000000000E+00  0.00000000000E+00 -0.17215155933E+04  0.17215155933E+04  0.50400001928E-02 0.  1.
    10030    2    1    2    0    0  0.00000000000E+00  0.00000000000E+00 -0.38842260811E+03  0.30546085785E+04  0.30298121139E+04 0.  0.
        3    1    3    3  502    0 -0.14015651844E+04  0.28527032778E+03  0.30904957357E+03  0.14633098698E+04  0.10100000352E+00 0. -1.
       -3    1    3    3    0  502  0.14015651844E+04 -0.28527032778E+03 -0.69747218167E+03  0.15912987087E+04  0.10100000352E+00 0.  1.
</event>
<event>
 5   0  0.4142886E-06  0.1814912E+04  0.7818609E-02  0.8698410E-01
        1   -1    0    0  501    0  0.00000000000E+00  0.00000000000E+00  0.19653165150E+04  0.19653165151E+04  0.50400001928E-02 0. -1.
       -1   -1    0    0    0  501  0.00000000000E+00  0.00000000000E+00 -0.41900424691E+03  0.41900424694E+03  0.50400001928E-02 0.  1.
    10030    2    1    2    0    0  0.00000000000E+00  0.00000000000E+00  0.15463122681E+04  0.23843207620E+04  0.18149115310E+04 0.  0.
        5    1    3    3  502    0  0.18557865766E+03 -0.77528027061E+03  0.20360057755E+03  0.82278443189E+03  0.46999998093E+01 0.  1.
       -5    1    3    3    0  502 -0.18557865766E+03  0.77528027061E+03  0.13427116906E+04  0.15615363301E+04  0.46999998093E+01 0. -1.
</event>
<event>
 5   0  0.7952307E-06  0.3101844E+04  0.7818609E-02  0.8215232E-01
       -2   -1    0    0    0  501  0.00000000000E+00  0.00000000000E+00  0.80966250297E+03  0.80966250297E+03  0.25500000920E-02 0.  1.
        2   -1    0    0  501    0  0.00000000000E+00  0.00000000000E+00 -0.29708170152E+04  0.29708170152E+04  0.25500000920E-02 0. -1.
    10030    2    1    2    0    0  0.00000000000E+00  0.00000000000E+00 -0.21611545123E+04  0.37804795182E+04  0.31018440582E+04 0.  0.
        2    1    3    3  502    0 -0.12506570914E+04  0.26469874764E+03 -0.21508550539E+04  0.25020763478E+04  0.25500000920E-02 0.  1.
       -2    1    3    3    0  502  0.12506570914E+04 -0.26469874764E+03 -0.10299458326E+02  0.12784031704E+04  0.25500000920E-02 0. -1.
</event>
<event>
 5   0  0.2788054E-06  0.1785611E+04  0.7818609E-02  0.8713989E-01
       -1   -1    0    0    0  501  0.00000000000E+00  0.00000000000E+00  0.78722487710E+03  0.78722487712E+03  0.50400001928E-02 0. -1.
        1   -1    0    0  501    0  0.00000000000E+00  0.00000000000E+00 -0.10125460603E+04  0.10125460604E+04  0.50400001928E-02 0.  1.
    10030    2    1    2    0    0  0.00000000000E+00  0.00000000000E+00 -0.22532118324E+03  0.17997709375E+04  0.17856107616E+04 0.  0.
        3    1    3    3  502    0  0.79668154123E+03 -0.12430655003E+03  0.27371710140E+03  0.85151315804E+03  0.10100000352E+00 0.  1.
       -3    1    3    3    0  502 -0.79668154123E+03  0.12430655003E+03 -0.49903828465E+03  0.94825777943E+03  0.10100000352E+00 0. -1.
</event>
<event>
 5   0  0.7952307E-06  0.3361721E+04  0.7818609E-02  0.8147366E-01
        2   -1    0    0  501    0  0.00000000000E+00  0.00000000000E+00  0.17931116945E+04  0.17931116945E+04  0.25500000920E-02 0.  1.
       -2   -1    0    0    0  501  0.00000000000E+00  0.00000000000E+00 -0.15756365210E+04  0.15756365210E+04  0.25500000920E-02 0. -1.
    10030    2    1    2    0    0  0.00000000000E+00  0.00000000000E+00  0.21747517349E+03  0.33687482154E+04  0.33617211496E+04 0.  0.
        2    1    3    3  502    0  0.25861521416E+03 -0.27930186774E+03  0.17493528376E+04  0.17902867683E+04  0.25500000920E-02 0.  1.
       -2    1    3    3    0  502 -0.25861521416E+03  0.27930186774E+03 -0.15318776641E+04  0.15784614471E+04  0.25500000920E-02 0. -1.
</event>
<event>
 5   0  0.2933646E-06  0.3095742E+04  0.7818609E-02  0.8216907E-01
        1   -1    0    0  501    0  0.00000000000E+00  0.00000000000E+00  0.11525046203E+04  0.11525046204E+04  0.50400001928E-02 0.  1.
       -1   -1    0    0    0  501  0.00000000000E+00  0.00000000000E+00 -0.20788674880E+04  0.20788674880E+04  0.50400001928E-02 0. -1.
    10030    2    1    2    0    0  0.00000000000E+00  0.00000000000E+00 -0.92636286769E+03  0.32313721084E+04  0.30957418400E+04 0.  0.
        2    1    3    3  502    0  0.13049673264E+03 -0.16603085506E+03  0.11373973819E+04  0.11568355313E+04  0.25500000920E-02 0.  1.
       -2    1    3    3    0  502 -0.13049673264E+03  0.16603085506E+03 -0.20637602496E+04  0.20745365771E+04  0.25500000920E-02 0. -1.
</event>
<event>
 5   0  0.2933646E-06  0.1964693E+04  0.7818609E-02  0.8623308E-01
       -1   -1    0    0    0  501  0.00000000000E+00  0.00000000000E+00  0.10083702410E+04  0.10083702410E+04  0.50400001928E-02 0. -1.
        1   -1    0    0  501    0  0.00000000000E+00  0.00000000000E+00 -0.95699455316E+03  0.95699455317E+03  0.50400001928E-02 0.  1.
    10030    2    1    2    0    0  0.00000000000E+00  0.00000000000E+00  0.51375687817E+02  0.19653647942E+04  0.19646931854E+04 0.  0.
        2    1    3    3  502    0  0.89295380687E+03  0.30586068232E+03  0.29797120863E+03  0.98980002999E+03  0.25500000920E-02 0. -1.
       -2    1    3    3    0  502 -0.89295380687E+03 -0.30586068232E+03 -0.24659552082E+03  0.97556476417E+03  0.25500000920E-02 0.  1.
</event>
<event>
 5   0  0.3938696E-06  0.1696917E+04  0.7818609E-02  0.8763124E-01
        1   -1    0    0  501    0  0.00000000000E+00  0.00000000000E+00  0.66862424669E+03  0.66862424670E+03  0.50400001928E-02 0. -1.
       -1   -1    0    0    0  501  0.00000000000E+00  0.00000000000E+00 -0.10766617079E+04  0.10766617079E+04  0.50400001928E-02 0.  1.
    10030    2    1    2    0    0  0.00000000000E+00  0.00000000000E+00 -0.40803746121E+03  0.17452859546E+04  0.16969173503E+04 0.  0.
        4    1    3    3  502    0  0.32041428764E+03  0.96135158375E+02 -0.10059702797E+04  0.10601344730E+04  0.12699999809E+01 0.  1.
       -4    1    3    3    0  502 -0.32041428764E+03 -0.96135158375E+02  0.59793281848E+03  0.68515148158E+03  0.12699999809E+01 0. -1.
</event>
<event>
 5   0  0.3938696E-06  0.2050521E+04  0.7818609E-02  0.8583358E-01
       -1   -1    0    0    0  501  0.00000000000E+00  0.00000000000E+00  0.26321834549E+04  0.26321834549E+04  0.50400001928E-02 0. -1.
        1   -1    0    0  501    0  0.00000000000E+00  0.00000000000E+00 -0.39934857144E+03  0.39934857147E+03  0.50400001928E-02 0.  1.
    10030    2    1    2    0    0  0.00000000000E+00  0.00000000000E+00  0.22328348835E+04  0.30315320264E+04  0.20505206193E+04 0.  0.
        4    1    3    3  502    0 -0.56305114633E+03 -0.85539399629E+03  0.10435145518E+04  0.14620703522E+04  0.12699999809E+01 0. -1.
       -4    1    3    3    0  502  0.56305114633E+03  0.85539399629E+03  0.11893203317E+04  0.15694616742E+04  0.12699999809E+01 0.  1.
</event>
<event>
 5   0  0.2788054E-06  0.3181064E+04  0.7818609E-02  0.8193836E-01
       -1   -1    0    0    0  501  0.00000000000E+00  0.00000000000E+00  0.13708021839E+04  0.13708021839E+04  0.50400001928E-02 0.  1.
        1   -1    0    0  501    0  0.00000000000E+00  0.00000000000E+00 -0.18454833198E+04  0.18454833198E+04  0.50400001928E-02 0. -1.
    10030    2    1    2    0    0  0.00000000000E+00  0.00000000000E+00 -0.47468113593E+03  0.32162855037E+04  0.31810643282E+04 0.  0.
        3    1    3    3  502    0  0.63757173242E+03 -0.34907150886E+03 -0.16677285576E+04  0.18192490715E+04  0.10100000352E+00 0. -1.
       -3    1    3    3    0  502 -0.63757173242E+03  0.34907150886E+03  0.11930474216E+04  0.13970364322E+04  0.10100000352E+00 0.  1.
</event>
<event>
 5   0  0.8237664E-06  0.3141500E+04  0.7818609E-02  0.8204440E-01
       -2   -1    0    0    0  501  0.00000000000E+00  0.00000000000E+00  0.22027702850E+04  0.22027702850E+04  0.25500000920E-02 0.  1.
        2   -1    0    0  501    0  0.00000000000E+00  0.00000000000E+00 -0.11200695459E+04  0.11200695459E+04  0.25500000920E-02 0. -1.
    10030    2    1    2    0    0  0.00000000000E+00  0.00000000000E+00  0.10827007390E+04  0.33228398309E+04  0.31415002231E+04 0.  0.
        5    1    3    3  502    0 -0.62294606417E+02 -0.13942960213E+04  0.13035663492E+04  0.19097772985E+04  0.46999998093E+01 0.  1.
       -5    1    3    3    0  502  0.62294606417E+02  0.13942960213E+04 -0.22086561021E+03  0.14130625325E+04  0.46999998093E+01 0. -1.
</event>
<event>
 5   0  0.7971763E-06  0.3283732E+04  0.7818609E-02  0.8167047E-01
       -2   -1    0    0    0  501  0.00000000000E+00  0.00000000000E+00  0.98719577497E+03  0.98719577498E+03  0.25500000920E-02 0. -1.
        2   -1    0    0  501    0  0.00000000000E+00  0.00000000000E+00 -0.27306884526E+04  0.27306884526E+04  0.25500000920E-02 0.  1.
    10030    2    1    2    0    0  0.00000000000E+00  0.00000000000E+00 -0.17434926776E+04  0.37178842275E+04  0.32837320860E+04 0.  0.
        1    1    3    3  502    0  0.39020864781E+03 -0.47707024891E+03  0.85125173695E+03  0.10509463977E+04  0.50400001928E-02 0. -1.
       -1    1    3    3    0  502 -0.39020864781E+03  0.47707024891E+03 -0.25947444145E+04  0.26669378298E+04  0.50400001928E-02 0.  1.
</event>
<event>
 5   0  0.2788054E-06  0.3256532E+04  0.7818609E-02  0.8174045E-01
        1   -1    0    0  501    0  0.00000000000E+00  0.00000000000E+00  0.19658339443E+04  0.19658339443E+04  0.50400001928E-02 0.  1.
       -1   -1    0    0    0  501  0.00000000000E+00  0.00000000000E+00 -0.13486640351E+04  0.13486640351E+04  0.50400001928E-02 0. -1.
    10030    2    1    2    0    0  0.00000000000E+00  0.00000000000E+00  0.61716990915E+03  0.33144979794E+04  0.32565316149E+04 0.  0.
        3    1    3    3  502    0 -0.14251685360E+04  0.73290493052E+03  0.15369260898E+02  0.16026513088E+04  0.10100000352E+00 0.  1.
       -3    1    3    3    0  502  0.14251685360E+04 -0.73290493052E+03  0.60180064825E+03  0.17118466706E+04  0.10100000352E+00 0. -1.
</event>
<event>
 5   0  0.3938696E-06  0.2348546E+04  0.7818609E-02  0.8459022E-01
        1   -1    0    0  501    0  0.00000000000E+00  0.00000000000E+00  0.12895402662E+04  0.12895402663E+04  0.50400001928E-02 0. -1.
       -1   -1    0    0    0  501  0.00000000000E+00  0.00000000000E+00 -0.10693091219E+04  0.10693091219E+04  0.50400001928E-02 0.  1.
    10030    2    1    2    0    0  0.00000000000E+00  0.00000000000E+00  0.22023114431E+03  0.23588493882E+04  0.23485460777E+04 0.  0.
        4    1    3    3  502    0 -0.10493090531E+04  0.19044237069E+03  0.60379790858E+03  0.12255167534E+04  0.12699999809E+01 0.  1.
       -4    1    3    3    0  502  0.10493090531E+04 -0.19044237069E+03 -0.38356676427E+03  0.11333326348E+04  0.12699999809E+01 0. -1.
</event>
<event>
 5   0  0.7971763E-06  0.3212163E+04  0.7818609E-02  0.8185612E-01
        2   -1    0    0  501    0  0.00000000000E+00  0.00000000000E+00  0.12005742326E+04  0.12005742326E+04  0.25500000920E-02 0. -1.
       -2   -1    0    0    0  501  0.00000000000E+00  0.00000000000E+00 -0.21485531801E+04  0.21485531801E+04  0.25500000920E-02 0.  1.
    10030    2    1    2    0    0  0.00000000000E+00  0.00000000000E+00 -0.94797894756E+03  0.33491274127E+04  0.32121628759E+04 0.  0.
        1    1    3    3  502    0 -0.52175109319E+03  0.34505853150E+03  0.10683444512E+04  0.12380022051E+04  0.50400001928E-02 0. -1.
       -1    1    3    3    0  502  0.52175109319E+03 -0.34505853150E+03 -0.20163233988E+04  0.21111252076E+04  0.50400001928E-02 0.  1.
</event>
<event>
 5   0  0.7510251E-06  0.3289824E+04  0.7818609E-02  0.8165490E-01
       -2   -1    0    0    0  501  0.00000000000E+00  0.00000000000E+00  0.17872456846E+04  0.17872456846E+04  0.25500000920E-02 0.  1.
        2   -1    0    0  501    0  0.00000000000E+00  0.00000000000E+00 -0.15139132510E+04  0.15139132510E+04  0.25500000920E-02 0. -1.
    10030    2    1    2    0    0  0.00000000000E+00  0.00000000000E+00  0.27333243358E+03  0.33011589356E+04  0.32898236578E+04 0.  0.
        3    1    3    3  502    0  0.11327617612E+04  0.40805711587E+02  0.13327971453E+04  0.17496178310E+04  0.10100000352E+00 0.  1.
       -3    1    3    3    0  502 -0.11327617612E+04 -0.40805711587E+02 -0.10594647117E+04  0.15515411046E+04  0.10100000352E+00 0. -1.
</event>
<event>
 5   0  0.7971763E-06  0.3209498E+04  0.7818609E-02  0.8186313E-01
        2   -1    0    0  501    0  0.00000000000E+00  0.00000000000E+00  0.27652669461E+04  0.27652669461E+04  0.25500000920E-02 0.  1.
       -2   -1    0    0    0  501  0.00000000000E+00  0.00000000000E+00 -0.93127306501E+03  0.93127306502E+03  0.25500000920E-02 0. -1.
    10030    2    1    2    0    0  0.00000000000E+00  0.00000000000E+00  0.18339938811E+04  0.36965400111E+04  0.32094975460E+04 0.  0.
        1    1    3    3  502    0  0.50614788696E+03  0.39718159973E+03 -0.77622486341E+03  0.10081983660E+04  0.50400001928E-02 0. -1.
       -1    1    3    3    0  502 -0.50614788696E+03 -0.39718159973E+03  0.26102187445E+04  0.26883416451E+04  0.50400001928E-02 0.  1.
</event>
<event>
 5   0  0.7510251E-06  0.3105105E+04  0.7818609E-02  0.8214338E-01
        2   -1    0    0  501    0  0.00000000000E+00  0.00000000000E+00  0.23552788631E+04  0.23552788631E+04  0.25500000920E-02 0.  1.
       -2   -1    0    0    0  501  0.00000000000E+00  0.00000000000E+00 -0.10234111487E+04  0.10234111487E+04  0.25500000920E-02 0. -1.
    10030    2    1    2    0    0  0.00000000000E+00  0.00000000000E+00  0.13318677144E+04  0.33786900119E+04  0.31051046018E+04 0.  0.
        3    1    3    3  502    0  0.13399173919E+03  0.74593343945E+03  0.21403298667E+04  0.22705467251E+04  0.10100000352E+00 0.  1.
       -3    1    3    3    0  502 -0.13399173919E+03 -0.74593343945E+03 -0.80846215229E+03  0.11081432868E+04  0.10100000352E+00 0. -1.
</event>
<event>
 5   0  0.7952307E-06  0.3218050E+04  0.7818609E-02  0.8184066E-01
       -2   -1    0    0    0  501  0.00000000000E+00  0.00000000000E+00  0.13657808713E+04  0.13657808713E+04  0.25500000920E-02 0. -1.
        2   -1    0    0  501    0  0.00000000000E+00  0.00000000000E+00 -0.18955905543E+04  0.18955905543E+04  0.25500000920E-02 0.  1.
    10030    2    1    2    0    0  0.00000000000E+00  0.00000000000E+00 -0.52980968302E+03  0.32613714257E+04  0.32180499182E+04 0.  0.
        2    1    3    3  502    0  0.12172695869E+04  0.10421048507E+04 -0.11722581862E+03  0.16066952603E+04  0.25500000920E-02 0.  1.
       -2    1    3    3    0  502 -0.12172695869E+04 -0.10421048507E+04 -0.41258386440E+03  0.16546761653E+04  0.25500000920E-02 0. -1.
</event>
<event>
 5   0  0.7971763E-06  0.2972245E+04  0.7818609E-02  0.8251701E-01
       -2   -1    0    0    0  501  0.00000000000E+00  0.00000000000E+00  0.31442392304E+04  0.31442392304E+04  0.25500000920E-02 0. -1.
        2   -1    0    0  501    0  0.00000000000E+00  0.00000000000E+00 -0.70241464541E+03  0.70241464542E+03  0.25500000920E-02 0.  1.
    10030    2    1    2    0    0  0.00000000000E+00  0.00000000000E+00  0.24418245850E+04  0.38466538758E+04  0.29722447302E+04 0.  0.
        1    1    3    3  502    0  0.71070850422E+03  0.12639465160E+04  0.16420564277E+04  0.21906658086E+04  0.50400001928E-02 0.  1.
       -1    1    3    3    0  502 -0.71070850422E+03 -0.12639465160E+04  0.79976815728E+03  0.16559880672E+04  0.50400001928E-02 0. -1.
</event>
<event>
 5   0  0.2580875E-06  0.1684777E+04  0.7818609E-02  0.8770094E-01
       -3   -1    0    0    0  501  0.00000000000E+00  0.00000000000E+00  0.20109402144E+04  0.20109402170E+04  0.10100000352E+00 0.  1.
        3   -1    0    0  501    0  0.00000000000E+00  0.00000000000E+00 -0.35287902609E+03  0.35287904054E+03  0.10100000352E+00 0. -1.
    10030    2    1    2    0    0  0.00000000000E+00  0.00000000000E+00  0.16580611884E+04  0.23638192575E+04  0.16847773081E+04 0.  0.
        1    1    3    3  502    0 -0.44053288772E+03 -0.68296421372E+03  0.51810702604E+03  0.96381753089E+03  0.50400001928E-02 0.  1.
       -1    1    3    3    0  502  0.44053288772E+03  0.68296421372E+03  0.11399541623E+04  0.14000017266E+04  0.50400001928E-02 0. -1.
</event>
<event>
 5   0  0.4142886E-06  0.2489476E+04  0.7818609E-02  0.8406744E-01
        1   -1    0    0  501    0  0.00000000000E+00  0.00000000000E+00  0.15784054723E+04  0.15784054723E+04  0.50400001928E-02 0.  1.
       -1   -1    0    0    0  501  0.00000000000E+00  0.00000000000E+00 -0.98160621880E+03  0.98160621882E+03  0.50400001928E-02 0. -1.
    10030    2    1    2    0    0  0.00000000000E+00  0.00000000000E+00  0.59679925346E+03  0.25600116911E+04  0.24894759508E+04 0.  0.
        5    1    3    3  502    0 -0.26122730018E+03 -0.85522292070E+03  0.11887872174E+04  0.14875762450E+04  0.46999998093E+01 0.  1.
       -5    1    3    3    0  502  0.26122730018E+03  0.85522292070E+03 -0.59198796399E+03  0.10724354460E+04  0.46999998093E+01 0. -1.
</event>
<event>
 5   0  0.7952307E-06  0.3096690E+04  0.7818609E-02  0.8216647E-01
        2   -1    0    0  501    0  0.00000000000E+00  0.00000000000E+00  0.17850395609E+04  0.17850395609E+04  0.25500000920E-02 0. -1.
       -2   -1    0    0    0  501  0.00000000000E+00  0.00000000000E+00 -0.13430363125E+04  0.13430363125E+04  0.25500000920E-02 0.  1.
    10030    2    1    2    0    0  0.00000000000E+00  0.00000000000E+00  0.44200324844E+03  0.31280758734E+04  0.30966904589E+04 0.  0.
        2    1    3    3  502    0  0.10081583526E+04  0.55256266624E+03 -0.82665228308E+03  0.14160023874E+04  0.25500000920E-02 0. -1.
       -2    1    3    3    0  502 -0.10081583526E+04 -0.55256266624E+03  0.12686555315E+04  0.17120734860E+04  0.25500000920E-02 0.  1.
</event>
<event>
 5   0  0.2788054E-06  0.2361637E+04  0.7818609E-02  0.8454007E-01
       -1   -1    0    0    0  501  0.00000000000E+00  0.00000000000E+00  0.10501056690E+04  0.10501056690E+04  0.50400001928E-02 0.  1.
        1   -1    0    0  501    0  0.00000000000E+00  0.00000000000E+00 -0.13278017613E+04  0.13278017613E+04  0.50400001928E-02 0. -1.
    10030    2    1    2    0    0  0.00000000000E+00  0.00000000000E+00 -0.27769609230E+03  0.23779074304E+04  0.23616368535E+04 0.  0.
        3    1    3    3  502    0 -0.80376176688E+03 -0.67789198647E+03  0.40221959814E+03  0.11257669113E+04  0.10100000352E+00 0. -1.
       -3    1    3    3    0  502  0.80376176688E+03  0.67789198647E+03 -0.67991569044E+03  0.12521405191E+04  0.10100000352E+00 0.  1.
</event>
<event>
 5   0  0.4142886E-06  0.3152408E+04  0.7818609E-02  0.8201500E-01
        1   -1    0    0  501    0  0.00000000000E+00  0.00000000000E+00  0.14934310541E+04  0.14934310541E+04  0.50400001928E-02 0.  1.
       -1   -1    0    0    0  501  0.00000000000E+00  0.00000000000E+00 -0.16635646265E+04  0.16635646266E+04  0.50400001928E-02 0. -1.
    10030    2    1    2    0    0  0.00000000000E+00  0.00000000000E+00 -0.17013357250E+03  0.31569956806E+04  0.31524080153E+04 0.  0.
        5    1    3    3  502    0  0.11617739021E+04  0.15868695385E+03  0.96979266507E+03  0.15216504369E+04  0.46999998093E+01 0.  1.
       -5    1    3    3    0  502 -0.11617739021E+04 -0.15868695385E+03 -0.11399262376E+04  0.16353452437E+04  0.46999998093E+01 0. -1.
</event>
<event>
 5   0  0.2580875E-06  0.3148825E+04  0.7818609E-02  0.8202465E-01
        4   -1    0    0  501    0  0.00000000000E+00  0.00000000000E+00  0.16820335229E+04  0.16820340024E+04  0.12699999809E+01 0. -1.
       -4   -1    0    0    0  501  0.00000000000E+00  0.00000000000E+00 -0.14736759653E+04  0.14736765125E+04  0.12699999809E+01 0.  1.
    10030    2    1    2    0    0  0.00000000000E+00  0.00000000000E+00  0.20835755760E+03  0.31557105149E+04  0.31488245397E+04 0.  0.
        5    1    3    3  502    0  0.68798857912E+03  0.10971406604E+04  0.10015171939E+04  0.16371025299E+04  0.46999998093E+01 0. -1.
       -5    1    3    3    0  502 -0.68798857912E+03 -0.10971406604E+04 -0.79315963626E+03  0.15186079851E+04  0.46999998093E+01 0.  1.
</event>
<event>
 5   0  0.7510251E-06  0.3221818E+04  0.7818609E-02  0.8183079E-01
        2   -1    0    0  501    0  0.00000000000E+00  0.00000000000E+00  0.23709895548E+04  0.23709895548E+04  0.25500000920E-02 0. -1.
       -2   -1    0    0    0  501  0.00000000000E+00  0.00000000000E+00 -0.10944916472E+04  0.10944916472E+04  0.25500000920E-02 0.  1.
    10030    2    1    2    0    0  0.00000000000E+00  0.00000000000E+00  0.12764979076E+04  0.34654812020E+04  0.32218182837E+04 0.  0.
        3    1    3    3  502    0  0.11552666212E+03  0.82016964424E+03  0.21244100181E+04  0.22801628429E+04  0.10100000352E+00 0. -1.
       -3    1    3    3    0  502 -0.11552666212E+03 -0.82016964424E+03 -0.84791211050E+03  0.11853183591E+04  0.10100000352E+00 0.  1.
</event>
<event>
 5   0  0.7952307E-06  0.2926229E+04  0.7818609E-02  0.8265116E-01
        2   -1    0    0  501    0  0.00000000000E+00  0.00000000000E+00  0.25884507041E+04  0.25884507041E+04  0.25500000920E-02 0.  1.
       -2   -1    0    0    0  501  0.00000000000E+00  0.00000000000E+00 -0.82702123130E+03  0.82702123131E+03  0.25500000920E-02 0. -1.
    10030    2    1    2    0    0  0.00000000000E+00  0.00000000000E+00  0.17614294728E+04  0.34154719354E+04  0.29262287597E+04 0.  0.
        2    1    3    3  502    0 -0.97660752319E+03  0.80019330639E+03  0.17756029373E+02  0.12626903257E+04  0.25500000920E-02 0. -1.
       -2    1    3    3    0  502  0.97660752319E+03 -0.80019330639E+03  0.17436734434E+04  0.21527816098E+04  0.25500000920E-02 0.  1.
</event>
<event>
 5   0  0.2788054E-06  0.3219721E+04  0.7818609E-02  0.8183628E-01
        1   -1    0    0  501    0  0.00000000000E+00  0.00000000000E+00  0.25993637177E+04  0.25993637177E+04  0.50400001928E-02 0. -1.
       -1   -1    0    0    0  501  0.00000000000E+00  0.00000000000E+00 -0.99703280805E+03  0.99703280806E+03  0.50400001928E-02 0.  1.
    10030    2    1    2    0    0  0.00000000000E+00  0.00000000000E+00  0.16023309097E+04  0.35963965258E+04  0.32197210479E+04 0.  0.
        3    1    3    3  502    0  0.79738541991E+02  0.89117139672E+02 -0.99206493171E+03  0.99924618518E+03  0.10100000352E+00 0.  1.
       -3    1    3    3    0  502 -0.79738541991E+02 -0.89117139672E+02  0.25943958414E+04  0.25971503406E+04  0.10100000352E+00 0. -1.
</event>
<event>
 5   0  0.7510251E-06  0.3114699E+04  0.7818609E-02  0.8211715E-01
        2   -1    0    0  501    0  0.00000000000E+00  0.00000000000E+00  0.24509298240E+04  0.24509298240E+04  0.25500000920E-02 0. -1.
       -2   -1    0    0    0  501  0.00000000000E+00  0.00000000000E+00 -0.98955825536E+03  0.98955825536E+03  0.25500000920E-02 0.  1.
    10030    2    1    2    0    0  0.00000000000E+00  0.00000000000E+00  0.14613715687E+04  0.34404880794E+04  0.31146992411E+04 0.  0.
        3    1    3    3  502    0  0.11140138677E+04 -0.15963739020E+03  0.19197716382E+04  0.22253166397E+04  0.10100000352E+00 0. -1.
       -3    1    3    3    0  502 -0.11140138677E+04  0.15963739020E+03 -0.45840006956E+03  0.12151714397E+04  0.10100000352E+00 0.  1.
</event>
<event>
 5   0  0.2933646E-06  0.2285304E+04  0.7818609E-02  0.8483738E-01
       -1   -1    0    0    0  501  0.00000000000E+00  0.00000000000E+00  0.85543453819E+03  0.85543453820E+03  0.50400001928E-02 0.  1.
        1   -1    0    0  501    0  0.00000000000E+00  0.00000000000E+00 -0.15263050074E+04  0.15263050074E+04  0.50400001928E-02 0. -1.
    10030    2    1    2    0    0  0.00000000000E+00  0.00000000000E+00 -0.67087046919E+03  0.23817395456E+04  0.22853043729E+04 0.  0.
        2    1    3    3  502    0 -0.11349062812E+04  0.13224284360E+03 -0.34835101817E+03  0.11945077935E+04  0.25500000920E-02 0. -1.
       -2    1    3    3    0  502  0.11349062812E+04 -0.13224284360E+03 -0.32251945101E+03  0.11872317521E+04  0.25500000920E-02 0.  1.
</event>
<event>
 5   0  0.4142886E-06  0.1997201E+04  0.7818609E-02  0.8607930E-01
        1   -1    0    0  501    0  0.00000000000E+00  0.00000000000E+00  0.15334762378E+04  0.15334762378E+04  0.50400001928E-02 0. -1.
       -1   -1    0    0    0  501  0.00000000000E+00  0.00000000000E+00 -0.65028910868E+03  0.65028910870E+03  0.50400001928E-02 0.  1.
    10030    2    1    2    0    0  0.00000000000E+00  0.00000000000E+00  0.88318712913E+03  0.21837653465E+04  0.19972009372E+04 0.  0.
        5    1    3    3  502    0 -0.59278741709E+03 -0.46794780569E+03 -0.27273967360E+03  0.80298262139E+03  0.46999998093E+01 0.  1.
       -5    1    3    3    0  502  0.59278741709E+03  0.46794780569E+03  0.11559268027E+04  0.13807827251E+04  0.46999998093E+01 0. -1.
</event>
<event>
 5   0  0.2580875E-06  0.3153705E+04  0.7818609E-02  0.8201152E-01
        3   -1    0    0  501    0  0.00000000000E+00  0.00000000000E+00  0.18164301036E+04  0.18164301064E+04  0.10100000352E+00 0.  1.
       -3   -1    0    0    0  501  0.00000000000E+00  0.00000000000E+00 -0.13688735693E+04  0.13688735730E+04  0.10100000352E+00 0. -1.
    10030    2    1    2    0    0  0.00000000000E+00  0.00000000000E+00  0.44755653426E+03  0.31853036794E+04  0.31537045960E+04 0.  0.
        1    1    3    3  502    0  0.11977416964E+03  0.13662769921E+04 -0.56209525050E+03  0.14822313388E+04  0.50400001928E-02 0. -1.
       -1    1    3    3    0  502 -0.11977416964E+03 -0.13662769921E+04  0.10096517848E+04  0.17030723406E+04  0.50400001928E-02 0.  1.
</event>
<event>
 5   0  0.2933646E-06  0.3259404E+04  0.7818609E-02  0.8173302E-01
       -1   -1    0    0    0  501  0.00000000000E+00  0.00000000000E+00  0.10435217933E+04  0.10435217933E+04  0.50400001928E-02 0. -1.
        1   -1    0    0  501    0  0.00000000000E+00  0.00000000000E+00 -0.25451592903E+04  0.25451592903E+04  0.50400001928E-02 0.  1.
    10030    2    1    2    0    0  0.00000000000E+00  0.00000000000E+00 -0.15016374970E+04  0.35886810836E+04  0.32594043547E+04 0.  0.
        2    1    3    3  502    0 -0.76413604959E+03 -0.60767760518E+03  0.68590237879E+03  0.11931630431E+04  0.25500000920E-02 0. -1.
       -2    1    3    3    0  502  0.76413604959E+03  0.60767760518E+03 -0.21875398758E+04  0.23955180405E+04  0.25500000920E-02 0.  1.
</event>
<event>
 5   0  0.7941434E-06  0.3209887E+04  0.7818609E-02  0.8186211E-01
        2   -1    0    0  501    0  0.00000000000E+00  0.00000000000E+00  0.17904480310E+04  0.17904480310E+04  0.25500000920E-02 0.  1.
       -2   -1    0    0    0  501  0.00000000000E+00  0.00000000000E+00 -0.14386591226E+04  0.14386591226E+04  0.25500000920E-02 0. -1.
    10030    2    1    2    0    0  0.00000000000E+00  0.00000000000E+00  0.35178890847E+03  0.32291071536E+04  0.32098874705E+04 0.  0.
        4    1    3    3  502    0 -0.71410721195E+03  0.51536100886E+03 -0.11738908392E+04  0.14675037973E+04  0.12699999809E+01 0. -1.
       -4    1    3    3    0  502  0.71410721195E+03 -0.51536100886E+03  0.15256797477E+04  0.17616033563E+04  0.12699999809E+01 0.  1.
</event>
<event>
 5   0  0.3938696E-06  0.3173996E+04  0.7818609E-02  0.8195719E-01
        1   -1    0    0  501    0  0.00000000000E+00  0.00000000000E+00  0.26215661824E+04  0.26215661824E+04  0.50400001928E-02 0. -1.
       -1   -1    0    0    0  501  0.00000000000E+00  0.00000000000E+00 -0.96070945577E+03  0.96070945578E+03  0.50400001928E-02 0.  1.
    10030    2    1    2    0    0  0.00000000000E+00  0.00000000000E+00  0.16608567267E+04  0.35822756382E+04  0.31739964842E+04 0.  0.
        4    1    3    3  502    0  0.10970390775E+04  0.49295469526E+03 -0.33816296429E+03  0.12493417757E+04  0.12699999809E+01 0.  1.
       -4    1    3    3    0  502 -0.10970390775E+04 -0.49295469526E+03  0.19990196910E+04  0.23329338625E+04  0.12699999809E+01 0. -1.
</event>
<event>
 5   0  0.4142886E-06  0.3181993E+04  0.7818609E-02  0.8193589E-01
       -1   -1    0    0    0  501  0.00000000000E+00  0.00000000000E+00  0.18873775219E+04  0.18873775219E+04  0.50400001928E-02 0. -1.
        1   -1    0    0  501    0  0.00000000000E+00  0.00000000000E+00 -0.13411568562E+04  0.13411568563E+04  0.50400001928E-02 0.  1.
    10030    2    1    2    0    0  0.00000000000E+00  0.00000000000E+00  0.54622066566E+03  0.32285343782E+04  0.31819926485E+04 0.  0.
        5    1    3    3  502    0 -0.33828767709E+03  0.72412364755E+03  0.16688964160E+04  0.18504137231E+04  0.46999998093E+01 0. -1.
       -5    1    3    3    0  502  0.33828767709E+03 -0.72412364755E+03 -0.11226757503E+04  0.13781206550E+04  0.46999998093E+01 0.  1.
</event>
<event>
 5   0  0.2933646E-06  0.3313680E+04  0.7818609E-02  0.8159423E-01
        1   -1    0    0  501    0  0.00000000000E+00  0.00000000000E+00  0.83417918053E+03  0.83417918055E+03  0.50400001928E-02 0. -1.
       -1   -1    0    0    0  501  0.00000000000E+00  0.00000000000E+00 -0.32908028814E+04  0.32908028814E+04  0.50400001928E-02 0.  1.
    10030    2    1    2    0    0  0.00000000000E+00  0.00000000000E+00 -0.24566237009E+04  0.41249820620E+04  0.33136802809E+04 0.  0.
        2    1    3    3  502    0 -0.20440227415E+03  0.11780649187E+04  0.19945475118E+03  0.12121878733E+04  0.25500000920E-02 0. -1.
       -2    1    3    3    0  502  0.20440227415E+03 -0.11780649187E+04 -0.26560784521E+04  0.29127941887E+04  0.25500000920E-02 0.  1.
</event>
<event>
 5   0  0.7971763E-06  0.3131768E+04  0.7818609E-02  0.8207073E-01
        2   -1    0    0  501    0  0.00000000000E+00  0.00000000000E+00  0.24854899317E+04  0.24854899317E+04  0.25500000920E-02 0. -1.
       -2   -1    0    0    0  501  0.00000000000E+00  0.00000000000E+00 -0.98652306737E+03  0.98652306738E+03  0.25500000920E-02 0.  1.
    10030    2    1    2    0    0  0.00000000000E+00  0.00000000000E+00  0.14989668643E+04  0.34720129991E+04  0.31317682873E+04 0.  0.
        1    1    3    3  502    0 -0.70632877514E+03 -0.32622522469E+03  0.22560431719E+04  0.23864312328E+04  0.50400001928E-02 0. -1.
       -1    1    3    3    0  502  0.70632877514E+03  0.32622522469E+03 -0.75707630751E+03  0.10855817663E+04  0.50400001928E-02 0.  1.
</event>
<event>
 5   0  0.7510251E-06  0.1617413E+04  0.7818609E-02  0.8809921E-01
       -2   -1    0    0    0  501  0.00000000000E+00  0.00000000000E+00  0.29841696013E+04  0.29841696013E+04  0.25500000920E-02 0.  1.
        2   -1    0    0  501    0  0.00000000000E+00  0.00000000000E+00 -0.21915850883E+03  0.21915850884E+03  0.25500000920E-02 0. -1.
    10030    2    1    2    0    0  0.00000000000E+00  0.00000000000E+00  0.27650110924E+04  0.32033281101E+04  0.16174129466E+04 0.  0.
        3    1    3    3  502    0  0.60995592827E+03 -0.11120205435E+03  0.24108429572E+04  0.24892922500E+04  0.10100000352E+00 0.  1.
       -3    1    3    3    0  502 -0.60995592827E+03  0.11120205435E+03  0.35416813522E+03  0.71403586011E+03  0.10100000352E+00 0. -1.
</event>
<event>
 5   0  0.7510251E-06  0.3141066E+04  0.7818609E-02  0.8204557E-01
        2   -1    0    0  501    0  0.00000000000E+00  0.00000000000E+00  0.25174627252E+04  0.25174627252E+04  0.25500000920E-02 0.  1.
       -2   -1    0    0    0  501  0.00000000000E+00  0.00000000000E+00 -0.97978586718E+03  0.97978586719E+03  0.25500000920E-02 0. -1.
    10030    2    1    2    0    0  0.00000000000E+00  0.00000000000E+00  0.15376768580E+04  0.34972485924E+04  0.31410663153E+04 0.  0.
        3    1    3    3  502    0  0.18112873800E+03 -0.35131128934E+03  0.24611799857E+04  0.24927162241E+04  0.10100000352E+00 0.  1.
       -3    1    3    3    0  502 -0.18112873800E+03  0.35131128934E+03 -0.92350312772E+03  0.10045323682E+04  0.10100000352E+00 0. -1.
</event>
<event>
 5   0  0.2635798E-06  0.2920455E+04  0.7818609E-02  0.8266817E-01
        1   -1    0    0  501    0  0.00000000000E+00  0.00000000000E+00  0.11977052833E+04  0.11977052833E+04  0.50400001928E-02 0.  1.
       -1   -1    0    0    0  501  0.00000000000E+00  0.00000000000E+00 -0.17802912012E+04  0.17802912012E+04  0.50400001928E-02 0. -1.
    10030    2    1    2    0    0  0.00000000000E+00  0.00000000000E+00 -0.58258591794E+03  0.29779964845E+04  0.29204548807E+04 0.  0.
        1    1    3    3  502    0 -0.13128363486E+04  0.37564156101E+03  0.23621813460E+03  0.13858011645E+04  0.50400001928E-02 0.  1.
       -1    1    3    3    0  502  0.13128363486E+04 -0.37564156101E+03 -0.81880405254E+03  0.15921953200E+04  0.50400001928E-02 0. -1.
</event>
<event>
 5   0  0.7971763E-06  0.2607623E+04  0.7818609E-02  0.8365616E-01
       -2   -1    0    0    0  501  0.00000000000E+00  0.00000000000E+00  0.15824035327E+04  0.15824035327E+04  0.25500000920E-02 0. -1.
        2   -1    0    0  501    0  0.00000000000E+00  0.00000000000E+00 -0.10742674056E+04  0.10742674056E+04  0.25500000920E-02 0.  1.
    10030    2    1    2    0    0  0.00000000000E+00  0.00000000000E+00  0.50813612706E+03  0.26566709383E+04  0.26076230845E+04 0.  0.
        1    1    3    3  502    0 -0.32068650771E+03  0.81019381074E+03  0.12421927606E+04  0.15173321000E+04  0.50400001928E-02 0. -1.
       -1    1    3    3    0  502  0.32068650771E+03 -0.81019381074E+03 -0.73405663352E+03  0.11393388383E+04  0.50400001928E-02 0.  1.
</event>
<event>
 5   0  0.2933646E-06  0.3090405E+04  0.7818609E-02  0.8218376E-01
        1   -1    0    0  501    0  0.00000000000E+00  0.00000000000E+00  0.13629240984E+04  0.13629240984E+04  0.50400001928E-02 0.  1.
       -1   -1    0    0    0  501  0.00000000000E+00  0.00000000000E+00 -0.17518587799E+04  0.17518587799E+04  0.50400001928E-02 0. -1.
    10030    2    1    2    0    0  0.00000000000E+00  0.00000000000E+00 -0.38893468153E+03  0.31147828783E+04  0.30904048590E+04 0.  0.
        2    1    3    3  502    0 -0.25673335020E+02 -0.15084409759E+04  0.14222958239E+03  0.15153489869E+04  0.25500000920E-02 0.  1.
       -2    1    3    3    0  502  0.25673335020E+02  0.15084409759E+04 -0.53116426393E+03  0.15994338914E+04  0.25500000920E-02 0. -1.
</event>
<event>
 5   0  0.2788054E-06  0.3117811E+04  0.7818609E-02  0.8210867E-01
        1   -1    0    0  501    0  0.00000000000E+00  0.00000000000E+00  0.19404040928E+04  0.19404040928E+04  0.50400001928E-02 0. -1.
       -1   -1    0    0    0  501  0.00000000000E+00  0.00000000000E+00 -0.12524121972E+04  0.12524121972E+04  0.50400001928E-02 0.  1.
    10030    2    1    2    0    0  0.00000000000E+00  0.00000000000E+00  0.68799189560E+03  0.31928162901E+04  0.31178106123E+04 0.  0.
        3    1    3    3  502    0 -0.14978936036E+04 -0.96935875767E+02  0.77495727576E+03  0.16892722105E+04  0.10100000352E+00 0.  1.
       -3    1    3    3    0  502  0.14978936036E+04  0.96935875767E+02 -0.86965380163E+02  0.15035440796E+04  0.10100000352E+00 0. -1.
</event>
<event>
 5   0  0.7952307E-06  0.3220347E+04  0.7818609E-02  0.8183464E-01
       -2   -1    0    0    0  501  0.00000000000E+00  0.00000000000E+00  0.12597610472E+04  0.12597610472E+04  0.25500000920E-02 0.  1.
        2   -1    0    0  501    0  0.00000000000E+00  0.00000000000E+00 -0.20580558094E+04  0.20580558094E+04  0.25500000920E-02 0. -1.
    10030    2    1    2    0    0  0.00000000000E+00  0.00000000000E+00 -0.79829476223E+03  0.33178168566E+04  0.32203469016E+04 0.  0.
        2    1    3    3  502    0 -0.83546716396E+03  0.12482139959E+04  0.19859833398E+03  0.15150857599E+04  0.25500000920E-02 0. -1.
       -2    1    3    3    0  502  0.83546716396E+03 -0.12482139959E+04 -0.99689309622E+03  0.18027310967E+04  0.25500000920E-02 0.  1.
</event>
<event>
 5   0  0.7971763E-06  0.3252591E+04  0.7818609E-02  0.8175064E-01
        2   -1    0    0  501    0  0.00000000000E+00  0.00000000000E+00  0.16389470148E+04  0.16389470148E+04  0.25500000920E-02 0. -1.
       -2   -1    0    0    0  501  0.00000000000E+00  0.00000000000E+00 -0.16137419152E+04  0.16137419152E+04  0.25500000920E-02 0.  1.
    10030    2    1    2    0    0  0.00000000000E+00  0.00000000000E+00  0.25205099572E+02  0.32526889300E+04  0.32525912713E+04 0.  0.
        1    1    3    3  502    0 -0.13003016694E+03 -0.16058476899E+04 -0.20917616959E+03  0.16246259008E+04  0.50400001928E-02 0. -1.
       -1    1    3    3    0  502  0.13003016694E+03  0.16058476899E+04  0.23438126916E+03  0.16280630292E+04  0.50400001928E-02 0.  1.
</event>
<event>
 5   0  0.8237664E-06  0.3203131E+04  0.7818609E-02  0.8187991E-01
        2   -1    0    0  501    0  0.00000000000E+00  0.00000000000E+00  0.81531216001E+03  0.81531216002E+03  0.25500000920E-02 0.  1.
       -2   -1    0    0    0  501  0.00000000000E+00  0.00000000000E+00 -0.31460490971E+04  0.31460490971E+04  0.25500000920E-02 0. -1.
    10030    2    1    2    0    0  0.00000000000E+00  0.00000000000E+00 -0.23307369371E+04  0.39613612571E+04  0.32031310213E+04 0.  0.
        5    1    3    3  502    0  0.24659515427E+03  0.11913042114E+04 -0.24535576042E+04  0.27386094832E+04  0.46999998093E+01 0. -1.
       -5    1    3    3    0  502 -0.24659515427E+03 -0.11913042114E+04  0.12282066719E+03  0.12227517739E+04  0.46999998093E+01 0.  1.
</event>
<event>
 5   0  0.2933646E-06  0.3086212E+04  0.7818609E-02  0.8219532E-01
       -1   -1    0    0    0  501  0.00000000000E+00  0.00000000000E+00  0.10576218587E+04  0.10576218587E+04  0.50400001928E-02 0.  1.
        1   -1    0    0  501    0  0.00000000000E+00  0.00000000000E+00 -0.22514436711E+04  0.22514436711E+04  0.50400001928E-02 0. -1.
    10030    2    1    2    0    0  0.00000000000E+00  0.00000000000E+00 -0.11938218124E+04  0.33090655298E+04  0.30862119436E+04 0.  0.
        2    1    3    3  502    0 -0.89961846184E+03  0.12481824596E+04 -0.47048468071E+03  0.16089215842E+04  0.25500000920E-02 0.  1.
       -2    1    3    3    0  502  0.89961846184E+03 -0.12481824596E+04 -0.72333713171E+03  0.17001439455E+04  0.25500000920E-02 0. -1.
</event>
<event>
 5   0  0.7941434E-06  0.3169967E+04  0.7818609E-02  0.8196794E-01
       -2   -1    0    0    0  501  0.00000000000E+00  0.00000000000E+00  0.24880851981E+04  0.24880851981E+04  0.25500000920E-02 0. -1.
        2   -1    0    0  501    0  0.00000000000E+00  0.00000000000E+00 -0.10096810728E+04  0.10096810728E+04  0.25500000920E-02 0.  1.
    10030    2    1    2    0    0  0.00000000000E+00  0.00000000000E+00  0.14784041253E+04  0.34977662709E+04  0.31699668970E+04 0.  0.
        4    1    3    3  502    0  0.61089391133E+03  0.92466365191E+02 -0.87133099685E+03  0.10681576281E+04  0.12699999809E+01 0.  1.
       -4    1    3    3    0  502 -0.61089391133E+03 -0.92466365191E+02  0.23497351222E+04  0.24296086428E+04  0.12699999809E+01 0. -1.
</event>
<event>
 5   0  0.7971763E-06  0.2693953E+04  0.7818609E-02  0.8336970E-01
       -2   -1    0    0    0  501  0.00000000000E+00  0.00000000000E+00  0.12834135767E+04  0.12834135767E+04  0.25500000920E-02 0. -1.
        2   -1    0    0  501    0  0.00000000000E+00  0.00000000000E+00 -0.14136870646E+04  0.14136870646E+04  0.25500000920E-02 0.  1.
    10030    2    1    2    0    0  0.00000000000E+00  0.00000000000E+00 -0.13027348796E+03  0.26971006413E+04  0.26939526142E+04 0.  0.
        1    1    3    3  502    0  0.83837599158E+03  0.47446249772E+03  0.87742833391E+03  0.13030231948E+04  0.50400001928E-02 0. -1.
       -1    1    3    3    0  502 -0.83837599158E+03 -0.47446249772E+03 -0.10077018219E+04  0.13940774465E+04  0.50400001928E-02 0.  1.
</event>
<event>
 5   0  0.2635798E-06  0.2613050E+04  0.7818609E-02  0.8363782E-01
        1   -1    0    0  501    0  0.00000000000E+00  0.00000000000E+00  0.23159975817E+04  0.23159975817E+04  0.50400001928E-02 0.  1.
       -1   -1    0    0    0  501  0.00000000000E+00  0.00000000000E+00 -0.73705086706E+03  0.73705086708E+03  0.50400001928E-02 0. -1.
    10030    2    1    2    0    0  0.00000000000E+00  0.00000000000E+00  0.15789467146E+04  0.30530484487E+04  0.26130503445E+04 0.  0.
        1    1    3    3  502    0  0.85561664633E+03  0.67699118552E+03  0.16292577361E+04  0.19608359650E+04  0.50400001928E-02 0. -1.
       -1    1    3    3    0  502 -0.85561664633E+03 -0.67699118552E+03 -0.50311021555E+02  0.10922124838E+04  0.50400001928E-02 0.  1.
</event>
<event>
 5   0  0.4142886E-06  0.1765578E+04  0.7818609E-02  0.8724822E-01
        1   -1    0    0  501    0  0.00000000000E+00  0.00000000000E+00  0.97810092615E+03  0.97810092616E+03  0.50400001928E-02 0.  1.
       -1   -1    0    0    0  501  0.00000000000E+00  0.00000000000E+00 -0.79676491934E+03  0.79676491935E+03  0.50400001928E-02 0. -1.
    10030    2    1    2    0    0  0.00000000000E+00  0.00000000000E+00  0.18133600681E+03  0.17748658455E+04  0.17655780986E+04 0.  0.
        5    1    3    3  502    0  0.38521368629E+03  0.52478425768E+03  0.69004801902E+03  0.94867089117E+03  0.46999998093E+01 0.  1.
       -5    1    3    3    0  502 -0.38521368629E+03 -0.52478425768E+03 -0.50871201221E+03  0.82619495434E+03  0.46999998093E+01 0. -1.
</event>
<event>
 5   0  0.8237664E-06  0.2568557E+04  0.7818609E-02  0.8378961E-01
       -2   -1    0    0    0  501  0.00000000000E+00  0.00000000000E+00  0.86504317063E+03  0.86504317063E+03  0.25500000920E-02 0. -1.
        2   -1    0    0  501    0  0.00000000000E+00  0.00000000000E+00 -0.19066926990E+04  0.19066926990E+04  0.25500000920E-02 0.  1.
    10030    2    1    2    0    0  0.00000000000E+00  0.00000000000E+00 -0.10416495284E+04  0.27717358697E+04  0.25685571808E+04 0.  0.
        5    1    3    3  502    0  0.99499541453E+03  0.30517575095E+03 -0.13328098129E+04  0.16910210529E+04  0.46999998093E+01 0.  1.
       -5    1    3    3    0  502 -0.99499541453E+03 -0.30517575095E+03  0.29116028452E+03  0.10807148168E+04  0.46999998093E+01 0. -1.
</event>
<event>
 5   0  0.8237664E-06  0.3217550E+04  0.7818609E-02  0.8184198E-01
        2   -1    0    0  501    0  0.00000000000E+00  0.00000000000E+00  0.18257490380E+04  0.18257490380E+04  0.25500000920E-02 0. -1.
       -2   -1    0    0    0  501  0.00000000000E+00  0.00000000000E+00 -0.14175861026E+04  0.14175861026E+04  0.25500000920E-02 0.  1.
    10030    2    1    2    0    0  0.00000000000E+00  0.00000000000E+00  0.40816293540E+03  0.32433351406E+04  0.32175496659E+04 0.  0.
        5    1    3    3  502    0 -0.15629461540E+04  0.88655543878E+02 -0.16966463694E+03  0.15746328666E+04  0.46999998093E+01 0.  1.
       -5    1    3    3    0  502  0.15629461540E+04 -0.88655543878E+02  0.57782757234E+03  0.16687022739E+04  0.46999998093E+01 0. -1.
</event>
<event>
 5   0  0.8237664E-06  0.3076504E+04  0.7818609E-02  0.8222216E-01
       -2   -1    0    0    0  501  0.00000000000E+00  0.00000000000E+00  0.97521853533E+03  0.97521853533E+03  0.25500000920E-02 0.  1.
        2   -1    0    0  501    0  0.00000000000E+00  0.00000000000E+00 -0.24263479476E+04  0.24263479476E+04  0.25500000920E-02 0. -1.
    10030    2    1    2    0    0  0.00000000000E+00  0.00000000000E+00 -0.14511294122E+04  0.34015664829E+04  0.30765041795E+04 0.  0.
        5    1    3    3  502    0 -0.76364236917E+03  0.72253674550E+03 -0.19671512505E+04  0.22304517814E+04  0.46999998093E+01 0. -1.
       -5    1    3    3    0  502  0.76364236917E+03 -0.72253674550E+03  0.51602183827E+03  0.11711147015E+04  0.46999998093E+01 0.  1.
</event>
<event>
 5   0  0.7941434E-06  0.3202940E+04  0.7818609E-02  0.8188041E-01
        2   -1    0    0  501    0  0.00000000000E+00  0.00000000000E+00  0.21060137022E+04  0.21060137022E+04  0.25500000920E-02 0. -1.
       -2   -1    0    0    0  501  0.00000000000E+00  0.00000000000E+00 -0.12178013975E+04  0.12178013975E+04  0.25500000920E-02 0.  1.
    10030    2    1    2    0    0  0.00000000000E+00  0.00000000000E+00  0.88821230469E+03  0.33238150997E+04  0.32029401679E+04 0.  0.
        4    1    3    3  502    0 -0.11700362637E+04  0.98568458423E+03 -0.47201343776E+02  0.15306170447E+04  0.12699999809E+01 0. -1.
       -4    1    3    3    0  502  0.11700362637E+04 -0.98568458423E+03  0.93541364846E+03  0.17931980550E+04  0.12699999809E+01 0.  1.
</event>
<event>
 5   0  0.7941434E-06  0.3234330E+04  0.7818609E-02  0.8179809E-01
       -2   -1    0    0    0  501  0.00000000000E+00  0.00000000000E+00  0.13041341679E+04  0.13041341679E+04  0.25500000920E-02 0. -1.
        2   -1    0    0  501    0  0.00000000000E+00  0.00000000000E+00 -0.20053321697E+04  0.20053321697E+04  0.25500000920E-02 0.  1.
    10030    2    1    2    0    0  0.00000000000E+00  0.00000000000E+00 -0.70119800181E+03  0.33094663375E+04  0.32343297299E+04 0.  0.
        4    1    3    3  502    0  0.15260969229E+04  0.15305733121E+03 -0.87517053170E+03  0.17658775261E+04  0.12699999809E+01 0.  1.
       -4    1    3    3    0  502 -0.15260969229E+04 -0.15305733121E+03  0.17397252988E+03  0.15435888114E+04  0.12699999809E+01 0. -1.
</event>
<event>
 5   0  0.4142886E-06  0.2220312E+04  0.7818609E-02  0.8510021E-01
        1   -1    0    0  501    0  0.00000000000E+00  0.00000000000E+00  0.11467839209E+04  0.11467839210E+04  0.50400001928E-02 0. -1.
       -1   -1    0    0    0  501  0.00000000000E+00  0.00000000000E+00 -0.10746979333E+04  0.10746979333E+04  0.50400001928E-02 0.  1.
    10030    2    1    2    0    0  0.00000000000E+00  0.00000000000E+00  0.72085987663E+02  0.22214818543E+04  0.22203119689E+04 0.  0.
        5    1    3    3  502    0  0.43225271897E+02 -0.11059732388E+04 -0.49903318919E+02  0.11079520118E+04  0.46999998093E+01 0.  1.
       -5    1    3    3    0  502 -0.43225271897E+02  0.11059732388E+04  0.12198930658E+03  0.11135298425E+04  0.46999998093E+01 0. -1.
</event>
<event>
 5   0  0.7510251E-06  0.3209181E+04  0.7818609E-02  0.8186397E-01
       -2   -1    0    0    0  501  0.00000000000E+00  0.00000000000E+00  0.25410814399E+04  0.25410814400E+04  0.25500000920E-02 0. -1.
        2   -1    0    0  501    0  0.00000000000E+00  0.00000000000E+00 -0.10132339649E+04  0.10132339649E+04  0.25500000920E-02 0.  1.
    10030    2    1    2    0    0  0.00000000000E+00  0.00000000000E+00  0.15278474751E+04  0.35543154048E+04  0.32091805948E+04 0.  0.
        3    1    3    3  502    0  0.64293167523E+03  0.11784009452E+04 -0.20965909448E+03  0.13586562747E+04  0.10100000352E+00 0.  1.
       -3    1    3    3    0  502 -0.64293167523E+03 -0.11784009452E+04  0.17375065695E+04  0.21956591302E+04  0.10100000352E+00 0. -1.
</event>
<event>
 5   0  0.7952307E-06  0.3191092E+04  0.7818609E-02  0.8191174E-01
       -2   -1    0    0    0  501  0.00000000000E+00  0.00000000000E+00  0.16461162983E+04  0.16461162983E+04  0.25500000920E-02 0.  1.
        2   -1    0    0  501    0  0.00000000000E+00  0.00000000000E+00 -0.15465294566E+04  0.15465294566E+04  0.25500000920E-02 0. -1.
    10030    2    1    2    0    0  0.00000000000E+00  0.00000000000E+00  0.99586841740E+02  0.31926457549E+04  0.31910921919E+04 0.  0.
        2    1    3    3  502    0 -0.26685839305E+03 -0.11785442292E+04 -0.99262910493E+03  0.15638070348E+04  0.25500000920E-02 0. -1.
       -2    1    3    3    0  502  0.26685839305E+03  0.11785442292E+04  0.10922159467E+04  0.16288387201E+04  0.25500000920E-02 0.  1.
</event>
<event>
 5   0  0.2788054E-06  0.3241988E+04  0.7818609E-02  0.8177815E-01
        1   -1    0    0  501    0  0.00000000000E+00  0.00000000000E+00  0.86540884743E+03  0.86540884744E+03  0.50400001928E-02 0.  1.
       -1   -1    0    0    0  501  0.00000000000E+00  0.00000000000E+00 -0.30362775446E+04  0.30362775446E+04  0.50400001928E-02 0. -1.
    10030    2    1    2    0    0  0.00000000000E+00  0.00000000000E+00 -0.21708686972E+04  0.39016863921E+04  0.32419879398E+04 0.  0.
        3    1    3    3  502    0 -0.10394631393E+04  0.11952378222E+04 -0.67107090689E+03  0.17202945218E+04  0.10100000352E+00 0.  1.
       -3    1    3    3    0  502  0.10394631393E+04 -0.11952378222E+04 -0.14997977903E+04  0.21813918702E+04  0.10100000352E+00 0. -1.
</event>
<event>
 5   0  0.8237664E-06  0.3205323E+04  0.7818609E-02  0.8187413E-01
       -2   -1    0    0    0  501  0.00000000000E+00  0.00000000000E+00  0.14445200783E+04  0.14445200783E+04  0.25500000920E-02 0. -1.
        2   -1    0    0  501    0  0.00000000000E+00  0.00000000000E+00 -0.17781156249E+04  0.17781156249E+04  0.25500000920E-02 0.  1.
    10030    2    1    2    0    0  0.00000000000E+00  0.00000000000E+00 -0.33359554656E+03  0.32226357032E+04  0.32053228990E+04 0.  0.
        5    1    3    3  502    0 -0.12291775365E+03  0.31519466043E+03  0.14082027609E+04  0.14482795152E+04  0.46999998093E+01 0. -1.
       -5    1    3    3    0  502  0.12291775365E+03 -0.31519466043E+03 -0.17417983075E+04  0.17743561881E+04  0.46999998093E+01 0.  1.
</event>
<event>
 5   0  0.7952307E-06  0.3219240E+04  0.7818609E-02  0.8183754E-01
        2   -1    0    0  501    0  0.00000000000E+00  0.00000000000E+00  0.16380401994E+04  0.16380401994E+04  0.25500000920E-02 0. -1.
       -2   -1    0    0    0  501  0.00000000000E+00  0.00000000000E+00 -0.15816933072E+04  0.15816933072E+04  0.25500000920E-02 0.  1.
    10030    2    1    2    0    0  0.00000000000E+00  0.00000000000E+00  0.56346892284E+02  0.32197335066E+04  0.32192404199E+04 0.  0.
        2    1    3    3  502    0  0.91771224948E+03  0.11924347395E+04 -0.54356159076E+03  0.15998611139E+04  0.25500000920E-02 0.  1.
       -2    1    3    3    0  502 -0.91771224948E+03 -0.11924347395E+04  0.59990848304E+03  0.16198723927E+04  0.25500000920E-02 0. -1.
</event>
<event>
 5   0  0.2635798E-06  0.1860059E+04  0.7818609E-02  0.8674997E-01
        1   -1    0    0  501    0  0.00000000000E+00  0.00000000000E+00  0.72986483160E+03  0.72986483162E+03  0.50400001928E-02 0.  1.
       -1   -1    0    0    0  501  0.00000000000E+00  0.00000000000E+00 -0.11850886984E+04  0.11850886984E+04  0.50400001928E-02 0. -1.
    10030    2    1    2    0    0  0.00000000000E+00  0.00000000000E+00 -0.45522386677E+03  0.19149535300E+04  0.18600586693E+04 0.  0.
        1    1    3    3  502    0  0.15440821693E+02 -0.21421685177E+03 -0.11592082216E+04  0.11789363764E+04  0.50400001928E-02 0. -1.
       -1    1    3    3    0  502 -0.15440821693E+02  0.21421685177E+03  0.70398435482E+03  0.73601715361E+03  0.50400001928E-02 0.  1.
</event>
<event>
 5   0  0.8237664E-06  0.3198823E+04  0.7818609E-02  0.8189128E-01
        2   -1    0    0  501    0  0.00000000000E+00  0.00000000000E+00  0.20951290074E+04  0.20951290074E+04  0.25500000920E-02 0. -1.
       -2   -1    0    0    0  501  0.00000000000E+00  0.00000000000E+00 -0.12209833523E+04  0.12209833523E+04  0.25500000920E-02 0.  1.
    10030    2    1    2    0    0  0.00000000000E+00  0.00000000000E+00  0.87414565509E+03  0.33161123596E+04  0.31988233080E+04 0.  0.
        5    1    3    3  502    0 -0.10704480315E+04 -0.95191220877E+03 -0.30041868857E+03  0.14636493158E+04  0.46999998093E+01 0.  1.
       -5    1    3    3    0  502  0.10704480315E+04  0.95191220877E+03  0.11745643437E+04  0.18524630438E+04  0.46999998093E+01 0. -1.
</event>
<event>
 5   0  0.2580875E-06  0.1742980E+04  0.7818609E-02  0.8737224E-01
        4   -1    0    0  501    0  0.00000000000E+00  0.00000000000E+00  0.62844791362E+03  0.62844919686E+03  0.12699999809E+01 0. -1.
       -4   -1    0    0    0  501  0.00000000000E+00  0.00000000000E+00 -0.12085220136E+04  0.12085226809E+04  0.12699999809E+01 0.  1.
    10030    2    1    2    0    0  0.00000000000E+00  0.00000000000E+00 -0.58007409997E+03  0.18369718777E+04  0.17429801256E+04 0.  0.
        5    1    3    3  502    0 -0.85610186020E+03 -0.87428412193E+00 -0.11827079614E+03  0.86424604750E+03  0.46999998093E+01 0.  1.
       -5    1    3    3    0  502  0.85610186020E+03  0.87428412193E+00 -0.46180330383E+03  0.97272583025E+03  0.46999998093E+01 0. -1.
</event>
<event>
 5   0  0.7510251E-06  0.3159122E+04  0.7818609E-02  0.8199697E-01
        2   -1    0    0  501    0  0.00000000000E+00  0.00000000000E+00  0.18267477145E+04  0.18267477145E+04  0.25500000920E-02 0.  1.
       -2   -1    0    0    0  501  0.00000000000E+00  0.00000000000E+00 -0.13658224160E+04  0.13658224160E+04  0.25500000920E-02 0. -1.
    10030    2    1    2    0    0  0.00000000000E+00  0.00000000000E+00  0.46092529850E+03  0.31925701304E+04  0.31591220152E+04 0.  0.
        3    1    3    3  502    0  0.33831519720E+03  0.80253411754E+03  0.15621761041E+04  0.17885503551E+04  0.10100000352E+00 0.  1.
       -3    1    3    3    0  502 -0.33831519720E+03 -0.80253411754E+03 -0.11012508056E+04  0.14040197753E+04  0.10100000352E+00 0. -1.
</event>
<event>
 5   0  0.2933646E-06  0.1610563E+04  0.7818609E-02  0.8814085E-01
       -1   -1    0    0    0  501  0.00000000000E+00  0.00000000000E+00  0.30515330071E+03  0.30515330075E+03  0.50400001928E-02 0.  1.
        1   -1    0    0  501    0  0.00000000000E+00  0.00000000000E+00 -0.21250911232E+04  0.21250911233E+04  0.50400001928E-02 0. -1.
    10030    2    1    2    0    0  0.00000000000E+00  0.00000000000E+00 -0.18199378225E+04  0.24302444240E+04  0.16105633432E+04 0.  0.
        2    1    3    3  502    0 -0.25523696465E+03  0.63050287051E+03 -0.15603884649E+04  0.17022020853E+04  0.25500000920E-02 0. -1.
       -2    1    3    3    0  502  0.25523696465E+03 -0.63050287051E+03 -0.25954935761E+03  0.72804233866E+03  0.25500000920E-02 0.  1.
</event>
<event>
 5   0  0.2580875E-06  0.2510858E+04  0.7818609E-02  0.8399127E-01
        3   -1    0    0  501    0  0.00000000000E+00  0.00000000000E+00  0.98837064412E+03  0.98837064928E+03  0.10100000352E+00 0. -1.
       -3   -1    0    0    0  501  0.00000000000E+00  0.00000000000E+00 -0.15946472579E+04  0.15946472611E+04  0.10100000352E+00 0.  1.
    10030    2    1    2    0    0  0.00000000000E+00  0.00000000000E+00 -0.60627661379E+03  0.25830179104E+04  0.25108584574E+04 0.  0.
        2    1    3    3  502    0 -0.11025259149E+04  0.48897161933E+03  0.55367863019E+02  0.12073616847E+04  0.25500000920E-02 0. -1.
       -2    1    3    3    0  502  0.11025259149E+04 -0.48897161933E+03 -0.66164447681E+03  0.13756562257E+04  0.25500000920E-02 0.  1.
</event>
<event>
 5   0  0.7952307E-06  0.3029936E+04  0.7818609E-02  0.8235234E-01
       -2   -1    0    0    0  501  0.00000000000E+00  0.00000000000E+00  0.27958727764E+04  0.27958727764E+04  0.25500000920E-02 0. -1.
        2   -1    0    0  501    0  0.00000000000E+00  0.00000000000E+00 -0.82089834826E+03  0.82089834826E+03  0.25500000920E-02 0.  1.
    10030    2    1    2    0    0  0.00000000000E+00  0.00000000000E+00  0.19749744282E+04  0.36167711247E+04  0.30299355400E+04 0.  0.
        2    1    3    3  502    0  0.11257049719E+04 -0.52001839418E+03 -0.51422869136E+02  0.12410782109E+04  0.25500000920E-02 0.  1.
       -2    1    3    3    0  502 -0.11257049719E+04  0.52001839418E+03  0.20263972973E+04  0.23756929138E+04  0.25500000920E-02 0. -1.
</event>
<event>
 5   0  0.7971763E-06  0.3047191E+04  0.7818609E-02  0.8230382E-01
       -2   -1    0    0    0  501  0.00000000000E+00  0.00000000000E+00  0.12013913667E+04  0.12013913667E+04  0.25500000920E-02 0. -1.
        2   -1    0    0  501    0  0.00000000000E+00  0.00000000000E+00 -0.19322128745E+04  0.19322128745E+04  0.25500000920E-02 0.  1.
    10030    2    1    2    0    0  0.00000000000E+00  0.00000000000E+00 -0.73082150772E+03  0.31336042412E+04  0.30471914059E+04 0.  0.
        1    1    3    3  502    0 -0.13512615671E+04  0.61882156845E+03 -0.71032630633E+03  0.16472435818E+04  0.50400001928E-02 0.  1.
       -1    1    3    3    0  502  0.13512615671E+04 -0.61882156845E+03 -0.20495201396E+02  0.14863606594E+04  0.50400001928E-02 0. -1.
</event>
<event>
 5   0  0.3938696E-06  0.3121798E+04  0.7818609E-02  0.8209781E-01
        1   -1    0    0  501    0  0.00000000000E+00  0.00000000000E+00  0.10628991795E+04  0.10628991795E+04  0.50400001928E-02 0. -1.
       -1   -1    0    0    0  501  0.00000000000E+00  0.00000000000E+00 -0.22922263178E+04  0.22922263178E+04  0.50400001928E-02 0.  1.
    10030    2    1    2    0    0  0.00000000000E+00  0.00000000000E+00 -0.12293271383E+04  0.33551254974E+04  0.31217978618E+04 0.  0.
        4    1    3    3  502    0  0.10050235041E+04  0.73675139391E+03 -0.16248799233E+04  0.20477087777E+04  0.12699999809E+01 0.  1.
       -4    1    3    3    0  502 -0.10050235041E+04 -0.73675139391E+03  0.39555278501E+03  0.13074167197E+04  0.12699999809E+01 0. -1.
</event>
<event>
 5   0  0.2788054E-06  0.3107980E+04  0.7818609E-02  0.8213551E-01
       -1   -1    0    0    0  501  0.00000000000E+00  0.00000000000E+00  0.12906382020E+04  0.12906382020E+04  0.50400001928E-02 0.  1.
        1   -1    0    0  501    0  0.00000000000E+00  0.00000000000E+00 -0.18710780525E+04  0.18710780525E+04  0.50400001928E-02 0. -1.
    10030    2    1    2    0    0  0.00000000000E+00  0.00000000000E+00 -0.58043985053E+03  0.31617162545E+04  0.31079799313E+04 0.  0.
        3    1    3    3  502    0 -0.11248153544E+04  0.69373165336E+03 -0.11219198843E+04  0.17335447572E+04  0.10100000352E+00 0.  1.
       -3    1    3    3    0  502  0.11248153544E+04 -0.69373165336E+03  0.54148003379E+03  0.14281714972E+04  0.10100000352E+00 0. -1.
</event>
<event>
 5   0  0.7952307E-06  0.1577562E+04  0.7818609E-02  0.8834453E-01
        2   -1    0    0  501    0  0.00000000000E+00  0.00000000000E+00  0.13469170818E+04  0.13469170818E+04  0.25500000920E-02 0. -1.
       -2   -1    0    0    0  501  0.00000000000E+00  0.00000000000E+00 -0.46192540201E+03  0.46192540202E+03  0.25500000920E-02 0.  1.
    10030    2    1    2    0    0  0.00000000000E+00  0.00000000000E+00  0.88499167975E+03  0.18088424838E+04  0.15775616812E+04 0.  0.
        2    1    3    3  502    0 -0.35446795171E+03  0.57755850175E+03  0.90535272747E+03  0.11308779390E+04  0.25500000920E-02 0. -1.
       -2    1    3    3    0  502  0.35446795171E+03 -0.57755850175E+03 -0.20361047719E+02  0.67796454480E+03  0.25500000920E-02 0.  1.
</event>
<event>
 5   0  0.2788054E-06  0.2130561E+04  0.7818609E-02  0.8547899E-01
        1   -1    0    0  501    0  0.00000000000E+00  0.00000000000E+00  0.12967964495E+04  0.12967964495E+04  0.50400001928E-02 0.  1.
       -1   -1    0    0    0  501  0.00000000000E+00  0.00000000000E+00 -0.87509706551E+03  0.87509706552E+03  0.50400001928E-02 0. -1.
    10030    2    1    2    0    0  0.00000000000E+00  0.00000000000E+00  0.42169938402E+03  0.21718935151E+04  0.21305612102E+04 0.  0.
        3    1    3    3  502    0  0.41668431930E+03  0.73677693887E+03 -0.44850312428E+03  0.95792543671E+03  0.10100000352E+00 0. -1.
       -3    1    3    3    0  502 -0.41668431930E+03 -0.73677693887E+03  0.87020250830E+03  0.12139680784E+04  0.10100000352E+00 0.  1.
</event>
<event>
 5   0  0.2635798E-06  0.2138733E+04  0.7818609E-02  0.8544370E-01
        1   -1    0    0  501    0  0.00000000000E+00  0.00000000000E+00  0.78097868940E+03  0.78097868941E+03  0.50400001928E-02 0. -1.
       -1   -1    0    0    0  501  0.00000000000E+00  0.00000000000E+00 -0.14642463736E+04  0.14642463736E+04  0.50400001928E-02 0.  1.
    10030    2    1    2    0    0  0.00000000000E+00  0.00000000000E+00 -0.68326768420E+03  0.22452250630E+04  0.21387334699E+04 0.  0.
        1    1    3    3  502    0 -0.29037650494E+03  0.29967975361E+03  0.69198144058E+03  0.80806236361E+03  0.50400001928E-02 0. -1.
       -1    1    3    3    0  502  0.29037650494E+03 -0.29967975361E+03 -0.13752491248E+04  0.14371626994E+04  0.50400001928E-02 0.  1.
</event>
<event>
 5   0  0.2933646E-06  0.2223004E+04  0.7818609E-02  0.8508914E-01
        1   -1    0    0  501    0  0.00000000000E+00  0.00000000000E+00  0.10570131917E+04  0.10570131917E+04  0.50400001928E-02 0.  1.
       -1   -1    0    0    0  501  0.00000000000E+00  0.00000000000E+00 -0.11687999949E+04  0.11687999949E+04  0.50400001928E-02 0. -1.
    10030    2    1    2    0    0  0.00000000000E+00  0.00000000000E+00 -0.11178680318E+03  0.22258131866E+04  0.22230042852E+04 0.  0.
        2    1    3    3  502    0 -0.23986892425E+03  0.27266835601E+03  0.99593474588E+03  0.10600807286E+04  0.25500000920E-02 0.  1.
       -2    1    3    3    0  502  0.23986892425E+03 -0.27266835601E+03 -0.11077215491E+04  0.11657324579E+04  0.25500000920E-02 0. -1.
</event>
<event>
 5   0  0.7941434E-06  0.1718425E+04  0.7818609E-02  0.8750925E-01
       -2   -1    0    0    0  501  0.00000000000E+00  0.00000000000E+00  0.43004602075E+03  0.43004602076E+03  0.25500000920E-02 0. -1.
        2   -1    0    0  501    0  0.00000000000E+00  0.00000000000E+00 -0.17166671104E+04  0.17166671104E+04  0.25500000920E-02 0.  1.
    10030    2    1    2    0    0  0.00000000000E+00  0.00000000000E+00 -0.12866210897E+04  0.21467131312E+04  0.17184246970E+04 0.  0.
        4    1    3    3  502    0 -0.77966482171E+03 -0.33627771975E+03 -0.47907411184E+03  0.97492233360E+03  0.12699999809E+01 0.  1.
       -4    1    3    3    0  502  0.77966482171E+03  0.33627771975E+03 -0.80754697783E+03  0.11717907976E+04  0.12699999809E+01 0. -1.
</event>
<event>
 5   0  0.2933646E-06  0.3226686E+04  0.7818609E-02  0.8181805E-01
        1   -1    0    0  501    0  0.00000000000E+00  0.00000000000E+00  0.12823237924E+04  0.12823237924E+04  0.50400001928E-02 0.  1.
       -1   -1    0    0    0  501  0.00000000000E+00  0.00000000000E+00 -0.20298109529E+04  0.20298109529E+04  0.50400001928E-02 0. -1.
    10030    2    1    2    0    0  0.00000000000E+00  0.00000000000E+00 -0.74748716053E+03  0.33121347453E+04  0.32266855310E+04 0.  0.
        2    1    3    3  502    0 -0.59575704894E+03  0.13295738017E+04 -0.10850459546E+04  0.18165950785E+04  0.25500000920E-02 0. -1.
       -2    1    3    3    0  502  0.59575704894E+03 -0.13295738017E+04  0.33755879406E+03  0.14955396668E+04  0.25500000920E-02 0.  1.
</event>
<event>
 5   0  0.7941434E-06  0.1926469E+04  0.7818609E-02  0.8641792E-01
        2   -1    0    0  501    0  0.00000000000E+00  0.00000000000E+00  0.14040063292E+04  0.14040063292E+04  0.25500000920E-02 0. -1.
       -2   -1    0    0    0  501  0.00000000000E+00  0.00000000000E+00 -0.66083811630E+03  0.66083811630E+03  0.25500000920E-02 0.  1.
    10030    2    1    2    0    0  0.00000000000E+00  0.00000000000E+00  0.74316821286E+03  0.20648444455E+04  0.19264692033E+04 0.  0.
        4    1    3    3  502    0 -0.28466559966E+03  0.69998444165E+03 -0.26865424544E+03  0.80199092181E+03  0.12699999809E+01 0.  1.
       -4    1    3    3    0  502  0.28466559966E+03 -0.69998444165E+03  0.10118224583E+04  0.12628535237E+04  0.12699999809E+01 0. -1.
</event>
<event>
 5   0  0.7971763E-06  0.3168780E+04  0.7818609E-02  0.8197111E-01
        2   -1    0    0  501    0  0.00000000000E+00  0.00000000000E+00  0.27630063122E+04  0.27630063122E+04  0.25500000920E-02 0.  1.
       -2   -1    0    0    0  501  0.00000000000E+00  0.00000000000E+00 -0.90853645875E+03  0.90853645876E+03  0.25500000920E-02 0. -1.
    10030    2    1    2    0    0  0.00000000000E+00  0.00000000000E+00  0.18544698535E+04  0.36715427710E+04  0.31687801883E+04 0.  0.
        1    1    3    3  502    0  0.15220701830E+04 -0.58120483844E+02  0.42189875552E+03  0.15805297190E+04  0.50400001928E-02 0. -1.
       -1    1    3    3    0  502 -0.15220701830E+04  0.58120483844E+02  0.14325710979E+04  0.20910130520E+04  0.50400001928E-02 0.  1.
</event>
<event>
 5   0  0.2580875E-06  0.3204257E+04  0.7818609E-02  0.8187694E-01
        4   -1    0    0  501    0  0.00000000000E+00  0.00000000000E+00  0.17049001918E+04  0.17049006648E+04  0.12699999809E+01 0. -1.
       -4   -1    0    0    0  501  0.00000000000E+00  0.00000000000E+00 -0.15055508924E+04  0.15055514281E+04  0.12699999809E+01 0.  1.
    10030    2    1    2    0    0  0.00000000000E+00  0.00000000000E+00  0.19934929938E+03  0.32104520929E+04  0.32042569338E+04 0.  0.
        1    1    3    3  502    0  0.44666750505E+03  0.14772617867E+02 -0.14418335407E+04  0.15095078831E+04  0.50400001928E-02 0.  1.
       -1    1    3    3    0  502 -0.44666750505E+03 -0.14772617867E+02  0.16411828400E+04  0.17009442098E+04  0.50400001928E-02 0. -1.
</event>
<event>
 5   0  0.7510251E-06  0.3257211E+04  0.7818609E-02  0.8173869E-01
       -2   -1    0    0    0  501  0.00000000000E+00  0.00000000000E+00  0.11231978353E+04  0.11231978353E+04  0.25500000920E-02 0.  1.
        2   -1    0    0  501    0  0.00000000000E+00  0.00000000000E+00 -0.23614321163E+04  0.23614321163E+04  0.25500000920E-02 0. -1.
    10030    2    1    2    0    0  0.00000000000E+00  0.00000000000E+00 -0.12382342810E+04  0.34846299516E+04  0.32572107339E+04 0.  0.
        3    1    3    3  502    0  0.12205748983E+04  0.73032407048E+03  0.22947294246E+03  0.14407755453E+04  0.10100000352E+00 0.  1.
       -3    1    3    3    0  502 -0.12205748983E+04 -0.73032407048E+03 -0.14677072234E+04  0.20438544063E+04  0.10100000352E+00 0. -1.
</event>
<event>
 5   0  0.7941434E-06  0.3242400E+04  0.7818609E-02  0.8177708E-01
        2   -1    0    0  501    0  0.00000000000E+00  0.00000000000E+00  0.20190349800E+04  0.20190349800E+04  0.25500000920E-02 0.  1.
       -2   -1    0    0    0  501  0.00000000000E+00  0.00000000000E+00 -0.13017555871E+04  0.13017555871E+04  0.25500000920E-02 0. -1.
    10030    2    1    2    0    0  0.00000000000E+00  0.00000000000E+00  0.71727939291E+03  0.33207905671E+04  0.32424003860E+04 0.  0.
        4    1    3    3  502    0 -0.14861784136E+04  0.50358244119E+03 -0.58599966956E+02  0.15702729448E+04  0.12699999809E+01 0. -1.
       -4    1    3    3    0  502  0.14861784136E+04 -0.50358244119E+03  0.77587935987E+03  0.17505176223E+04  0.12699999809E+01 0.  1.
</event>
<event>
 5   0  0.2788054E-06  0.1830604E+04  0.7818609E-02  0.8690192E-01
        1   -1    0    0  501    0  0.00000000000E+00  0.00000000000E+00  0.17300345345E+04  0.17300345345E+04  0.50400001928E-02 0.  1.
       -1   -1    0    0    0  501  0.00000000000E+00  0.00000000000E+00 -0.48425504811E+03  0.48425504813E+03  0.50400001928E-02 0. -1.
    10030    2    1    2    0    0  0.00000000000E+00  0.00000000000E+00  0.12457794864E+04  0.22142895827E+04  0.18306042246E+04 0.  0.
        3    1    3    3  502    0  0.62993470516E+03 -0.35293053897E+03  0.13032804366E+04  0.14899387923E+04  0.10100000352E+00 0.  1.
       -3    1    3    3    0  502 -0.62993470516E+03  0.35293053897E+03 -0.57500950154E+02  0.72435079041E+03  0.10100000352E+00 0. -1.
</event>
<event>
 5   0  0.2933646E-06  0.3138948E+04  0.7818609E-02  0.8205129E-01
        1   -1    0    0  501    0  0.00000000000E+00  0.00000000000E+00  0.17592201709E+04  0.17592201709E+04  0.50400001928E-02 0.  1.
       -1   -1    0    0    0  501  0.00000000000E+00  0.00000000000E+00 -0.14001936738E+04  0.14001936738E+04  0.50400001928E-02 0. -1.
    10030    2    1    2    0    0  0.00000000000E+00  0.00000000000E+00  0.35902649712E+03  0.31594138447E+04  0.31389482023E+04 0.  0.
        2    1    3    3  502    0  0.25245697257E+02  0.22241128731E+03  0.17430714843E+04  0.17573850817E+04  0.25500000920E-02 0.  1.
       -2    1    3    3    0  502 -0.25245697257E+02 -0.22241128731E+03 -0.13840449872E+04  0.14020287631E+04  0.25500000920E-02 0. -1.
</event>
<event>
 5   0  0.4142886E-06  0.3220811E+04  0.7818609E-02  0.8183342E-01
       -1   -1    0    0    0  501  0.00000000000E+00  0.00000000000E+00  0.14290454347E+04  0.14290454347E+04  0.50400001928E-02 0.  1.
        1   -1    0    0  501    0  0.00000000000E+00  0.00000000000E+00 -0.18147824183E+04  0.18147824183E+04  0.50400001928E-02 0. -1.
    10030    2    1    2    0    0  0.00000000000E+00  0.00000000000E+00 -0.38573698359E+03  0.32438278531E+04  0.32208114071E+04 0.  0.
        5    1    3    3  502    0  0.99509546844E+03  0.72416004311E+03  0.85318828769E+03  0.14975229893E+04  0.46999998093E+01 0.  1.
       -5    1    3    3    0  502 -0.99509546844E+03 -0.72416004311E+03 -0.12389252713E+04  0.17463048638E+04  0.46999998093E+01 0. -1.
</event>
<event>
 5   0  0.7941434E-06  0.3165641E+04  0.7818609E-02  0.8197951E-01
       -2   -1    0    0    0  501  0.00000000000E+00  0.00000000000E+00  0.99857054670E+03  0.99857054670E+03  0.25500000920E-02 0. -1.
        2   -1    0    0  501    0  0.00000000000E+00  0.00000000000E+00 -0.25089067556E+04  0.25089067556E+04  0.25500000920E-02 0.  1.
    10030    2    1    2    0    0  0.00000000000E+00  0.00000000000E+00 -0.15103362089E+04  0.35074773023E+04  0.31656407823E+04 0.  0.
        4    1    3    3  502    0 -0.33344930727E+03 -0.23964415528E+02 -0.24693426328E+04  0.24918702584E+04  0.12699999809E+01 0.  1.
       -4    1    3    3    0  502  0.33344930727E+03  0.23964415528E+02  0.95900642387E+03  0.10156070439E+04  0.12699999809E+01 0. -1.
</event>
<event>
 5   0  0.2635798E-06  0.2205267E+04  0.7818609E-02  0.8516239E-01
        1   -1    0    0  501    0  0.00000000000E+00  0.00000000000E+00  0.23358379483E+04  0.23358379483E+04  0.50400001928E-02 0.  1.
       -1   -1    0    0    0  501  0.00000000000E+00  0.00000000000E+00 -0.52049860547E+03  0.52049860549E+03  0.50400001928E-02 0. -1.
    10030    2    1    2    0    0  0.00000000000E+00  0.00000000000E+00  0.18153393428E+04  0.28563365538E+04  0.22052667818E+04 0.  0.
        1    1    3    3  502    0  0.28130348878E+03  0.22221916065E+03 -0.44291064833E+03  0.56980948622E+03  0.50400001928E-02 0. -1.
       -1    1    3    3    0  502 -0.28130348878E+03 -0.22221916065E+03  0.22582499911E+04  0.22865270675E+04  0.50400001928E-02 0.  1.
</event>
<event>
 5   0  0.2580875E-06  0.2660522E+04  0.7818609E-02  0.8347929E-01
        3   -1    0    0  501    0  0.00000000000E+00  0.00000000000E+00  0.16216992795E+04  0.16216992827E+04  0.10100000352E+00 0. -1.
       -3   -1    0    0    0  501  0.00000000000E+00  0.00000000000E+00 -0.10911973195E+04  0.10911973242E+04  0.10100000352E+00 0.  1.
    10030    2    1    2    0    0  0.00000000000E+00  0.00000000000E+00  0.53050196000E+03  0.27128966069E+04  0.26605216914E+04 0.  0.
        1    1    3    3  502    0  0.12119074160E+04  0.53861496391E+03  0.15943797012E+03  0.13357567633E+04  0.50400001928E-02 0.  1.
       -1    1    3    3    0  502 -0.12119074160E+04 -0.53861496391E+03  0.37106398988E+03  0.13771398436E+04  0.50400001928E-02 0. -1.
</event>
<event>
 5   0  0.2635798E-06  0.3190765E+04  0.7818609E-02  0.8191260E-01
       -1   -1    0    0    0  501  0.00000000000E+00  0.00000000000E+00  0.14259520082E+04  0.14259520082E+04  0.50400001928E-02 0. -1.
        1   -1    0    0  501    0  0.00000000000E+00  0.00000000000E+00 -0.17849441524E+04  0.17849441524E+04  0.50400001928E-02 0.  1.
    10030    2    1    2    0    0  0.00000000000E+00  0.00000000000E+00 -0.35899214416E+03  0.32108961606E+04  0.31907646097E+04 0.  0.
        1    1    3    3  502    0  0.87429097430E+03  0.12311497294E+04 -0.69765287507E+03  0.16633802626E+04  0.50400001928E-02 0. -1.
       -1    1    3    3    0  502 -0.87429097430E+03 -0.12311497294E+04  0.33866073091E+03  0.15475158980E+04  0.50400001928E-02 0.  1.
</event>
<event>
 5   0  0.2933646E-06  0.1848749E+04  0.7818609E-02  0.8680796E-01
        1   -1    0    0  501    0  0.00000000000E+00  0.00000000000E+00  0.89014308817E+03  0.89014308818E+03  0.50400001928E-02 0.  1.
       -1   -1    0    0    0  501  0.00000000000E+00  0.00000000000E+00 -0.95992225015E+03  0.95992225016E+03  0.50400001928E-02 0. -1.
    10030    2    1    2    0    0  0.00000000000E+00  0.00000000000E+00 -0.69779161976E+02  0.18500653383E+04  0.18487489350E+04 0.  0.
        2    1    3    3  502    0  0.35847072254E+03 -0.31725896221E+03 -0.82622040654E+03  0.95487939983E+03  0.25500000920E-02 0. -1.
       -2    1    3    3    0  502 -0.35847072254E+03  0.31725896221E+03  0.75644124457E+03  0.89518593851E+03  0.25500000920E-02 0.  1.
</event>
<event>
 5   0  0.8237664E-06  0.3163431E+04  0.7818609E-02  0.8198542E-01
        2   -1    0    0  501    0  0.00000000000E+00  0.00000000000E+00  0.18971024124E+04  0.18971024124E+04  0.25500000920E-02 0.  1.
       -2   -1    0    0    0  501  0.00000000000E+00  0.00000000000E+00 -0.13187602599E+04  0.13187602599E+04  0.25500000920E-02 0. -1.
    10030    2    1    2    0    0  0.00000000000E+00  0.00000000000E+00  0.57834215255E+03  0.32158626723E+04  0.31634305874E+04 0.  0.
        5    1    3    3  502    0 -0.12161580404E+04 -0.10111169497E+04  0.26875550881E+03  0.16042597915E+04  0.46999998093E+01 0. -1.
       -5    1    3    3    0  502  0.12161580404E+04  0.10111169497E+04  0.30958664374E+03  0.16116028807E+04  0.46999998093E+01 0.  1.
</event>
<event>
 5   0  0.7941434E-06  0.3227655E+04  0.7818609E-02  0.8181552E-01
       -2   -1    0    0    0  501  0.00000000000E+00  0.00000000000E+00  0.10575694237E+04  0.10575694237E+04  0.25500000920E-02 0. -1.
        2   -1    0    0  501    0  0.00000000000E+00  0.00000000000E+00 -0.24626643275E+04  0.24626643275E+04  0.25500000920E-02 0.  1.
    10030    2    1    2    0    0  0.00000000000E+00  0.00000000000E+00 -0.14050949038E+04  0.35202337512E+04  0.32276545624E+04 0.  0.
        4    1    3    3  502    0  0.98773862273E+03  0.25671968454E+03  0.66093843410E+03  0.12158839623E+04  0.12699999809E+01 0. -1.
       -4    1    3    3    0  502 -0.98773862273E+03 -0.25671968454E+03 -0.20660333379E+04  0.23043497889E+04  0.12699999809E+01 0.  1.
</event>
<event>
 5   0  0.4142886E-06  0.3089188E+04  0.7818609E-02  0.8218711E-01
       -1   -1    0    0    0  501  0.00000000000E+00  0.00000000000E+00  0.13199873703E+04  0.13199873703E+04  0.50400001928E-02 0.  1.
        1   -1    0    0  501    0  0.00000000000E+00  0.00000000000E+00 -0.18074194165E+04  0.18074194165E+04  0.50400001928E-02 0. -1.
    10030    2    1    2    0    0  0.00000000000E+00  0.00000000000E+00 -0.48743204619E+03  0.31274067868E+04  0.30891881151E+04 0.  0.
        5    1    3    3  502    0 -0.15720852873E+03 -0.15351706064E+04 -0.30998888350E+03  0.15740325633E+04  0.46999998093E+01 0. -1.
       -5    1    3    3    0  502  0.15720852873E+03  0.15351706064E+04 -0.17744316268E+03  0.15533742235E+04  0.46999998093E+01 0.  1.
</event>
<event>
 5   0  0.2933646E-06  0.3076890E+04  0.7818609E-02  0.8222109E-01
       -1   -1    0    0    0  501  0.00000000000E+00  0.00000000000E+00  0.18257316348E+04  0.18257316348E+04  0.50400001928E-02 0.  1.
        1   -1    0    0  501    0  0.00000000000E+00  0.00000000000E+00 -0.12963644783E+04  0.12963644783E+04  0.50400001928E-02 0. -1.
    10030    2    1    2    0    0  0.00000000000E+00  0.00000000000E+00  0.52936715650E+03  0.31220961131E+04  0.30768904032E+04 0.  0.
        2    1    3    3  502    0  0.74141028643E+03 -0.10322453701E+04  0.11443659131E+04  0.17102026371E+04  0.25500000920E-02 0.  1.
       -2    1    3    3    0  502 -0.74141028643E+03  0.10322453701E+04 -0.61499875660E+03  0.14118934760E+04  0.25500000920E-02 0. -1.
</event>
<event>
 5   0  0.7941434E-06  0.3139768E+04  0.7818609E-02  0.8204908E-01
       -2   -1    0    0    0  501  0.00000000000E+00  0.00000000000E+00  0.14455433126E+04  0.14455433126E+04  0.25500000920E-02 0. -1.
        2   -1    0    0  501    0  0.00000000000E+00  0.00000000000E+00 -0.17049199266E+04  0.17049199266E+04  0.25500000920E-02 0.  1.
    10030    2    1    2    0    0  0.00000000000E+00  0.00000000000E+00 -0.25937661392E+03  0.31504632392E+04  0.31397678885E+04 0.  0.
        4    1    3    3  502    0 -0.15357607602E+04 -0.16855157318E+03 -0.40913877690E+03  0.15982386859E+04  0.12699999809E+01 0.  1.
       -4    1    3    3    0  502  0.15357607602E+04  0.16855157318E+03  0.14976216298E+03  0.15522245533E+04  0.12699999809E+01 0. -1.
</event>
<event>
 5   0  0.2635798E-06  0.3202621E+04  0.7818609E-02  0.8188125E-01
       -1   -1    0    0    0  501  0.00000000000E+00  0.00000000000E+00  0.29260527049E+04  0.29260527049E+04  0.50400001928E-02 0. -1.
        1   -1    0    0  501    0  0.00000000000E+00  0.00000000000E+00 -0.87633233317E+03  0.87633233319E+03  0.50400001928E-02 0.  1.
    10030    2    1    2    0    0  0.00000000000E+00  0.00000000000E+00  0.20497203717E+04  0.38023850381E+04  0.32026205482E+04 0.  0.
        1    1    3    3  502    0 -0.86981971706E+03 -0.55318464539E+02 -0.57004489096E+03  0.10414401809E+04  0.50400001928E-02 0.  1.
       -1    1    3    3    0  502  0.86981971706E+03  0.55318464539E+02  0.26197652627E+04  0.27609448572E+04  0.50400001928E-02 0. -1.
</event>
<event>
 5   0  0.7971763E-06  0.3132995E+04  0.7818609E-02  0.8206741E-01
       -2   -1    0    0    0  501  0.00000000000E+00  0.00000000000E+00  0.15615762092E+04  0.15615762092E+04  0.25500000920E-02 0. -1.
        2   -1    0    0  501    0  0.00000000000E+00  0.00000000000E+00 -0.15714339832E+04  0.15714339832E+04  0.25500000920E-02 0.  1.
    10030    2    1    2    0    0  0.00000000000E+00  0.00000000000E+00 -0.98577740312E+01  0.31330101924E+04  0.31329946840E+04 0.  0.
        1    1    3    3  502    0 -0.52933107286E+03 -0.87802911359E+03 -0.11893280178E+04  0.15702317164E+04  0.50400001928E-02 0.  1.
       -1    1    3    3    0  502  0.52933107286E+03  0.87802911359E+03  0.11794702438E+04  0.15627784760E+04  0.50400001928E-02 0. -1.
</event>
<event>
 5   0  0.2635798E-06  0.3123072E+04  0.7818609E-02  0.8209434E-01
       -1   -1    0    0    0  501  0.00000000000E+00  0.00000000000E+00  0.26619089423E+04  0.26619089423E+04  0.50400001928E-02 0.  1.
        1   -1    0    0  501    0  0.00000000000E+00  0.00000000000E+00 -0.91603223125E+03  0.91603223126E+03  0.50400001928E-02 0. -1.
    10030    2    1    2    0    0  0.00000000000E+00  0.00000000000E+00  0.17458767111E+04  0.35779411736E+04  0.31230718134E+04 0.  0.
        1    1    3    3  502    0  0.60575880004E+03 -0.64726647231E+03 -0.59978622618E+03  0.10703462651E+04  0.50400001928E-02 0. -1.
       -1    1    3    3    0  502 -0.60575880004E+03  0.64726647231E+03  0.23456629373E+04  0.25075949085E+04  0.50400001928E-02 0.  1.
</event>
<event>
 5   0  0.2635798E-06  0.3231139E+04  0.7818609E-02  0.8180642E-01
        1   -1    0    0  501    0  0.00000000000E+00  0.00000000000E+00  0.19593769137E+04  0.19593769137E+04  0.50400001928E-02 0.  1.
       -1   -1    0    0    0  501  0.00000000000E+00  0.00000000000E+00 -0.13320888606E+04  0.13320888606E+04  0.50400001928E-02 0. -1.
    10030    2    1    2    0    0  0.00000000000E+00  0.00000000000E+00  0.62728805309E+03  0.32914657742E+04  0.32311385983E+04 0.  0.
        1    1    3    3  502    0 -0.55517253595E+03 -0.59906201856E+03 -0.11062863897E+04  0.13751223302E+04  0.50400001928E-02 0. -1.
       -1    1    3    3    0  502  0.55517253595E+03  0.59906201856E+03  0.17335744428E+04  0.19163434441E+04  0.50400001928E-02 0.  1.
</event>
<event>
 5   0  0.7510251E-06  0.2595210E+04  0.7818609E-02  0.8369830E-01
        2   -1    0    0  501    0  0.00000000000E+00  0.00000000000E+00  0.14512149840E+04  0.14512149841E+04  0.25500000920E-02 0.  1.
       -2   -1    0    0    0  501  0.00000000000E+00  0.00000000000E+00 -0.11602544129E+04  0.11602544129E+04  0.25500000920E-02 0. -1.
    10030    2    1    2    0    0  0.00000000000E+00  0.00000000000E+00  0.29096057116E+03  0.26114693969E+04  0.25952098869E+04 0.  0.
        3    1    3    3  502    0  0.77882396061E+03  0.10189069303E+04 -0.53344285974E+02  0.12835823765E+04  0.10100000352E+00 0. -1.
       -3    1    3    3    0  502 -0.77882396061E+03 -0.10189069303E+04  0.34430485714E+03  0.13278870204E+04  0.10100000352E+00 0.  1.
</event>
<event>
 5   0  0.7510251E-06  0.2651163E+04  0.7818609E-02  0.8351027E-01
        2   -1    0    0  501    0  0.00000000000E+00  0.00000000000E+00  0.16251849908E+04  0.16251849908E+04  0.25500000920E-02 0.  1.
       -2   -1    0    0    0  501  0.00000000000E+00  0.00000000000E+00 -0.10812096907E+04  0.10812096907E+04  0.25500000920E-02 0. -1.
    10030    2    1    2    0    0  0.00000000000E+00  0.00000000000E+00  0.54397530001E+03  0.27063946815E+04  0.26511625837E+04 0.  0.
        3    1    3    3  502    0 -0.10682388436E+04  0.77277952358E+03  0.13185684435E+03  0.13250315682E+04  0.10100000352E+00 0.  1.
       -3    1    3    3    0  502  0.10682388436E+04 -0.77277952358E+03  0.41211845565E+03  0.13813631133E+04  0.10100000352E+00 0. -1.
</event>
<event>
 5   0  0.7941434E-06  0.3266534E+04  0.7818609E-02  0.8171463E-01
       -2   -1    0    0    0  501  0.00000000000E+00  0.00000000000E+00  0.99793607612E+03  0.99793607612E+03  0.25500000920E-02 0.  1.
        2   -1    0    0  501    0  0.00000000000E+00  0.00000000000E+00 -0.26730785398E+04  0.26730785398E+04  0.25500000920E-02 0. -1.
    10030    2    1    2    0    0  0.00000000000E+00  0.00000000000E+00 -0.16751424637E+04  0.36710146159E+04  0.32665342546E+04 0.  0.
        4    1    3    3  502    0 -0.15988225540E+04 -0.15576194759E+03 -0.50596736723E+03  0.16841911807E+04  0.12699999809E+01 0. -1.
       -4    1    3    3    0  502  0.15988225540E+04  0.15576194759E+03 -0.11691750964E+04  0.19868234352E+04  0.12699999809E+01 0.  1.
</event>
<event>
 5   0  0.7510251E-06  0.3040534E+04  0.7818609E-02  0.8232250E-01
       -2   -1    0    0    0  501  0.00000000000E+00  0.00000000000E+00  0.15038056079E+04  0.15038056079E+04  0.25500000920E-02 0.  1.
        2   -1    0    0  501    0  0.00000000000E+00  0.00000000000E+00 -0.15369086393E+04  0.15369086393E+04  0.25500000920E-02 0. -1.
    10030    2    1    2    0    0  0.00000000000E+00  0.00000000000E+00 -0.33103031371E+02  0.30407142473E+04  0.30405340522E+04 0.  0.
        3    1    3    3  502    0 -0.27811064540E+03  0.54445567340E+03  0.13754484689E+04  0.15052029804E+04  0.10100000352E+00 0.  1.
       -3    1    3    3    0  502  0.27811064540E+03 -0.54445567340E+03 -0.14085515003E+04  0.15355112668E+04  0.10100000352E+00 0. -1.
</event>
<event>
 5   0  0.7971763E-06  0.3127583E+04  0.7818609E-02  0.8208208E-01
        2   -1    0    0  501    0  0.00000000000E+00  0.00000000000E+00  0.18898535060E+04  0.18898535060E+04  0.25500000920E-02 0. -1.
       -2   -1    0    0    0  501  0.00000000000E+00  0.00000000000E+00 -0.12939861432E+04  0.12939861432E+04  0.25500000920E-02 0.  1.
    10030    2    1    2    0    0  0.00000000000E+00  0.00000000000E+00  0.59586736277E+03  0.31838396492E+04  0.31275832519E+04 0.  0.
        1    1    3    3  502    0 -0.76228437125E+03  0.13146554406E+04  0.67341485293E+03  0.16621925142E+04  0.50400001928E-02 0.  1.
       -1    1    3    3    0  502  0.76228437125E+03 -0.13146554406E+04 -0.77547490164E+02  0.15216471350E+04  0.50400001928E-02 0. -1.
</event>
<event>
 5   0  0.2933646E-06  0.3164842E+04  0.7818609E-02  0.8198165E-01
       -1   -1    0    0    0  501  0.00000000000E+00  0.00000000000E+00  0.11866842622E+04  0.11866842622E+04  0.50400001928E-02 0.  1.
        1   -1    0    0  501    0  0.00000000000E+00  0.00000000000E+00 -0.21101278129E+04  0.21101278129E+04  0.50400001928E-02 0. -1.
    10030    2    1    2    0    0  0.00000000000E+00  0.00000000000E+00 -0.92344355072E+03  0.32968120750E+04  0.31648415232E+04 0.  0.
        2    1    3    3  502    0  0.11623325459E+04 -0.89736378134E+03  0.15259518384E+03  0.14763346482E+04  0.25500000920E-02 0.  1.
       -2    1    3    3    0  502 -0.11623325459E+04  0.89736378134E+03 -0.10760387346E+04  0.18204774268E+04  0.25500000920E-02 0. -1.
</event>
<event>
 5   0  0.3938696E-06  0.3318897E+04  0.7818609E-02  0.8158104E-01
       -1   -1    0    0    0  501  0.00000000000E+00  0.00000000000E+00  0.10850460634E+04  0.10850460634E+04  0.50400001928E-02 0.  1.
        1   -1    0    0  501    0  0.00000000000E+00  0.00000000000E+00 -0.25379285786E+04  0.25379285786E+04  0.50400001928E-02 0. -1.
    10030    2    1    2    0    0  0.00000000000E+00  0.00000000000E+00 -0.14528825151E+04  0.36229746420E+04  0.33188970538E+04 0.  0.
        4    1    3    3  502    0 -0.84414095460E+03  0.29385176572E+03 -0.22526982809E+04  0.24235457431E+04  0.12699999809E+01 0. -1.
       -4    1    3    3    0  502  0.84414095460E+03 -0.29385176572E+03  0.79981576574E+03  0.11994288989E+04  0.12699999809E+01 0.  1.
</event>
<event>
 5   0  0.8237664E-06  0.3223279E+04  0.7818609E-02  0.8182696E-01
       -2   -1    0    0    0  501  0.00000000000E+00  0.00000000000E+00  0.14105160084E+04  0.14105160084E+04  0.25500000920E-02 0. -1.
        2   -1    0    0  501    0  0.00000000000E+00  0.00000000000E+00 -0.18414405271E+04  0.18414405271E+04  0.25500000920E-02 0.  1.
    10030    2    1    2    0    0  0.00000000000E+00  0.00000000000E+00 -0.43092451873E+03  0.32519565356E+04  0.32232786675E+04 0.  0.
        5    1    3    3  502    0  0.90667980072E+03 -0.50629406172E+02 -0.15587464029E+04  0.18039800543E+04  0.46999998093E+01 0.  1.
       -5    1    3    3    0  502 -0.90667980072E+03  0.50629406172E+02  0.11278218842E+04  0.14479764812E+04  0.46999998093E+01 0. -1.
</event>
<event>
 5   0  0.2635798E-06  0.1620947E+04  0.7818609E-02  0.8807782E-01
       -1   -1    0    0    0  501  0.00000000000E+00  0.00000000000E+00  0.48005310814E+03  0.48005310817E+03  0.50400001928E-02 0. -1.
        1   -1    0    0  501    0  0.00000000000E+00  0.00000000000E+00 -0.13683215510E+04  0.13683215510E+04  0.50400001928E-02 0.  1.
    10030    2    1    2    0    0  0.00000000000E+00  0.00000000000E+00 -0.88826844283E+03  0.18483746592E+04  0.16209466537E+04 0.  0.
        1    1    3    3  502    0 -0.23466731603E+03 -0.80403629498E+02  0.43570121930E+03  0.50136717620E+03  0.50400001928E-02 0. -1.
       -1    1    3    3    0  502  0.23466731603E+03  0.80403629498E+02 -0.13239696621E+04  0.13470074829E+04  0.50400001928E-02 0.  1.
</event>
<event>
 5   0  0.2635798E-06  0.3218373E+04  0.7818609E-02  0.8183982E-01
        1   -1    0    0  501    0  0.00000000000E+00  0.00000000000E+00  0.22802081490E+04  0.22802081490E+04  0.50400001928E-02 0. -1.
       -1   -1    0    0    0  501  0.00000000000E+00  0.00000000000E+00 -0.11356334389E+04  0.11356334390E+04  0.50400001928E-02 0.  1.
    10030    2    1    2    0    0  0.00000000000E+00  0.00000000000E+00  0.11445747100E+04  0.34158415879E+04  0.32183726458E+04 0.  0.
        1    1    3    3  502    0 -0.39343910722E+03 -0.71462876552E+03 -0.89989980774E+03  0.12146226853E+04  0.50400001928E-02 0.  1.
       -1    1    3    3    0  502  0.39343910722E+03  0.71462876552E+03  0.20444745177E+04  0.22012189026E+04  0.50400001928E-02 0. -1.
</event>
<event>
 5   0  0.4142886E-06  0.3243194E+04  0.7818609E-02  0.8177502E-01
       -1   -1    0    0    0  501  0.00000000000E+00  0.00000000000E+00  0.15981437792E+04  0.15981437792E+04  0.50400001928E-02 0.  1.
        1   -1    0    0  501    0  0.00000000000E+00  0.00000000000E+00 -0.16453942530E+04  0.16453942530E+04  0.50400001928E-02 0. -1.
    10030    2    1    2    0    0  0.00000000000E+00  0.00000000000E+00 -0.47250473841E+02  0.32435380322E+04  0.32431938516E+04 0.  0.
        5    1    3    3  502    0  0.15029837422E+04  0.60765168662E+03  0.13172663586E+02  0.16212329601E+04  0.46999998093E+01 0.  1.
       -5    1    3    3    0  502 -0.15029837422E+04 -0.60765168662E+03 -0.60423137427E+02  0.16223050722E+04  0.46999998093E+01 0. -1.
</event>
<event>
 5   0  0.7941434E-06  0.3186966E+04  0.7818609E-02  0.8192268E-01
       -2   -1    0    0    0  501  0.00000000000E+00  0.00000000000E+00  0.24681008633E+04  0.24681008633E+04  0.25500000920E-02 0.  1.
        2   -1    0    0  501    0  0.00000000000E+00  0.00000000000E+00 -0.10288026625E+04  0.10288026625E+04  0.25500000920E-02 0. -1.
    10030    2    1    2    0    0  0.00000000000E+00  0.00000000000E+00  0.14392982008E+04  0.34969035258E+04  0.31869664194E+04 0.  0.
        4    1    3    3  502    0 -0.87090754847E+03  0.71424718657E+03  0.19564603662E+04  0.22575136276E+04  0.12699999809E+01 0.  1.
       -4    1    3    3    0  502  0.87090754847E+03 -0.71424718657E+03 -0.51716216542E+03  0.12393898982E+04  0.12699999809E+01 0. -1.
</event>
<event>
 5   0  0.2635798E-06  0.3268525E+04  0.7818609E-02  0.8170951E-01
        1   -1    0    0  501    0  0.00000000000E+00  0.00000000000E+00  0.22304723682E+04  0.22304723682E+04  0.50400001928E-02 0. -1.
       -1   -1    0    0    0  501  0.00000000000E+00  0.00000000000E+00 -0.11974209605E+04  0.11974209605E+04  0.50400001928E-02 0.  1.
    10030    2    1    2    0    0  0.00000000000E+00  0.00000000000E+00  0.10330514077E+04  0.34278933286E+04  0.32685252732E+04 0.  0.
        1    1    3    3  502    0 -0.13951666516E+02 -0.10626096406E+04 -0.78557467270E+03  0.13215375378E+04  0.50400001928E-02 0.  1.
       -1    1    3    3    0  502  0.13951666516E+02  0.10626096406E+04  0.18186260804E+04  0.21063557909E+04  0.50400001928E-02 0. -1.
</event>
<event>
 5   0  0.7952307E-06  0.3331079E+04  0.7818609E-02  0.8155032E-01
       -2   -1    0    0    0  501  0.00000000000E+00  0.00000000000E+00  0.13731543342E+04  0.13731543342E+04  0.25500000920E-02 0.  1.
        2   -1    0    0  501    0  0.00000000000E+00  0.00000000000E+00 -0.20201818315E+04  0.20201818315E+04  0.25500000920E-02 0. -1.
    10030    2    1    2    0    0  0.00000000000E+00  0.00000000000E+00 -0.64702749730E+03  0.33933361657E+04  0.33310787668E+04 0.  0.
        2    1    3    3  502    0  0.12156361891E+04 -0.64511685308E+03 -0.12791699070E+04  0.18788887006E+04  0.25500000920E-02 0. -1.
       -2    1    3    3    0  502 -0.12156361891E+04  0.64511685308E+03  0.63214240969E+03  0.15144474651E+04  0.25500000920E-02 0.  1.
</event>
<event>
 5   0  0.8237664E-06  0.2614421E+04  0.7818609E-02  0.8363319E-01
       -2   -1    0    0    0  501  0.00000000000E+00  0.00000000000E+00  0.97278597088E+03  0.97278597089E+03  0.25500000920E-02 0.  1.
        2   -1    0    0  501    0  0.00000000000E+00  0.00000000000E+00 -0.17566040224E+04  0.17566040224E+04  0.25500000920E-02 0. -1.
    10030    2    1    2    0    0  0.00000000000E+00  0.00000000000E+00 -0.78381805152E+03  0.27293899933E+04  0.26144213504E+04 0.  0.
        5    1    3    3  502    0 -0.41825239151E+03  0.90392713627E+03 -0.12757545918E+04  0.16185151217E+04  0.46999998093E+01 0. -1.
       -5    1    3    3    0  502  0.41825239151E+03 -0.90392713627E+03  0.49193654028E+03  0.11108748716E+04  0.46999998093E+01 0.  1.
</event>
<event>
 5   0  0.2788054E-06  0.3236029E+04  0.7818609E-02  0.8179366E-01
        1   -1    0    0  501    0  0.00000000000E+00  0.00000000000E+00  0.15074272226E+04  0.15074272226E+04  0.50400001928E-02 0. -1.
       -1   -1    0    0    0  501  0.00000000000E+00  0.00000000000E+00 -0.17367149719E+04  0.17367149719E+04  0.50400001928E-02 0.  1.
    10030    2    1    2    0    0  0.00000000000E+00  0.00000000000E+00 -0.22928774928E+03  0.32441421944E+04  0.32360293116E+04 0.  0.
        3    1    3    3  502    0  0.73199064966E+03 -0.80665229292E+03 -0.13140852973E+04  0.17068445775E+04  0.10100000352E+00 0.  1.
       -3    1    3    3    0  502 -0.73199064966E+03  0.80665229292E+03  0.10847975480E+04  0.15372976170E+04  0.10100000352E+00 0. -1.
</event>
<event>
 5   0  0.4142886E-06  0.2212197E+04  0.7818609E-02  0.8513368E-01
       -1   -1    0    0    0  501  0.00000000000E+00  0.00000000000E+00  0.51742511023E+03  0.51742511025E+03  0.50400001928E-02 0.  1.
        1   -1    0    0  501    0  0.00000000000E+00  0.00000000000E+00 -0.23645048063E+04  0.23645048063E+04  0.50400001928E-02 0. -1.
    10030    2    1    2    0    0  0.00000000000E+00  0.00000000000E+00 -0.18470796961E+04  0.28819299166E+04  0.22121972426E+04 0.  0.
        5    1    3    3  502    0  0.27682889608E+03 -0.11822968442E+03  0.46302421823E+03  0.55229160110E+03  0.46999998093E+01 0.  1.
       -5    1    3    3    0  502 -0.27682889608E+03  0.11822968442E+03 -0.23101039143E+04  0.23296383155E+04  0.46999998093E+01 0. -1.
</event>
<event>
 5   0  0.7952307E-06  0.3165500E+04  0.7818609E-02  0.8197988E-01
        2   -1    0    0  501    0  0.00000000000E+00  0.00000000000E+00  0.19546086938E+04  0.19546086938E+04  0.25500000920E-02 0.  1.
       -2   -1    0    0    0  501  0.00000000000E+00  0.00000000000E+00 -0.12816365492E+04  0.12816365492E+04  0.25500000920E-02 0. -1.
    10030    2    1    2    0    0  0.00000000000E+00  0.00000000000E+00  0.67297214459E+03  0.32362452430E+04  0.31655002393E+04 0.  0.
        2    1    3    3  502    0 -0.82457674743E+03  0.15004089057E+03  0.17091235363E+04  0.19035604386E+04  0.25500000920E-02 0.  1.
       -2    1    3    3    0  502  0.82457674743E+03 -0.15004089057E+03 -0.10361513917E+04  0.13326848043E+04  0.25500000920E-02 0. -1.
</event>
<event>
 5   0  0.3938696E-06  0.3192164E+04  0.7818609E-02  0.8190890E-01
        1   -1    0    0  501    0  0.00000000000E+00  0.00000000000E+00  0.23166811273E+04  0.23166811273E+04  0.50400001928E-02 0. -1.
       -1   -1    0    0    0  501  0.00000000000E+00  0.00000000000E+00 -0.10996238404E+04  0.10996238404E+04  0.50400001928E-02 0.  1.
    10030    2    1    2    0    0  0.00000000000E+00  0.00000000000E+00  0.12170572868E+04  0.34163049677E+04  0.31921640298E+04 0.  0.
        4    1    3    3  502    0  0.10118571511E+04  0.99490289417E+03  0.13904380815E+04  0.19867074104E+04  0.12699999809E+01 0. -1.
       -4    1    3    3    0  502 -0.10118571511E+04 -0.99490289417E+03 -0.17338079466E+03  0.14295975573E+04  0.12699999809E+01 0.  1.
</event>
<event>
 5   0  0.7510251E-06  0.1666004E+04  0.7818609E-02  0.8780995E-01
        2   -1    0    0  501    0  0.00000000000E+00  0.00000000000E+00  0.34161735287E+03  0.34161735288E+03  0.25500000920E-02 0.  1.
       -2   -1    0    0    0  501  0.00000000000E+00  0.00000000000E+00 -0.20311967704E+04  0.20311967704E+04  0.25500000920E-02 0. -1.
    10030    2    1    2    0    0  0.00000000000E+00  0.00000000000E+00 -0.16895794175E+04  0.23728141233E+04  0.16660036781E+04 0.  0.
        3    1    3    3  502    0  0.27930820246E+03  0.96201694183E+02  0.26450676949E+03  0.39652450016E+03  0.10100000352E+00 0.  1.
       -3    1    3    3    0  502 -0.27930820246E+03 -0.96201694183E+02 -0.19540861870E+04  0.19762896231E+04  0.10100000352E+00 0. -1.
</event>
<event>
 5   0  0.8237664E-06  0.3197574E+04  0.7818609E-02  0.8189458E-01
       -2   -1    0    0    0  501  0.00000000000E+00  0.00000000000E+00  0.16892499978E+04  0.16892499978E+04  0.25500000920E-02 0.  1.
        2   -1    0    0  501    0  0.00000000000E+00  0.00000000000E+00 -0.15131685206E+04  0.15131685206E+04  0.25500000920E-02 0. -1.
    10030    2    1    2    0    0  0.00000000000E+00  0.00000000000E+00  0.17608147721E+03  0.32024185183E+04  0.31975740304E+04 0.  0.
        5    1    3    3  502    0 -0.19638064198E+03  0.15675687699E+04 -0.15781157300E+03  0.15876913389E+04  0.46999998093E+01 0. -1.
       -5    1    3    3    0  502  0.19638064198E+03 -0.15675687699E+04  0.33389305021E+03  0.16147271794E+04  0.46999998093E+01 0.  1.
</event>
<event>
 5   0  0.7971763E-06  0.2986403E+04  0.7818609E-02  0.8247624E-01
       -2   -1    0    0    0  501  0.00000000000E+00  0.00000000000E+00  0.14585897194E+04  0.14585897195E+04  0.25500000920E-02 0. -1.
        2   -1    0    0  501    0  0.00000000000E+00  0.00000000000E+00 -0.15286342174E+04  0.15286342174E+04  0.25500000920E-02 0.  1.
    10030    2    1    2    0    0  0.00000000000E+00  0.00000000000E+00 -0.70044497904E+02  0.29872239368E+04  0.29864026214E+04 0.  0.
        1    1    3    3  502    0 -0.11930712638E+04 -0.31953128969E+03  0.80433358720E+03  0.14739307328E+04  0.50400001928E-02 0. -1.
       -1    1    3    3    0  502  0.11930712638E+04  0.31953128969E+03 -0.87437808510E+03  0.15132932040E+04  0.50400001928E-02 0.  1.
</event>
<event>
 5   0  0.2635798E-06  0.3184372E+04  0.7818609E-02  0.8192957E-01
       -1   -1    0    0    0  501  0.00000000000E+00  0.00000000000E+00  0.13103168724E+04  0.13103168724E+04  0.50400001928E-02 0. -1.
        1   -1    0    0  501    0  0.00000000000E+00  0.00000000000E+00 -0.19346900314E+04  0.19346900314E+04  0.50400001928E-02 0.  1.
    10030    2    1    2    0    0  0.00000000000E+00  0.00000000000E+00 -0.62437315897E+03  0.32450069039E+04  0.31843724601E+04 0.  0.
        1    1    3    3  502    0  0.11381597800E+03  0.95410434076E+03  0.98154953254E+03  0.13735751362E+04  0.50400001928E-02 0. -1.
       -1    1    3    3    0  502 -0.11381597800E+03 -0.95410434076E+03 -0.16059226915E+04  0.18714317677E+04  0.50400001928E-02 0.  1.
</event>
<event>
 5   0  0.7971763E-06  0.3167723E+04  0.7818609E-02  0.8197394E-01
       -2   -1    0    0    0  501  0.00000000000E+00  0.00000000000E+00  0.24089031090E+04  0.24089031090E+04  0.25500000920E-02 0.  1.
        2   -1    0    0  501    0  0.00000000000E+00  0.00000000000E+00 -0.10413942075E+04  0.10413942075E+04  0.25500000920E-02 0. -1.
    10030    2    1    2    0    0  0.00000000000E+00  0.00000000000E+00  0.13675089015E+04  0.34502973166E+04  0.31677233113E+04 0.  0.
        1    1    3    3  502    0 -0.13299208092E+04 -0.23291645570E+01  0.16206744985E+04  0.20964924550E+04  0.50400001928E-02 0.  1.
       -1    1    3    3    0  502  0.13299208092E+04  0.23291645570E+01 -0.25316559700E+03  0.13538048616E+04  0.50400001928E-02 0. -1.
</event>
<event>
 5   0  0.2635798E-06  0.3332705E+04  0.7818609E-02  0.8154623E-01
        1   -1    0    0  501    0  0.00000000000E+00  0.00000000000E+00  0.19979722514E+04  0.19979722514E+04  0.50400001928E-02 0.  1.
       -1   -1    0    0    0  501  0.00000000000E+00  0.00000000000E+00 -0.13897742499E+04  0.13897742499E+04  0.50400001928E-02 0. -1.
    10030    2    1    2    0    0  0.00000000000E+00  0.00000000000E+00  0.60819800147E+03  0.33877465013E+04  0.33327048396E+04 0.  0.
        1    1    3    3  502    0 -0.60924284633E+03  0.14254113507E+04  0.92555180631E+03  0.18054419156E+04  0.50400001928E-02 0.  1.
       -1    1    3    3    0  502  0.60924284633E+03 -0.14254113507E+04 -0.31735380484E+03  0.15823045857E+04  0.50400001928E-02 0. -1.
</event>
<event>
 5   0  0.7941434E-06  0.3285547E+04  0.7818609E-02  0.8166583E-01
        2   -1    0    0  501    0  0.00000000000E+00  0.00000000000E+00  0.10939861482E+04  0.10939861482E+04  0.25500000920E-02 0.  1.
       -2   -1    0    0    0  501  0.00000000000E+00  0.00000000000E+00 -0.24668549341E+04  0.24668549341E+04  0.25500000920E-02 0. -1.
    10030    2    1    2    0    0  0.00000000000E+00  0.00000000000E+00 -0.13728687859E+04  0.35608410823E+04  0.32855472163E+04 0.  0.
        4    1    3    3  502    0  0.67754133029E+03 -0.14848545115E+04 -0.88875304729E+03  0.18584237317E+04  0.12699999809E+01 0. -1.
       -4    1    3    3    0  502 -0.67754133029E+03  0.14848545115E+04 -0.48411573857E+03  0.17024173506E+04  0.12699999809E+01 0.  1.
</event>
<event>
 5   0  0.2635798E-06  0.3179251E+04  0.7818609E-02  0.8194318E-01
        1   -1    0    0  501    0  0.00000000000E+00  0.00000000000E+00  0.17946523303E+04  0.17946523303E+04  0.50400001928E-02 0. -1.
       -1   -1    0    0    0  501  0.00000000000E+00  0.00000000000E+00 -0.14080219135E+04  0.14080219135E+04  0.50400001928E-02 0.  1.
    10030    2    1    2    0    0  0.00000000000E+00  0.00000000000E+00  0.38663041681E+03  0.32026742437E+04  0.31792513635E+04 0.  0.
        1    1    3    3  502    0 -0.90519130697E+03  0.11048195083E+04 -0.50961676887E+03  0.15164783874E+04  0.50400001928E-02 0.  1.
       -1    1    3    3    0  502  0.90519130697E+03 -0.11048195083E+04  0.89624718568E+03  0.16861958564E+04  0.50400001928E-02 0. -1.
</event>
<event>
 5   0  0.8237664E-06  0.3207892E+04  0.7818609E-02  0.8186736E-01
        2   -1    0    0  501    0  0.00000000000E+00  0.00000000000E+00  0.19778299752E+04  0.19778299752E+04  0.25500000920E-02 0.  1.
       -2   -1    0    0    0  501  0.00000000000E+00  0.00000000000E+00 -0.13007400956E+04  0.13007400956E+04  0.25500000920E-02 0. -1.
    10030    2    1    2    0    0  0.00000000000E+00  0.00000000000E+00  0.67708987961E+03  0.32785700707E+04  0.32078919875E+04 0.  0.
        5    1    3    3  502    0 -0.66591565376E+03  0.42631721689E+02  0.18292275348E+04  0.19471406178E+04  0.46999998093E+01 0.  1.
       -5    1    3    3    0  502  0.66591565376E+03 -0.42631721689E+02 -0.11521376552E+04  0.13314294529E+04  0.46999998093E+01 0. -1.
</event>
<event>
 5   0  0.8237664E-06  0.3175877E+04  0.7818609E-02  0.8195217E-01
       -2   -1    0    0    0  501  0.00000000000E+00  0.00000000000E+00  0.15305078335E+04  0.15305078335E+04  0.25500000920E-02 0.  1.
        2   -1    0    0  501    0  0.00000000000E+00  0.00000000000E+00 -0.16475246989E+04  0.16475246989E+04  0.25500000920E-02 0. -1.
    10030    2    1    2    0    0  0.00000000000E+00  0.00000000000E+00 -0.11701686546E+03  0.31780325324E+04  0.31758774898E+04 0.  0.
        5    1    3    3  502    0 -0.64888224959E+03  0.15168462336E+03 -0.15008299391E+04  0.16421233191E+04  0.46999998093E+01 0. -1.
       -5    1    3    3    0  502  0.64888224959E+03 -0.15168462336E+03  0.13838130737E+04  0.15359092134E+04  0.46999998093E+01 0.  1.
</event>
<event>
 5   0  0.7952307E-06  0.3181926E+04  0.7818609E-02  0.8193607E-01
       -2   -1    0    0    0  501  0.00000000000E+00  0.00000000000E+00  0.12796519898E+04  0.12796519898E+04  0.25500000920E-02 0. -1.
        2   -1    0    0  501    0  0.00000000000E+00  0.00000000000E+00 -0.19780092437E+04  0.19780092437E+04  0.25500000920E-02 0.  1.
    10030    2    1    2    0    0  0.00000000000E+00  0.00000000000E+00 -0.69835725385E+03  0.32576612335E+04  0.31819261239E+04 0.  0.
        2    1    3    3  502    0  0.12955200352E+04  0.72105338144E+03 -0.93986278577E+03  0.17554578310E+04  0.25500000920E-02 0.  1.
       -2    1    3    3    0  502 -0.12955200352E+04 -0.72105338144E+03  0.24150553192E+03  0.15022034025E+04  0.25500000920E-02 0. -1.
</event>
<event>
 5   0  0.7952307E-06  0.1941244E+04  0.7818609E-02  0.8634595E-01
       -2   -1    0    0    0  501  0.00000000000E+00  0.00000000000E+00  0.42554807338E+03  0.42554807338E+03  0.25500000920E-02 0.  1.
        2   -1    0    0  501    0  0.00000000000E+00  0.00000000000E+00 -0.22138670403E+04  0.22138670403E+04  0.25500000920E-02 0. -1.
    10030    2    1    2    0    0  0.00000000000E+00  0.00000000000E+00 -0.17883189669E+04  0.26394151137E+04  0.19412437804E+04 0.  0.
        2    1    3    3  502    0 -0.55198322359E+03 -0.38600986972E+03  0.56058714481E+02  0.67589324462E+03  0.25500000920E-02 0.  1.
       -2    1    3    3    0  502  0.55198322359E+03  0.38600986972E+03 -0.18443776814E+04  0.19635218691E+04  0.25500000920E-02 0. -1.
</event>
<event>
 5   0  0.7971763E-06  0.3048219E+04  0.7818609E-02  0.8230094E-01
       -2   -1    0    0    0  501  0.00000000000E+00  0.00000000000E+00  0.12749962754E+04  0.12749962754E+04  0.25500000920E-02 0.  1.
        2   -1    0    0  501    0  0.00000000000E+00  0.00000000000E+00 -0.18218951680E+04  0.18218951680E+04  0.25500000920E-02 0. -1.
    10030    2    1    2    0    0  0.00000000000E+00  0.00000000000E+00 -0.54689889261E+03  0.30968914435E+04  0.30482188592E+04 0.  0.
        1    1    3    3  502    0 -0.48060796294E+03 -0.82497948852E+03  0.93351588976E+03  0.13353003733E+04  0.50400001928E-02 0.  1.
       -1    1    3    3    0  502  0.48060796294E+03  0.82497948852E+03 -0.14804147824E+04  0.17615910701E+04  0.50400001928E-02 0. -1.
</event>
<event>
 5   0  0.4142886E-06  0.3205889E+04  0.7818609E-02  0.8187264E-01
       -1   -1    0    0    0  501  0.00000000000E+00  0.00000000000E+00  0.18340510905E+04  0.18340510905E+04  0.50400001928E-02 0.  1.
        1   -1    0    0  501    0  0.00000000000E+00  0.00000000000E+00 -0.14009596438E+04  0.14009596438E+04  0.50400001928E-02 0. -1.
    10030    2    1    2    0    0  0.00000000000E+00  0.00000000000E+00  0.43309144671E+03  0.32350107343E+04  0.32058893072E+04 0.  0.
        5    1    3    3  502    0 -0.65698245232E+03 -0.14329868935E+04 -0.76492074862E+02  0.15782745348E+04  0.46999998093E+01 0. -1.
       -5    1    3    3    0  502  0.65698245232E+03  0.14329868935E+04  0.50958352158E+03  0.16567361996E+04  0.46999998093E+01 0.  1.
</event>
<event>
 5   0  0.2788054E-06  0.3040717E+04  0.7818609E-02  0.8232199E-01
        1   -1    0    0  501    0  0.00000000000E+00  0.00000000000E+00  0.73275841314E+03  0.73275841315E+03  0.50400001928E-02 0.  1.
       -1   -1    0    0    0  501  0.00000000000E+00  0.00000000000E+00 -0.31545040638E+04  0.31545040638E+04  0.50400001928E-02 0. -1.
    10030    2    1    2    0    0  0.00000000000E+00  0.00000000000E+00 -0.24217456506E+04  0.38872624769E+04  0.30407166208E+04 0.  0.
        3    1    3    3  502    0  0.24105572412E+03  0.13926302915E+04 -0.49455339439E+03  0.14973677107E+04  0.10100000352E+00 0.  1.
       -3    1    3    3    0  502 -0.24105572412E+03 -0.13926302915E+04 -0.19271922563E+04  0.23898947662E+04  0.10100000352E+00 0. -1.
</event>
<event>
 5   0  0.7510251E-06  0.2715504E+04  0.7818609E-02  0.8329992E-01
        2   -1    0    0  501    0  0.00000000000E+00  0.00000000000E+00  0.20018486084E+04  0.20018486084E+04  0.25500000920E-02 0. -1.
       -2   -1    0    0    0  501  0.00000000000E+00  0.00000000000E+00 -0.92089395584E+03  0.92089395585E+03  0.25500000920E-02 0.  1.
    10030    2    1    2    0    0  0.00000000000E+00  0.00000000000E+00  0.10809546525E+04  0.29227425642E+04  0.27155038457E+04 0.  0.
        3    1    3    3  502    0 -0.37466244825E+03  0.13005802370E+04  0.42450763958E+03  0.14184807539E+04  0.10100000352E+00 0.  1.
       -3    1    3    3    0  502  0.37466244825E+03 -0.13005802370E+04  0.65644701296E+03  0.15042618103E+04  0.10100000352E+00 0. -1.
</event>
<event>
 5   0  0.2635798E-06  0.3120508E+04  0.7818609E-02  0.8210132E-01
        1   -1    0    0  501    0  0.00000000000E+00  0.00000000000E+00  0.12231184734E+04  0.12231184734E+04  0.50400001928E-02 0.  1.
       -1   -1    0    0    0  501  0.00000000000E+00  0.00000000000E+00 -0.19903166329E+04  0.19903166329E+04  0.50400001928E-02 0. -1.
    10030    2    1    2    0    0  0.00000000000E+00  0.00000000000E+00 -0.76719815954E+03  0.32134351064E+04  0.31205083186E+04 0.  0.
        1    1    3    3  502    0  0.18804930142E+02  0.14456755849E+04  0.22043611054E+03  0.14625059320E+04  0.50400001928E-02 0.  1.
       -1    1    3    3    0  502 -0.18804930142E+02 -0.14456755849E+04 -0.98763427008E+03  0.17509291744E+04  0.50400001928E-02 0. -1.
</event>
<event>
 5   0  0.7952307E-06  0.3223294E+04  0.7818609E-02  0.8182692E-01
        2   -1    0    0  501    0  0.00000000000E+00  0.00000000000E+00  0.21981650195E+04  0.21981650195E+04  0.25500000920E-02 0.  1.
       -2   -1    0    0    0  501  0.00000000000E+00  0.00000000000E+00 -0.11816245204E+04  0.11816245204E+04  0.25500000920E-02 0. -1.
    10030    2    1    2    0    0  0.00000000000E+00  0.00000000000E+00  0.10165404991E+04  0.33797895398E+04  0.32232937730E+04 0.  0.
        2    1    3    3  502    0 -0.12938734451E+04 -0.59662984703E+03  0.12980530123E+04  0.19274380117E+04  0.25500000920E-02 0. -1.
       -2    1    3    3    0  502  0.12938734451E+04  0.59662984703E+03 -0.28151251317E+03  0.14523515281E+04  0.25500000920E-02 0.  1.
</event>
<event>
 5   0  0.3938696E-06  0.1965864E+04  0.7818609E-02  0.8622749E-01
       -1   -1    0    0    0  501  0.00000000000E+00  0.00000000000E+00  0.81374098965E+03  0.81374098967E+03  0.50400001928E-02 0.  1.
        1   -1    0    0  501    0  0.00000000000E+00  0.00000000000E+00 -0.11873008503E+04  0.11873008504E+04  0.50400001928E-02 0. -1.
    10030    2    1    2    0    0  0.00000000000E+00  0.00000000000E+00 -0.37355986069E+03  0.20010418400E+04  0.19658640533E+04 0.  0.
        4    1    3    3  502    0  0.68041131104E+03 -0.26722746941E+02 -0.90832276929E+03  0.11352204735E+04  0.12699999809E+01 0. -1.
       -4    1    3    3    0  502 -0.68041131104E+03  0.26722746941E+02  0.53476290859E+03  0.86582136651E+03  0.12699999809E+01 0.  1.
</event>
<event>
 5   0  0.2635798E-06  0.3186046E+04  0.7818609E-02  0.8192512E-01
       -1   -1    0    0    0  501  0.00000000000E+00  0.00000000000E+00  0.93126907749E+03  0.93126907750E+03  0.50400001928E-02 0.  1.
        1   -1    0    0  501    0  0.00000000000E+00  0.00000000000E+00 -0.27250156718E+04  0.27250156718E+04  0.50400001928E-02 0. -1.
    10030    2    1    2    0    0  0.00000000000E+00  0.00000000000E+00 -0.17937465943E+04  0.36562847493E+04  0.31860463467E+04 0.  0.
        1    1    3    3  502    0  0.53591952076E+03 -0.74290498326E+03  0.59879110493E+03  0.10943803426E+04  0.50400001928E-02 0.  1.
       -1    1    3    3    0  502 -0.53591952076E+03  0.74290498326E+03 -0.23925376992E+04  0.25619044067E+04  0.50400001928E-02 0. -1.
</event>
<event>
 5   0  0.2933646E-06  0.1717367E+04  0.7818609E-02  0.8751521E-01
        1   -1    0    0  501    0  0.00000000000E+00  0.00000000000E+00  0.88329586693E+03  0.88329586694E+03  0.50400001928E-02 0. -1.
       -1   -1    0    0    0  501  0.00000000000E+00  0.00000000000E+00 -0.83475735833E+03  0.83475735835E+03  0.50400001928E-02 0.  1.
    10030    2    1    2    0    0  0.00000000000E+00  0.00000000000E+00  0.48538508593E+02  0.17180532253E+04  0.17173674325E+04 0.  0.
        2    1    3    3  502    0  0.67636380745E+03  0.20904608716E+03  0.51043600936E+03  0.87276181530E+03  0.25500000920E-02 0. -1.
       -2    1    3    3    0  502 -0.67636380745E+03 -0.20904608716E+03 -0.46189750076E+03  0.84529140999E+03  0.25500000920E-02 0.  1.
</event>
<event>
 5   0  0.4142886E-06  0.3194506E+04  0.7818609E-02  0.8190270E-01
       -1   -1    0    0    0  501  0.00000000000E+00  0.00000000000E+00  0.86688715617E+03  0.86688715618E+03  0.50400001928E-02 0.  1.
        1   -1    0    0  501    0  0.00000000000E+00  0.00000000000E+00 -0.29429633771E+04  0.29429633771E+04  0.50400001928E-02 0. -1.
    10030    2    1    2    0    0  0.00000000000E+00  0.00000000000E+00 -0.20760762209E+04  0.38098505332E+04  0.31945060042E+04 0.  0.
        5    1    3    3  502    0  0.17720541278E+03  0.12771023059E+04 -0.21624022512E+04  0.25176174538E+04  0.46999998093E+01 0. -1.
       -5    1    3    3    0  502 -0.17720541278E+03 -0.12771023059E+04  0.86326030267E+02  0.12922330794E+04  0.46999998093E+01 0.  1.
</event>
<event>
 5   0  0.7941434E-06  0.1814302E+04  0.7818609E-02  0.8698731E-01
       -2   -1    0    0    0  501  0.00000000000E+00  0.00000000000E+00  0.87985148641E+03  0.87985148642E+03  0.25500000920E-02 0.  1.
        2   -1    0    0  501    0  0.00000000000E+00  0.00000000000E+00 -0.93529739494E+03  0.93529739494E+03  0.25500000920E-02 0. -1.
    10030    2    1    2    0    0  0.00000000000E+00  0.00000000000E+00 -0.55445908527E+02  0.18151488814E+04  0.18143018527E+04 0.  0.
        4    1    3    3  502    0 -0.88791973128E+03  0.16013249735E+03  0.66540587424E+02  0.90469504728E+03  0.12699999809E+01 0.  1.
       -4    1    3    3    0  502  0.88791973128E+03 -0.16013249735E+03 -0.12198649595E+03  0.91045383408E+03  0.12699999809E+01 0. -1.
</event>
<event>
 5   0  0.7941434E-06  0.3276738E+04  0.7818609E-02  0.8168840E-01
       -2   -1    0    0    0  501  0.00000000000E+00  0.00000000000E+00  0.25946001710E+04  0.25946001710E+04  0.25500000920E-02 0. -1.
        2   -1    0    0  501    0  0.00000000000E+00  0.00000000000E+00 -0.10345533779E+04  0.10345533779E+04  0.25500000920E-02 0.  1.
    10030    2    1    2    0    0  0.00000000000E+00  0.00000000000E+00  0.15600467932E+04  0.36291535489E+04  0.32767376283E+04 0.  0.
        4    1    3    3  502    0  0.91541813521E+03 -0.14407061493E+03  0.22764488131E+04  0.24578379759E+04  0.12699999809E+01 0. -1.
       -4    1    3    3    0  502 -0.91541813521E+03  0.14407061493E+03 -0.71640201993E+03  0.11713155729E+04  0.12699999809E+01 0.  1.
</event>
<event>
 5   0  0.2933646E-06  0.1658507E+04  0.7818609E-02  0.8785390E-01
        1   -1    0    0  501    0  0.00000000000E+00  0.00000000000E+00  0.11667740829E+04  0.11667740829E+04  0.50400001928E-02 0. -1.
       -1   -1    0    0    0  501  0.00000000000E+00  0.00000000000E+00 -0.58936982812E+03  0.58936982814E+03  0.50400001928E-02 0.  1.
    10030    2    1    2    0    0  0.00000000000E+00  0.00000000000E+00  0.57740425479E+03  0.17561439111E+04  0.16585070886E+04 0.  0.
        2    1    3    3  502    0 -0.24646623018E+03  0.40955148444E+03 -0.42882094264E+03  0.64215685146E+03  0.25500000920E-02 0.  1.
       -2    1    3    3    0  502  0.24646623018E+03 -0.40955148444E+03  0.10062251974E+04  0.11139870596E+04  0.25500000920E-02 0. -1.
</event>
<event>
 5   0  0.7941434E-06  0.3255421E+04  0.7818609E-02  0.8174332E-01
        2   -1    0    0  501    0  0.00000000000E+00  0.00000000000E+00  0.19146911151E+04  0.19146911151E+04  0.25500000920E-02 0. -1.
       -2   -1    0    0    0  501  0.00000000000E+00  0.00000000000E+00 -0.13837438260E+04  0.13837438260E+04  0.25500000920E-02 0.  1.
    10030    2    1    2    0    0  0.00000000000E+00  0.00000000000E+00  0.53094728912E+03  0.32984349411E+04  0.32554213302E+04 0.  0.
        4    1    3    3  502    0 -0.46010802507E+03  0.62265296195E+03 -0.11852421507E+04  0.14156965333E+04  0.12699999809E+01 0. -1.
       -4    1    3    3    0  502  0.46010802507E+03 -0.62265296195E+03  0.17161894399E+04  0.18827384078E+04  0.12699999809E+01 0.  1.
</event>
<event>
 5   0  0.7971763E-06  0.3043595E+04  0.7818609E-02  0.8231391E-01
       -2   -1    0    0    0  501  0.00000000000E+00  0.00000000000E+00  0.26616602308E+04  0.26616602308E+04  0.25500000920E-02 0.  1.
        2   -1    0    0  501    0  0.00000000000E+00  0.00000000000E+00 -0.87008363617E+03  0.87008363617E+03  0.25500000920E-02 0. -1.
    10030    2    1    2    0    0  0.00000000000E+00  0.00000000000E+00  0.17915765947E+04  0.35317438670E+04  0.30435945932E+04 0.  0.
        1    1    3    3  502    0 -0.14163764004E+04  0.42649486904E+01  0.15415789112E+04  0.20934674196E+04  0.50400001928E-02 0.  1.
       -1    1    3    3    0  502  0.14163764004E+04 -0.42649486904E+01  0.24999768345E+03  0.14382764474E+04  0.50400001928E-02 0. -1.
</event>
<event>
 5   0  0.7941434E-06  0.1813427E+04  0.7818609E-02  0.8699191E-01
       -2   -1    0    0    0  501  0.00000000000E+00  0.00000000000E+00  0.12080985458E+04  0.12080985458E+04  0.25500000920E-02 0.  1.
        2   -1    0    0  501    0  0.00000000000E+00  0.00000000000E+00 -0.68051549851E+03  0.68051549851E+03  0.25500000920E-02 0. -1.
    10030    2    1    2    0    0  0.00000000000E+00  0.00000000000E+00  0.52758304730E+03  0.18886140443E+04  0.18134274556E+04 0.  0.
        4    1    3    3  502    0  0.15967384222E+03 -0.89218082876E+03  0.29025783676E+03  0.95170036871E+03  0.12699999809E+01 0. -1.
       -4    1    3    3    0  502 -0.15967384222E+03  0.89218082876E+03  0.23732521054E+03  0.93691367562E+03  0.12699999809E+01 0.  1.
</event>
<event>
 5   0  0.4142886E-06  0.3248237E+04  0.7818609E-02  0.8176193E-01
       -1   -1    0    0    0  501  0.00000000000E+00  0.00000000000E+00  0.32363154851E+04  0.32363154851E+04  0.50400001928E-02 0.  1.
        1   -1    0    0  501    0  0.00000000000E+00  0.00000000000E+00 -0.81505068011E+03  0.81505068012E+03  0.50400001928E-02 0. -1.
    10030    2    1    2    0    0  0.00000000000E+00  0.00000000000E+00  0.24212648050E+04  0.40513661652E+04  0.32482371448E+04 0.  0.
        5    1    3    3  502    0  0.14622691723E+04  0.64612238289E+03  0.15678642205E+04  0.22391796645E+04  0.46999998093E+01 0.  1.
       -5    1    3    3    0  502 -0.14622691723E+04 -0.64612238289E+03  0.85340058453E+03  0.18121865008E+04  0.46999998093E+01 0. -1.
</event>
<event>
 5   0  0.8237664E-06  0.3328273E+04  0.7818609E-02  0.8155738E-01
        2   -1    0    0  501    0  0.00000000000E+00  0.00000000000E+00  0.26241328996E+04  0.26241328996E+04  0.25500000920E-02 0. -1.
       -2   -1    0    0    0  501  0.00000000000E+00  0.00000000000E+00 -0.10553391944E+04  0.10553391944E+04  0.25500000920E-02 0.  1.
    10030    2    1    2    0    0  0.00000000000E+00  0.00000000000E+00  0.15687937052E+04  0.36794720940E+04  0.33282730058E+04 0.  0.
        5    1    3    3  502    0 -0.34622824841E+03  0.13743511315E+04  0.17485554839E+04  0.22508183852E+04  0.46999998093E+01 0. -1.
       -5    1    3    3    0  502  0.34622824841E+03 -0.13743511315E+04 -0.17976177873E+03  0.14286537088E+04  0.46999998093E+01 0.  1.
</event>
<event>
 5   0  0.4142886E-06  0.3070375E+04  0.7818609E-02  0.8223915E-01
        1   -1    0    0  501    0  0.00000000000E+00  0.00000000000E+00  0.14750137648E+04  0.14750137648E+04  0.50400001928E-02 0.  1.
       -1   -1    0    0    0  501  0.00000000000E+00  0.00000000000E+00 -0.15978165139E+04  0.15978165139E+04  0.50400001928E-02 0. -1.
    10030    2    1    2    0    0  0.00000000000E+00  0.00000000000E+00 -0.12280274913E+03  0.30728302787E+04  0.30703754504E+04 0.  0.
        5    1    3    3  502    0  0.68023574348E+03  0.12664282213E+04 -0.60055108619E+03  0.15579617465E+04  0.46999998093E+01 0. -1.
       -5    1    3    3    0  502 -0.68023574348E+03 -0.12664282213E+04  0.47774833705E+03  0.15148685322E+04  0.46999998093E+01 0.  1.
</event>
<event>
 5   0  0.2788054E-06  0.3271513E+04  0.7818609E-02  0.8170182E-01
        1   -1    0    0  501    0  0.00000000000E+00  0.00000000000E+00  0.21056045259E+04  0.21056045259E+04  0.50400001928E-02 0.  1.
       -1   -1    0    0    0  501  0.00000000000E+00  0.00000000000E+00 -0.12707514485E+04  0.12707514485E+04  0.50400001928E-02 0. -1.
    10030    2    1    2    0    0  0.00000000000E+00  0.00000000000E+00  0.83485307738E+03  0.33763559744E+04  0.32715134120E+04 0.  0.
        3    1    3    3  502    0 -0.34963926235E+03 -0.34451586835E+03  0.20278040950E+04  0.20863672388E+04  0.10100000352E+00 0.  1.
       -3    1    3    3    0  502  0.34963926235E+03  0.34451586835E+03 -0.11929510176E+04  0.12899887356E+04  0.10100000352E+00 0. -1.
</event>
<event>
 5   0  0.7510251E-06  0.3166526E+04  0.7818609E-02  0.8197714E-01
        2   -1    0    0  501    0  0.00000000000E+00  0.00000000000E+00  0.24702110782E+04  0.24702110782E+04  0.25500000920E-02 0.  1.
       -2   -1    0    0    0  501  0.00000000000E+00  0.00000000000E+00 -0.10147803362E+04  0.10147803362E+04  0.25500000920E-02 0. -1.
    10030    2    1    2    0    0  0.00000000000E+00  0.00000000000E+00  0.14554307420E+04  0.34849914144E+04  0.31665259377E+04 0.  0.
        3    1    3    3  502    0  0.95983103095E+03  0.10556255724E+04  0.14831128299E+04  0.20579709992E+04  0.10100000352E+00 0.  1.
       -3    1    3    3    0  502 -0.95983103095E+03 -0.10556255724E+04 -0.27682087961E+02  0.14270204152E+04  0.10100000352E+00 0. -1.
</event>
<event>
 5   0  0.2635798E-06  0.1947467E+04  0.7818609E-02  0.8631583E-01
        1   -1    0    0  501    0  0.00000000000E+00  0.00000000000E+00  0.65993808314E+03  0.65993808316E+03  0.50400001928E-02 0.  1.
       -1   -1    0    0    0  501  0.00000000000E+00  0.00000000000E+00 -0.14367364804E+04  0.14367364804E+04  0.50400001928E-02 0. -1.
    10030    2    1    2    0    0  0.00000000000E+00  0.00000000000E+00 -0.77679839722E+03  0.20966745635E+04  0.19474671949E+04 0.  0.
        1    1    3    3  502    0 -0.33649194466E+03 -0.71025131943E+03 -0.10073114780E+04  0.12776385167E+04  0.50400001928E-02 0. -1.
       -1    1    3    3    0  502  0.33649194466E+03  0.71025131943E+03  0.23051308079E+03  0.81903604683E+03  0.50400001928E-02 0.  1.
</event>
<event>
 5   0  0.3938696E-06  0.3220356E+04  0.7818609E-02  0.8183462E-01
        1   -1    0    0  501    0  0.00000000000E+00  0.00000000000E+00  0.20428116377E+04  0.20428116377E+04  0.50400001928E-02 0.  1.
       -1   -1    0    0    0  501  0.00000000000E+00  0.00000000000E+00 -0.12691691678E+04  0.12691691678E+04  0.50400001928E-02 0. -1.
    10030    2    1    2    0    0  0.00000000000E+00  0.00000000000E+00  0.77364246990E+03  0.33119808056E+04  0.32203562203E+04 0.  0.
        4    1    3    3  502    0  0.11812139888E+04  0.92007239349E+03  0.99601913845E+03  0.17982923660E+04  0.12699999809E+01 0.  1.
       -4    1    3    3    0  502 -0.11812139888E+04 -0.92007239349E+03 -0.22237666854E+03  0.15136884396E+04  0.12699999809E+01 0. -1.
</event>
<event>
 5   0  0.2580875E-06  0.3097696E+04  0.7818609E-02  0.8216370E-01
        3   -1    0    0  501    0  0.00000000000E+00  0.00000000000E+00  0.16235077279E+04  0.16235077311E+04  0.10100000352E+00 0.  1.
       -3   -1    0    0    0  501  0.00000000000E+00  0.00000000000E+00 -0.14776219402E+04  0.14776219436E+04  0.10100000352E+00 0. -1.
    10030    2    1    2    0    0  0.00000000000E+00  0.00000000000E+00  0.14588578777E+03  0.31011296747E+04  0.30976963370E+04 0.  0.
        4    1    3    3  502    0 -0.12103682955E+04 -0.96600868184E+03  0.45256281229E+02  0.15492623819E+04  0.12699999809E+01 0.  1.
       -4    1    3    3    0  502  0.12103682955E+04  0.96600868184E+03  0.10062950654E+03  0.15518672928E+04  0.12699999809E+01 0. -1.
</event>
<event>
 5   0  0.2635798E-06  0.2743786E+04  0.7818609E-02  0.8320936E-01
        1   -1    0    0  501    0  0.00000000000E+00  0.00000000000E+00  0.15515788970E+04  0.15515788970E+04  0.50400001928E-02 0.  1.
       -1   -1    0    0    0  501  0.00000000000E+00  0.00000000000E+00 -0.12130159922E+04  0.12130159922E+04  0.50400001928E-02 0. -1.
    10030    2    1    2    0    0  0.00000000000E+00  0.00000000000E+00  0.33856290488E+03  0.27645948892E+04  0.27437857170E+04 0.  0.
        1    1    3    3  502    0 -0.39851685206E+03  0.12262907295E+04  0.64132722080E+03  0.14401059818E+04  0.50400001928E-02 0.  1.
       -1    1    3    3    0  502  0.39851685206E+03 -0.12262907295E+04 -0.30276431592E+03  0.13244889074E+04  0.50400001928E-02 0. -1.
</event>
<event>
 5   0  0.2635798E-06  0.3019598E+04  0.7818609E-02  0.8238157E-01
        1   -1    0    0  501    0  0.00000000000E+00  0.00000000000E+00  0.14598072915E+04  0.14598072915E+04  0.50400001928E-02 0. -1.
       -1   -1    0    0    0  501  0.00000000000E+00  0.00000000000E+00 -0.15615022040E+04  0.15615022040E+04  0.50400001928E-02 0.  1.
    10030    2    1    2    0    0  0.00000000000E+00  0.00000000000E+00 -0.10169491252E+03  0.30213094956E+04  0.30195975250E+04 0.  0.
        1    1    3    3  502    0  0.56396493387E+03  0.76998331694E+03 -0.12213660631E+04  0.15500534878E+04  0.50400001928E-02 0.  1.
       -1    1    3    3    0  502 -0.56396493387E+03 -0.76998331694E+03  0.11196711505E+04  0.14712560078E+04  0.50400001928E-02 0. -1.
</event>
<event>
 5   0  0.7941434E-06  0.3288849E+04  0.7818609E-02  0.8165739E-01
       -2   -1    0    0    0  501  0.00000000000E+00  0.00000000000E+00  0.13618863593E+04  0.13618863593E+04  0.25500000920E-02 0.  1.
        2   -1    0    0  501    0  0.00000000000E+00  0.00000000000E+00 -0.19855777534E+04  0.19855777534E+04  0.25500000920E-02 0. -1.
    10030    2    1    2    0    0  0.00000000000E+00  0.00000000000E+00 -0.62369139408E+03  0.33474641127E+04  0.32888485873E+04 0.  0.
        4    1    3    3  502    0  0.92879207152E+03  0.13088047113E+04  0.53019410838E+02  0.16057512744E+04  0.12699999809E+01 0.  1.
       -4    1    3    3    0  502 -0.92879207152E+03 -0.13088047113E+04 -0.67671080492E+03  0.17417128382E+04  0.12699999809E+01 0. -1.
</event>
<event>
 5   0  0.3938696E-06  0.3161744E+04  0.7818609E-02  0.8198994E-01
       -1   -1    0    0    0  501  0.00000000000E+00  0.00000000000E+00  0.14729841031E+04  0.14729841031E+04  0.50400001928E-02 0.  1.
        1   -1    0    0  501    0  0.00000000000E+00  0.00000000000E+00 -0.16966620636E+04  0.16966620636E+04  0.50400001928E-02 0. -1.
    10030    2    1    2    0    0  0.00000000000E+00  0.00000000000E+00 -0.22367796046E+03  0.31696461667E+04  0.31617439795E+04 0.  0.
        4    1    3    3  502    0 -0.10070857635E+04 -0.76517817143E+03 -0.10625949029E+04  0.16519167381E+04  0.12699999809E+01 0. -1.
       -4    1    3    3    0  502  0.10070857635E+04  0.76517817143E+03  0.83891694241E+03  0.15177294286E+04  0.12699999809E+01 0.  1.
</event>
<event>
 5   0  0.2635798E-06  0.3238628E+04  0.7818609E-02  0.8178690E-01
        1   -1    0    0  501    0  0.00000000000E+00  0.00000000000E+00  0.27381630430E+04  0.27381630430E+04  0.50400001928E-02 0.  1.
       -1   -1    0    0    0  501  0.00000000000E+00  0.00000000000E+00 -0.95764096423E+03  0.95764096424E+03  0.50400001928E-02 0. -1.
    10030    2    1    2    0    0  0.00000000000E+00  0.00000000000E+00  0.17805220788E+04  0.36958040073E+04  0.32386275468E+04 0.  0.
        1    1    3    3  502    0 -0.82582760809E+03 -0.13815631620E+04  0.68782398757E+03  0.17503742019E+04  0.50400001928E-02 0.  1.
       -1    1    3    3    0  502  0.82582760809E+03  0.13815631620E+04  0.10926980912E+04  0.19454298053E+04  0.50400001928E-02 0. -1.
</event>
<event>
 5   0  0.2788054E-06  0.3212888E+04  0.7818609E-02  0.8185422E-01
       -1   -1    0    0    0  501  0.00000000000E+00  0.00000000000E+00  0.81570875305E+03  0.81570875306E+03  0.50400001928E-02 0. -1.
        1   -1    0    0  501    0  0.00000000000E+00  0.00000000000E+00 -0.31637058942E+04  0.31637058942E+04  0.50400001928E-02 0.  1.
    10030    2    1    2    0    0  0.00000000000E+00  0.00000000000E+00 -0.23479971411E+04  0.39794146472E+04  0.32128881649E+04 0.  0.
        3    1    3    3  502    0  0.86194734339E+03 -0.10470422070E+04 -0.10751693086E+03  0.13604449664E+04  0.10100000352E+00 0. -1.
       -3    1    3    3    0  502 -0.86194734339E+03  0.10470422070E+04 -0.22404802103E+04  0.26189696808E+04  0.10100000352E+00 0.  1.
</event>
<event>
 5   0  0.4142886E-06  0.3158541E+04  0.7818609E-02  0.8199853E-01
       -1   -1    0    0    0  501  0.00000000000E+00  0.00000000000E+00  0.10243804924E+04  0.10243804925E+04  0.50400001928E-02 0.  1.
        1   -1    0    0  501    0  0.00000000000E+00  0.00000000000E+00 -0.24347345465E+04  0.24347345465E+04  0.50400001928E-02 0. -1.
    10030    2    1    2    0    0  0.00000000000E+00  0.00000000000E+00 -0.14103540540E+04  0.34591150389E+04  0.31585405324E+04 0.  0.
        5    1    3    3  502    0  0.21065369314E+03  0.15491291382E+04 -0.94980901077E+03  0.18292991315E+04  0.46999998093E+01 0. -1.
       -5    1    3    3    0  502 -0.21065369314E+03 -0.15491291382E+04 -0.46054504325E+03  0.16298159075E+04  0.46999998093E+01 0.  1.
</event>
<event>
 5   0  0.7941434E-06  0.3188056E+04  0.7818609E-02  0.8191979E-01
        2   -1    0    0  501    0  0.00000000000E+00  0.00000000000E+00  0.27523522372E+04  0.27523522372E+04  0.25500000920E-02 0. -1.
       -2   -1    0    0    0  501  0.00000000000E+00  0.00000000000E+00 -0.92318307091E+03  0.92318307092E+03  0.25500000920E-02 0.  1.
    10030    2    1    2    0    0  0.00000000000E+00  0.00000000000E+00  0.18291691663E+04  0.36755353081E+04  0.31880558280E+04 0.  0.
        4    1    3    3  502    0  0.65476263040E+03 -0.32351478631E+03 -0.71894720993E+03  0.10248232153E+04  0.12699999809E+01 0.  1.
       -4    1    3    3    0  502 -0.65476263040E+03  0.32351478631E+03  0.25481163762E+04  0.26507120928E+04  0.12699999809E+01 0. -1.
</event>
<event>
 5   0  0.2933646E-06  0.1643208E+04  0.7818609E-02  0.8794434E-01
        1   -1    0    0  501    0  0.00000000000E+00  0.00000000000E+00  0.61269013551E+03  0.61269013553E+03  0.50400001928E-02 0. -1.
       -1   -1    0    0    0  501  0.00000000000E+00  0.00000000000E+00 -0.11017534917E+04  0.11017534918E+04  0.50400001928E-02 0.  1.
    10030    2    1    2    0    0  0.00000000000E+00  0.00000000000E+00 -0.48906335624E+03  0.17144436273E+04  0.16432084423E+04 0.  0.
        2    1    3    3  502    0  0.13989540072E+03 -0.62175051080E+03 -0.78555642555E+03  0.10115549014E+04  0.25500000920E-02 0.  1.
       -2    1    3    3    0  502 -0.13989540072E+03  0.62175051080E+03  0.29649306931E+03  0.70288872589E+03  0.25500000920E-02 0. -1.
</event>
<event>
 5   0  0.2635798E-06  0.3283625E+04  0.7818609E-02  0.8167075E-01
        1   -1    0    0  501    0  0.00000000000E+00  0.00000000000E+00  0.17663927907E+04  0.17663927907E+04  0.50400001928E-02 0.  1.
       -1   -1    0    0    0  501  0.00000000000E+00  0.00000000000E+00 -0.15260186121E+04  0.15260186121E+04  0.50400001928E-02 0. -1.
    10030    2    1    2    0    0  0.00000000000E+00  0.00000000000E+00  0.24037417865E+03  0.32924114028E+04  0.32836249938E+04 0.  0.
        1    1    3    3  502    0  0.10282274736E+04  0.12274044178E+04  0.48416660750E+03  0.16727793178E+04  0.50400001928E-02 0. -1.
       -1    1    3    3    0  502 -0.10282274736E+04 -0.12274044178E+04 -0.24379242885E+03  0.16196320850E+04  0.50400001928E-02 0.  1.
</event>
<event>
 5   0  0.7941434E-06  0.3115837E+04  0.7818609E-02  0.8211405E-01
        2   -1    0    0  501    0  0.00000000000E+00  0.00000000000E+00  0.16029003161E+04  0.16029003161E+04  0.25500000920E-02 0. -1.
       -2   -1    0    0    0  501  0.00000000000E+00  0.00000000000E+00 -0.15141988882E+04  0.15141988882E+04  0.25500000920E-02 0.  1.
    10030    2    1    2    0    0  0.00000000000E+00  0.00000000000E+00  0.88701427889E+02  0.31170992043E+04  0.31158368870E+04 0.  0.
        4    1    3    3  502    0  0.89829020565E+03  0.12717724827E+04  0.97076167756E+02  0.15600499789E+04  0.12699999809E+01 0.  1.
       -4    1    3    3    0  502 -0.89829020565E+03 -0.12717724827E+04 -0.83747398664E+01  0.15570492255E+04  0.12699999809E+01 0. -1.
</event>
<event>
 5   0  0.8237664E-06  0.3234067E+04  0.7818609E-02  0.8179878E-01
       -2   -1    0    0    0  501  0.00000000000E+00  0.00000000000E+00  0.24796299940E+04  0.24796299940E+04  0.25500000920E-02 0. -1.
        2   -1    0    0  501    0  0.00000000000E+00  0.00000000000E+00 -0.10545108869E+04  0.10545108869E+04  0.25500000920E-02 0.  1.
    10030    2    1    2    0    0  0.00000000000E+00  0.00000000000E+00  0.14251191071E+04  0.35341408809E+04  0.32340666809E+04 0.  0.
        5    1    3    3  502    0 -0.14584827480E+04  0.35227813543E+03  0.53706077718E+02  0.15013921020E+04  0.46999998093E+01 0.  1.
       -5    1    3    3    0  502  0.14584827480E+04 -0.35227813543E+03  0.13714130294E+04  0.20327487789E+04  0.46999998093E+01 0. -1.
</event>
<event>
 5   0  0.3938696E-06  0.3257012E+04  0.7818609E-02  0.8173921E-01
       -1   -1    0    0    0  501  0.00000000000E+00  0.00000000000E+00  0.28568855557E+04  0.28568855557E+04  0.50400001928E-02 0. -1.
        1   -1    0    0  501    0  0.00000000000E+00  0.00000000000E+00 -0.92829471297E+03  0.92829471298E+03  0.50400001928E-02 0.  1.
    10030    2    1    2    0    0  0.00000000000E+00  0.00000000000E+00  0.19285908428E+04  0.37851802687E+04  0.32570119785E+04 0.  0.
        4    1    3    3  502    0  0.11698431310E+04  0.66039950860E+03 -0.10550723624E+03  0.13475139524E+04  0.12699999809E+01 0.  1.
       -4    1    3    3    0  502 -0.11698431310E+04 -0.66039950860E+03  0.20340980790E+04  0.24376663164E+04  0.12699999809E+01 0. -1.
</event>
<event>
 5   0  0.7941434E-06  0.3197559E+04  0.7818609E-02  0.8189462E-01
        2   -1    0    0  501    0  0.00000000000E+00  0.00000000000E+00  0.16444860200E+04  0.16444860200E+04  0.25500000920E-02 0. -1.
       -2   -1    0    0    0  501  0.00000000000E+00  0.00000000000E+00 -0.15543428941E+04  0.15543428941E+04  0.25500000920E-02 0.  1.
    10030    2    1    2    0    0  0.00000000000E+00  0.00000000000E+00  0.90143125859E+02  0.31988289141E+04  0.31975585434E+04 0.  0.
        4    1    3    3  502    0  0.61829420529E+03  0.10732284663E+04 -0.96626354522E+03  0.15709149935E+04  0.12699999809E+01 0.  1.
       -4    1    3    3    0  502 -0.61829420529E+03 -0.10732284663E+04  0.10564066711E+04  0.16279139205E+04  0.12699999809E+01 0. -1.
</event>
<event>
 5   0  0.7510251E-06  0.1782208E+04  0.7818609E-02  0.8715819E-01
        2   -1    0    0  501    0  0.00000000000E+00  0.00000000000E+00  0.14157836032E+04  0.14157836032E+04  0.25500000920E-02 0.  1.
       -2   -1    0    0    0  501  0.00000000000E+00  0.00000000000E+00 -0.56086690364E+03  0.56086690364E+03  0.25500000920E-02 0. -1.
    10030    2    1    2    0    0  0.00000000000E+00  0.00000000000E+00  0.85491669953E+03  0.19766505068E+04  0.17822078058E+04 0.  0.
        3    1    3    3  502    0 -0.68515488126E+03 -0.16420570710E+03  0.10325703234E+04  0.12500408827E+04  0.10100000352E+00 0.  1.
       -3    1    3    3    0  502  0.68515488126E+03  0.16420570710E+03 -0.17765362384E+03  0.72660962410E+03  0.10100000352E+00 0. -1.
</event>
<event>
 5   0  0.2580875E-06  0.3097444E+04  0.7818609E-02  0.8216440E-01
        3   -1    0    0  501    0  0.00000000000E+00  0.00000000000E+00  0.13588939736E+04  0.13588939774E+04  0.10100000352E+00 0.  1.
       -3   -1    0    0    0  501  0.00000000000E+00  0.00000000000E+00 -0.17650676038E+04  0.17650676067E+04  0.10100000352E+00 0. -1.
    10030    2    1    2    0    0  0.00000000000E+00  0.00000000000E+00 -0.40617363014E+03  0.31239615840E+04  0.30974439399E+04 0.  0.
        1    1    3    3  502    0  0.17867611366E+02  0.14031252958E+04 -0.86402909686E+03  0.16479156919E+04  0.50400001928E-02 0. -1.
       -1    1    3    3    0  502 -0.17867611366E+02 -0.14031252958E+04  0.45785546672E+03  0.14760458922E+04  0.50400001928E-02 0.  1.
</event>
<event>
 5   0  0.7952307E-06  0.3211403E+04  0.7818609E-02  0.8185812E-01
       -2   -1    0    0    0  501  0.00000000000E+00  0.00000000000E+00  0.14264979311E+04  0.14264979311E+04  0.25500000920E-02 0. -1.
        2   -1    0    0  501    0  0.00000000000E+00  0.00000000000E+00 -0.18074172261E+04  0.18074172261E+04  0.25500000920E-02 0.  1.
    10030    2    1    2    0    0  0.00000000000E+00  0.00000000000E+00 -0.38091929494E+03  0.32339151572E+04  0.32114027675E+04 0.  0.
        2    1    3    3  502    0  0.13339875174E+03 -0.29183520211E+03 -0.17748018354E+04  0.18035754952E+04  0.25500000920E-02 0.  1.
       -2    1    3    3    0  502 -0.13339875174E+03  0.29183520211E+03  0.13938825404E+04  0.14303396620E+04  0.25500000920E-02 0. -1.
</event>
<event>
 5   0  0.7952307E-06  0.3052516E+04  0.7818609E-02  0.8228892E-01
       -2   -1    0    0    0  501  0.00000000000E+00  0.00000000000E+00  0.13502294634E+04  0.13502294634E+04  0.25500000920E-02 0.  1.
        2   -1    0    0  501    0  0.00000000000E+00  0.00000000000E+00 -0.17252349261E+04  0.17252349261E+04  0.25500000920E-02 0. -1.
    10030    2    1    2    0    0  0.00000000000E+00  0.00000000000E+00 -0.37500546263E+03  0.30754643895E+04  0.30525157025E+04 0.  0.
        2    1    3    3  502    0  0.41376437290E+01 -0.79044276818E+03  0.11279338515E+04  0.13773349858E+04  0.25500000920E-02 0.  1.
       -2    1    3    3    0  502 -0.41376437290E+01  0.79044276818E+03 -0.15029393141E+04  0.16981294037E+04  0.25500000920E-02 0. -1.
</event>
<event>
 5   0  0.3242568E-06  0.1693045E+04  0.7818609E-02  0.8765341E-01
       -1   -1    0    0    0  501  0.00000000000E+00  0.00000000000E+00  0.77157223192E+03  0.77157223194E+03  0.50400001928E-02 0. -1.
        1   -1    0    0  501    0  0.00000000000E+00  0.00000000000E+00 -0.92875299247E+03  0.92875299248E+03  0.50400001928E-02 0.  1.
    10030    2    1    2    0    0  0.00000000000E+00  0.00000000000E+00 -0.15718076054E+03  0.17003252244E+04  0.16930446176E+04 0.  0.
        3    1    3    3  502    0  0.20582615142E+03  0.23299186690E+03 -0.86934559491E+03  0.92326127843E+03  0.10100000352E+00 0.  1.
       -3    1    3    3    0  502 -0.20582615142E+03 -0.23299186690E+03  0.71216483437E+03  0.77706394599E+03  0.10100000352E+00 0. -1.
</event>
<event>
 5   0  0.7510251E-06  0.3212254E+04  0.7818609E-02  0.8185588E-01
        2   -1    0    0  501    0  0.00000000000E+00  0.00000000000E+00  0.15310458253E+04  0.15310458253E+04  0.25500000920E-02 0.  1.
       -2   -1    0    0    0  501  0.00000000000E+00  0.00000000000E+00 -0.16848897783E+04  0.16848897783E+04  0.25500000920E-02 0. -1.
    10030    2    1    2    0    0  0.00000000000E+00  0.00000000000E+00 -0.15384395307E+03  0.32159356036E+04  0.32122537018E+04 0.  0.
        3    1    3    3  502    0 -0.13093437557E+04  0.71708053724E+03  0.51625853015E+03  0.15795912280E+04  0.10100000352E+00 0. -1.
       -3    1    3    3    0  502  0.13093437557E+04 -0.71708053724E+03 -0.67010248321E+03  0.16363443756E+04  0.10100000352E+00 0.  1.
</event>
<event>
 5   0  0.3938696E-06  0.3088115E+04  0.7818609E-02  0.8219007E-01
        1   -1    0    0  501    0  0.00000000000E+00  0.00000000000E+00  0.15588502410E+04  0.15588502410E+04  0.50400001928E-02 0. -1.
       -1   -1    0    0    0  501  0.00000000000E+00  0.00000000000E+00 -0.15294055575E+04  0.15294055576E+04  0.50400001928E-02 0.  1.
    10030    2    1    2    0    0  0.00000000000E+00  0.00000000000E+00  0.29444683473E+02  0.30882557986E+04  0.30881154266E+04 0.  0.
        4    1    3    3  502    0  0.27229117647E+03  0.19238683902E+03 -0.14929792435E+04  0.15297528608E+04  0.12699999809E+01 0.  1.
       -4    1    3    3    0  502 -0.27229117647E+03 -0.19238683902E+03  0.15224239270E+04  0.15585029378E+04  0.12699999809E+01 0. -1.
</event>
<event>
 5   0  0.2788054E-06  0.3209066E+04  0.7818609E-02  0.8186427E-01
        1   -1    0    0  501    0  0.00000000000E+00  0.00000000000E+00  0.17816545985E+04  0.17816545985E+04  0.50400001928E-02 0. -1.
       -1   -1    0    0    0  501  0.00000000000E+00  0.00000000000E+00 -0.14450194151E+04  0.14450194151E+04  0.50400001928E-02 0.  1.
    10030    2    1    2    0    0  0.00000000000E+00  0.00000000000E+00  0.33663518345E+03  0.32266740136E+04  0.32090655873E+04 0.  0.
        3    1    3    3  502    0 -0.44879253123E+03 -0.28524215551E+02 -0.13803600835E+04  0.14517652487E+04  0.10100000352E+00 0.  1.
       -3    1    3    3    0  502  0.44879253123E+03  0.28524215551E+02  0.17169952670E+04  0.17749087650E+04  0.10100000352E+00 0. -1.
</event>
<event>
 5   0  0.7952307E-06  0.3227761E+04  0.7818609E-02  0.8181524E-01
       -2   -1    0    0    0  501  0.00000000000E+00  0.00000000000E+00  0.11929781490E+04  0.11929781490E+04  0.25500000920E-02 0. -1.
        2   -1    0    0  501    0  0.00000000000E+00  0.00000000000E+00 -0.21832834848E+04  0.21832834848E+04  0.25500000920E-02 0.  1.
    10030    2    1    2    0    0  0.00000000000E+00  0.00000000000E+00 -0.99030533576E+03  0.33762616338E+04  0.32277605180E+04 0.  0.
        2    1    3    3  502    0  0.88426376364E+03  0.74715125926E+03 -0.16713656722E+04  0.20331307430E+04  0.25500000920E-02 0.  1.
       -2    1    3    3    0  502 -0.88426376364E+03 -0.74715125926E+03  0.68106033644E+03  0.13431308908E+04  0.25500000920E-02 0. -1.
</event>
<event>
 5   0  0.4142886E-06  0.3183980E+04  0.7818609E-02  0.8193061E-01
       -1   -1    0    0    0  501  0.00000000000E+00  0.00000000000E+00  0.11831927713E+04  0.11831927714E+04  0.50400001928E-02 0. -1.
        1   -1    0    0  501    0  0.00000000000E+00  0.00000000000E+00 -0.21420275481E+04  0.21420275481E+04  0.50400001928E-02 0.  1.
    10030    2    1    2    0    0  0.00000000000E+00  0.00000000000E+00 -0.95883477670E+03  0.33252203194E+04  0.31839795922E+04 0.  0.
        5    1    3    3  502    0  0.70134842830E+02 -0.71869776058E+03  0.10023094935E+04  0.12353508724E+04  0.46999998093E+01 0. -1.
       -5    1    3    3    0  502 -0.70134842830E+02  0.71869776058E+03 -0.19611442702E+04  0.20898694470E+04  0.46999998093E+01 0.  1.
</event>
<event>
 5   0  0.7941434E-06  0.3101327E+04  0.7818609E-02  0.8215374E-01
        2   -1    0    0  501    0  0.00000000000E+00  0.00000000000E+00  0.21502582695E+04  0.21502582695E+04  0.25500000920E-02 0. -1.
       -2   -1    0    0    0  501  0.00000000000E+00  0.00000000000E+00 -0.11182641579E+04  0.11182641579E+04  0.25500000920E-02 0.  1.
    10030    2    1    2    0    0  0.00000000000E+00  0.00000000000E+00  0.10319941115E+04  0.32685224274E+04  0.31013266536E+04 0.  0.
        4    1    3    3  502    0 -0.93588940855E+03 -0.48859934474E+03  0.17129806003E+04  0.20121934436E+04  0.12699999809E+01 0. -1.
       -4    1    3    3    0  502  0.93588940855E+03  0.48859934474E+03 -0.68098648875E+03  0.12563289838E+04  0.12699999809E+01 0.  1.
</event>
<event>
 5   0  0.7510251E-06  0.3175763E+04  0.7818609E-02  0.8195248E-01
        2   -1    0    0  501    0  0.00000000000E+00  0.00000000000E+00  0.18393468328E+04  0.18393468328E+04  0.25500000920E-02 0. -1.
       -2   -1    0    0    0  501  0.00000000000E+00  0.00000000000E+00 -0.13707947683E+04  0.13707947683E+04  0.25500000920E-02 0.  1.
    10030    2    1    2    0    0  0.00000000000E+00  0.00000000000E+00  0.46855206453E+03  0.32101416011E+04  0.31757625953E+04 0.  0.
        3    1    3    3  502    0 -0.57761005790E+03  0.14610538925E+04  0.46710656494E+03  0.16390547303E+04  0.10100000352E+00 0. -1.
       -3    1    3    3    0  502  0.57761005790E+03 -0.14610538925E+04  0.14454995968E+01  0.15710868707E+04  0.10100000352E+00 0.  1.
</event>
<event>
 5   0  0.2580875E-06  0.3135100E+04  0.7818609E-02  0.8206170E-01
        4   -1    0    0  501    0  0.00000000000E+00  0.00000000000E+00  0.17782704160E+04  0.17782708695E+04  0.12699999809E+01 0. -1.
       -4   -1    0    0    0  501  0.00000000000E+00  0.00000000000E+00 -0.13817986336E+04  0.13817992172E+04  0.12699999809E+01 0.  1.
    10030    2    1    2    0    0  0.00000000000E+00  0.00000000000E+00  0.39647178239E+03  0.31600700867E+04  0.31351001704E+04 0.  0.
        2    1    3    3  502    0 -0.14486543639E+04  0.28576313436E+03  0.72869085063E+03  0.16465874987E+04  0.25500000920E-02 0. -1.
       -2    1    3    3    0  502  0.14486543639E+04 -0.28576313436E+03 -0.33221906825E+03  0.15134825880E+04  0.25500000920E-02 0.  1.
</event>
<event>
 5   0  0.2635798E-06  0.1782007E+04  0.7818609E-02  0.8715927E-01
       -1   -1    0    0    0  501  0.00000000000E+00  0.00000000000E+00  0.11301147333E+04  0.11301147333E+04  0.50400001928E-02 0. -1.
        1   -1    0    0  501    0  0.00000000000E+00  0.00000000000E+00 -0.70248349763E+03  0.70248349765E+03  0.50400001928E-02 0.  1.
    10030    2    1    2    0    0  0.00000000000E+00  0.00000000000E+00  0.42763123562E+03  0.18325982309E+04  0.17820066785E+04 0.  0.
        1    1    3    3  502    0  0.65925451287E+03 -0.58882760353E+03  0.98596937431E+02  0.88941318605E+03  0.50400001928E-02 0.  1.
       -1    1    3    3    0  502 -0.65925451287E+03  0.58882760353E+03  0.32903429819E+03  0.94318504486E+03  0.50400001928E-02 0. -1.
</event>
<event>
 5   0  0.2788054E-06  0.2788794E+04  0.7818609E-02  0.8306756E-01
       -1   -1    0    0    0  501  0.00000000000E+00  0.00000000000E+00  0.13501642175E+04  0.13501642175E+04  0.50400001928E-02 0. -1.
        1   -1    0    0  501    0  0.00000000000E+00  0.00000000000E+00 -0.14400794003E+04  0.14400794004E+04  0.50400001928E-02 0.  1.
    10030    2    1    2    0    0  0.00000000000E+00  0.00000000000E+00 -0.89915182849E+02  0.27902436179E+04  0.27887944899E+04 0.  0.
        3    1    3    3  502    0  0.13119391123E+04 -0.88643361906E+02 -0.50920493608E+03  0.14100821101E+04  0.10100000352E+00 0.  1.
       -3    1    3    3    0  502 -0.13119391123E+04  0.88643361906E+02  0.41928975323E+03  0.13801615078E+04  0.10100000352E+00 0. -1.
</event>
<event>
 5   0  0.4144258E-06  0.1573152E+04  0.7818609E-02  0.8837214E-01
       -1   -1    0    0    0  501  0.00000000000E+00  0.00000000000E+00  0.34168908126E+03  0.34168908130E+03  0.50400001928E-02 0. -1.
        1   -1    0    0  501    0  0.00000000000E+00  0.00000000000E+00 -0.18107158948E+04  0.18107158948E+04  0.50400001928E-02 0.  1.
    10030    2    1    2    0    0  0.00000000000E+00  0.00000000000E+00 -0.14690268135E+04  0.21524049761E+04  0.15731520595E+04 0.  0.
        5    1    3    3  502    0  0.57139411992E+03 -0.43724361954E+03 -0.11693519439E+04  0.13729818942E+04  0.46999998093E+01 0. -1.
       -5    1    3    3    0  502 -0.57139411992E+03  0.43724361954E+03 -0.29967486963E+03  0.77942308189E+03  0.46999998093E+01 0.  1.
</event>
<event>
 5   0  0.7941434E-06  0.2699284E+04  0.7818609E-02  0.8335237E-01
       -2   -1    0    0    0  501  0.00000000000E+00  0.00000000000E+00  0.12436184713E+04  0.12436184713E+04  0.25500000920E-02 0.  1.
        2   -1    0    0  501    0  0.00000000000E+00  0.00000000000E+00 -0.14647045946E+04  0.14647045946E+04  0.25500000920E-02 0. -1.
    10030    2    1    2    0    0  0.00000000000E+00  0.00000000000E+00 -0.22108612327E+03  0.27083230659E+04  0.26992841191E+04 0.  0.
        4    1    3    3  502    0  0.28488048415E+03  0.85268037699E+03 -0.11205475988E+04  0.14366103333E+04  0.12699999809E+01 0. -1.
       -4    1    3    3    0  502 -0.28488048415E+03 -0.85268037699E+03  0.89946147552E+03  0.12717127327E+04  0.12699999809E+01 0.  1.
</event>
<event>
 5   0  0.7971763E-06  0.2799119E+04  0.7818609E-02  0.8303542E-01
        2   -1    0    0  501    0  0.00000000000E+00  0.00000000000E+00  0.23647683508E+04  0.23647683508E+04  0.25500000920E-02 0. -1.
       -2   -1    0    0    0  501  0.00000000000E+00  0.00000000000E+00 -0.82831222603E+03  0.82831222604E+03  0.25500000920E-02 0.  1.
    10030    2    1    2    0    0  0.00000000000E+00  0.00000000000E+00  0.15364561248E+04  0.31930805769E+04  0.27991188161E+04 0.  0.
        1    1    3    3  502    0 -0.64383216498E+03  0.12189426989E+04  0.10439614175E+04  0.17292184944E+04  0.50400001928E-02 0. -1.
       -1    1    3    3    0  502  0.64383216498E+03 -0.12189426989E+04  0.49249470725E+03  0.14638620825E+04  0.50400001928E-02 0.  1.
</event>
<event>
 5   0  0.8237664E-06  0.3182320E+04  0.7818609E-02  0.8193502E-01
       -2   -1    0    0    0  501  0.00000000000E+00  0.00000000000E+00  0.18393619031E+04  0.18393619031E+04  0.25500000920E-02 0. -1.
        2   -1    0    0  501    0  0.00000000000E+00  0.00000000000E+00 -0.13764505073E+04  0.13764505073E+04  0.25500000920E-02 0.  1.
    10030    2    1    2    0    0  0.00000000000E+00  0.00000000000E+00  0.46291139582E+03  0.32158124103E+04  0.31823203010E+04 0.  0.
        5    1    3    3  502    0  0.45555840408E+03  0.15146640702E+04  0.40656482680E+03  0.16331129029E+04  0.46999998093E+01 0. -1.
       -5    1    3    3    0  502 -0.45555840408E+03 -0.15146640702E+04  0.56346569015E+02  0.15826995075E+04  0.46999998093E+01 0.  1.
</event>
<event>
 5   0  0.7941434E-06  0.3096111E+04  0.7818609E-02  0.8216806E-01
       -2   -1    0    0    0  501  0.00000000000E+00  0.00000000000E+00  0.13001156932E+04  0.13001156932E+04  0.25500000920E-02 0. -1.
        2   -1    0    0  501    0  0.00000000000E+00  0.00000000000E+00 -0.18432783659E+04  0.18432783659E+04  0.25500000920E-02 0.  1.
    10030    2    1    2    0    0  0.00000000000E+00  0.00000000000E+00 -0.54316267267E+03  0.31433940591E+04  0.30961105474E+04 0.  0.
        4    1    3    3  502    0  0.11807508388E+04 -0.72643486270E+03 -0.97100963557E+03  0.16925547194E+04  0.12699999809E+01 0.  1.
       -4    1    3    3    0  502 -0.11807508388E+04  0.72643486270E+03  0.42784696291E+03  0.14508393397E+04  0.12699999809E+01 0. -1.
</event>
<event>
 5   0  0.7952307E-06  0.3328487E+04  0.7818609E-02  0.8155684E-01
        2   -1    0    0  501    0  0.00000000000E+00  0.00000000000E+00  0.17435713314E+04  0.17435713314E+04  0.25500000920E-02 0. -1.
       -2   -1    0    0    0  501  0.00000000000E+00  0.00000000000E+00 -0.15885252419E+04  0.15885252420E+04  0.25500000920E-02 0.  1.
    10030    2    1    2    0    0  0.00000000000E+00  0.00000000000E+00  0.15504608948E+03  0.33320965734E+04  0.33284873869E+04 0.  0.
        2    1    3    3  502    0 -0.80820931726E+03  0.10043081338E+03 -0.13754012528E+04  0.15984421337E+04  0.25500000920E-02 0.  1.
       -2    1    3    3    0  502  0.80820931726E+03 -0.10043081338E+03  0.15304473422E+04  0.17336544397E+04  0.25500000920E-02 0. -1.
</event>
<event>
 5   0  0.8237664E-06  0.3526602E+04  0.7818609E-02  0.8107514E-01
        2   -1    0    0  501    0  0.00000000000E+00  0.00000000000E+00  0.16101732762E+04  0.16101732762E+04  0.25500000920E-02 0. -1.
       -2   -1    0    0    0  501  0.00000000000E+00  0.00000000000E+00 -0.19309909573E+04  0.19309909573E+04  0.25500000920E-02 0.  1.
    10030    2    1    2    0    0  0.00000000000E+00  0.00000000000E+00 -0.32081768111E+03  0.35411642336E+04  0.35266017842E+04 0.  0.
        5    1    3    3  502    0 -0.13774619951E+04 -0.92988663517E+03 -0.75200826203E+03  0.18241790533E+04  0.46999998093E+01 0. -1.
       -5    1    3    3    0  502  0.13774619951E+04  0.92988663517E+03  0.43119058091E+03  0.17169851803E+04  0.46999998093E+01 0.  1.
</event>
<event>
 5   0  0.8237664E-06  0.3256419E+04  0.7818609E-02  0.8174074E-01
       -2   -1    0    0    0  501  0.00000000000E+00  0.00000000000E+00  0.10899319451E+04  0.10899319451E+04  0.25500000920E-02 0. -1.
        2   -1    0    0  501    0  0.00000000000E+00  0.00000000000E+00 -0.24323230210E+04  0.24323230210E+04  0.25500000920E-02 0.  1.
    10030    2    1    2    0    0  0.00000000000E+00  0.00000000000E+00 -0.13423910759E+04  0.35222549661E+04  0.32564192367E+04 0.  0.
        5    1    3    3  502    0 -0.11685341872E+04 -0.20189209243E+03 -0.18779873242E+04  0.22210562900E+04  0.46999998093E+01 0.  1.
       -5    1    3    3    0  502  0.11685341872E+04  0.20189209243E+03  0.53559624825E+03  0.13011986761E+04  0.46999998093E+01 0. -1.
</event>
<event>
 5   0  0.2933646E-06  0.3078580E+04  0.7818609E-02  0.8221641E-01
       -1   -1    0    0    0  501  0.00000000000E+00  0.00000000000E+00  0.27882192630E+04  0.27882192630E+04  0.50400001928E-02 0.  1.
        1   -1    0    0  501    0  0.00000000000E+00  0.00000000000E+00 -0.84979480542E+03  0.84979480543E+03  0.50400001928E-02 0. -1.
    10030    2    1    2    0    0  0.00000000000E+00  0.00000000000E+00  0.19384244576E+04  0.36380140684E+04  0.30785803521E+04 0.  0.
        2    1    3    3  502    0 -0.45434398871E+03 -0.39463004661E+03 -0.70501703703E+03  0.92693600441E+03  0.25500000920E-02 0. -1.
       -2    1    3    3    0  502  0.45434398871E+03  0.39463004661E+03  0.26434414946E+04  0.27110780640E+04  0.25500000920E-02 0.  1.
</event>
<event>
 5   0  0.2933646E-06  0.2632613E+04  0.7818609E-02  0.8357207E-01
        1   -1    0    0  501    0  0.00000000000E+00  0.00000000000E+00  0.14126781445E+04  0.14126781445E+04  0.50400001928E-02 0.  1.
       -1   -1    0    0    0  501  0.00000000000E+00  0.00000000000E+00 -0.12265092942E+04  0.12265092943E+04  0.50400001928E-02 0. -1.
    10030    2    1    2    0    0  0.00000000000E+00  0.00000000000E+00  0.18616885025E+03  0.26391874388E+04  0.26326130548E+04 0.  0.
        2    1    3    3  502    0 -0.24779143480E+03 -0.23679780544E+03  0.13671591187E+04  0.14094672226E+04  0.25500000920E-02 0.  1.
       -2    1    3    3    0  502  0.24779143480E+03  0.23679780544E+03 -0.11809902684E+04  0.12297202161E+04  0.25500000920E-02 0. -1.
</event>
<event>
 5   0  0.2933646E-06  0.3129633E+04  0.7818609E-02  0.8207652E-01
       -1   -1    0    0    0  501  0.00000000000E+00  0.00000000000E+00  0.15819414004E+04  0.15819414004E+04  0.50400001928E-02 0. -1.
        1   -1    0    0  501    0  0.00000000000E+00  0.00000000000E+00 -0.15478769464E+04  0.15478769464E+04  0.50400001928E-02 0.  1.
    10030    2    1    2    0    0  0.00000000000E+00  0.00000000000E+00  0.34064454024E+02  0.31298183468E+04  0.31296329652E+04 0.  0.
        2    1    3    3  502    0 -0.62104829572E+03  0.26929607114E+03 -0.13938770808E+04  0.15495530569E+04  0.25500000920E-02 0.  1.
       -2    1    3    3    0  502  0.62104829572E+03 -0.26929607114E+03  0.14279415349E+04  0.15802652899E+04  0.25500000920E-02 0. -1.
</event>
<event>
 5   0  0.4142886E-06  0.1701610E+04  0.7818609E-02  0.8760446E-01
        1   -1    0    0  501    0  0.00000000000E+00  0.00000000000E+00  0.13405377228E+04  0.13405377228E+04  0.50400001928E-02 0. -1.
       -1   -1    0    0    0  501  0.00000000000E+00  0.00000000000E+00 -0.53998436301E+03  0.53998436304E+03  0.50400001928E-02 0.  1.
    10030    2    1    2    0    0  0.00000000000E+00  0.00000000000E+00  0.80055335979E+03  0.18805220858E+04  0.17016103060E+04 0.  0.
        5    1    3    3  502    0  0.19662869115E+03 -0.81948956881E+03  0.27129501640E+03  0.88535251256E+03  0.46999998093E+01 0. -1.
       -5    1    3    3    0  502 -0.19662869115E+03  0.81948956881E+03  0.52925834338E+03  0.99516957329E+03  0.46999998093E+01 0.  1.
</event>
<event>
 5   0  0.7510251E-06  0.2999620E+04  0.7818609E-02  0.8243839E-01
        2   -1    0    0  501    0  0.00000000000E+00  0.00000000000E+00  0.21292752305E+04  0.21292752305E+04  0.25500000920E-02 0.  1.
       -2   -1    0    0    0  501  0.00000000000E+00  0.00000000000E+00 -0.10564301037E+04  0.10564301037E+04  0.25500000920E-02 0. -1.
    10030    2    1    2    0    0  0.00000000000E+00  0.00000000000E+00  0.10728451268E+04  0.31857053343E+04  0.29996202777E+04 0.  0.
        3    1    3    3  502    0  0.38446053158E+03  0.25674613940E+03  0.20517148744E+04  0.21031553477E+04  0.10100000352E+00 0.  1.
       -3    1    3    3    0  502 -0.38446053158E+03 -0.25674613940E+03 -0.97886974760E+03  0.10825499866E+04  0.10100000352E+00 0. -1.
</event>
<event>
 5   0  0.2788054E-06  0.3120837E+04  0.7818609E-02  0.8210043E-01
       -1   -1    0    0    0  501  0.00000000000E+00  0.00000000000E+00  0.83075131416E+03  0.83075131417E+03  0.50400001928E-02 0.  1.
        1   -1    0    0  501    0  0.00000000000E+00  0.00000000000E+00 -0.29309678225E+04  0.29309678225E+04  0.50400001928E-02 0. -1.
    10030    2    1    2    0    0  0.00000000000E+00  0.00000000000E+00 -0.21002165083E+04  0.37617191367E+04  0.31208366637E+04 0.  0.
        3    1    3    3  502    0  0.15217587101E+04 -0.82859342817E+02 -0.14540196400E+04  0.21063685257E+04  0.10100000352E+00 0. -1.
       -3    1    3    3    0  502 -0.15217587101E+04  0.82859342817E+02 -0.64619686835E+03  0.16553506110E+04  0.10100000352E+00 0.  1.
</event>
<event>
 5   0  0.2933646E-06  0.3213434E+04  0.7818609E-02  0.8185278E-01
        1   -1    0    0  501    0  0.00000000000E+00  0.00000000000E+00  0.17338258574E+04  0.17338258574E+04  0.50400001928E-02 0.  1.
       -1   -1    0    0    0  501  0.00000000000E+00  0.00000000000E+00 -0.14889268564E+04  0.14889268564E+04  0.50400001928E-02 0. -1.
    10030    2    1    2    0    0  0.00000000000E+00  0.00000000000E+00  0.24489900095E+03  0.32227527138E+04  0.32134342274E+04 0.  0.
        2    1    3    3  502    0 -0.68446174620E+03  0.10042193929E+04 -0.93159557892E+03  0.15312788099E+04  0.25500000920E-02 0. -1.
       -2    1    3    3    0  502  0.68446174620E+03 -0.10042193929E+04  0.11764945799E+04  0.16914739039E+04  0.25500000920E-02 0.  1.
</event>
<event>
 5   0  0.2580875E-06  0.3199491E+04  0.7818609E-02  0.8188952E-01
       -3   -1    0    0    0  501  0.00000000000E+00  0.00000000000E+00  0.21533074722E+04  0.21533074745E+04  0.10100000352E+00 0. -1.
        3   -1    0    0  501    0  0.00000000000E+00  0.00000000000E+00 -0.11884907184E+04  0.11884907227E+04  0.10100000352E+00 0.  1.
    10030    2    1    2    0    0  0.00000000000E+00  0.00000000000E+00  0.96481675380E+03  0.33417981972E+04  0.31994911818E+04 0.  0.
        1    1    3    3  502    0  0.99679609948E+03 -0.10960061587E+04  0.11128735030E+04  0.18529218541E+04  0.50400001928E-02 0. -1.
       -1    1    3    3    0  502 -0.99679609948E+03  0.10960061587E+04 -0.14805674915E+03  0.14888763431E+04  0.50400001928E-02 0.  1.
</event>
<event>
 5   0  0.7952307E-06  0.3235360E+04  0.7818609E-02  0.8179541E-01
       -2   -1    0    0    0  501  0.00000000000E+00  0.00000000000E+00  0.11185861889E+04  0.11185861889E+04  0.25500000920E-02 0.  1.
        2   -1    0    0  501    0  0.00000000000E+00  0.00000000000E+00 -0.23394611234E+04  0.23394611234E+04  0.25500000920E-02 0. -1.
    10030    2    1    2    0    0  0.00000000000E+00  0.00000000000E+00 -0.12208749345E+04  0.34580473123E+04  0.32353601977E+04 0.  0.
        2    1    3    3  502    0  0.85631410032E+02 -0.56545158334E+03  0.10069312107E+04  0.11580063448E+04  0.25500000920E-02 0.  1.
       -2    1    3    3    0  502 -0.85631410032E+02  0.56545158334E+03 -0.22278061453E+04  0.23000409675E+04  0.25500000920E-02 0. -1.
</event>
<event>
 5   0  0.7941434E-06  0.3315522E+04  0.7818609E-02  0.8158957E-01
        2   -1    0    0  501    0  0.00000000000E+00  0.00000000000E+00  0.17221730073E+04  0.17221730073E+04  0.25500000920E-02 0. -1.
       -2   -1    0    0    0  501  0.00000000000E+00  0.00000000000E+00 -0.15957579747E+04  0.15957579747E+04  0.25500000920E-02 0.  1.
    10030    2    1    2    0    0  0.00000000000E+00  0.00000000000E+00  0.12641503265E+03  0.33179309820E+04  0.33155218655E+04 0.  0.
        4    1    3    3  502    0  0.86629666591E+02 -0.44954920445E+03 -0.15312394070E+04  0.15982161683E+04  0.12699999809E+01 0.  1.
       -4    1    3    3    0  502 -0.86629666591E+02  0.44954920445E+03  0.16576544396E+04  0.17197148137E+04  0.12699999809E+01 0. -1.
</event>
<event>
 5   0  0.2788054E-06  0.3143662E+04  0.7818609E-02  0.8203856E-01
       -1   -1    0    0    0  501  0.00000000000E+00  0.00000000000E+00  0.13544526631E+04  0.13544526631E+04  0.50400001928E-02 0. -1.
        1   -1    0    0  501    0  0.00000000000E+00  0.00000000000E+00 -0.18240966263E+04  0.18240966263E+04  0.50400001928E-02 0.  1.
    10030    2    1    2    0    0  0.00000000000E+00  0.00000000000E+00 -0.46964396314E+03  0.31785492894E+04  0.31436618987E+04 0.  0.
        3    1    3    3  502    0 -0.13383027769E+04 -0.22357606751E+03  0.56746472735E+03  0.14707334250E+04  0.10100000352E+00 0. -1.
       -3    1    3    3    0  502  0.13383027769E+04  0.22357606751E+03 -0.10371086905E+04  0.17078158644E+04  0.10100000352E+00 0.  1.
</event>
<event>
 5   0  0.7952307E-06  0.3211475E+04  0.7818609E-02  0.8185793E-01
       -2   -1    0    0    0  501  0.00000000000E+00  0.00000000000E+00  0.15624553724E+04  0.15624553724E+04  0.25500000920E-02 0.  1.
        2   -1    0    0  501    0  0.00000000000E+00  0.00000000000E+00 -0.16502182399E+04  0.16502182399E+04  0.25500000920E-02 0. -1.
    10030    2    1    2    0    0  0.00000000000E+00  0.00000000000E+00 -0.87762867490E+02  0.32126736123E+04  0.32114746485E+04 0.  0.
        2    1    3    3  502    0  0.14919848500E+04 -0.32316827086E+03 -0.54199888245E+03  0.16199442313E+04  0.25500000920E-02 0.  1.
       -2    1    3    3    0  502 -0.14919848500E+04  0.32316827086E+03  0.45423601496E+03  0.15927293810E+04  0.25500000920E-02 0. -1.
</event>
<event>
 5   0  0.2635798E-06  0.2649869E+04  0.7818609E-02  0.8351456E-01
       -1   -1    0    0    0  501  0.00000000000E+00  0.00000000000E+00  0.13199709231E+04  0.13199709231E+04  0.50400001928E-02 0.  1.
        1   -1    0    0  501    0  0.00000000000E+00  0.00000000000E+00 -0.13299172297E+04  0.13299172297E+04  0.50400001928E-02 0. -1.
    10030    2    1    2    0    0  0.00000000000E+00  0.00000000000E+00 -0.99463066630E+01  0.26498881528E+04  0.26498694861E+04 0.  0.
        1    1    3    3  502    0  0.50357614041E+03 -0.10093135437E+04 -0.70006747908E+03  0.13275531002E+04  0.50400001928E-02 0. -1.
       -1    1    3    3    0  502 -0.50357614041E+03  0.10093135437E+04  0.69012117242E+03  0.13223350526E+04  0.50400001928E-02 0.  1.
</event>
<event>
 5   0  0.2933646E-06  0.3219356E+04  0.7818609E-02  0.8183724E-01
       -1   -1    0    0    0  501  0.00000000000E+00  0.00000000000E+00  0.17658768509E+04  0.17658768509E+04  0.50400001928E-02 0.  1.
        1   -1    0    0  501    0  0.00000000000E+00  0.00000000000E+00 -0.14672955582E+04  0.14672955582E+04  0.50400001928E-02 0. -1.
    10030    2    1    2    0    0  0.00000000000E+00  0.00000000000E+00  0.29858129271E+03  0.32331724091E+04  0.32193559975E+04 0.  0.
        2    1    3    3  502    0  0.15921370917E+04  0.13403033715E+03 -0.46992783216E+02  0.15984595621E+04  0.25500000920E-02 0. -1.
       -2    1    3    3    0  502 -0.15921370917E+04 -0.13403033715E+03  0.34557407592E+03  0.16347128470E+04  0.25500000920E-02 0.  1.
</event>
<event>
 5   0  0.2788054E-06  0.3160312E+04  0.7818609E-02  0.8199378E-01
        1   -1    0    0  501    0  0.00000000000E+00  0.00000000000E+00  0.21342225812E+04  0.21342225812E+04  0.50400001928E-02 0.  1.
       -1   -1    0    0    0  501  0.00000000000E+00  0.00000000000E+00 -0.11699309369E+04  0.11699309369E+04  0.50400001928E-02 0. -1.
    10030    2    1    2    0    0  0.00000000000E+00  0.00000000000E+00  0.96429164439E+03  0.33041535181E+04  0.31603120251E+04 0.  0.
        3    1    3    3  502    0  0.88374474322E+03  0.19328472618E+03  0.18366947956E+04  0.20473913986E+04  0.10100000352E+00 0.  1.
       -3    1    3    3    0  502 -0.88374474322E+03 -0.19328472618E+03 -0.87240315125E+03  0.12567621195E+04  0.10100000352E+00 0. -1.
</event>
<event>
 5   0  0.7510251E-06  0.3193260E+04  0.7818609E-02  0.8190599E-01
        2   -1    0    0  501    0  0.00000000000E+00  0.00000000000E+00  0.20290883514E+04  0.20290883514E+04  0.25500000920E-02 0. -1.
       -2   -1    0    0    0  501  0.00000000000E+00  0.00000000000E+00 -0.12563412446E+04  0.12563412446E+04  0.25500000920E-02 0.  1.
    10030    2    1    2    0    0  0.00000000000E+00  0.00000000000E+00  0.77274710680E+03  0.32854295960E+04  0.31932600175E+04 0.  0.
        3    1    3    3  502    0 -0.95812076691E+03 -0.11636938333E+04 -0.15517311404E+03  0.15153407033E+04  0.10100000352E+00 0. -1.
       -3    1    3    3    0  502  0.95812076691E+03  0.11636938333E+04  0.92792022084E+03  0.17700888927E+04  0.10100000352E+00 0.  1.
</event>
<event>
 5   0  0.7510251E-06  0.2427796E+04  0.7818609E-02  0.8429170E-01
       -2   -1    0    0    0  501  0.00000000000E+00  0.00000000000E+00  0.11034222416E+04  0.11034222416E+04  0.25500000920E-02 0.  1.
        2   -1    0    0  501    0  0.00000000000E+00  0.00000000000E+00 -0.13354343091E+04  0.13354343091E+04  0.25500000920E-02 0. -1.
    10030    2    1    2    0    0  0.00000000000E+00  0.00000000000E+00 -0.23201206752E+03  0.24388565507E+04  0.24277956412E+04 0.  0.
        3    1    3    3  502    0  0.17567863417E+03 -0.40586944504E+03 -0.12516230629E+04  0.13274612200E+04  0.10100000352E+00 0. -1.
       -3    1    3    3    0  502 -0.17567863417E+03  0.40586944504E+03  0.10196109954E+04  0.11113953307E+04  0.10100000352E+00 0.  1.
</event>
<event>
 5   0  0.4142886E-06  0.3138392E+04  0.7818609E-02  0.8205280E-01
        1   -1    0    0  501    0  0.00000000000E+00  0.00000000000E+00  0.24360460860E+04  0.24360460860E+04  0.50400001928E-02 0.  1.
       -1   -1    0    0    0  501  0.00000000000E+00  0.00000000000E+00 -0.10108087668E+04  0.10108087668E+04  0.50400001928E-02 0. -1.
    10030    2    1    2    0    0  0.00000000000E+00  0.00000000000E+00  0.14252373192E+04  0.34468548529E+04  0.31383924166E+04 0.  0.
        5    1    3    3  502    0 -0.10361173857E+04  0.61080875290E+03  0.18195086992E+04  0.21811145238E+04  0.46999998093E+01 0.  1.
       -5    1    3    3    0  502  0.10361173857E+04 -0.61080875290E+03 -0.39427137992E+03  0.12657403291E+04  0.46999998093E+01 0. -1.
</event>
<event>
 5   0  0.2788054E-06  0.1913632E+04  0.7818609E-02  0.8648100E-01
        1   -1    0    0  501    0  0.00000000000E+00  0.00000000000E+00  0.19536141181E+04  0.19536141182E+04  0.50400001928E-02 0.  1.
       -1   -1    0    0    0  501  0.00000000000E+00  0.00000000000E+00 -0.46861718830E+03  0.46861718833E+03  0.50400001928E-02 0. -1.
    10030    2    1    2    0    0  0.00000000000E+00  0.00000000000E+00  0.14849969298E+04  0.24222313065E+04  0.19136323107E+04 0.  0.
        3    1    3    3  502    0 -0.40757684420E+03  0.22527233849E+03 -0.31548999432E+03  0.56249485076E+03  0.10100000352E+00 0. -1.
       -3    1    3    3    0  502  0.40757684420E+03 -0.22527233849E+03  0.18004869242E+04  0.18597364557E+04  0.10100000352E+00 0.  1.
</event>
<event>
 5   0  0.2788054E-06  0.3162070E+04  0.7818609E-02  0.8198907E-01
       -1   -1    0    0    0  501  0.00000000000E+00  0.00000000000E+00  0.14282038069E+04  0.14282038069E+04  0.50400001928E-02 0.  1.
        1   -1    0    0  501    0  0.00000000000E+00  0.00000000000E+00 -0.17502210625E+04  0.17502210625E+04  0.50400001928E-02 0. -1.
    10030    2    1    2    0    0  0.00000000000E+00  0.00000000000E+00 -0.32201725562E+03  0.31784248693E+04  0.31620704510E+04 0.  0.
        3    1    3    3  502    0  0.62238948067E+03  0.14528514181E+04 -0.12173654934E+03  0.15852336441E+04  0.10100000352E+00 0.  1.
       -3    1    3    3    0  502 -0.62238948067E+03 -0.14528514181E+04 -0.20028070627E+03  0.15931912253E+04  0.10100000352E+00 0. -1.
</event>
<event>
 5   0  0.7952307E-06  0.1605132E+04  0.7818609E-02  0.8817401E-01
       -2   -1    0    0    0  501  0.00000000000E+00  0.00000000000E+00  0.44471692176E+03  0.44471692176E+03  0.25500000920E-02 0. -1.
        2   -1    0    0  501    0  0.00000000000E+00  0.00000000000E+00 -0.14483646076E+04  0.14483646076E+04  0.25500000920E-02 0.  1.
    10030    2    1    2    0    0  0.00000000000E+00  0.00000000000E+00 -0.10036476858E+04  0.18930815294E+04  0.16051320816E+04 0.  0.
        2    1    3    3  502    0 -0.10741911091E+03  0.32420454791E+03 -0.13583788982E+04  0.14006572334E+04  0.25500000920E-02 0.  1.
       -2    1    3    3    0  502  0.10741911091E+03 -0.32420454791E+03  0.35473121236E+03  0.49242429601E+03  0.25500000920E-02 0. -1.
</event>
<event>
 5   0  0.7952307E-06  0.2211579E+04  0.7818609E-02  0.8513624E-01
       -2   -1    0    0    0  501  0.00000000000E+00  0.00000000000E+00  0.77297696345E+03  0.77297696346E+03  0.25500000920E-02 0. -1.
        2   -1    0    0  501    0  0.00000000000E+00  0.00000000000E+00 -0.15818970360E+04  0.15818970360E+04  0.25500000920E-02 0.  1.
    10030    2    1    2    0    0  0.00000000000E+00  0.00000000000E+00 -0.80892007250E+03  0.23548739994E+04  0.22115785922E+04 0.  0.
        2    1    3    3  502    0  0.25539364701E+03 -0.19650796131E+03 -0.15307922330E+04  0.15643420836E+04  0.25500000920E-02 0.  1.
       -2    1    3    3    0  502 -0.25539364701E+03  0.19650796131E+03  0.72187216052E+03  0.79053191582E+03  0.25500000920E-02 0. -1.
</event>
<event>
 5   0  0.2635798E-06  0.3016367E+04  0.7818609E-02  0.8239073E-01
        1   -1    0    0  501    0  0.00000000000E+00  0.00000000000E+00  0.14170874666E+04  0.14170874666E+04  0.50400001928E-02 0.  1.
       -1   -1    0    0    0  501  0.00000000000E+00  0.00000000000E+00 -0.16051354363E+04  0.16051354363E+04  0.50400001928E-02 0. -1.
    10030    2    1    2    0    0  0.00000000000E+00  0.00000000000E+00 -0.18804796970E+03  0.30222229030E+04  0.30163668935E+04 0.  0.
        1    1    3    3  502    0 -0.64663167951E+03  0.62395910907E+03 -0.13076392707E+04  0.15866247071E+04  0.50400001928E-02 0. -1.
       -1    1    3    3    0  502  0.64663167951E+03 -0.62395910907E+03  0.11195913010E+04  0.14355981959E+04  0.50400001928E-02 0.  1.
</event>
<event>
 5   0  0.7971763E-06  0.2407925E+04  0.7818609E-02  0.8436543E-01
       -2   -1    0    0    0  501  0.00000000000E+00  0.00000000000E+00  0.26179233650E+04  0.26179233650E+04  0.25500000920E-02 0.  1.
        2   -1    0    0  501    0  0.00000000000E+00  0.00000000000E+00 -0.55369288783E+03  0.55369288784E+03  0.25500000920E-02 0. -1.
    10030    2    1    2    0    0  0.00000000000E+00  0.00000000000E+00  0.20642304771E+04  0.31716162528E+04  0.24079248726E+04 0.  0.
        1    1    3    3  502    0  0.79406005876E+03  0.54912799323E+03  0.84628813811E+02  0.96914135503E+03  0.50400001928E-02 0.  1.
       -1    1    3    3    0  502 -0.79406005876E+03 -0.54912799323E+03  0.19796016633E+04  0.22024748978E+04  0.50400001928E-02 0. -1.
</event>
<event>
 5   0  0.8237664E-06  0.3257122E+04  0.7818609E-02  0.8173892E-01
       -2   -1    0    0    0  501  0.00000000000E+00  0.00000000000E+00  0.14839694904E+04  0.14839694904E+04  0.25500000920E-02 0. -1.
        2   -1    0    0  501    0  0.00000000000E+00  0.00000000000E+00 -0.17872413499E+04  0.17872413499E+04  0.25500000920E-02 0.  1.
    10030    2    1    2    0    0  0.00000000000E+00  0.00000000000E+00 -0.30327185953E+03  0.32712108403E+04  0.32571224326E+04 0.  0.
        5    1    3    3  502    0 -0.52454969457E+03 -0.12650986752E+03 -0.16948473482E+04  0.17786755613E+04  0.46999998093E+01 0.  1.
       -5    1    3    3    0  502  0.52454969457E+03  0.12650986752E+03  0.13915754886E+04  0.14925352790E+04  0.46999998093E+01 0. -1.
</event>
<event>
 5   0  0.8237664E-06  0.3317751E+04  0.7818609E-02  0.8158393E-01
       -2   -1    0    0    0  501  0.00000000000E+00  0.00000000000E+00  0.17999049949E+04  0.17999049949E+04  0.25500000920E-02 0. -1.
        2   -1    0    0  501    0  0.00000000000E+00  0.00000000000E+00 -0.15288964184E+04  0.15288964184E+04  0.25500000920E-02 0.  1.
    10030    2    1    2    0    0  0.00000000000E+00  0.00000000000E+00  0.27100857645E+03  0.33288014133E+04  0.33177512264E+04 0.  0.
        5    1    3    3  502    0  0.11590352030E+04  0.10059728954E+04 -0.49627711429E+03  0.16129653228E+04  0.46999998093E+01 0.  1.
       -5    1    3    3    0  502 -0.11590352030E+04 -0.10059728954E+04  0.76728569074E+03  0.17158360905E+04  0.46999998093E+01 0. -1.
</event>
<event>
 5   0  0.7952307E-06  0.2998763E+04  0.7818609E-02  0.8244084E-01
        2   -1    0    0  501    0  0.00000000000E+00  0.00000000000E+00  0.14419855491E+04  0.14419855491E+04  0.25500000920E-02 0. -1.
       -2   -1    0    0    0  501  0.00000000000E+00  0.00000000000E+00 -0.15590620541E+04  0.15590620541E+04  0.25500000920E-02 0.  1.
    10030    2    1    2    0    0  0.00000000000E+00  0.00000000000E+00 -0.11707650508E+03  0.30010476032E+04  0.29987630464E+04 0.  0.
        2    1    3    3  502    0  0.77439810707E+02 -0.14967706563E+04 -0.10129819914E+03  0.15021919475E+04  0.25500000920E-02 0.  1.
       -2    1    3    3    0  502 -0.77439810707E+02  0.14967706563E+04 -0.15778305937E+02  0.14988556558E+04  0.25500000920E-02 0. -1.
</event>
<event>
 5   0  0.7510251E-06  0.3060515E+04  0.7818609E-02  0.8226658E-01
       -2   -1    0    0    0  501  0.00000000000E+00  0.00000000000E+00  0.16200265209E+04  0.16200265209E+04  0.25500000920E-02 0. -1.
        2   -1    0    0  501    0  0.00000000000E+00  0.00000000000E+00 -0.14454631444E+04  0.14454631444E+04  0.25500000920E-02 0.  1.
    10030    2    1    2    0    0  0.00000000000E+00  0.00000000000E+00  0.17456337650E+03  0.30654896652E+04  0.30605154003E+04 0.  0.
        3    1    3    3  502    0 -0.46962415442E+03  0.43588112270E+03 -0.13046349495E+04  0.14534825631E+04  0.10100000352E+00 0.  1.
       -3    1    3    3    0  502  0.46962415442E+03 -0.43588112270E+03  0.14791983260E+04  0.16120071021E+04  0.10100000352E+00 0. -1.
</event>
<event>
 5   0  0.2788054E-06  0.2978262E+04  0.7818609E-02  0.8249966E-01
        1   -1    0    0  501    0  0.00000000000E+00  0.00000000000E+00  0.12160532144E+04  0.12160532144E+04  0.50400001928E-02 0.  1.
       -1   -1    0    0    0  501  0.00000000000E+00  0.00000000000E+00 -0.18235316210E+04  0.18235316210E+04  0.50400001928E-02 0. -1.
    10030    2    1    2    0    0  0.00000000000E+00  0.00000000000E+00 -0.60747840661E+03  0.30395848354E+04  0.29782622378E+04 0.  0.
        3    1    3    3  502    0  0.12040148854E+02  0.14886507841E+04 -0.34032926937E+03  0.15271051516E+04  0.10100000352E+00 0.  1.
       -3    1    3    3    0  502 -0.12040148854E+02 -0.14886507841E+04 -0.26714913724E+03  0.15124796838E+04  0.10100000352E+00 0. -1.
</event>
<event>
 5   0  0.7941434E-06  0.2936202E+04  0.7818609E-02  0.8262187E-01
        2   -1    0    0  501    0  0.00000000000E+00  0.00000000000E+00  0.12305083643E+04  0.12305083643E+04  0.25500000920E-02 0.  1.
       -2   -1    0    0    0  501  0.00000000000E+00  0.00000000000E+00 -0.17515690418E+04  0.17515690418E+04  0.25500000920E-02 0. -1.
    10030    2    1    2    0    0  0.00000000000E+00  0.00000000000E+00 -0.52106067747E+03  0.29820774061E+04  0.29362018708E+04 0.  0.
        4    1    3    3  502    0 -0.84650054629E+03 -0.16484537923E+03  0.94613264682E+03  0.12801975520E+04  0.12699999809E+01 0.  1.
       -4    1    3    3    0  502  0.84650054629E+03  0.16484537923E+03 -0.14671933243E+04  0.17018798541E+04  0.12699999809E+01 0. -1.
</event>
<event>
 5   0  0.2933646E-06  0.3113161E+04  0.7818609E-02  0.8212135E-01
        1   -1    0    0  501    0  0.00000000000E+00  0.00000000000E+00  0.20419030246E+04  0.20419030246E+04  0.50400001928E-02 0. -1.
       -1   -1    0    0    0  501  0.00000000000E+00  0.00000000000E+00 -0.11866102702E+04  0.11866102702E+04  0.50400001928E-02 0.  1.
    10030    2    1    2    0    0  0.00000000000E+00  0.00000000000E+00  0.85529275439E+03  0.32285132948E+04  0.31131611585E+04 0.  0.
        2    1    3    3  502    0  0.62071241271E+03 -0.26583672670E+03  0.18821072940E+04  0.19995701865E+04  0.25500000920E-02 0. -1.
       -2    1    3    3    0  502 -0.62071241271E+03  0.26583672670E+03 -0.10268145396E+04  0.12289431083E+04  0.25500000920E-02 0.  1.
</event>
<event>
 5   0  0.2635798E-06  0.3167640E+04  0.7818609E-02  0.8197416E-01
        1   -1    0    0  501    0  0.00000000000E+00  0.00000000000E+00  0.23806331456E+04  0.23806331456E+04  0.50400001928E-02 0.  1.
       -1   -1    0    0    0  501  0.00000000000E+00  0.00000000000E+00 -0.10537055212E+04  0.10537055212E+04  0.50400001928E-02 0. -1.
    10030    2    1    2    0    0  0.00000000000E+00  0.00000000000E+00  0.13269276245E+04  0.34343386668E+04  0.31676403138E+04 0.  0.
        1    1    3    3  502    0 -0.66179288289E+03  0.73136293180E+03  0.20070013565E+04  0.22362727926E+04  0.50400001928E-02 0.  1.
       -1    1    3    3    0  502  0.66179288289E+03 -0.73136293180E+03 -0.68007373207E+03  0.11980658742E+04  0.50400001928E-02 0. -1.
</event>
<event>
 5   0  0.8237664E-06  0.3625740E+04  0.7818609E-02  0.8084621E-01
        2   -1    0    0  501    0  0.00000000000E+00  0.00000000000E+00  0.11168395429E+04  0.11168395429E+04  0.25500000920E-02 0. -1.
       -2   -1    0    0    0  501  0.00000000000E+00  0.00000000000E+00 -0.29426773972E+04  0.29426773972E+04  0.25500000920E-02 0.  1.
    10030    2    1    2    0    0  0.00000000000E+00  0.00000000000E+00 -0.18258378543E+04  0.40595169401E+04  0.36257404646E+04 0.  0.
        5    1    3    3  502    0 -0.15298179430E+04 -0.30443249176E+03 -0.19472695544E+04  0.24949755285E+04  0.46999998093E+01 0.  1.
       -5    1    3    3    0  502  0.15298179430E+04  0.30443249176E+03  0.12143170007E+03  0.15645414116E+04  0.46999998093E+01 0. -1.
</event>
<event>
 5   0  0.4142886E-06  0.3291247E+04  0.7818609E-02  0.8165126E-01
        1   -1    0    0  501    0  0.00000000000E+00  0.00000000000E+00  0.19731209591E+04  0.19731209591E+04  0.50400001928E-02 0.  1.
       -1   -1    0    0    0  501  0.00000000000E+00  0.00000000000E+00 -0.13724840000E+04  0.13724840000E+04  0.50400001928E-02 0. -1.
    10030    2    1    2    0    0  0.00000000000E+00  0.00000000000E+00  0.60063695910E+03  0.33456049592E+04  0.32912471476E+04 0.  0.
        5    1    3    3  502    0  0.55572763960E+03  0.14899151425E+04  0.73083967142E+03  0.17500940136E+04  0.46999998093E+01 0.  1.
       -5    1    3    3    0  502 -0.55572763960E+03 -0.14899151425E+04 -0.13020271232E+03  0.15955109456E+04  0.46999998093E+01 0. -1.
</event>
<event>
 5   0  0.7510251E-06  0.3117645E+04  0.7818609E-02  0.8210912E-01
        2   -1    0    0  501    0  0.00000000000E+00  0.00000000000E+00  0.16919265965E+04  0.16919265965E+04  0.25500000920E-02 0. -1.
       -2   -1    0    0    0  501  0.00000000000E+00  0.00000000000E+00 -0.14361895945E+04  0.14361895945E+04  0.25500000920E-02 0.  1.
    10030    2    1    2    0    0  0.00000000000E+00  0.00000000000E+00  0.25573700196E+03  0.31281161910E+04  0.31176448628E+04 0.  0.
        3    1    3    3  502    0  0.76429775732E+03  0.16853569025E+02 -0.12351832583E+04  0.14526227302E+04  0.10100000352E+00 0.  1.
       -3    1    3    3    0  502 -0.76429775732E+03 -0.16853569025E+02  0.14909202602E+04  0.16754934608E+04  0.10100000352E+00 0. -1.
</event>
<event>
 5   0  0.7971763E-06  0.2903019E+04  0.7818609E-02  0.8271980E-01
        2   -1    0    0  501    0  0.00000000000E+00  0.00000000000E+00  0.10813825929E+04  0.10813825929E+04  0.25500000920E-02 0.  1.
       -2   -1    0    0    0  501  0.00000000000E+00  0.00000000000E+00 -0.19483203949E+04  0.19483203949E+04  0.25500000920E-02 0. -1.
    10030    2    1    2    0    0  0.00000000000E+00  0.00000000000E+00 -0.86693780197E+03  0.30297029878E+04  0.29030189531E+04 0.  0.
        1    1    3    3  502    0  0.73552811739E+03  0.35414280623E+03 -0.16860358255E+04  0.18732686789E+04  0.50400001928E-02 0. -1.
       -1    1    3    3    0  502 -0.73552811739E+03 -0.35414280623E+03  0.81909802350E+03  0.11564343089E+04  0.50400001928E-02 0.  1.
</event>
<event>
 5   0  0.2933646E-06  0.2130905E+04  0.7818609E-02  0.8547751E-01
       -1   -1    0    0    0  501  0.00000000000E+00  0.00000000000E+00  0.10995207900E+04  0.10995207901E+04  0.50400001928E-02 0. -1.
        1   -1    0    0  501    0  0.00000000000E+00  0.00000000000E+00 -0.10324394299E+04  0.10324394299E+04  0.50400001928E-02 0.  1.
    10030    2    1    2    0    0  0.00000000000E+00  0.00000000000E+00  0.67081360131E+02  0.21319602200E+04  0.21309046132E+04 0.  0.
        2    1    3    3  502    0 -0.10613289322E+04 -0.33827669626E+02  0.12090635302E+03  0.10687290394E+04  0.25500000920E-02 0.  1.
       -2    1    3    3    0  502  0.10613289322E+04  0.33827669626E+02 -0.53824992889E+02  0.10632311806E+04  0.25500000920E-02 0. -1.
</event>
<event>
 5   0  0.2933646E-06  0.1741079E+04  0.7818609E-02  0.8738276E-01
       -1   -1    0    0    0  501  0.00000000000E+00  0.00000000000E+00  0.59009660568E+03  0.59009660570E+03  0.50400001928E-02 0. -1.
        1   -1    0    0  501    0  0.00000000000E+00  0.00000000000E+00 -0.12842619140E+04  0.12842619140E+04  0.50400001928E-02 0.  1.
    10030    2    1    2    0    0  0.00000000000E+00  0.00000000000E+00 -0.69416530833E+03  0.18743585197E+04  0.17410785121E+04 0.  0.
        2    1    3    3  502    0  0.37044983862E+03 -0.70785685720E+03  0.25136341728E+02  0.79932862385E+03  0.25500000920E-02 0. -1.
       -2    1    3    3    0  502 -0.37044983862E+03  0.70785685720E+03 -0.71930165006E+03  0.10750298959E+04  0.25500000920E-02 0.  1.
</event>
<event>
 5   0  0.7510251E-06  0.3256665E+04  0.7818609E-02  0.8174010E-01
        2   -1    0    0  501    0  0.00000000000E+00  0.00000000000E+00  0.23973015947E+04  0.23973015947E+04  0.25500000920E-02 0. -1.
       -2   -1    0    0    0  501  0.00000000000E+00  0.00000000000E+00 -0.11060214139E+04  0.11060214139E+04  0.25500000920E-02 0.  1.
    10030    2    1    2    0    0  0.00000000000E+00  0.00000000000E+00  0.12912801808E+04  0.35033230085E+04  0.32566651036E+04 0.  0.
        3    1    3    3  502    0  0.13758914593E+04  0.79472041230E+03  0.26256650990E+03  0.16104654681E+04  0.10100000352E+00 0.  1.
       -3    1    3    3    0  502 -0.13758914593E+04 -0.79472041230E+03  0.10287136709E+04  0.18928575405E+04  0.10100000352E+00 0. -1.
</event>
<event>
 5   0  0.7510251E-06  0.3199625E+04  0.7818609E-02  0.8188916E-01
       -2   -1    0    0    0  501  0.00000000000E+00  0.00000000000E+00  0.15929389744E+04  0.15929389744E+04  0.25500000920E-02 0. -1.
        2   -1    0    0  501    0  0.00000000000E+00  0.00000000000E+00 -0.16067154670E+04  0.16067154670E+04  0.25500000920E-02 0.  1.
    10030    2    1    2    0    0  0.00000000000E+00  0.00000000000E+00 -0.13776492613E+02  0.31996544414E+04  0.31996247831E+04 0.  0.
        3    1    3    3  502    0  0.57144305241E+03 -0.83375118210E+03 -0.12469446923E+04  0.16051664312E+04  0.10100000352E+00 0.  1.
       -3    1    3    3    0  502 -0.57144305241E+03  0.83375118210E+03  0.12331681997E+04  0.15944880102E+04  0.10100000352E+00 0. -1.
</event>
<event>
 5   0  0.3938696E-06  0.1806544E+04  0.7818609E-02  0.8702827E-01
       -1   -1    0    0    0  501  0.00000000000E+00  0.00000000000E+00  0.85241142890E+03  0.85241142892E+03  0.50400001928E-02 0.  1.
        1   -1    0    0  501    0  0.00000000000E+00  0.00000000000E+00 -0.95716687655E+03  0.95716687656E+03  0.50400001928E-02 0. -1.
    10030    2    1    2    0    0  0.00000000000E+00  0.00000000000E+00 -0.10475544764E+03  0.18095783055E+04  0.18065436446E+04 0.  0.
        4    1    3    3  502    0 -0.18963859245E+03 -0.81435972978E+03 -0.39464426630E+03  0.92460276609E+03  0.12699999809E+01 0.  1.
       -4    1    3    3    0  502  0.18963859245E+03  0.81435972978E+03  0.28988881866E+03  0.88497553939E+03  0.12699999809E+01 0. -1.
</event>
<event>
 5   0  0.2635798E-06  0.2209125E+04  0.7818609E-02  0.8514640E-01
       -1   -1    0    0    0  501  0.00000000000E+00  0.00000000000E+00  0.75751875983E+03  0.75751875985E+03  0.50400001928E-02 0.  1.
        1   -1    0    0  501    0  0.00000000000E+00  0.00000000000E+00 -0.16105976746E+04  0.16105976747E+04  0.50400001928E-02 0. -1.
    10030    2    1    2    0    0  0.00000000000E+00  0.00000000000E+00 -0.85307891482E+03  0.23681164345E+04  0.22091246711E+04 0.  0.
        1    1    3    3  502    0 -0.54749417219E+03  0.63508257014E+03 -0.11972990646E+04  0.14617129642E+04  0.50400001928E-02 0. -1.
       -1    1    3    3    0  502  0.54749417219E+03 -0.63508257014E+03  0.34422014979E+03  0.90640347033E+03  0.50400001928E-02 0.  1.
</event>
<event>
 5   0  0.2635798E-06  0.3222056E+04  0.7818609E-02  0.8183016E-01
        1   -1    0    0  501    0  0.00000000000E+00  0.00000000000E+00  0.28042838399E+04  0.28042838399E+04  0.50400001928E-02 0. -1.
       -1   -1    0    0    0  501  0.00000000000E+00  0.00000000000E+00 -0.92551655680E+03  0.92551655681E+03  0.50400001928E-02 0.  1.
    10030    2    1    2    0    0  0.00000000000E+00  0.00000000000E+00  0.18787672831E+04  0.37298003968E+04  0.32220559423E+04 0.  0.
        1    1    3    3  502    0  0.13422111699E+04 -0.14319082123E+03 -0.78617002563E+02  0.13521150354E+04  0.50400001928E-02 0.  1.
       -1    1    3    3    0  502 -0.13422111699E+04  0.14319082123E+03  0.19573842857E+04  0.23776853614E+04  0.50400001928E-02 0. -1.
</event>
<event>
 5   0  0.2635798E-06  0.3199123E+04  0.7818609E-02  0.8189049E-01
       -1   -1    0    0    0  501  0.00000000000E+00  0.00000000000E+00  0.18810200572E+04  0.18810200572E+04  0.50400001928E-02 0.  1.
        1   -1    0    0  501    0  0.00000000000E+00  0.00000000000E+00 -0.13602181204E+04  0.13602181204E+04  0.50400001928E-02 0. -1.
    10030    2    1    2    0    0  0.00000000000E+00  0.00000000000E+00  0.52080193678E+03  0.32412381776E+04  0.31991233591E+04 0.  0.
        1    1    3    3  502    0 -0.63591776848E+03 -0.94110716956E+03 -0.88071349349E+03  0.14372648923E+04  0.50400001928E-02 0. -1.
       -1    1    3    3    0  502  0.63591776848E+03  0.94110716956E+03  0.14015154303E+04  0.18039732853E+04  0.50400001928E-02 0.  1.
</event>
<event>
 5   0  0.2933646E-06  0.3194185E+04  0.7818609E-02  0.8190355E-01
        1   -1    0    0  501    0  0.00000000000E+00  0.00000000000E+00  0.19426337739E+04  0.19426337739E+04  0.50400001928E-02 0.  1.
       -1   -1    0    0    0  501  0.00000000000E+00  0.00000000000E+00 -0.13130136171E+04  0.13130136171E+04  0.50400001928E-02 0. -1.
    10030    2    1    2    0    0  0.00000000000E+00  0.00000000000E+00  0.62962015676E+03  0.32556473910E+04  0.31941850905E+04 0.  0.
        2    1    3    3  502    0  0.29459474867E+03 -0.71101860727E+03  0.17411557094E+04  0.19036692807E+04  0.25500000920E-02 0.  1.
       -2    1    3    3    0  502 -0.29459474867E+03  0.71101860727E+03 -0.11115355527E+04  0.13519781103E+04  0.25500000920E-02 0. -1.
</event>
<event>
 5   0  0.4142886E-06  0.3229869E+04  0.7818609E-02  0.8180973E-01
       -1   -1    0    0    0  501  0.00000000000E+00  0.00000000000E+00  0.28414955301E+04  0.28414955301E+04  0.50400001928E-02 0. -1.
        1   -1    0    0  501    0  0.00000000000E+00  0.00000000000E+00 -0.91783098828E+03  0.91783098830E+03  0.50400001928E-02 0.  1.
    10030    2    1    2    0    0  0.00000000000E+00  0.00000000000E+00  0.19236645418E+04  0.37593265184E+04  0.32298685116E+04 0.  0.
        5    1    3    3  502    0  0.10097970195E+04  0.83137272472E+03 -0.14059629694E+03  0.13155455281E+04  0.46999998093E+01 0.  1.
       -5    1    3    3    0  502 -0.10097970195E+04 -0.83137272472E+03  0.20642608388E+04  0.24437809903E+04  0.46999998093E+01 0. -1.
</event>
<event>
 5   0  0.2933646E-06  0.3182439E+04  0.7818609E-02  0.8193471E-01
        1   -1    0    0  501    0  0.00000000000E+00  0.00000000000E+00  0.10682922506E+04  0.10682922506E+04  0.50400001928E-02 0. -1.
       -1   -1    0    0    0  501  0.00000000000E+00  0.00000000000E+00 -0.23701182999E+04  0.23701182999E+04  0.50400001928E-02 0.  1.
    10030    2    1    2    0    0  0.00000000000E+00  0.00000000000E+00 -0.13018260493E+04  0.34384105505E+04  0.31824386956E+04 0.  0.
        2    1    3    3  502    0  0.20007373515E+03 -0.29216638273E+03 -0.23270078544E+04  0.23537961359E+04  0.25500000920E-02 0.  1.
       -2    1    3    3    0  502 -0.20007373515E+03  0.29216638273E+03  0.10251818052E+04  0.10846144146E+04  0.25500000920E-02 0. -1.
</event>
<event>
 5   0  0.7971763E-06  0.3135646E+04  0.7818609E-02  0.8206023E-01
        2   -1    0    0  501    0  0.00000000000E+00  0.00000000000E+00  0.22294842196E+04  0.22294842196E+04  0.25500000920E-02 0.  1.
       -2   -1    0    0    0  501  0.00000000000E+00  0.00000000000E+00 -0.11025279858E+04  0.11025279858E+04  0.25500000920E-02 0. -1.
    10030    2    1    2    0    0  0.00000000000E+00  0.00000000000E+00  0.11269562338E+04  0.33320122054E+04  0.31356458640E+04 0.  0.
        1    1    3    3  502    0 -0.75913283127E+03 -0.10442258519E+04  0.15087825365E+04  0.19857278333E+04  0.50400001928E-02 0.  1.
       -1    1    3    3    0  502  0.75913283127E+03  0.10442258519E+04 -0.38182630273E+03  0.13462843722E+04  0.50400001928E-02 0. -1.
</event>
<event>
 5   0  0.7971763E-06  0.3215032E+04  0.7818609E-02  0.8184859E-01
       -2   -1    0    0    0  501  0.00000000000E+00  0.00000000000E+00  0.12201312245E+04  0.12201312245E+04  0.25500000920E-02 0.  1.
        2   -1    0    0  501    0  0.00000000000E+00  0.00000000000E+00 -0.21178930437E+04  0.21178930437E+04  0.25500000920E-02 0. -1.
    10030    2    1    2    0    0  0.00000000000E+00  0.00000000000E+00 -0.89776181922E+03  0.33380242681E+04  0.32150318398E+04 0.  0.
        1    1    3    3  502    0 -0.15708072468E+04 -0.15748259308E+03 -0.13418286451E+03  0.15843740767E+04  0.50400001928E-02 0.  1.
       -1    1    3    3    0  502  0.15708072468E+04  0.15748259308E+03 -0.76357895470E+03  0.17536501914E+04  0.50400001928E-02 0. -1.
</event>
<event>
 5   0  0.7952307E-06  0.3134474E+04  0.7818609E-02  0.8206340E-01
       -2   -1    0    0    0  501  0.00000000000E+00  0.00000000000E+00  0.19558116212E+04  0.19558116212E+04  0.25500000920E-02 0.  1.
        2   -1    0    0  501    0  0.00000000000E+00  0.00000000000E+00 -0.12558635545E+04  0.12558635545E+04  0.25500000920E-02 0. -1.
    10030    2    1    2    0    0  0.00000000000E+00  0.00000000000E+00  0.69994806677E+03  0.32116751757E+04  0.31344744596E+04 0.  0.
        2    1    3    3  502    0 -0.51808388832E+03 -0.13843322302E+04  0.88381084626E+03  0.17221812480E+04  0.25500000920E-02 0.  1.
       -2    1    3    3    0  502  0.51808388832E+03  0.13843322302E+04 -0.18386277949E+03  0.14894939277E+04  0.25500000920E-02 0. -1.
</event>
<event>
 5   0  0.3938696E-06  0.3567932E+04  0.7818609E-02  0.8097877E-01
        1   -1    0    0  501    0  0.00000000000E+00  0.00000000000E+00  0.17278581707E+04  0.17278581707E+04  0.50400001928E-02 0. -1.
       -1   -1    0    0    0  501  0.00000000000E+00  0.00000000000E+00 -0.18418961101E+04  0.18418961101E+04  0.50400001928E-02 0.  1.
    10030    2    1    2    0    0  0.00000000000E+00  0.00000000000E+00 -0.11403793942E+03  0.35697542808E+04  0.35679323107E+04 0.  0.
        4    1    3    3  502    0 -0.75634945249E+03 -0.16156037784E+04 -0.39876412314E+02  0.17843295111E+04  0.12699999809E+01 0.  1.
       -4    1    3    3    0  502  0.75634945249E+03  0.16156037784E+04 -0.74161527110E+02  0.17854247697E+04  0.12699999809E+01 0. -1.
</event>
<event>
 5   0  0.3938696E-06  0.2893003E+04  0.7818609E-02  0.8274962E-01
        1   -1    0    0  501    0  0.00000000000E+00  0.00000000000E+00  0.13677517803E+04  0.13677517803E+04  0.50400001928E-02 0.  1.
       -1   -1    0    0    0  501  0.00000000000E+00  0.00000000000E+00 -0.15297852094E+04  0.15297852094E+04  0.50400001928E-02 0. -1.
    10030    2    1    2    0    0  0.00000000000E+00  0.00000000000E+00 -0.16203342911E+03  0.28975369897E+04  0.28930028991E+04 0.  0.
        4    1    3    3  502    0  0.12192873534E+03  0.28927854625E+03  0.13332218420E+04  0.13696827321E+04  0.12699999809E+01 0.  1.
       -4    1    3    3    0  502 -0.12192873534E+03 -0.28927854625E+03 -0.14952552711E+04  0.15278542576E+04  0.12699999809E+01 0. -1.
</event>
<event>
 5   0  0.2635798E-06  0.2974164E+04  0.7818609E-02  0.8251147E-01
        1   -1    0    0  501    0  0.00000000000E+00  0.00000000000E+00  0.16781260250E+04  0.16781260250E+04  0.50400001928E-02 0. -1.
       -1   -1    0    0    0  501  0.00000000000E+00  0.00000000000E+00 -0.13177871828E+04  0.13177871828E+04  0.50400001928E-02 0.  1.
    10030    2    1    2    0    0  0.00000000000E+00  0.00000000000E+00  0.36033884218E+03  0.29959132077E+04  0.29741640619E+04 0.  0.
        1    1    3    3  502    0 -0.36100572268E+03  0.13116434272E+04  0.78512703643E+03  0.15707189677E+04  0.50400001928E-02 0. -1.
       -1    1    3    3    0  502  0.36100572268E+03 -0.13116434272E+04 -0.42478819425E+03  0.14251942401E+04  0.50400001928E-02 0.  1.
</event>
<event>
 5   0  0.2933646E-06  0.3121644E+04  0.7818609E-02  0.8209823E-01
       -1   -1    0    0    0  501  0.00000000000E+00  0.00000000000E+00  0.10812754262E+04  0.10812754263E+04  0.50400001928E-02 0. -1.
        1   -1    0    0  501    0  0.00000000000E+00  0.00000000000E+00 -0.22530472792E+04  0.22530472792E+04  0.50400001928E-02 0.  1.
    10030    2    1    2    0    0  0.00000000000E+00  0.00000000000E+00 -0.11717718529E+04  0.33343227054E+04  0.31216435781E+04 0.  0.
        2    1    3    3  502    0 -0.15125098440E+04  0.38525510647E+03 -0.59395945551E+03  0.16699986108E+04  0.25500000920E-02 0.  1.
       -2    1    3    3    0  502  0.15125098440E+04 -0.38525510647E+03 -0.57781239740E+03  0.16643240946E+04  0.25500000920E-02 0. -1.
</event>
<event>
 5   0  0.2933646E-06  0.1766818E+04  0.7818609E-02  0.8724147E-01
       -1   -1    0    0    0  501  0.00000000000E+00  0.00000000000E+00  0.83690922465E+03  0.83690922466E+03  0.50400001928E-02 0.  1.
        1   -1    0    0  501    0  0.00000000000E+00  0.00000000000E+00 -0.93249217493E+03  0.93249217494E+03  0.50400001928E-02 0. -1.
    10030    2    1    2    0    0  0.00000000000E+00  0.00000000000E+00 -0.95582950279E+02  0.17694013996E+04  0.17668178210E+04 0.  0.
        2    1    3    3  502    0 -0.78970858049E+03 -0.39249863564E+03 -0.99987570396E+02  0.88752032953E+03  0.25500000920E-02 0. -1.
       -2    1    3    3    0  502  0.78970858049E+03  0.39249863564E+03  0.44046201162E+01  0.88188107008E+03  0.25500000920E-02 0.  1.
</event>
<event>
 5   0  0.7510251E-06  0.1903948E+04  0.7818609E-02  0.8652894E-01
        2   -1    0    0  501    0  0.00000000000E+00  0.00000000000E+00  0.12878182482E+04  0.12878182482E+04  0.25500000920E-02 0. -1.
       -2   -1    0    0    0  501  0.00000000000E+00  0.00000000000E+00 -0.70371286021E+03  0.70371286021E+03  0.25500000920E-02 0.  1.
    10030    2    1    2    0    0  0.00000000000E+00  0.00000000000E+00  0.58410538800E+03  0.19915311084E+04  0.19039477544E+04 0.  0.
        3    1    3    3  502    0  0.45537506725E+03 -0.38515438642E+03 -0.48406582278E+03  0.76813415771E+03  0.10100000352E+00 0.  1.
       -3    1    3    3    0  502 -0.45537506725E+03  0.38515438642E+03  0.10681712108E+04  0.12233969507E+04  0.10100000352E+00 0. -1.
</event>
<event>
 5   0  0.7971763E-06  0.2535479E+04  0.7818609E-02  0.8390454E-01
        2   -1    0    0  501    0  0.00000000000E+00  0.00000000000E+00  0.15670649108E+04  0.15670649108E+04  0.25500000920E-02 0.  1.
       -2   -1    0    0    0  501  0.00000000000E+00  0.00000000000E+00 -0.10255881052E+04  0.10255881052E+04  0.25500000920E-02 0. -1.
    10030    2    1    2    0    0  0.00000000000E+00  0.00000000000E+00  0.54147680561E+03  0.25926530161E+04  0.25354787577E+04 0.  0.
        1    1    3    3  502    0  0.32127468817E+03 -0.10580363692E+04 -0.36332877847E+03  0.11639012781E+04  0.50400001928E-02 0. -1.
       -1    1    3    3    0  502 -0.32127468817E+03  0.10580363692E+04  0.90480558408E+03  0.14287517380E+04  0.50400001928E-02 0.  1.
</event>
<event>
 5   0  0.7510251E-06  0.3166243E+04  0.7818609E-02  0.8197790E-01
       -2   -1    0    0    0  501  0.00000000000E+00  0.00000000000E+00  0.14170496297E+04  0.14170496297E+04  0.25500000920E-02 0. -1.
        2   -1    0    0  501    0  0.00000000000E+00  0.00000000000E+00 -0.17686557770E+04  0.17686557770E+04  0.25500000920E-02 0.  1.
    10030    2    1    2    0    0  0.00000000000E+00  0.00000000000E+00 -0.35160614722E+03  0.31857054067E+04  0.31662425769E+04 0.  0.
        3    1    3    3  502    0 -0.11600573655E+04  0.11782675439E+02 -0.12596438607E+04  0.17124761571E+04  0.10100000352E+00 0.  1.
       -3    1    3    3    0  502  0.11600573655E+04 -0.11782675439E+02  0.90803771345E+03  0.14732292496E+04  0.10100000352E+00 0. -1.
</event>
<event>
 5   0  0.2635798E-06  0.2191885E+04  0.7818609E-02  0.8521813E-01
       -1   -1    0    0    0  501  0.00000000000E+00  0.00000000000E+00  0.12126298784E+04  0.12126298784E+04  0.50400001928E-02 0.  1.
        1   -1    0    0  501    0  0.00000000000E+00  0.00000000000E+00 -0.99048327995E+03  0.99048327996E+03  0.50400001928E-02 0. -1.
    10030    2    1    2    0    0  0.00000000000E+00  0.00000000000E+00  0.22214659843E+03  0.22031131584E+04  0.21918846861E+04 0.  0.
        1    1    3    3  502    0 -0.85493475615E+03 -0.67920758874E+03  0.16499669002E+02  0.10920204325E+04  0.50400001928E-02 0. -1.
       -1    1    3    3    0  502  0.85493475615E+03  0.67920758874E+03  0.20564692943E+03  0.11110927259E+04  0.50400001928E-02 0.  1.
</event>
<event>
 5   0  0.7952307E-06  0.3193094E+04  0.7818609E-02  0.8190643E-01
        2   -1    0    0  501    0  0.00000000000E+00  0.00000000000E+00  0.14899672193E+04  0.14899672193E+04  0.25500000920E-02 0.  1.
       -2   -1    0    0    0  501  0.00000000000E+00  0.00000000000E+00 -0.17107511202E+04  0.17107511202E+04  0.25500000920E-02 0. -1.
    10030    2    1    2    0    0  0.00000000000E+00  0.00000000000E+00 -0.22078390089E+03  0.32007183395E+04  0.31930944800E+04 0.  0.
        2    1    3    3  502    0  0.34690062633E+03  0.18684809675E+03  0.14404642544E+04  0.14933819083E+04  0.25500000920E-02 0.  1.
       -2    1    3    3    0  502 -0.34690062633E+03 -0.18684809675E+03 -0.16612481553E+04  0.17073364312E+04  0.25500000920E-02 0. -1.
</event>
<event>
 5   0  0.7952307E-06  0.2980685E+04  0.7818609E-02  0.8249268E-01
       -2   -1    0    0    0  501  0.00000000000E+00  0.00000000000E+00  0.11101035602E+04  0.11101035602E+04  0.25500000920E-02 0. -1.
        2   -1    0    0  501    0  0.00000000000E+00  0.00000000000E+00 -0.20008224863E+04  0.20008224863E+04  0.25500000920E-02 0.  1.
    10030    2    1    2    0    0  0.00000000000E+00  0.00000000000E+00 -0.89071892604E+03  0.31109260465E+04  0.29806845961E+04 0.  0.
        2    1    3    3  502    0 -0.55074336652E+03  0.13343851308E+04 -0.83197524120E+03  0.16661586764E+04  0.25500000920E-02 0.  1.
       -2    1    3    3    0  502  0.55074336652E+03 -0.13343851308E+04 -0.58743684844E+02  0.14447673701E+04  0.25500000920E-02 0. -1.
</event>
<event>
 5   0  0.2635798E-06  0.2758429E+04  0.7818609E-02  0.8316292E-01
       -1   -1    0    0    0  501  0.00000000000E+00  0.00000000000E+00  0.12132394294E+04  0.12132394294E+04  0.50400001928E-02 0. -1.
        1   -1    0    0  501    0  0.00000000000E+00  0.00000000000E+00 -0.15678951644E+04  0.15678951644E+04  0.50400001928E-02 0.  1.
    10030    2    1    2    0    0  0.00000000000E+00  0.00000000000E+00 -0.35465573499E+03  0.27811345937E+04  0.27584287082E+04 0.  0.
        1    1    3    3  502    0 -0.13743330024E+04  0.68368309990E+02 -0.82925915699E+02  0.13785289749E+04  0.50400001928E-02 0. -1.
       -1    1    3    3    0  502  0.13743330024E+04 -0.68368309990E+02 -0.27172981929E+03  0.14026056188E+04  0.50400001928E-02 0.  1.
</event>
<event>
 5   0  0.3938696E-06  0.3104937E+04  0.7818609E-02  0.8214384E-01
        1   -1    0    0  501    0  0.00000000000E+00  0.00000000000E+00  0.23423526060E+04  0.23423526060E+04  0.50400001928E-02 0.  1.
       -1   -1    0    0    0  501  0.00000000000E+00  0.00000000000E+00 -0.10289478906E+04  0.10289478906E+04  0.50400001928E-02 0. -1.
    10030    2    1    2    0    0  0.00000000000E+00  0.00000000000E+00  0.13134047155E+04  0.33713004966E+04  0.31049372122E+04 0.  0.
        4    1    3    3  502    0 -0.10935331919E+03  0.30870774149E+03 -0.99101244984E+03  0.10437269311E+04  0.12699999809E+01 0. -1.
       -4    1    3    3    0  502  0.10935331919E+03 -0.30870774149E+03  0.23044171653E+04  0.23275735655E+04  0.12699999809E+01 0.  1.
</event>
<event>
 5   0  0.7941434E-06  0.3199497E+04  0.7818609E-02  0.8188950E-01
        2   -1    0    0  501    0  0.00000000000E+00  0.00000000000E+00  0.16688455685E+04  0.16688455685E+04  0.25500000920E-02 0. -1.
       -2   -1    0    0    0  501  0.00000000000E+00  0.00000000000E+00 -0.15335126747E+04  0.15335126747E+04  0.25500000920E-02 0.  1.
    10030    2    1    2    0    0  0.00000000000E+00  0.00000000000E+00  0.13533289379E+03  0.32023582433E+04  0.31994973552E+04 0.  0.
        4    1    3    3  502    0  0.15719619762E+04 -0.19951237890E+03  0.28769152216E+03  0.16104774661E+04  0.12699999809E+01 0. -1.
       -4    1    3    3    0  502 -0.15719619762E+04  0.19951237890E+03 -0.15235862837E+03  0.15918807771E+04  0.12699999809E+01 0.  1.
</event>
<event>
 5   0  0.4142886E-06  0.3118581E+04  0.7818609E-02  0.8210657E-01
       -1   -1    0    0    0  501  0.00000000000E+00  0.00000000000E+00  0.97633030526E+03  0.97633030527E+03  0.50400001928E-02 0.  1.
        1   -1    0    0  501    0  0.00000000000E+00  0.00000000000E+00 -0.24903330107E+04  0.24903330107E+04  0.50400001928E-02 0. -1.
    10030    2    1    2    0    0  0.00000000000E+00  0.00000000000E+00 -0.15140027055E+04  0.34666633160E+04  0.31185814651E+04 0.  0.
        5    1    3    3  502    0  0.45055768207E+03 -0.44992954353E+03 -0.23392197621E+04  0.24243370237E+04  0.46999998093E+01 0. -1.
       -5    1    3    3    0  502 -0.45055768207E+03  0.44992954353E+03  0.82521705665E+03  0.10423262923E+04  0.46999998093E+01 0.  1.
</event>
<event>
 5   0  0.7510251E-06  0.3185223E+04  0.7818609E-02  0.8192731E-01
       -2   -1    0    0    0  501  0.00000000000E+00  0.00000000000E+00  0.81535351636E+03  0.81535351637E+03  0.25500000920E-02 0. -1.
        2   -1    0    0  501    0  0.00000000000E+00  0.00000000000E+00 -0.31108118361E+04  0.31108118361E+04  0.25500000920E-02 0.  1.
    10030    2    1    2    0    0  0.00000000000E+00  0.00000000000E+00 -0.22954583197E+04  0.39261653524E+04  0.31852229870E+04 0.  0.
        3    1    3    3  502    0 -0.31888141713E+03 -0.11989896401E+04  0.83131688374E+02  0.12434518098E+04  0.10100000352E+00 0. -1.
       -3    1    3    3    0  502  0.31888141713E+03  0.11989896401E+04 -0.23785900081E+04  0.26827135427E+04  0.10100000352E+00 0.  1.
</event>
<event>
 5   0  0.2580875E-06  0.2766041E+04  0.7818609E-02  0.8313890E-01
        3   -1    0    0  501    0  0.00000000000E+00  0.00000000000E+00  0.10385445366E+04  0.10385445415E+04  0.10100000352E+00 0.  1.
       -3   -1    0    0    0  501  0.00000000000E+00  0.00000000000E+00 -0.18417554901E+04  0.18417554929E+04  0.10100000352E+00 0. -1.
    10030    2    1    2    0    0  0.00000000000E+00  0.00000000000E+00 -0.80321095355E+03  0.28803000343E+04  0.27660405731E+04 0.  0.
        5    1    3    3  502    0 -0.61216237942E+02  0.21351905302E+03  0.10198409803E+04  0.10437602833E+04  0.46999998093E+01 0.  1.
       -5    1    3    3    0  502  0.61216237942E+02 -0.21351905302E+03 -0.18230519339E+04  0.18365397511E+04  0.46999998093E+01 0. -1.
</event>
<event>
 5   0  0.2788054E-06  0.3218961E+04  0.7818609E-02  0.8183828E-01
       -1   -1    0    0    0  501  0.00000000000E+00  0.00000000000E+00  0.76768630421E+03  0.76768630423E+03  0.50400001928E-02 0.  1.
        1   -1    0    0  501    0  0.00000000000E+00  0.00000000000E+00 -0.33743301940E+04  0.33743301940E+04  0.50400001928E-02 0. -1.
    10030    2    1    2    0    0  0.00000000000E+00  0.00000000000E+00 -0.26066438898E+04  0.41420164983E+04  0.32189607490E+04 0.  0.
        3    1    3    3  502    0 -0.94369405999E+03 -0.65392709382E+03 -0.27547049118E+04  0.29843890973E+04  0.10100000352E+00 0. -1.
       -3    1    3    3    0  502  0.94369405999E+03  0.65392709382E+03  0.14806102202E+03  0.11576274009E+04  0.10100000352E+00 0.  1.
</event>
<event>
 5   0  0.2788054E-06  0.3197523E+04  0.7818609E-02  0.8189472E-01
        1   -1    0    0  501    0  0.00000000000E+00  0.00000000000E+00  0.19447886952E+04  0.19447886952E+04  0.50400001928E-02 0. -1.
       -1   -1    0    0    0  501  0.00000000000E+00  0.00000000000E+00 -0.13143016189E+04  0.13143016189E+04  0.50400001928E-02 0.  1.
    10030    2    1    2    0    0  0.00000000000E+00  0.00000000000E+00  0.63048707630E+03  0.32590903142E+04  0.31975233733E+04 0.  0.
        3    1    3    3  502    0  0.35110949346E+03  0.48579563902E+03 -0.11954429115E+04  0.13372954214E+04  0.10100000352E+00 0.  1.
       -3    1    3    3    0  502 -0.35110949346E+03 -0.48579563902E+03  0.18259299878E+04  0.19217948928E+04  0.10100000352E+00 0. -1.
</event>
<event>
 5   0  0.7941434E-06  0.2257100E+04  0.7818609E-02  0.8495031E-01
       -2   -1    0    0    0  501  0.00000000000E+00  0.00000000000E+00  0.14036761035E+04  0.14036761035E+04  0.25500000920E-02 0.  1.
        2   -1    0    0  501    0  0.00000000000E+00  0.00000000000E+00 -0.90734956019E+03  0.90734956019E+03  0.25500000920E-02 0. -1.
    10030    2    1    2    0    0  0.00000000000E+00  0.00000000000E+00  0.49632654330E+03  0.23110256637E+04  0.22570998163E+04 0.  0.
        4    1    3    3  502    0 -0.67354532173E+03  0.29490053020E+03  0.11247686113E+04  0.13437766425E+04  0.12699999809E+01 0.  1.
       -4    1    3    3    0  502  0.67354532173E+03 -0.29490053020E+03 -0.62844206802E+03  0.96724902114E+03  0.12699999809E+01 0. -1.
</event>
<event>
 5   0  0.7510251E-06  0.3218580E+04  0.7818609E-02  0.8183927E-01
       -2   -1    0    0    0  501  0.00000000000E+00  0.00000000000E+00  0.15304306783E+04  0.15304306783E+04  0.25500000920E-02 0. -1.
        2   -1    0    0  501    0  0.00000000000E+00  0.00000000000E+00 -0.16922127223E+04  0.16922127223E+04  0.25500000920E-02 0.  1.
    10030    2    1    2    0    0  0.00000000000E+00  0.00000000000E+00 -0.16178204397E+03  0.32226434006E+04  0.32185799754E+04 0.  0.
        3    1    3    3  502    0 -0.67380744812E+03 -0.11189183610E+04 -0.10221946467E+04  0.16585767036E+04  0.10100000352E+00 0.  1.
       -3    1    3    3    0  502  0.67380744812E+03  0.11189183610E+04  0.86041260272E+03  0.15640666971E+04  0.10100000352E+00 0. -1.
</event>
<event>
 5   0  0.7952307E-06  0.3153553E+04  0.7818609E-02  0.8201192E-01
       -2   -1    0    0    0  501  0.00000000000E+00  0.00000000000E+00  0.12754738269E+04  0.12754738269E+04  0.25500000920E-02 0. -1.
        2   -1    0    0  501    0  0.00000000000E+00  0.00000000000E+00 -0.19492555833E+04  0.19492555833E+04  0.25500000920E-02 0.  1.
    10030    2    1    2    0    0  0.00000000000E+00  0.00000000000E+00 -0.67378175641E+03  0.32247294102E+04  0.31535532204E+04 0.  0.
        2    1    3    3  502    0  0.96596812216E+02  0.54881577028E+03  0.11714242922E+04  0.12972141559E+04  0.25500000920E-02 0. -1.
       -2    1    3    3    0  502 -0.96596812216E+02 -0.54881577028E+03 -0.18452060486E+04  0.19275152543E+04  0.25500000920E-02 0.  1.
</event>
<event>
 5   0  0.7971763E-06  0.3209115E+04  0.7818609E-02  0.8186414E-01
       -2   -1    0    0    0  501  0.00000000000E+00  0.00000000000E+00  0.15041714223E+04  0.15041714223E+04  0.25500000920E-02 0.  1.
        2   -1    0    0  501    0  0.00000000000E+00  0.00000000000E+00 -0.17116426716E+04  0.17116426716E+04  0.25500000920E-02 0. -1.
    10030    2    1    2    0    0  0.00000000000E+00  0.00000000000E+00 -0.20747124932E+03  0.32158140939E+04  0.32091145145E+04 0.  0.
        1    1    3    3  502    0  0.82892650215E+03 -0.24098755030E+03  0.12516448519E+04  0.15204634098E+04  0.50400001928E-02 0.  1.
       -1    1    3    3    0  502 -0.82892650215E+03  0.24098755030E+03 -0.14591161012E+04  0.16953506841E+04  0.50400001928E-02 0. -1.
</event>
<event>
 5   0  0.8237664E-06  0.3160197E+04  0.7818609E-02  0.8199409E-01
        2   -1    0    0  501    0  0.00000000000E+00  0.00000000000E+00  0.21509889712E+04  0.21509889712E+04  0.25500000920E-02 0.  1.
       -2   -1    0    0    0  501  0.00000000000E+00  0.00000000000E+00 -0.11607272735E+04  0.11607272735E+04  0.25500000920E-02 0. -1.
    10030    2    1    2    0    0  0.00000000000E+00  0.00000000000E+00  0.99026169770E+03  0.33117162448E+04  0.31601971863E+04 0.  0.
        5    1    3    3  502    0  0.93303088874E+03  0.81158895773E+03 -0.53562744161E+03  0.13476431730E+04  0.46999998093E+01 0. -1.
       -5    1    3    3    0  502 -0.93303088874E+03 -0.81158895773E+03  0.15258891393E+04  0.19640730717E+04  0.46999998093E+01 0.  1.
</event>
<event>
 5   0  0.7510251E-06  0.1617169E+04  0.7818609E-02  0.8810069E-01
        2   -1    0    0  501    0  0.00000000000E+00  0.00000000000E+00  0.61084753029E+03  0.61084753030E+03  0.25500000920E-02 0. -1.
       -2   -1    0    0    0  501  0.00000000000E+00  0.00000000000E+00 -0.10703313243E+04  0.10703313243E+04  0.25500000920E-02 0.  1.
    10030    2    1    2    0    0  0.00000000000E+00  0.00000000000E+00 -0.45948379399E+03  0.16811788546E+04  0.16171694358E+04 0.  0.
        3    1    3    3  502    0  0.38330365998E+03 -0.27664000444E+03 -0.91172443982E+03  0.10269824011E+04  0.10100000352E+00 0.  1.
       -3    1    3    3    0  502 -0.38330365998E+03  0.27664000444E+03  0.45224064583E+03  0.65419645348E+03  0.10100000352E+00 0. -1.
</event>
<event>
 5   0  0.2788054E-06  0.1979362E+04  0.7818609E-02  0.8616331E-01
       -1   -1    0    0    0  501  0.00000000000E+00  0.00000000000E+00  0.57631216304E+03  0.57631216306E+03  0.50400001928E-02 0.  1.
        1   -1    0    0  501    0  0.00000000000E+00  0.00000000000E+00 -0.16995449189E+04  0.16995449189E+04  0.50400001928E-02 0. -1.
    10030    2    1    2    0    0  0.00000000000E+00  0.00000000000E+00 -0.11232327559E+04  0.22758570820E+04  0.19793619259E+04 0.  0.
        3    1    3    3  502    0  0.77633975311E+03 -0.75733555157E+02  0.13874783168E+03  0.79226886512E+03  0.10100000352E+00 0.  1.
       -3    1    3    3    0  502 -0.77633975311E+03  0.75733555157E+02 -0.12619805875E+04  0.14835882168E+04  0.10100000352E+00 0. -1.
</event>
<event>
 5   0  0.2788054E-06  0.3039738E+04  0.7818609E-02  0.8232474E-01
       -1   -1    0    0    0  501  0.00000000000E+00  0.00000000000E+00  0.17379014048E+04  0.17379014048E+04  0.50400001928E-02 0. -1.
        1   -1    0    0  501    0  0.00000000000E+00  0.00000000000E+00 -0.13291906769E+04  0.13291906769E+04  0.50400001928E-02 0.  1.
    10030    2    1    2    0    0  0.00000000000E+00  0.00000000000E+00  0.40871072795E+03  0.30670920817E+04  0.30397383734E+04 0.  0.
        3    1    3    3  502    0  0.86388628288E+03  0.48615165586E+03  0.13668337113E+04  0.16884541294E+04  0.10100000352E+00 0. -1.
       -3    1    3    3    0  502 -0.86388628288E+03 -0.48615165586E+03 -0.95812298339E+03  0.13786379524E+04  0.10100000352E+00 0.  1.
</event>
<event>
 5   0  0.4142886E-06  0.3097902E+04  0.7818609E-02  0.8216314E-01
        1   -1    0    0  501    0  0.00000000000E+00  0.00000000000E+00  0.19731933768E+04  0.19731933768E+04  0.50400001928E-02 0. -1.
       -1   -1    0    0    0  501  0.00000000000E+00  0.00000000000E+00 -0.12159217553E+04  0.12159217553E+04  0.50400001928E-02 0.  1.
    10030    2    1    2    0    0  0.00000000000E+00  0.00000000000E+00  0.75727162153E+03  0.31891151321E+04  0.30979017120E+04 0.  0.
        5    1    3    3  502    0 -0.58256530626E+03  0.29745807609E+03  0.18240285425E+04  0.19377734276E+04  0.46999998093E+01 0. -1.
       -5    1    3    3    0  502  0.58256530626E+03 -0.29745807609E+03 -0.10667569209E+04  0.12513417045E+04  0.46999998093E+01 0.  1.
</event>
<event>
 5   0  0.4142886E-06  0.3220355E+04  0.7818609E-02  0.8183462E-01
       -1   -1    0    0    0  501  0.00000000000E+00  0.00000000000E+00  0.13610893351E+04  0.13610893351E+04  0.50400001928E-02 0. -1.
        1   -1    0    0  501    0  0.00000000000E+00  0.00000000000E+00 -0.19048505450E+04  0.19048505450E+04  0.50400001928E-02 0.  1.
    10030    2    1    2    0    0  0.00000000000E+00  0.00000000000E+00 -0.54376120989E+03  0.32659398801E+04  0.32203551119E+04 0.  0.
        5    1    3    3  502    0 -0.18145472280E+03 -0.89832764568E+03 -0.16145283666E+04  0.18565134828E+04  0.46999998093E+01 0.  1.
       -5    1    3    3    0  502  0.18145472280E+03  0.89832764568E+03  0.10707671567E+04  0.14094263972E+04  0.46999998093E+01 0. -1.
</event>
<event>
 5   0  0.7952307E-06  0.3228683E+04  0.7818609E-02  0.8181283E-01
       -2   -1    0    0    0  501  0.00000000000E+00  0.00000000000E+00  0.14860933094E+04  0.14860933094E+04  0.25500000920E-02 0.  1.
        2   -1    0    0  501    0  0.00000000000E+00  0.00000000000E+00 -0.17536571776E+04  0.17536571776E+04  0.25500000920E-02 0. -1.
    10030    2    1    2    0    0  0.00000000000E+00  0.00000000000E+00 -0.26756386823E+03  0.32397504870E+04  0.32286828265E+04 0.  0.
        2    1    3    3  502    0  0.42473238408E+03  0.15355242405E+04  0.12762193417E+03  0.15982864729E+04  0.25500000920E-02 0.  1.
       -2    1    3    3    0  502 -0.42473238408E+03 -0.15355242405E+04 -0.39518580240E+03  0.16414640141E+04  0.25500000920E-02 0. -1.
</event>
<event>
 5   0  0.7510251E-06  0.3188965E+04  0.7818609E-02  0.8191738E-01
        2   -1    0    0  501    0  0.00000000000E+00  0.00000000000E+00  0.16736982951E+04  0.16736982951E+04  0.25500000920E-02 0. -1.
       -2   -1    0    0    0  501  0.00000000000E+00  0.00000000000E+00 -0.15190156043E+04  0.15190156043E+04  0.25500000920E-02 0.  1.
    10030    2    1    2    0    0  0.00000000000E+00  0.00000000000E+00  0.15468269076E+03  0.31927138994E+04  0.31889646139E+04 0.  0.
        3    1    3    3  502    0  0.63903724444E+03 -0.21055006573E+02  0.15397303966E+04  0.16672077307E+04  0.10100000352E+00 0. -1.
       -3    1    3    3    0  502 -0.63903724444E+03  0.21055006573E+02 -0.13850477058E+04  0.15255061687E+04  0.10100000352E+00 0.  1.
</event>
<event>
 5   0  0.2788054E-06  0.3042300E+04  0.7818609E-02  0.8231754E-01
        1   -1    0    0  501    0  0.00000000000E+00  0.00000000000E+00  0.25311760442E+04  0.25311760442E+04  0.50400001928E-02 0. -1.
       -1   -1    0    0    0  501  0.00000000000E+00  0.00000000000E+00 -0.91415922754E+03  0.91415922755E+03  0.50400001928E-02 0.  1.
    10030    2    1    2    0    0  0.00000000000E+00  0.00000000000E+00  0.16170168166E+04  0.34453352717E+04  0.30423004042E+04 0.  0.
        3    1    3    3  502    0  0.47009017532E+03 -0.50652827053E+03  0.23431473355E+04  0.24429275691E+04  0.10100000352E+00 0. -1.
       -3    1    3    3    0  502 -0.47009017532E+03  0.50652827053E+03 -0.72613051884E+03  0.10024077027E+04  0.10100000352E+00 0.  1.
</event>
<event>
 5   0  0.2933646E-06  0.3155418E+04  0.7818609E-02  0.8200691E-01
        1   -1    0    0  501    0  0.00000000000E+00  0.00000000000E+00  0.16916037985E+04  0.16916037985E+04  0.50400001928E-02 0.  1.
       -1   -1    0    0    0  501  0.00000000000E+00  0.00000000000E+00 -0.14714828270E+04  0.14714828270E+04  0.50400001928E-02 0. -1.
    10030    2    1    2    0    0  0.00000000000E+00  0.00000000000E+00  0.22012097152E+03  0.31630866255E+04  0.31554181590E+04 0.  0.
        2    1    3    3  502    0  0.11598722783E+04  0.74273384845E+03 -0.66136067039E+03  0.15278596820E+04  0.25500000920E-02 0. -1.
       -2    1    3    3    0  502 -0.11598722783E+04 -0.74273384845E+03  0.88148164191E+03  0.16352269435E+04  0.25500000920E-02 0.  1.
</event>
<event>
 5   0  0.7952307E-06  0.3074440E+04  0.7818609E-02  0.8222788E-01
       -2   -1    0    0    0  501  0.00000000000E+00  0.00000000000E+00  0.12569024493E+04  0.12569024493E+04  0.25500000920E-02 0.  1.
        2   -1    0    0  501    0  0.00000000000E+00  0.00000000000E+00 -0.18800551932E+04  0.18800551932E+04  0.25500000920E-02 0. -1.
    10030    2    1    2    0    0  0.00000000000E+00  0.00000000000E+00 -0.62315274388E+03  0.31369576425E+04  0.30744404220E+04 0.  0.
        2    1    3    3  502    0 -0.13842051260E+04 -0.45250286654E+03 -0.81378756655E+03  0.16682424520E+04  0.25500000920E-02 0. -1.
       -2    1    3    3    0  502  0.13842051260E+04  0.45250286654E+03  0.19063482267E+03  0.14687151905E+04  0.25500000920E-02 0.  1.
</event>
<event>
 5   0  0.3938696E-06  0.3265445E+04  0.7818609E-02  0.8171744E-01
        1   -1    0    0  501    0  0.00000000000E+00  0.00000000000E+00  0.15522531330E+04  0.15522531330E+04  0.50400001928E-02 0. -1.
       -1   -1    0    0    0  501  0.00000000000E+00  0.00000000000E+00 -0.17173631361E+04  0.17173631361E+04  0.50400001928E-02 0.  1.
    10030    2    1    2    0    0  0.00000000000E+00  0.00000000000E+00 -0.16511000313E+03  0.32696162691E+04  0.32654447222E+04 0.  0.
        4    1    3    3  502    0  0.25515978524E+03 -0.47360390738E+03 -0.16260733673E+04  0.17127531597E+04  0.12699999809E+01 0.  1.
       -4    1    3    3    0  502 -0.25515978524E+03  0.47360390738E+03  0.14609633642E+04  0.15568631094E+04  0.12699999809E+01 0. -1.
</event>
<event>
 5   0  0.7971763E-06  0.1811669E+04  0.7818609E-02  0.8700118E-01
        2   -1    0    0  501    0  0.00000000000E+00  0.00000000000E+00  0.12240919702E+04  0.12240919702E+04  0.25500000920E-02 0. -1.
       -2   -1    0    0    0  501  0.00000000000E+00  0.00000000000E+00 -0.67032245344E+03  0.67032245344E+03  0.25500000920E-02 0.  1.
    10030    2    1    2    0    0  0.00000000000E+00  0.00000000000E+00  0.55376951678E+03  0.18944144237E+04  0.18116692112E+04 0.  0.
        1    1    3    3  502    0  0.53257417389E+03 -0.25375275303E+03 -0.44190499271E+03  0.73709275738E+03  0.50400001928E-02 0.  1.
       -1    1    3    3    0  502 -0.53257417389E+03  0.25375275303E+03  0.99567450949E+03  0.11573216663E+04  0.50400001928E-02 0. -1.
</event>
<event>
 5   0  0.3938696E-06  0.1975701E+04  0.7818609E-02  0.8618066E-01
        1   -1    0    0  501    0  0.00000000000E+00  0.00000000000E+00  0.24772800935E+04  0.24772800935E+04  0.50400001928E-02 0.  1.
       -1   -1    0    0    0  501  0.00000000000E+00  0.00000000000E+00 -0.39391922649E+03  0.39391922652E+03  0.50400001928E-02 0. -1.
    10030    2    1    2    0    0  0.00000000000E+00  0.00000000000E+00  0.20833608670E+04  0.28711993200E+04  0.19757006436E+04 0.  0.
        4    1    3    3  502    0  0.52238683008E+03  0.62549799470E+03  0.23031183007E+03  0.84686533380E+03  0.12699999809E+01 0.  1.
       -4    1    3    3    0  502 -0.52238683008E+03 -0.62549799470E+03  0.18530490369E+04  0.20243339862E+04  0.12699999809E+01 0. -1.
</event>
<event>
 5   0  0.2788054E-06  0.3198560E+04  0.7818609E-02  0.8189198E-01
       -1   -1    0    0    0  501  0.00000000000E+00  0.00000000000E+00  0.17567069213E+04  0.17567069213E+04  0.50400001928E-02 0.  1.
        1   -1    0    0  501    0  0.00000000000E+00  0.00000000000E+00 -0.14559608212E+04  0.14559608212E+04  0.50400001928E-02 0. -1.
    10030    2    1    2    0    0  0.00000000000E+00  0.00000000000E+00  0.30074610006E+03  0.32126677425E+04  0.31985599584E+04 0.  0.
        3    1    3    3  502    0 -0.32595378289E+03  0.15784714525E+03 -0.14142314795E+04  0.14598672124E+04  0.10100000352E+00 0. -1.
       -3    1    3    3    0  502  0.32595378289E+03 -0.15784714525E+03  0.17149775796E+04  0.17528005302E+04  0.10100000352E+00 0.  1.
</event>
<event>
 5   0  0.2933646E-06  0.1930303E+04  0.7818609E-02  0.8639918E-01
       -1   -1    0    0    0  501  0.00000000000E+00  0.00000000000E+00  0.11952648434E+04  0.11952648434E+04  0.50400001928E-02 0.  1.
        1   -1    0    0  501    0  0.00000000000E+00  0.00000000000E+00 -0.77933969513E+03  0.77933969514E+03  0.50400001928E-02 0. -1.
    10030    2    1    2    0    0  0.00000000000E+00  0.00000000000E+00  0.41592514829E+03  0.19746045386E+04  0.19303029179E+04 0.  0.
        2    1    3    3  502    0  0.22076281773E+03  0.12914479039E+03  0.11599678825E+04  0.11878299908E+04  0.25500000920E-02 0.  1.
       -2    1    3    3    0  502 -0.22076281773E+03 -0.12914479039E+03 -0.74404273425E+03  0.78677454774E+03  0.25500000920E-02 0. -1.
</event>
<event>
 5   0  0.7971763E-06  0.3410248E+04  0.7818609E-02  0.8135396E-01
       -2   -1    0    0    0  501  0.00000000000E+00  0.00000000000E+00  0.20527868016E+04  0.20527868016E+04  0.25500000920E-02 0. -1.
        2   -1    0    0  501    0  0.00000000000E+00  0.00000000000E+00 -0.14163421247E+04  0.14163421247E+04  0.25500000920E-02 0.  1.
    10030    2    1    2    0    0  0.00000000000E+00  0.00000000000E+00  0.63644467686E+03  0.34691289263E+04  0.34102483313E+04 0.  0.
        1    1    3    3  502    0 -0.38320767740E+03 -0.62333713035E+03  0.18849606273E+04  0.20219974947E+04  0.50400001928E-02 0. -1.
       -1    1    3    3    0  502  0.38320767740E+03  0.62333713035E+03 -0.12485159504E+04  0.14471314317E+04  0.50400001928E-02 0.  1.
</event>
<event>
 5   0  0.8237664E-06  0.1588950E+04  0.7818609E-02  0.8827365E-01
        2   -1    0    0  501    0  0.00000000000E+00  0.00000000000E+00  0.12164909863E+04  0.12164909863E+04  0.25500000920E-02 0.  1.
       -2   -1    0    0    0  501  0.00000000000E+00  0.00000000000E+00 -0.51886169466E+03  0.51886169466E+03  0.25500000920E-02 0. -1.
    10030    2    1    2    0    0  0.00000000000E+00  0.00000000000E+00  0.69762929167E+03  0.17353526810E+04  0.15889500618E+04 0.  0.
        5    1    3    3  502    0 -0.19636209528E+03 -0.49846421793E+02 -0.49016183096E+03  0.53039932952E+03  0.46999998093E+01 0. -1.
       -5    1    3    3    0  502  0.19636209528E+03  0.49846421793E+02  0.11877911226E+04  0.12049533515E+04  0.46999998093E+01 0.  1.
</event>
<event>
 5   0  0.4869660E-06  0.1666593E+04  0.7818609E-02  0.8780650E-01
       -1   -1    0    0    0  501  0.00000000000E+00  0.00000000000E+00  0.67436471682E+03  0.67436471684E+03  0.50400001928E-02 0.  1.
        1   -1    0    0  501    0  0.00000000000E+00  0.00000000000E+00 -0.10296852956E+04  0.10296852956E+04  0.50400001928E-02 0. -1.
    10030    2    1    2    0    0  0.00000000000E+00  0.00000000000E+00 -0.35532057878E+03  0.17040500124E+04  0.16665934511E+04 0.  0.
        5    1    3    3  502    0  0.37966172622E+03 -0.50300654677E+03  0.37975523936E+03  0.73579531411E+03  0.46999998093E+01 0.  1.
       -5    1    3    3    0  502 -0.37966172622E+03  0.50300654677E+03 -0.73507581814E+03  0.96825469834E+03  0.46999998093E+01 0. -1.
</event>
<event>
 5   0  0.7941434E-06  0.3221176E+04  0.7818609E-02  0.8183247E-01
       -2   -1    0    0    0  501  0.00000000000E+00  0.00000000000E+00  0.12511885226E+04  0.12511885226E+04  0.25500000920E-02 0.  1.
        2   -1    0    0  501    0  0.00000000000E+00  0.00000000000E+00 -0.20732238847E+04  0.20732238847E+04  0.25500000920E-02 0. -1.
    10030    2    1    2    0    0  0.00000000000E+00  0.00000000000E+00 -0.82203536212E+03  0.33244124072E+04  0.32211761387E+04 0.  0.
        4    1    3    3  502    0 -0.15209695396E+04 -0.16804906454E+03 -0.92951688884E+03  0.17904167358E+04  0.12699999809E+01 0. -1.
       -4    1    3    3    0  502  0.15209695396E+04  0.16804906454E+03  0.10748152671E+03  0.15339956714E+04  0.12699999809E+01 0.  1.
</event>
<event>
 5   0  0.2635798E-06  0.3226715E+04  0.7818609E-02  0.8181797E-01
        1   -1    0    0  501    0  0.00000000000E+00  0.00000000000E+00  0.22204513939E+04  0.22204513939E+04  0.50400001928E-02 0.  1.
       -1   -1    0    0    0  501  0.00000000000E+00  0.00000000000E+00 -0.11722492507E+04  0.11722492507E+04  0.50400001928E-02 0. -1.
    10030    2    1    2    0    0  0.00000000000E+00  0.00000000000E+00  0.10482021432E+04  0.33927006445E+04  0.32267150371E+04 0.  0.
        1    1    3    3  502    0  0.46555592494E+03  0.15325054761E+04  0.32019976060E+03  0.16333533728E+04  0.50400001928E-02 0.  1.
       -1    1    3    3    0  502 -0.46555592494E+03 -0.15325054761E+04  0.72800238259E+03  0.17593472718E+04  0.50400001928E-02 0. -1.
</event>
<event>
 5   0  0.2933646E-06  0.3663423E+04  0.7818609E-02  0.8076116E-01
       -1   -1    0    0    0  501  0.00000000000E+00  0.00000000000E+00  0.26762711873E+04  0.26762711873E+04  0.50400001928E-02 0.  1.
        1   -1    0    0  501    0  0.00000000000E+00  0.00000000000E+00 -0.12536720495E+04  0.12536720495E+04  0.50400001928E-02 0. -1.
    10030    2    1    2    0    0  0.00000000000E+00  0.00000000000E+00  0.14225991378E+04  0.39299432369E+04  0.36634226535E+04 0.  0.
        2    1    3    3  502    0 -0.98934115133E+02  0.67271880352E+03  0.25358696322E+04  0.26254472646E+04  0.25500000920E-02 0.  1.
       -2    1    3    3    0  502  0.98934115133E+02 -0.67271880352E+03 -0.11132704944E+04  0.13044959722E+04  0.25500000920E-02 0. -1.
</event>
<event>
 5   0  0.2933646E-06  0.3155664E+04  0.7818609E-02  0.8200625E-01
       -1   -1    0    0    0  501  0.00000000000E+00  0.00000000000E+00  0.30339248655E+04  0.30339248655E+04  0.50400001928E-02 0. -1.
        1   -1    0    0  501    0  0.00000000000E+00  0.00000000000E+00 -0.82057177665E+03  0.82057177666E+03  0.50400001928E-02 0.  1.
    10030    2    1    2    0    0  0.00000000000E+00  0.00000000000E+00  0.22133530889E+04  0.38544966422E+04  0.31556635544E+04 0.  0.
        2    1    3    3  502    0 -0.66912306265E+03  0.64943413921E+03 -0.44801019704E+03  0.10345064093E+04  0.25500000920E-02 0.  1.
       -2    1    3    3    0  502  0.66912306265E+03 -0.64943413921E+03  0.26613632859E+04  0.28199902329E+04  0.25500000920E-02 0. -1.
</event>
<event>
 5   0  0.2933646E-06  0.3115063E+04  0.7818609E-02  0.8211616E-01
       -1   -1    0    0    0  501  0.00000000000E+00  0.00000000000E+00  0.10336013954E+04  0.10336013954E+04  0.50400001928E-02 0. -1.
        1   -1    0    0  501    0  0.00000000000E+00  0.00000000000E+00 -0.23470398306E+04  0.23470398306E+04  0.50400001928E-02 0.  1.
    10030    2    1    2    0    0  0.00000000000E+00  0.00000000000E+00 -0.13134384351E+04  0.33806412260E+04  0.31150625317E+04 0.  0.
        2    1    3    3  502    0  0.30233085137E+03  0.10688541353E+04  0.52817518579E+03  0.12299683464E+04  0.25500000920E-02 0. -1.
       -2    1    3    3    0  502 -0.30233085137E+03 -0.10688541353E+04 -0.18416136209E+04  0.21506728796E+04  0.25500000920E-02 0.  1.
</event>
<event>
 5   0  0.2933646E-06  0.1986541E+04  0.7818609E-02  0.8612939E-01
        1   -1    0    0  501    0  0.00000000000E+00  0.00000000000E+00  0.11162898082E+04  0.11162898082E+04  0.50400001928E-02 0. -1.
       -1   -1    0    0    0  501  0.00000000000E+00  0.00000000000E+00 -0.88380842127E+03  0.88380842128E+03  0.50400001928E-02 0.  1.
    10030    2    1    2    0    0  0.00000000000E+00  0.00000000000E+00  0.23248138691E+03  0.20000982295E+04  0.19865410472E+04 0.  0.
        2    1    3    3  502    0 -0.29178027589E+03 -0.89348475962E+03  0.43957966801E+03  0.10376324155E+04  0.25500000920E-02 0. -1.
       -2    1    3    3    0  502  0.29178027589E+03  0.89348475962E+03 -0.20709828110E+03  0.96246581400E+03  0.25500000920E-02 0.  1.
</event>
<event>
 5   0  0.2933646E-06  0.2259978E+04  0.7818609E-02  0.8493871E-01
        1   -1    0    0  501    0  0.00000000000E+00  0.00000000000E+00  0.80882483283E+03  0.80882483284E+03  0.50400001928E-02 0. -1.
       -1   -1    0    0    0  501  0.00000000000E+00  0.00000000000E+00 -0.15786788260E+04  0.15786788260E+04  0.50400001928E-02 0.  1.
    10030    2    1    2    0    0  0.00000000000E+00  0.00000000000E+00 -0.76985399319E+03  0.23875036589E+04  0.22599775553E+04 0.  0.
        2    1    3    3  502    0 -0.22904461618E+03  0.10262461406E+04 -0.82207898772E+03  0.13347121185E+04  0.25500000920E-02 0.  1.
       -2    1    3    3    0  502  0.22904461618E+03 -0.10262461406E+04  0.52224994523E+02  0.10527915403E+04  0.25500000920E-02 0. -1.
</event>
<event>
 5   0  0.7971763E-06  0.1727293E+04  0.7818609E-02  0.8745949E-01
        2   -1    0    0  501    0  0.00000000000E+00  0.00000000000E+00  0.12974374081E+04  0.12974374081E+04  0.25500000920E-02 0.  1.
       -2   -1    0    0    0  501  0.00000000000E+00  0.00000000000E+00 -0.57489141107E+03  0.57489141107E+03  0.25500000920E-02 0. -1.
    10030    2    1    2    0    0  0.00000000000E+00  0.00000000000E+00  0.72254599702E+03  0.18723288192E+04  0.17272933999E+04 0.  0.
        1    1    3    3  502    0 -0.83263841808E+03 -0.20006097740E+03  0.23972124205E+03  0.88925665804E+03  0.50400001928E-02 0. -1.
       -1    1    3    3    0  502  0.83263841808E+03  0.20006097740E+03  0.48282475497E+03  0.98307216113E+03  0.50400001928E-02 0.  1.
</event>
<event>
 5   0  0.2933646E-06  0.3200702E+04  0.7818609E-02  0.8188632E-01
        1   -1    0    0  501    0  0.00000000000E+00  0.00000000000E+00  0.21039970061E+04  0.21039970061E+04  0.50400001928E-02 0.  1.
       -1   -1    0    0    0  501  0.00000000000E+00  0.00000000000E+00 -0.12172654309E+04  0.12172654309E+04  0.50400001928E-02 0. -1.
    10030    2    1    2    0    0  0.00000000000E+00  0.00000000000E+00  0.88673157529E+03  0.33212624370E+04  0.32007016870E+04 0.  0.
        2    1    3    3  502    0 -0.32528202323E+02 -0.84850761302E+03 -0.96423226312E+03  0.12848218205E+04  0.25500000920E-02 0.  1.
       -2    1    3    3    0  502  0.32528202323E+02  0.84850761302E+03  0.18509638384E+04  0.20364406165E+04  0.25500000920E-02 0. -1.
</event>
<event>
 5   0  0.2635798E-06  0.1797162E+04  0.7818609E-02  0.8707810E-01
       -1   -1    0    0    0  501  0.00000000000E+00  0.00000000000E+00  0.78094877159E+03  0.78094877161E+03  0.50400001928E-02 0.  1.
        1   -1    0    0  501    0  0.00000000000E+00  0.00000000000E+00 -0.10339318846E+04  0.10339318846E+04  0.50400001928E-02 0. -1.
    10030    2    1    2    0    0  0.00000000000E+00  0.00000000000E+00 -0.25298311302E+03  0.18148806562E+04  0.17971620241E+04 0.  0.
        1    1    3    3  502    0  0.21113990021E+03  0.36910814985E+03  0.67291070750E+03  0.79600860802E+03  0.50400001928E-02 0.  1.
       -1    1    3    3    0  502 -0.21113990021E+03 -0.36910814985E+03 -0.92589382052E+03  0.10188720482E+04  0.50400001928E-02 0. -1.
</event>
<event>
 5   0  0.8237664E-06  0.2708373E+04  0.7818609E-02  0.8332293E-01
        2   -1    0    0  501    0  0.00000000000E+00  0.00000000000E+00  0.19275366642E+04  0.19275366642E+04  0.25500000920E-02 0.  1.
       -2   -1    0    0    0  501  0.00000000000E+00  0.00000000000E+00 -0.95138065340E+03  0.95138065340E+03  0.25500000920E-02 0. -1.
    10030    2    1    2    0    0  0.00000000000E+00  0.00000000000E+00  0.97615601085E+03  0.28789173177E+04  0.27083730106E+04 0.  0.
        5    1    3    3  502    0  0.50439528837E+03  0.60283211217E+03  0.16602289579E+04  0.18369004995E+04  0.46999998093E+01 0.  1.
       -5    1    3    3    0  502 -0.50439528837E+03 -0.60283211217E+03 -0.68407294706E+03  0.10420168181E+04  0.46999998093E+01 0. -1.
</event>
<event>
 5   0  0.8237664E-06  0.2055021E+04  0.7818609E-02  0.8581320E-01
       -2   -1    0    0    0  501  0.00000000000E+00  0.00000000000E+00  0.72656676244E+03  0.72656676245E+03  0.25500000920E-02 0. -1.
        2   -1    0    0  501    0  0.00000000000E+00  0.00000000000E+00 -0.14531053813E+04  0.14531053813E+04  0.25500000920E-02 0.  1.
    10030    2    1    2    0    0  0.00000000000E+00  0.00000000000E+00 -0.72653861888E+03  0.21796721438E+04  0.20550212382E+04 0.  0.
        5    1    3    3  502    0 -0.38229352315E+03 -0.86372774680E+03 -0.79225484406E+03  0.12328275574E+04  0.46999998093E+01 0.  1.
       -5    1    3    3    0  502  0.38229352315E+03  0.86372774680E+03  0.65716225178E+02  0.94684458634E+03  0.46999998093E+01 0. -1.
</event>
<event>
 5   0  0.7941434E-06  0.3288786E+04  0.7818609E-02  0.8165755E-01
        2   -1    0    0  501    0  0.00000000000E+00  0.00000000000E+00  0.21361447020E+04  0.21361447020E+04  0.25500000920E-02 0. -1.
       -2   -1    0    0    0  501  0.00000000000E+00  0.00000000000E+00 -0.12658454154E+04  0.12658454154E+04  0.25500000920E-02 0.  1.
    10030    2    1    2    0    0  0.00000000000E+00  0.00000000000E+00  0.87029928665E+03  0.34019901174E+04  0.32887863887E+04 0.  0.
        4    1    3    3  502    0 -0.12262130386E+04 -0.86742685859E+03 -0.25721708773E+03  0.15238733589E+04  0.12699999809E+01 0.  1.
       -4    1    3    3    0  502  0.12262130386E+04  0.86742685859E+03  0.11275163744E+04  0.18781167584E+04  0.12699999809E+01 0. -1.
</event>
<event>
 5   0  0.2580875E-06  0.3222852E+04  0.7818609E-02  0.8182808E-01
       -3   -1    0    0    0  501  0.00000000000E+00  0.00000000000E+00  0.22124258572E+04  0.22124258595E+04  0.10100000352E+00 0.  1.
        3   -1    0    0  501    0  0.00000000000E+00  0.00000000000E+00 -0.11736859620E+04  0.11736859663E+04  0.10100000352E+00 0. -1.
    10030    2    1    2    0    0  0.00000000000E+00  0.00000000000E+00  0.10387398952E+04  0.33861118258E+04  0.32228516452E+04 0.  0.
        5    1    3    3  502    0  0.84336469375E+03 -0.53122012964E+02 -0.92220854677E+03  0.12508303837E+04  0.46999998093E+01 0. -1.
       -5    1    3    3    0  502 -0.84336469375E+03  0.53122012964E+02  0.19609484420E+04  0.21352814421E+04  0.46999998093E+01 0.  1.
</event>
<event>
 5   0  0.7952307E-06  0.3174126E+04  0.7818609E-02  0.8195684E-01
       -2   -1    0    0    0  501  0.00000000000E+00  0.00000000000E+00  0.16647645476E+04  0.16647645476E+04  0.25500000920E-02 0.  1.
        2   -1    0    0  501    0  0.00000000000E+00  0.00000000000E+00 -0.15129883793E+04  0.15129883793E+04  0.25500000920E-02 0. -1.
    10030    2    1    2    0    0  0.00000000000E+00  0.00000000000E+00  0.15177616829E+03  0.31777529269E+04  0.31741262828E+04 0.  0.
        2    1    3    3  502    0  0.59834057187E+03  0.11459201891E+04  0.99760546703E+03  0.16328996257E+04  0.25500000920E-02 0.  1.
       -2    1    3    3    0  502 -0.59834057187E+03 -0.11459201891E+04 -0.84582929874E+03  0.15448533012E+04  0.25500000920E-02 0. -1.
</event>
<event>
 5   0  0.2933646E-06  0.3194165E+04  0.7818609E-02  0.8190360E-01
        1   -1    0    0  501    0  0.00000000000E+00  0.00000000000E+00  0.10020069384E+04  0.10020069385E+04  0.50400001928E-02 0. -1.
       -1   -1    0    0    0  501  0.00000000000E+00  0.00000000000E+00 -0.25455640633E+04  0.25455640633E+04  0.50400001928E-02 0.  1.
    10030    2    1    2    0    0  0.00000000000E+00  0.00000000000E+00 -0.15435571248E+04  0.35475710017E+04  0.31941652140E+04 0.  0.
        2    1    3    3  502    0  0.15048754208E+04 -0.34121247996E+03 -0.31439281178E+03  0.15747758027E+04  0.25500000920E-02 0. -1.
       -2    1    3    3    0  502 -0.15048754208E+04  0.34121247996E+03 -0.12291643130E+04  0.19727951990E+04  0.25500000920E-02 0.  1.
</event>
<event>
 5   0  0.7952307E-06  0.3246891E+04  0.7818609E-02  0.8176542E-01
        2   -1    0    0  501    0  0.00000000000E+00  0.00000000000E+00  0.16493458926E+04  0.16493458926E+04  0.25500000920E-02 0.  1.
       -2   -1    0    0    0  501  0.00000000000E+00  0.00000000000E+00 -0.15979518140E+04  0.15979518140E+04  0.25500000920E-02 0. -1.
    10030    2    1    2    0    0  0.00000000000E+00  0.00000000000E+00  0.51394078597E+02  0.32472977067E+04  0.32468909813E+04 0.  0.
        2    1    3    3  502    0 -0.14307782626E+04  0.30432672745E+03 -0.67854602788E+03  0.16125029940E+04  0.25500000920E-02 0. -1.
       -2    1    3    3    0  502  0.14307782626E+04 -0.30432672745E+03  0.72994010647E+03  0.16347947127E+04  0.25500000920E-02 0.  1.
</event>
<event>
 5   0  0.4142886E-06  0.3123147E+04  0.7818609E-02  0.8209414E-01
       -1   -1    0    0    0  501  0.00000000000E+00  0.00000000000E+00  0.10278997138E+04  0.10278997138E+04  0.50400001928E-02 0. -1.
        1   -1    0    0  501    0  0.00000000000E+00  0.00000000000E+00 -0.23723249451E+04  0.23723249451E+04  0.50400001928E-02 0.  1.
    10030    2    1    2    0    0  0.00000000000E+00  0.00000000000E+00 -0.13444252313E+04  0.34002246589E+04  0.31231472153E+04 0.  0.
        5    1    3    3  502    0 -0.10612472666E+04  0.11010221197E+04 -0.32793929241E+03  0.15639890468E+04  0.46999998093E+01 0.  1.
       -5    1    3    3    0  502  0.10612472666E+04 -0.11010221197E+04 -0.10164859389E+04  0.18362356121E+04  0.46999998093E+01 0. -1.
</event>
<event>
 5   0  0.7941434E-06  0.3003148E+04  0.7818609E-02  0.8242833E-01
       -2   -1    0    0    0  501  0.00000000000E+00  0.00000000000E+00  0.14297884415E+04  0.14297884415E+04  0.25500000920E-02 0. -1.
        2   -1    0    0  501    0  0.00000000000E+00  0.00000000000E+00 -0.15769636328E+04  0.15769636328E+04  0.25500000920E-02 0.  1.
    10030    2    1    2    0    0  0.00000000000E+00  0.00000000000E+00 -0.14717519131E+03  0.30067520742E+04  0.30031479316E+04 0.  0.
        4    1    3    3  502    0 -0.10281822888E+04  0.90830756919E+03  0.53750652871E+03  0.14734640615E+04  0.12699999809E+01 0. -1.
       -4    1    3    3    0  502  0.10281822888E+04 -0.90830756919E+03 -0.68468172001E+03  0.15332880127E+04  0.12699999809E+01 0.  1.
</event>
<event>
 5   0  0.2635798E-06  0.1710800E+04  0.7818609E-02  0.8755228E-01
        1   -1    0    0  501    0  0.00000000000E+00  0.00000000000E+00  0.20186730109E+04  0.20186730109E+04  0.50400001928E-02 0. -1.
       -1   -1    0    0    0  501  0.00000000000E+00  0.00000000000E+00 -0.36247050654E+03  0.36247050657E+03  0.50400001928E-02 0.  1.
    10030    2    1    2    0    0  0.00000000000E+00  0.00000000000E+00  0.16562025044E+04  0.23811435175E+04  0.17108003143E+04 0.  0.
        1    1    3    3  502    0 -0.16310824952E+03  0.21226108139E+03  0.19588725786E+04  0.19770788672E+04  0.50400001928E-02 0. -1.
       -1    1    3    3    0  502  0.16310824952E+03 -0.21226108139E+03 -0.30267007427E+03  0.40406465029E+03  0.50400001928E-02 0.  1.
</event>
<event>
 5   0  0.2580875E-06  0.3160068E+04  0.7818609E-02  0.8199443E-01
        3   -1    0    0  501    0  0.00000000000E+00  0.00000000000E+00  0.23250677686E+04  0.23250677708E+04  0.10100000352E+00 0. -1.
       -3   -1    0    0    0  501  0.00000000000E+00  0.00000000000E+00 -0.10737351640E+04  0.10737351688E+04  0.10100000352E+00 0.  1.
    10030    2    1    2    0    0  0.00000000000E+00  0.00000000000E+00  0.12513326045E+04  0.33988029396E+04  0.31600677421E+04 0.  0.
        4    1    3    3  502    0 -0.33607990290E+03  0.13535356895E+04 -0.17306575156E+03  0.14053333879E+04  0.12699999809E+01 0. -1.
       -4    1    3    3    0  502  0.33607990290E+03 -0.13535356895E+04  0.14243983561E+04  0.19934695517E+04  0.12699999809E+01 0.  1.
</event>
<event>
 5   0  0.2635798E-06  0.3184875E+04  0.7818609E-02  0.8192823E-01
        1   -1    0    0  501    0  0.00000000000E+00  0.00000000000E+00  0.22479321107E+04  0.22479321107E+04  0.50400001928E-02 0.  1.
       -1   -1    0    0    0  501  0.00000000000E+00  0.00000000000E+00 -0.11280841183E+04  0.11280841184E+04  0.50400001928E-02 0. -1.
    10030    2    1    2    0    0  0.00000000000E+00  0.00000000000E+00  0.11198479923E+04  0.33760162290E+04  0.31848745741E+04 0.  0.
        1    1    3    3  502    0 -0.13871127095E+03 -0.15436478442E+04  0.17223209051E+03  0.15594080212E+04  0.50400001928E-02 0. -1.
       -1    1    3    3    0  502  0.13871127095E+03  0.15436478442E+04  0.94761590182E+03  0.18166082079E+04  0.50400001928E-02 0.  1.
</event>
<event>
 5   0  0.7952307E-06  0.3246024E+04  0.7818609E-02  0.8176767E-01
       -2   -1    0    0    0  501  0.00000000000E+00  0.00000000000E+00  0.13192476841E+04  0.13192476841E+04  0.25500000920E-02 0.  1.
        2   -1    0    0  501    0  0.00000000000E+00  0.00000000000E+00 -0.19967202944E+04  0.19967202944E+04  0.25500000920E-02 0. -1.
    10030    2    1    2    0    0  0.00000000000E+00  0.00000000000E+00 -0.67747261034E+03  0.33159679785E+04  0.32460244141E+04 0.  0.
        2    1    3    3  502    0  0.70429853912E+02  0.15396937219E+04  0.18069973518E+03  0.15518600181E+04  0.25500000920E-02 0. -1.
       -2    1    3    3    0  502 -0.70429853912E+02 -0.15396937219E+04 -0.85817234553E+03  0.17641079604E+04  0.25500000920E-02 0.  1.
</event>
<event>
 5   0  0.7510251E-06  0.3152973E+04  0.7818609E-02  0.8201348E-01
       -2   -1    0    0    0  501  0.00000000000E+00  0.00000000000E+00  0.16886897078E+04  0.16886897078E+04  0.25500000920E-02 0.  1.
        2   -1    0    0  501    0  0.00000000000E+00  0.00000000000E+00 -0.14717384343E+04  0.14717384343E+04  0.25500000920E-02 0. -1.
    10030    2    1    2    0    0  0.00000000000E+00  0.00000000000E+00  0.21695127354E+03  0.31604281421E+04  0.31529729124E+04 0.  0.
        3    1    3    3  502    0  0.11486302579E+04 -0.84485623377E+03 -0.56555469421E+03  0.15339444734E+04  0.10100000352E+00 0. -1.
       -3    1    3    3    0  502 -0.11486302579E+04  0.84485623377E+03  0.78250596775E+03  0.16264836688E+04  0.10100000352E+00 0.  1.
</event>
<event>
 5   0  0.4142886E-06  0.1973174E+04  0.7818609E-02  0.8619266E-01
        1   -1    0    0  501    0  0.00000000000E+00  0.00000000000E+00  0.15551718319E+04  0.15551718319E+04  0.50400001928E-02 0. -1.
       -1   -1    0    0    0  501  0.00000000000E+00  0.00000000000E+00 -0.62588181476E+03  0.62588181478E+03  0.50400001928E-02 0.  1.
    10030    2    1    2    0    0  0.00000000000E+00  0.00000000000E+00  0.92929001711E+03  0.21810536466E+04  0.19731738579E+04 0.  0.
        5    1    3    3  502    0 -0.11224144604E+03 -0.24504681462E+03  0.15136742721E+04  0.15374908051E+04  0.46999998093E+01 0. -1.
       -5    1    3    3    0  502  0.11224144604E+03  0.24504681462E+03 -0.58438425502E+03  0.64356284159E+03  0.46999998093E+01 0.  1.
</event>
<event>
 5   0  0.8237664E-06  0.3338558E+04  0.7818609E-02  0.8153153E-01
        2   -1    0    0  501    0  0.00000000000E+00  0.00000000000E+00  0.25135921480E+04  0.25135921480E+04  0.25500000920E-02 0.  1.
       -2   -1    0    0    0  501  0.00000000000E+00  0.00000000000E+00 -0.11085697275E+04  0.11085697275E+04  0.25500000920E-02 0. -1.
    10030    2    1    2    0    0  0.00000000000E+00  0.00000000000E+00  0.14050224205E+04  0.36221618755E+04  0.33385578698E+04 0.  0.
        5    1    3    3  502    0  0.12178894200E+04 -0.14200842953E+03  0.19314509115E+04  0.22877818399E+04  0.46999998093E+01 0. -1.
       -5    1    3    3    0  502 -0.12178894200E+04  0.14200842953E+03 -0.52642849096E+03  0.13343800356E+04  0.46999998093E+01 0.  1.
</event>
<event>
 5   0  0.8237664E-06  0.3255092E+04  0.7818609E-02  0.8174417E-01
       -2   -1    0    0    0  501  0.00000000000E+00  0.00000000000E+00  0.30241249747E+04  0.30241249747E+04  0.25500000920E-02 0. -1.
        2   -1    0    0  501    0  0.00000000000E+00  0.00000000000E+00 -0.87592453650E+03  0.87592453651E+03  0.25500000920E-02 0.  1.
    10030    2    1    2    0    0  0.00000000000E+00  0.00000000000E+00  0.21482004382E+04  0.39000495112E+04  0.32550915605E+04 0.  0.
        5    1    3    3  502    0 -0.12521790833E+04  0.32542829132E+03 -0.10898292070E+03  0.12983664338E+04  0.46999998093E+01 0.  1.
       -5    1    3    3    0  502  0.12521790833E+04 -0.32542829132E+03  0.22571833589E+04  0.26016830774E+04  0.46999998093E+01 0. -1.
</event>
<event>
 5   0  0.8237664E-06  0.2879796E+04  0.7818609E-02  0.8278914E-01
        2   -1    0    0  501    0  0.00000000000E+00  0.00000000000E+00  0.17584359986E+04  0.17584359986E+04  0.25500000920E-02 0. -1.
       -2   -1    0    0    0  501  0.00000000000E+00  0.00000000000E+00 -0.11790627346E+04  0.11790627346E+04  0.25500000920E-02 0.  1.
    10030    2    1    2    0    0  0.00000000000E+00  0.00000000000E+00  0.57937326399E+03  0.29374987332E+04  0.28797960741E+04 0.  0.
        5    1    3    3  502    0 -0.10241431654E+04 -0.31794260704E+03 -0.69046631032E+03  0.12754303354E+04  0.46999998093E+01 0.  1.
       -5    1    3    3    0  502  0.10241431654E+04  0.31794260704E+03  0.12698395743E+04  0.16620683979E+04  0.46999998093E+01 0. -1.
</event>
<event>
 5   0  0.2635798E-06  0.2986725E+04  0.7818609E-02  0.8247532E-01
       -1   -1    0    0    0  501  0.00000000000E+00  0.00000000000E+00  0.16130989592E+04  0.16130989592E+04  0.50400001928E-02 0.  1.
        1   -1    0    0  501    0  0.00000000000E+00  0.00000000000E+00 -0.13825141989E+04  0.13825141989E+04  0.50400001928E-02 0. -1.
    10030    2    1    2    0    0  0.00000000000E+00  0.00000000000E+00  0.23058476023E+03  0.29956131581E+04  0.29867254412E+04 0.  0.
        1    1    3    3  502    0  0.14316950236E+03  0.32024573121E+03  0.15711894457E+04  0.16098730102E+04  0.50400001928E-02 0.  1.
       -1    1    3    3    0  502 -0.14316950236E+03 -0.32024573121E+03 -0.13406046855E+04  0.13857401479E+04  0.50400001928E-02 0. -1.
</event>
<event>
 5   0  0.7941434E-06  0.3212535E+04  0.7818609E-02  0.8185515E-01
       -2   -1    0    0    0  501  0.00000000000E+00  0.00000000000E+00  0.13786562288E+04  0.13786562288E+04  0.25500000920E-02 0. -1.
        2   -1    0    0  501    0  0.00000000000E+00  0.00000000000E+00 -0.18714566292E+04  0.18714566292E+04  0.25500000920E-02 0.  1.
    10030    2    1    2    0    0  0.00000000000E+00  0.00000000000E+00 -0.49280040038E+03  0.32501128580E+04  0.32125350356E+04 0.  0.
        4    1    3    3  502    0 -0.26039510997E+03 -0.15215780712E+04  0.20273901422E+03  0.15569554139E+04  0.12699999809E+01 0. -1.
       -4    1    3    3    0  502  0.26039510997E+03  0.15215780712E+04 -0.69553941460E+03  0.16931574440E+04  0.12699999809E+01 0.  1.
</event>
<event>
 5   0  0.2635798E-06  0.3102319E+04  0.7818609E-02  0.8215102E-01
        1   -1    0    0  501    0  0.00000000000E+00  0.00000000000E+00  0.13948535852E+04  0.13948535852E+04  0.50400001928E-02 0.  1.
       -1   -1    0    0    0  501  0.00000000000E+00  0.00000000000E+00 -0.17249806573E+04  0.17249806573E+04  0.50400001928E-02 0. -1.
    10030    2    1    2    0    0  0.00000000000E+00  0.00000000000E+00 -0.33012707213E+03  0.31198342425E+04  0.31023187807E+04 0.  0.
        1    1    3    3  502    0 -0.11116444760E+04  0.28572547354E+03 -0.12143638475E+04  0.16709494431E+04  0.50400001928E-02 0. -1.
       -1    1    3    3    0  502  0.11116444760E+04 -0.28572547354E+03  0.88423677536E+03  0.14488847995E+04  0.50400001928E-02 0.  1.
</event>
<event>
 5   0  0.2788054E-06  0.2226713E+04  0.7818609E-02  0.8507391E-01
        1   -1    0    0  501    0  0.00000000000E+00  0.00000000000E+00  0.17176271836E+04  0.17176271836E+04  0.50400001928E-02 0. -1.
       -1   -1    0    0    0  501  0.00000000000E+00  0.00000000000E+00 -0.72167182207E+03  0.72167182209E+03  0.50400001928E-02 0.  1.
    10030    2    1    2    0    0  0.00000000000E+00  0.00000000000E+00  0.99595536149E+03  0.24392990057E+04  0.22267133980E+04 0.  0.
        3    1    3    3  502    0 -0.10589883946E+04  0.34059222467E+03  0.54822200445E+03  0.12401640455E+04  0.10100000352E+00 0.  1.
       -3    1    3    3    0  502  0.10589883946E+04 -0.34059222467E+03  0.44773335704E+03  0.11991349601E+04  0.10100000352E+00 0. -1.
</event>
<event>
 5   0  0.3938696E-06  0.3294198E+04  0.7818609E-02  0.8164373E-01
        1   -1    0    0  501    0  0.00000000000E+00  0.00000000000E+00  0.20321641651E+04  0.20321641651E+04  0.50400001928E-02 0. -1.
       -1   -1    0    0    0  501  0.00000000000E+00  0.00000000000E+00 -0.13349982976E+04  0.13349982976E+04  0.50400001928E-02 0.  1.
    10030    2    1    2    0    0  0.00000000000E+00  0.00000000000E+00  0.69716586745E+03  0.33671624627E+04  0.32941983552E+04 0.  0.
        4    1    3    3  502    0  0.10352840131E+04  0.12798907796E+04  0.29259105144E+03  0.16719881973E+04  0.12699999809E+01 0. -1.
       -4    1    3    3    0  502 -0.10352840131E+04 -0.12798907796E+04  0.40457481601E+03  0.16951742654E+04  0.12699999809E+01 0.  1.
</event>
<event>
 5   0  0.7941434E-06  0.1758565E+04  0.7818609E-02  0.8728650E-01
        2   -1    0    0  501    0  0.00000000000E+00  0.00000000000E+00  0.86965632622E+03  0.86965632623E+03  0.25500000920E-02 0. -1.
       -2   -1    0    0    0  501  0.00000000000E+00  0.00000000000E+00 -0.88901531684E+03  0.88901531685E+03  0.25500000920E-02 0.  1.
    10030    2    1    2    0    0  0.00000000000E+00  0.00000000000E+00 -0.19358990617E+02  0.17586716431E+04  0.17585650905E+04 0.  0.
        4    1    3    3  502    0 -0.72646399075E+03  0.49334841566E+03  0.34972873105E+02  0.87884430012E+03  0.12699999809E+01 0.  1.
       -4    1    3    3    0  502  0.72646399075E+03 -0.49334841566E+03 -0.54331863722E+02  0.87982734296E+03  0.12699999809E+01 0. -1.
</event>
<event>
 5   0  0.3938696E-06  0.1600534E+04  0.7818609E-02  0.8820220E-01
        1   -1    0    0  501    0  0.00000000000E+00  0.00000000000E+00  0.42765190342E+03  0.42765190345E+03  0.50400001928E-02 0. -1.
       -1   -1    0    0    0  501  0.00000000000E+00  0.00000000000E+00 -0.14975425898E+04  0.14975425898E+04  0.50400001928E-02 0.  1.
    10030    2    1    2    0    0  0.00000000000E+00  0.00000000000E+00 -0.10698906864E+04  0.19251944932E+04  0.16005335848E+04 0.  0.
        4    1    3    3  502    0 -0.13379668324E+02  0.10451920040E+03  0.41926977400E+03  0.43231011447E+03  0.12699999809E+01 0. -1.
       -4    1    3    3    0  502  0.13379668324E+02 -0.10451920040E+03 -0.14891604604E+04  0.14928843788E+04  0.12699999809E+01 0.  1.
</event>
<event>
 5   0  0.2788054E-06  0.1651010E+04  0.7818609E-02  0.8789809E-01
        1   -1    0    0  501    0  0.00000000000E+00  0.00000000000E+00  0.14427610353E+04  0.14427610353E+04  0.50400001928E-02 0. -1.
       -1   -1    0    0    0  501  0.00000000000E+00  0.00000000000E+00 -0.47232947955E+03  0.47232947958E+03  0.50400001928E-02 0.  1.
    10030    2    1    2    0    0  0.00000000000E+00  0.00000000000E+00  0.97043155572E+03  0.19150905149E+04  0.16510100774E+04 0.  0.
        3    1    3    3  502    0 -0.74249788524E+03 -0.34330863448E+03  0.61383246658E+03  0.10227190403E+04  0.10100000352E+00 0. -1.
       -3    1    3    3    0  502  0.74249788524E+03  0.34330863448E+03  0.35659908913E+03  0.89237147459E+03  0.10100000352E+00 0.  1.
</event>
<event>
 5   0  0.7971763E-06  0.3236956E+04  0.7818609E-02  0.8179125E-01
        2   -1    0    0  501    0  0.00000000000E+00  0.00000000000E+00  0.26499633857E+04  0.26499633857E+04  0.25500000920E-02 0. -1.
       -2   -1    0    0    0  501  0.00000000000E+00  0.00000000000E+00 -0.98849300238E+03  0.98849300239E+03  0.25500000920E-02 0.  1.
    10030    2    1    2    0    0  0.00000000000E+00  0.00000000000E+00  0.16614703833E+04  0.36384563881E+04  0.32369555223E+04 0.  0.
        1    1    3    3  502    0 -0.55198759123E+03 -0.13605520780E+02 -0.87935073584E+03  0.10383318967E+04  0.50400001928E-02 0.  1.
       -1    1    3    3    0  502  0.55198759123E+03  0.13605520780E+02  0.25408211191E+04  0.26001244914E+04  0.50400001928E-02 0. -1.
</event>
<event>
 5   0  0.8237664E-06  0.3201804E+04  0.7818609E-02  0.8188341E-01
       -2   -1    0    0    0  501  0.00000000000E+00  0.00000000000E+00  0.90195492157E+03  0.90195492157E+03  0.25500000920E-02 0. -1.
        2   -1    0    0  501    0  0.00000000000E+00  0.00000000000E+00 -0.28414803893E+04  0.28414803893E+04  0.25500000920E-02 0.  1.
    10030    2    1    2    0    0  0.00000000000E+00  0.00000000000E+00 -0.19395254678E+04  0.37434353109E+04  0.32018040051E+04 0.  0.
        5    1    3    3  502    0 -0.72134463862E+03  0.40868816651E+03 -0.25709209278E+04  0.27012998005E+04  0.46999998093E+01 0.  1.
       -5    1    3    3    0  502  0.72134463862E+03 -0.40868816651E+03  0.63139546003E+03  0.10421355104E+04  0.46999998093E+01 0. -1.
</event>
<event>
 5   0  0.3938696E-06  0.3152909E+04  0.7818609E-02  0.8201366E-01
        1   -1    0    0  501    0  0.00000000000E+00  0.00000000000E+00  0.21337330110E+04  0.21337330110E+04  0.50400001928E-02 0.  1.
       -1   -1    0    0    0  501  0.00000000000E+00  0.00000000000E+00 -0.11647235329E+04  0.11647235330E+04  0.50400001928E-02 0. -1.
    10030    2    1    2    0    0  0.00000000000E+00  0.00000000000E+00  0.96900947803E+03  0.32984565439E+04  0.31529091652E+04 0.  0.
        4    1    3    3  502    0  0.43213041383E+03  0.55046615511E+03 -0.99331198433E+03  0.12150802416E+04  0.12699999809E+01 0. -1.
       -4    1    3    3    0  502 -0.43213041383E+03 -0.55046615511E+03  0.19623214624E+04  0.20833763023E+04  0.12699999809E+01 0.  1.
</event>
<event>
 5   0  0.7941434E-06  0.3286567E+04  0.7818609E-02  0.8166322E-01
        2   -1    0    0  501    0  0.00000000000E+00  0.00000000000E+00  0.17497675160E+04  0.17497675160E+04  0.25500000920E-02 0. -1.
       -2   -1    0    0    0  501  0.00000000000E+00  0.00000000000E+00 -0.15432799584E+04  0.15432799584E+04  0.25500000920E-02 0.  1.
    10030    2    1    2    0    0  0.00000000000E+00  0.00000000000E+00  0.20648755761E+03  0.32930474745E+04  0.32865672909E+04 0.  0.
        4    1    3    3  502    0 -0.72523133296E+03  0.93141459498E+03 -0.10422013721E+04  0.15746996371E+04  0.12699999809E+01 0.  1.
       -4    1    3    3    0  502  0.72523133296E+03 -0.93141459498E+03  0.12486889297E+04  0.17183478374E+04  0.12699999809E+01 0. -1.
</event>
<event>
 5   0  0.7952307E-06  0.2946631E+04  0.7818609E-02  0.8259137E-01
       -2   -1    0    0    0  501  0.00000000000E+00  0.00000000000E+00  0.14116874217E+04  0.14116874217E+04  0.25500000920E-02 0. -1.
        2   -1    0    0  501    0  0.00000000000E+00  0.00000000000E+00 -0.15376338275E+04  0.15376338275E+04  0.25500000920E-02 0.  1.
    10030    2    1    2    0    0  0.00000000000E+00  0.00000000000E+00 -0.12594640586E+03  0.29493212492E+04  0.29466308445E+04 0.  0.
        2    1    3    3  502    0  0.11121650047E+04  0.13356258149E+03 -0.10208780344E+04  0.15155665350E+04  0.25500000920E-02 0.  1.
       -2    1    3    3    0  502 -0.11121650047E+04 -0.13356258149E+03  0.89493162856E+03  0.14337547142E+04  0.25500000920E-02 0. -1.
</event>
<event>
 5   0  0.2788054E-06  0.3220017E+04  0.7818609E-02  0.8183551E-01
        1   -1    0    0  501    0  0.00000000000E+00  0.00000000000E+00  0.27198643328E+04  0.27198643328E+04  0.50400001928E-02 0.  1.
       -1   -1    0    0    0  501  0.00000000000E+00  0.00000000000E+00 -0.95303538096E+03  0.95303538097E+03  0.50400001928E-02 0. -1.
    10030    2    1    2    0    0  0.00000000000E+00  0.00000000000E+00  0.17668289518E+04  0.36728997137E+04  0.32200167332E+04 0.  0.
        3    1    3    3  502    0 -0.50736098780E+03  0.15240133054E+04  0.10088606810E+04  0.18967950893E+04  0.10100000352E+00 0.  1.
       -3    1    3    3    0  502  0.50736098780E+03 -0.15240133054E+04  0.75796827084E+03  0.17761046244E+04  0.10100000352E+00 0. -1.
</event>
<event>
 5   0  0.7952307E-06  0.2324874E+04  0.7818609E-02  0.8468178E-01
       -2   -1    0    0    0  501  0.00000000000E+00  0.00000000000E+00  0.18187390429E+04  0.18187390429E+04  0.25500000920E-02 0.  1.
        2   -1    0    0  501    0  0.00000000000E+00  0.00000000000E+00 -0.74296493391E+03  0.74296493391E+03  0.25500000920E-02 0. -1.
    10030    2    1    2    0    0  0.00000000000E+00  0.00000000000E+00  0.10757741090E+04  0.25617039768E+04  0.23248736162E+04 0.  0.
        2    1    3    3  502    0 -0.69776223183E+02 -0.97164138066E+03 -0.16099932067E+03  0.98735833171E+03  0.25500000920E-02 0. -1.
       -2    1    3    3    0  502  0.69776223183E+02  0.97164138066E+03  0.12367734297E+04  0.15743456451E+04  0.25500000920E-02 0.  1.
</event>
<event>
 5   0  0.2933646E-06  0.3184109E+04  0.7818609E-02  0.8193027E-01
       -1   -1    0    0    0  501  0.00000000000E+00  0.00000000000E+00  0.14831164302E+04  0.14831164302E+04  0.50400001928E-02 0.  1.
        1   -1    0    0  501    0  0.00000000000E+00  0.00000000000E+00 -0.17089943328E+04  0.17089943328E+04  0.50400001928E-02 0. -1.
    10030    2    1    2    0    0  0.00000000000E+00  0.00000000000E+00 -0.22587790257E+03  0.31921107630E+04  0.31841090271E+04 0.  0.
        2    1    3    3  502    0 -0.14726222574E+04  0.56675906565E+03 -0.32514380395E+03  0.16110712724E+04  0.25500000920E-02 0. -1.
       -2    1    3    3    0  502  0.14726222574E+04 -0.56675906565E+03  0.99265901379E+02  0.15810394906E+04  0.25500000920E-02 0.  1.
</event>
<event>
 5   0  0.2635798E-06  0.2747891E+04  0.7818609E-02  0.8319631E-01
       -1   -1    0    0    0  501  0.00000000000E+00  0.00000000000E+00  0.59989837210E+03  0.59989837212E+03  0.50400001928E-02 0.  1.
        1   -1    0    0  501    0  0.00000000000E+00  0.00000000000E+00 -0.31467428471E+04  0.31467428471E+04  0.50400001928E-02 0. -1.
    10030    2    1    2    0    0  0.00000000000E+00  0.00000000000E+00 -0.25468444750E+04  0.37466412192E+04  0.27478907631E+04 0.  0.
        1    1    3    3  502    0  0.78229349288E+03  0.91355360712E+03 -0.36781060796E+03  0.12577153674E+04  0.50400001928E-02 0.  1.
       -1    1    3    3    0  502 -0.78229349288E+03 -0.91355360712E+03 -0.21790338670E+04  0.24889258518E+04  0.50400001928E-02 0. -1.
</event>
<event>
 5   0  0.7971763E-06  0.3126053E+04  0.7818609E-02  0.8208624E-01
       -2   -1    0    0    0  501  0.00000000000E+00  0.00000000000E+00  0.15668232599E+04  0.15668232599E+04  0.25500000920E-02 0.  1.
        2   -1    0    0  501    0  0.00000000000E+00  0.00000000000E+00 -0.15592394318E+04  0.15592394318E+04  0.25500000920E-02 0. -1.
    10030    2    1    2    0    0  0.00000000000E+00  0.00000000000E+00  0.75838280734E+01  0.31260626916E+04  0.31260534924E+04 0.  0.
        1    1    3    3  502    0  0.79640045703E+03  0.13100923326E+04 -0.30027640986E+03  0.15622936761E+04  0.50400001928E-02 0.  1.
       -1    1    3    3    0  502 -0.79640045703E+03 -0.13100923326E+04  0.30786023793E+03  0.15637690156E+04  0.50400001928E-02 0. -1.
</event>
<event>
 5   0  0.7952307E-06  0.3210611E+04  0.7818609E-02  0.8186021E-01
        2   -1    0    0  501    0  0.00000000000E+00  0.00000000000E+00  0.10077668869E+04  0.10077668869E+04  0.25500000920E-02 0. -1.
       -2   -1    0    0    0  501  0.00000000000E+00  0.00000000000E+00 -0.25571439679E+04  0.25571439679E+04  0.25500000920E-02 0.  1.
    10030    2    1    2    0    0  0.00000000000E+00  0.00000000000E+00 -0.15493770810E+04  0.35649108548E+04  0.32106105437E+04 0.  0.
        2    1    3    3  502    0  0.74173909919E+03 -0.12036623383E+04  0.69490169952E+02  0.14155595359E+04  0.25500000920E-02 0. -1.
       -2    1    3    3    0  502 -0.74173909919E+03  0.12036623383E+04 -0.16188672510E+04  0.21493513189E+04  0.25500000920E-02 0.  1.
</event>
<event>
 5   0  0.2788054E-06  0.3245972E+04  0.7818609E-02  0.8176780E-01
       -1   -1    0    0    0  501  0.00000000000E+00  0.00000000000E+00  0.11322778166E+04  0.11322778166E+04  0.50400001928E-02 0.  1.
        1   -1    0    0  501    0  0.00000000000E+00  0.00000000000E+00 -0.23263583426E+04  0.23263583426E+04  0.50400001928E-02 0. -1.
    10030    2    1    2    0    0  0.00000000000E+00  0.00000000000E+00 -0.11940805260E+04  0.34586361591E+04  0.32459722393E+04 0.  0.
        3    1    3    3  502    0  0.39959704500E+03  0.49952094002E+02  0.10781976176E+04  0.11509487925E+04  0.10100000352E+00 0.  1.
       -3    1    3    3    0  502 -0.39959704500E+03 -0.49952094002E+02 -0.22722781436E+04  0.23076873667E+04  0.10100000352E+00 0. -1.
</event>
<event>
 5   0  0.2933646E-06  0.3239288E+04  0.7818609E-02  0.8178518E-01
       -1   -1    0    0    0  501  0.00000000000E+00  0.00000000000E+00  0.81198975454E+03  0.81198975455E+03  0.50400001928E-02 0. -1.
        1   -1    0    0  501    0  0.00000000000E+00  0.00000000000E+00 -0.32306395574E+04  0.32306395574E+04  0.50400001928E-02 0.  1.
    10030    2    1    2    0    0  0.00000000000E+00  0.00000000000E+00 -0.24186498029E+04  0.40426293120E+04  0.32392877126E+04 0.  0.
        2    1    3    3  502    0  0.98124024149E+03  0.61528348482E+03  0.20363980534E+03  0.11759572052E+04  0.25500000920E-02 0. -1.
       -2    1    3    3    0  502 -0.98124024149E+03 -0.61528348482E+03 -0.26222896082E+04  0.28666721067E+04  0.25500000920E-02 0.  1.
</event>
<event>
 5   0  0.7971763E-06  0.2358248E+04  0.7818609E-02  0.8455302E-01
        2   -1    0    0  501    0  0.00000000000E+00  0.00000000000E+00  0.18660235512E+04  0.18660235512E+04  0.25500000920E-02 0. -1.
       -2   -1    0    0    0  501  0.00000000000E+00  0.00000000000E+00 -0.74507820247E+03  0.74507820248E+03  0.25500000920E-02 0.  1.
    10030    2    1    2    0    0  0.00000000000E+00  0.00000000000E+00  0.11209453488E+04  0.26111017537E+04  0.23582480559E+04 0.  0.
        1    1    3    3  502    0 -0.84188193409E+03  0.73009059083E+03  0.13374560768E+03  0.11223570508E+04  0.50400001928E-02 0.  1.
       -1    1    3    3    0  502  0.84188193409E+03 -0.73009059083E+03  0.98719974108E+03  0.14887447030E+04  0.50400001928E-02 0. -1.
</event>
<event>
 5   0  0.2933646E-06  0.2162969E+04  0.7818609E-02  0.8534001E-01
        1   -1    0    0  501    0  0.00000000000E+00  0.00000000000E+00  0.12806018112E+04  0.12806018112E+04  0.50400001928E-02 0.  1.
       -1   -1    0    0    0  501  0.00000000000E+00  0.00000000000E+00 -0.91332758396E+03  0.91332758397E+03  0.50400001928E-02 0. -1.
    10030    2    1    2    0    0  0.00000000000E+00  0.00000000000E+00  0.36727422721E+03  0.21939293952E+04  0.21629692168E+04 0.  0.
        2    1    3    3  502    0  0.37061838203E+03  0.74157143708E+03 -0.52079832133E+03  0.97903885158E+03  0.25500000920E-02 0. -1.
       -2    1    3    3    0  502 -0.37061838203E+03 -0.74157143708E+03  0.88807254854E+03  0.12148905436E+04  0.25500000920E-02 0.  1.
</event>
<event>
 5   0  0.2788054E-06  0.1769593E+04  0.7818609E-02  0.8722639E-01
       -1   -1    0    0    0  501  0.00000000000E+00  0.00000000000E+00  0.11938004039E+04  0.11938004040E+04  0.50400001928E-02 0.  1.
        1   -1    0    0  501    0  0.00000000000E+00  0.00000000000E+00 -0.65577558473E+03  0.65577558475E+03  0.50400001928E-02 0. -1.
    10030    2    1    2    0    0  0.00000000000E+00  0.00000000000E+00  0.53802481921E+03  0.18495759887E+04  0.17695933521E+04 0.  0.
        3    1    3    3  502    0 -0.57302578496E+03  0.40532908388E+03  0.83207746727E+03  0.10885784943E+04  0.10100000352E+00 0.  1.
       -3    1    3    3    0  502  0.57302578496E+03 -0.40532908388E+03 -0.29405264806E+03  0.76099749442E+03  0.10100000352E+00 0. -1.
</event>
<event>
 5   0  0.7941434E-06  0.3236449E+04  0.7818609E-02  0.8179257E-01
        2   -1    0    0  501    0  0.00000000000E+00  0.00000000000E+00  0.18728953842E+04  0.18728953842E+04  0.25500000920E-02 0.  1.
       -2   -1    0    0    0  501  0.00000000000E+00  0.00000000000E+00 -0.13981833759E+04  0.13981833759E+04  0.25500000920E-02 0. -1.
    10030    2    1    2    0    0  0.00000000000E+00  0.00000000000E+00  0.47471200821E+03  0.32710787601E+04  0.32364494070E+04 0.  0.
        4    1    3    3  502    0 -0.30551276389E+03 -0.76216947747E+03 -0.11719847614E+04  0.14310102219E+04  0.12699999809E+01 0. -1.
       -4    1    3    3    0  502  0.30551276389E+03  0.76216947747E+03  0.16466967696E+04  0.18400685382E+04  0.12699999809E+01 0.  1.
</event>
<event>
 5   0  0.7941434E-06  0.3146873E+04  0.7818609E-02  0.8202990E-01
       -2   -1    0    0    0  501  0.00000000000E+00  0.00000000000E+00  0.10586055420E+04  0.10586055420E+04  0.25500000920E-02 0.  1.
        2   -1    0    0  501    0  0.00000000000E+00  0.00000000000E+00 -0.23386450881E+04  0.23386450881E+04  0.25500000920E-02 0. -1.
    10030    2    1    2    0    0  0.00000000000E+00  0.00000000000E+00 -0.12800395461E+04  0.33972506302E+04  0.31468731472E+04 0.  0.
        4    1    3    3  502    0 -0.11429566334E+04  0.10471932220E+04 -0.34886251473E+03  0.15889210732E+04  0.12699999809E+01 0.  1.
       -4    1    3    3    0  502  0.11429566334E+04 -0.10471932220E+04 -0.93117703136E+03  0.18083295570E+04  0.12699999809E+01 0. -1.
</event>
<event>
 5   0  0.7941434E-06  0.1801075E+04  0.7818609E-02  0.8705728E-01
       -2   -1    0    0    0  501  0.00000000000E+00  0.00000000000E+00  0.74279384630E+03  0.74279384630E+03  0.25500000920E-02 0. -1.
        2   -1    0    0  501    0  0.00000000000E+00  0.00000000000E+00 -0.10917808311E+04  0.10917808311E+04  0.25500000920E-02 0.  1.
    10030    2    1    2    0    0  0.00000000000E+00  0.00000000000E+00 -0.34898698477E+03  0.18345746774E+04  0.18010753264E+04 0.  0.
        4    1    3    3  502    0 -0.43323524855E+03  0.43286444884E+03 -0.84700230199E+03  0.10452171660E+04  0.12699999809E+01 0.  1.
       -4    1    3    3    0  502  0.43323524855E+03 -0.43286444884E+03  0.49801531722E+03  0.78935751136E+03  0.12699999809E+01 0. -1.
</event>
<event>
 5   0  0.7510251E-06  0.3134266E+04  0.7818609E-02  0.8206396E-01
        2   -1    0    0  501    0  0.00000000000E+00  0.00000000000E+00  0.28859934891E+04  0.28859934891E+04  0.25500000920E-02 0. -1.
       -2   -1    0    0    0  501  0.00000000000E+00  0.00000000000E+00 -0.85097389837E+03  0.85097389837E+03  0.25500000920E-02 0.  1.
    10030    2    1    2    0    0  0.00000000000E+00  0.00000000000E+00  0.20350195907E+04  0.37369673875E+04  0.31342655472E+04 0.  0.
        3    1    3    3  502    0 -0.74001272155E+03 -0.88395431497E+03 -0.24818309259E+03  0.11792323421E+04  0.10100000352E+00 0.  1.
       -3    1    3    3    0  502  0.74001272155E+03  0.88395431497E+03  0.22832026833E+04  0.25577350454E+04  0.10100000352E+00 0. -1.
</event>
<event>
 5   0  0.2635798E-06  0.1842548E+04  0.7818609E-02  0.8683994E-01
        1   -1    0    0  501    0  0.00000000000E+00  0.00000000000E+00  0.11166614009E+04  0.11166614009E+04  0.50400001928E-02 0. -1.
       -1   -1    0    0    0  501  0.00000000000E+00  0.00000000000E+00 -0.76007451536E+03  0.76007451538E+03  0.50400001928E-02 0.  1.
    10030    2    1    2    0    0  0.00000000000E+00  0.00000000000E+00  0.35658688554E+03  0.18767359163E+04  0.18425480978E+04 0.  0.
        1    1    3    3  502    0  0.11660691213E+03  0.34383643807E+03  0.10407182823E+04  0.11022319226E+04  0.50400001928E-02 0. -1.
       -1    1    3    3    0  502 -0.11660691213E+03 -0.34383643807E+03 -0.68413139678E+03  0.77450399365E+03  0.50400001928E-02 0.  1.
</event>
<event>
 5   0  0.7952307E-06  0.3175902E+04  0.7818609E-02  0.8195211E-01
        2   -1    0    0  501    0  0.00000000000E+00  0.00000000000E+00  0.15886496151E+04  0.15886496151E+04  0.25500000920E-02 0. -1.
       -2   -1    0    0    0  501  0.00000000000E+00  0.00000000000E+00 -0.15872527715E+04  0.15872527715E+04  0.25500000920E-02 0.  1.
    10030    2    1    2    0    0  0.00000000000E+00  0.00000000000E+00  0.13968435712E+01  0.31759023865E+04  0.31759020794E+04 0.  0.
        2    1    3    3  502    0  0.13078361685E+04 -0.73529136939E+03 -0.51939744935E+03  0.15877224417E+04  0.25500000920E-02 0.  1.
       -2    1    3    3    0  502 -0.13078361685E+04  0.73529136939E+03  0.52079429292E+03  0.15881799448E+04  0.25500000920E-02 0. -1.
</event>
<event>
 5   0  0.7971763E-06  0.3159514E+04  0.7818609E-02  0.8199592E-01
        2   -1    0    0  501    0  0.00000000000E+00  0.00000000000E+00  0.27086808127E+04  0.27086808127E+04  0.25500000920E-02 0.  1.
       -2   -1    0    0    0  501  0.00000000000E+00  0.00000000000E+00 -0.92134602433E+03  0.92134602433E+03  0.25500000920E-02 0. -1.
    10030    2    1    2    0    0  0.00000000000E+00  0.00000000000E+00  0.17873347884E+04  0.36300268371E+04  0.31595140753E+04 0.  0.
        1    1    3    3  502    0 -0.40684845519E+03 -0.13403076190E+04  0.54341025387E+02  0.14017500227E+04  0.50400001928E-02 0. -1.
       -1    1    3    3    0  502  0.40684845519E+03  0.13403076190E+04  0.17329937630E+04  0.22282768144E+04  0.50400001928E-02 0.  1.
</event>
<event>
 5   0  0.2933646E-06  0.3204994E+04  0.7818609E-02  0.8187500E-01
       -1   -1    0    0    0  501  0.00000000000E+00  0.00000000000E+00  0.11174122870E+04  0.11174122870E+04  0.50400001928E-02 0. -1.
        1   -1    0    0  501    0  0.00000000000E+00  0.00000000000E+00 -0.22981633895E+04  0.22981633895E+04  0.50400001928E-02 0.  1.
    10030    2    1    2    0    0  0.00000000000E+00  0.00000000000E+00 -0.11807511025E+04  0.34155756765E+04  0.32049936094E+04 0.  0.
        2    1    3    3  502    0  0.13913382042E+04 -0.77648579842E+03 -0.40813133180E+03  0.16447867271E+04  0.25500000920E-02 0.  1.
       -2    1    3    3    0  502 -0.13913382042E+04  0.77648579842E+03 -0.77261977071E+03  0.17707889495E+04  0.25500000920E-02 0. -1.
</event>
<event>
 5   0  0.2933646E-06  0.2823528E+04  0.7818609E-02  0.8296001E-01
       -1   -1    0    0    0  501  0.00000000000E+00  0.00000000000E+00  0.10738325352E+04  0.10738325352E+04  0.50400001928E-02 0. -1.
        1   -1    0    0  501    0  0.00000000000E+00  0.00000000000E+00 -0.18560410288E+04  0.18560410288E+04  0.50400001928E-02 0.  1.
    10030    2    1    2    0    0  0.00000000000E+00  0.00000000000E+00 -0.78220849361E+03  0.29298735641E+04  0.28235277534E+04 0.  0.
        2    1    3    3  502    0 -0.48848140154E+03 -0.12637726812E+04  0.20499045111E+02  0.13550482207E+04  0.25500000920E-02 0. -1.
       -2    1    3    3    0  502  0.48848140154E+03  0.12637726812E+04 -0.80270753872E+03  0.15748253434E+04  0.25500000920E-02 0.  1.
</event>
<event>
 5   0  0.7971763E-06  0.3070397E+04  0.7818609E-02  0.8223910E-01
        2   -1    0    0  501    0  0.00000000000E+00  0.00000000000E+00  0.20191292725E+04  0.20191292725E+04  0.25500000920E-02 0.  1.
       -2   -1    0    0    0  501  0.00000000000E+00  0.00000000000E+00 -0.11672526738E+04  0.11672526738E+04  0.25500000920E-02 0. -1.
    10030    2    1    2    0    0  0.00000000000E+00  0.00000000000E+00  0.85187659869E+03  0.31863819464E+04  0.30703967445E+04 0.  0.
        1    1    3    3  502    0 -0.20163591025E+03 -0.44988054286E+03 -0.10828687005E+04  0.11898126599E+04  0.50400001928E-02 0. -1.
       -1    1    3    3    0  502  0.20163591025E+03  0.44988054286E+03  0.19347452992E+04  0.19965692865E+04  0.50400001928E-02 0.  1.
</event>
<event>
 5   0  0.7941434E-06  0.3116250E+04  0.7818609E-02  0.8211292E-01
       -2   -1    0    0    0  501  0.00000000000E+00  0.00000000000E+00  0.10865638889E+04  0.10865638889E+04  0.25500000920E-02 0.  1.
        2   -1    0    0  501    0  0.00000000000E+00  0.00000000000E+00 -0.22343396249E+04  0.22343396249E+04  0.25500000920E-02 0. -1.
    10030    2    1    2    0    0  0.00000000000E+00  0.00000000000E+00 -0.11477757360E+04  0.33209035137E+04  0.31162495098E+04 0.  0.
        4    1    3    3  502    0  0.15494573248E+04 -0.13946322208E+02 -0.74814624815E+03  0.17206792039E+04  0.12699999809E+01 0.  1.
       -4    1    3    3    0  502 -0.15494573248E+04  0.13946322208E+02 -0.39962948786E+03  0.16002243098E+04  0.12699999809E+01 0. -1.
</event>
<event>
 5   0  0.7941434E-06  0.3247642E+04  0.7818609E-02  0.8176347E-01
        2   -1    0    0  501    0  0.00000000000E+00  0.00000000000E+00  0.18271159184E+04  0.18271159184E+04  0.25500000920E-02 0. -1.
       -2   -1    0    0    0  501  0.00000000000E+00  0.00000000000E+00 -0.14431460126E+04  0.14431460126E+04  0.25500000920E-02 0.  1.
    10030    2    1    2    0    0  0.00000000000E+00  0.00000000000E+00  0.38396990586E+03  0.32702619310E+04  0.32476422538E+04 0.  0.
        4    1    3    3  502    0  0.43619282037E+03 -0.81315399425E+03  0.15374460824E+04  0.17931050343E+04  0.12699999809E+01 0. -1.
       -4    1    3    3    0  502 -0.43619282037E+03  0.81315399425E+03 -0.11534761765E+04  0.14771568967E+04  0.12699999809E+01 0.  1.
</event>
<event>
 5   0  0.2788054E-06  0.3283279E+04  0.7818609E-02  0.8167163E-01
       -1   -1    0    0    0  501  0.00000000000E+00  0.00000000000E+00  0.14420986074E+04  0.14420986074E+04  0.50400001928E-02 0.  1.
        1   -1    0    0  501    0  0.00000000000E+00  0.00000000000E+00 -0.18687901531E+04  0.18687901531E+04  0.50400001928E-02 0. -1.
    10030    2    1    2    0    0  0.00000000000E+00  0.00000000000E+00 -0.42669154571E+03  0.33108887605E+04  0.32832786524E+04 0.  0.
        3    1    3    3  502    0 -0.56739198229E+03 -0.42919791174E+03  0.12785668022E+04  0.14631738061E+04  0.10100000352E+00 0.  1.
       -3    1    3    3    0  502  0.56739198229E+03  0.42919791174E+03 -0.17052583479E+04  0.18477149543E+04  0.10100000352E+00 0. -1.
</event>
<event>
 5   0  0.4142886E-06  0.3242160E+04  0.7818609E-02  0.8177771E-01
        1   -1    0    0  501    0  0.00000000000E+00  0.00000000000E+00  0.17866326928E+04  0.17866326928E+04  0.50400001928E-02 0. -1.
       -1   -1    0    0    0  501  0.00000000000E+00  0.00000000000E+00 -0.14708674361E+04  0.14708674361E+04  0.50400001928E-02 0.  1.
    10030    2    1    2    0    0  0.00000000000E+00  0.00000000000E+00  0.31576525674E+03  0.32575001289E+04  0.32421596803E+04 0.  0.
        5    1    3    3  502    0  0.28178989067E+03 -0.66940000484E+03  0.16140072620E+04  0.17698992741E+04  0.46999998093E+01 0. -1.
       -5    1    3    3    0  502 -0.28178989067E+03  0.66940000484E+03 -0.12982420052E+04  0.14876008548E+04  0.46999998093E+01 0.  1.
</event>
<event>
 5   0  0.7952307E-06  0.1940078E+04  0.7818609E-02  0.8635160E-01
        2   -1    0    0  501    0  0.00000000000E+00  0.00000000000E+00  0.17663856731E+04  0.17663856731E+04  0.25500000920E-02 0.  1.
       -2   -1    0    0    0  501  0.00000000000E+00  0.00000000000E+00 -0.53271256664E+03  0.53271256664E+03  0.25500000920E-02 0. -1.
    10030    2    1    2    0    0  0.00000000000E+00  0.00000000000E+00  0.12336731064E+04  0.22990982397E+04  0.19400781898E+04 0.  0.
        2    1    3    3  502    0 -0.51075784340E+03 -0.47185490033E+02  0.15925299385E+04  0.16730964258E+04  0.25500000920E-02 0.  1.
       -2    1    3    3    0  502  0.51075784340E+03  0.47185490033E+02 -0.35885683207E+03  0.62600181389E+03  0.25500000920E-02 0. -1.
</event>
<event>
 5   0  0.2933646E-06  0.2586715E+04  0.7818609E-02  0.8372728E-01
        1   -1    0    0  501    0  0.00000000000E+00  0.00000000000E+00  0.22461103738E+04  0.22461103738E+04  0.50400001928E-02 0.  1.
       -1   -1    0    0    0  501  0.00000000000E+00  0.00000000000E+00 -0.74474254062E+03  0.74474254064E+03  0.50400001928E-02 0. -1.
    10030    2    1    2    0    0  0.00000000000E+00  0.00000000000E+00  0.15013678332E+04  0.29908529144E+04  0.25867152501E+04 0.  0.
        2    1    3    3  502    0  0.10271434832E+03  0.60955225832E+03 -0.56288843399E+03  0.83603084997E+03  0.25500000920E-02 0. -1.
       -2    1    3    3    0  502 -0.10271434832E+03 -0.60955225832E+03  0.20642562672E+04  0.21548220645E+04  0.25500000920E-02 0.  1.
</event>
<event>
 5   0  0.2933646E-06  0.1801773E+04  0.7818609E-02  0.8705357E-01
       -1   -1    0    0    0  501  0.00000000000E+00  0.00000000000E+00  0.38093246680E+03  0.38093246683E+03  0.50400001928E-02 0.  1.
        1   -1    0    0  501    0  0.00000000000E+00  0.00000000000E+00 -0.21305518524E+04  0.21305518524E+04  0.50400001928E-02 0. -1.
    10030    2    1    2    0    0  0.00000000000E+00  0.00000000000E+00 -0.17496193856E+04  0.25114843192E+04  0.18017728745E+04 0.  0.
        2    1    3    3  502    0  0.93092089242E+02 -0.85276173752E+03 -0.12583912166E+04  0.15229632865E+04  0.25500000920E-02 0. -1.
       -2    1    3    3    0  502 -0.93092089242E+02  0.85276173752E+03 -0.49122816894E+03  0.98852103266E+03  0.25500000920E-02 0.  1.
</event>
<event>
 5   0  0.2635798E-06  0.2944475E+04  0.7818609E-02  0.8259767E-01
       -1   -1    0    0    0  501  0.00000000000E+00  0.00000000000E+00  0.83893042949E+03  0.83893042951E+03  0.50400001928E-02 0.  1.
        1   -1    0    0  501    0  0.00000000000E+00  0.00000000000E+00 -0.25836265110E+04  0.25836265110E+04  0.50400001928E-02 0. -1.
    10030    2    1    2    0    0  0.00000000000E+00  0.00000000000E+00 -0.17446960815E+04  0.34225569405E+04  0.29444747569E+04 0.  0.
        1    1    3    3  502    0  0.10076179615E+04  0.61639712604E+03 -0.18938047952E+04  0.22319802812E+04  0.50400001928E-02 0. -1.
       -1    1    3    3    0  502 -0.10076179615E+04 -0.61639712604E+03  0.14910871363E+03  0.11905766594E+04  0.50400001928E-02 0.  1.
</event>
<event>
 5   0  0.7952307E-06  0.3096239E+04  0.7818609E-02  0.8216771E-01
        2   -1    0    0  501    0  0.00000000000E+00  0.00000000000E+00  0.82222733901E+03  0.82222733902E+03  0.25500000920E-02 0. -1.
       -2   -1    0    0    0  501  0.00000000000E+00  0.00000000000E+00 -0.29148555406E+04  0.29148555406E+04  0.25500000920E-02 0.  1.
    10030    2    1    2    0    0  0.00000000000E+00  0.00000000000E+00 -0.20926282016E+04  0.37370828796E+04  0.30962389538E+04 0.  0.
        2    1    3    3  502    0  0.14302060011E+04  0.45087850965E+03 -0.15104791953E+04  0.21284567262E+04  0.25500000920E-02 0.  1.
       -2    1    3    3    0  502 -0.14302060011E+04 -0.45087850965E+03 -0.58214900626E+03  0.16086261534E+04  0.25500000920E-02 0. -1.
</event>
<event>
 5   0  0.7941434E-06  0.2804795E+04  0.7818609E-02  0.8301781E-01
       -2   -1    0    0    0  501  0.00000000000E+00  0.00000000000E+00  0.11145248198E+04  0.11145248198E+04  0.25500000920E-02 0. -1.
        2   -1    0    0  501    0  0.00000000000E+00  0.00000000000E+00 -0.17646256045E+04  0.17646256045E+04  0.25500000920E-02 0.  1.
    10030    2    1    2    0    0  0.00000000000E+00  0.00000000000E+00 -0.65010078479E+03  0.28791504243E+04  0.28047952038E+04 0.  0.
        4    1    3    3  502    0 -0.92565360797E+03  0.68923009316E+03  0.49284346751E+03  0.12548980116E+04  0.12699999809E+01 0. -1.
       -4    1    3    3    0  502  0.92565360797E+03 -0.68923009316E+03 -0.11429442523E+04  0.16242524127E+04  0.12699999809E+01 0.  1.
</event>
<event>
 5   0  0.2788054E-06  0.3185562E+04  0.7818609E-02  0.8192641E-01
        1   -1    0    0  501    0  0.00000000000E+00  0.00000000000E+00  0.20523587809E+04  0.20523587809E+04  0.50400001928E-02 0.  1.
       -1   -1    0    0    0  501  0.00000000000E+00  0.00000000000E+00 -0.12361147924E+04  0.12361147924E+04  0.50400001928E-02 0. -1.
    10030    2    1    2    0    0  0.00000000000E+00  0.00000000000E+00  0.81624398844E+03  0.32884735733E+04  0.31855618333E+04 0.  0.
        3    1    3    3  502    0 -0.12298788818E+04  0.28343836877E+03  0.14111129048E+04  0.18931928092E+04  0.10100000352E+00 0.  1.
       -3    1    3    3    0  502  0.12298788818E+04 -0.28343836877E+03 -0.59486891633E+03  0.13952807641E+04  0.10100000352E+00 0. -1.
</event>
<event>
 5   0  0.7971763E-06  0.2793581E+04  0.7818609E-02  0.8305264E-01
        2   -1    0    0  501    0  0.00000000000E+00  0.00000000000E+00  0.27618760398E+04  0.27618760398E+04  0.25500000920E-02 0.  1.
       -2   -1    0    0    0  501  0.00000000000E+00  0.00000000000E+00 -0.70641244993E+03  0.70641244993E+03  0.25500000920E-02 0. -1.
    10030    2    1    2    0    0  0.00000000000E+00  0.00000000000E+00  0.20554635899E+04  0.34682884898E+04  0.27935809419E+04 0.  0.
        1    1    3    3  502    0  0.33039154821E+03  0.11490018401E+04  0.19244327810E+04  0.22655695382E+04  0.50400001928E-02 0.  1.
       -1    1    3    3    0  502 -0.33039154821E+03 -0.11490018401E+04  0.13103080890E+03  0.12027189516E+04  0.50400001928E-02 0. -1.
</event>
<event>
 5   0  0.2933646E-06  0.2049196E+04  0.7818609E-02  0.8583959E-01
       -1   -1    0    0    0  501  0.00000000000E+00  0.00000000000E+00  0.47575678933E+03  0.47575678935E+03  0.50400001928E-02 0.  1.
        1   -1    0    0  501    0  0.00000000000E+00  0.00000000000E+00 -0.22065916173E+04  0.22065916173E+04  0.50400001928E-02 0. -1.
    10030    2    1    2    0    0  0.00000000000E+00  0.00000000000E+00 -0.17308348280E+04  0.26823484067E+04  0.20491958845E+04 0.  0.
        2    1    3    3  502    0  0.37246639679E+02 -0.50931785368E+03 -0.20281308157E+04  0.20914364906E+04  0.25500000920E-02 0. -1.
       -2    1    3    3    0  502 -0.37246639679E+02  0.50931785368E+03  0.29729598777E+03  0.59091191611E+03  0.25500000920E-02 0.  1.
</event>
<event>
 5   0  0.2635798E-06  0.2350271E+04  0.7818609E-02  0.8458359E-01
       -1   -1    0    0    0  501  0.00000000000E+00  0.00000000000E+00  0.99616647164E+03  0.99616647166E+03  0.50400001928E-02 0. -1.
        1   -1    0    0  501    0  0.00000000000E+00  0.00000000000E+00 -0.13862578805E+04  0.13862578805E+04  0.50400001928E-02 0.  1.
    10030    2    1    2    0    0  0.00000000000E+00  0.00000000000E+00 -0.39009140881E+03  0.23824243521E+04  0.23502711517E+04 0.  0.
        1    1    3    3  502    0  0.99986019094E+03  0.44539985329E+02 -0.81929474098E+03  0.12934249435E+04  0.50400001928E-02 0.  1.
       -1    1    3    3    0  502 -0.99986019094E+03 -0.44539985329E+02  0.42920333217E+03  0.10889994087E+04  0.50400001928E-02 0. -1.
</event>
<event>
 5   0  0.2788054E-06  0.2765347E+04  0.7818609E-02  0.8314108E-01
       -1   -1    0    0    0  501  0.00000000000E+00  0.00000000000E+00  0.12107799551E+04  0.12107799551E+04  0.50400001928E-02 0.  1.
        1   -1    0    0  501    0  0.00000000000E+00  0.00000000000E+00 -0.15789710916E+04  0.15789710916E+04  0.50400001928E-02 0. -1.
    10030    2    1    2    0    0  0.00000000000E+00  0.00000000000E+00 -0.36819113646E+03  0.27897510467E+04  0.27653473904E+04 0.  0.
        3    1    3    3  502    0  0.15467487369E+03  0.93892174020E+03  0.82789610711E+03  0.12613129370E+04  0.10100000352E+00 0.  1.
       -3    1    3    3    0  502 -0.15467487369E+03 -0.93892174020E+03 -0.11960872436E+04  0.15284381097E+04  0.10100000352E+00 0. -1.
</event>
<event>
 5   0  0.2635798E-06  0.2023110E+04  0.7818609E-02  0.8595892E-01
        1   -1    0    0  501    0  0.00000000000E+00  0.00000000000E+00  0.11891892388E+04  0.11891892388E+04  0.50400001928E-02 0. -1.
       -1   -1    0    0    0  501  0.00000000000E+00  0.00000000000E+00 -0.86045435120E+03  0.86045435122E+03  0.50400001928E-02 0.  1.
    10030    2    1    2    0    0  0.00000000000E+00  0.00000000000E+00  0.32873488763E+03  0.20496435901E+04  0.20231095423E+04 0.  0.
        1    1    3    3  502    0  0.44017733533E+03 -0.91024561808E+03  0.19542704637E+03  0.10298033318E+04  0.50400001928E-02 0. -1.
       -1    1    3    3    0  502 -0.44017733533E+03  0.91024561808E+03  0.13330784126E+03  0.10198402582E+04  0.50400001928E-02 0.  1.
</event>
<event>
 5   0  0.2635798E-06  0.3134659E+04  0.7818609E-02  0.8206290E-01
        1   -1    0    0  501    0  0.00000000000E+00  0.00000000000E+00  0.11830022421E+04  0.11830022422E+04  0.50400001928E-02 0. -1.
       -1   -1    0    0    0  501  0.00000000000E+00  0.00000000000E+00 -0.20765149653E+04  0.20765149653E+04  0.50400001928E-02 0.  1.
    10030    2    1    2    0    0  0.00000000000E+00  0.00000000000E+00 -0.89351272313E+03  0.32595172074E+04  0.31346590627E+04 0.  0.
        1    1    3    3  502    0 -0.35909526875E+03  0.56783293793E+03  0.10256752120E+04  0.12261293969E+04  0.50400001928E-02 0. -1.
       -1    1    3    3    0  502  0.35909526875E+03 -0.56783293793E+03 -0.19191879352E+04  0.20333878105E+04  0.50400001928E-02 0.  1.
</event>
<event>
 5   0  0.2933646E-06  0.3321219E+04  0.7818609E-02  0.8157517E-01
        1   -1    0    0  501    0  0.00000000000E+00  0.00000000000E+00  0.28644202934E+04  0.28644202934E+04  0.50400001928E-02 0.  1.
       -1   -1    0    0    0  501  0.00000000000E+00  0.00000000000E+00 -0.96271595082E+03  0.96271595083E+03  0.50400001928E-02 0. -1.
    10030    2    1    2    0    0  0.00000000000E+00  0.00000000000E+00  0.19017043425E+04  0.38271362442E+04  0.33212185151E+04 0.  0.
        2    1    3    3  502    0 -0.99454462177E+02  0.72105408970E+03 -0.76909786702E+03  0.10589247940E+04  0.25500000920E-02 0. -1.
       -2    1    3    3    0  502  0.99454462177E+02 -0.72105408970E+03  0.26708022096E+04  0.27682114502E+04  0.25500000920E-02 0.  1.
</event>
<event>
 5   0  0.2635798E-06  0.3185212E+04  0.7818609E-02  0.8192734E-01
        1   -1    0    0  501    0  0.00000000000E+00  0.00000000000E+00  0.24030125090E+04  0.24030125090E+04  0.50400001928E-02 0. -1.
       -1   -1    0    0    0  501  0.00000000000E+00  0.00000000000E+00 -0.10555056194E+04  0.10555056194E+04  0.50400001928E-02 0.  1.
    10030    2    1    2    0    0  0.00000000000E+00  0.00000000000E+00  0.13475068896E+04  0.34585181284E+04  0.31852115827E+04 0.  0.
        1    1    3    3  502    0 -0.10172200087E+04 -0.12043743629E+04  0.91929676111E+03  0.18249275841E+04  0.50400001928E-02 0. -1.
       -1    1    3    3    0  502  0.10172200087E+04  0.12043743629E+04  0.42821012853E+03  0.16335905443E+04  0.50400001928E-02 0.  1.
</event>
<event>
 5   0  0.7952307E-06  0.3210258E+04  0.7818609E-02  0.8186113E-01
        2   -1    0    0  501    0  0.00000000000E+00  0.00000000000E+00  0.20109255214E+04  0.20109255214E+04  0.25500000920E-02 0.  1.
       -2   -1    0    0    0  501  0.00000000000E+00  0.00000000000E+00 -0.12812207415E+04  0.12812207415E+04  0.25500000920E-02 0. -1.
    10030    2    1    2    0    0  0.00000000000E+00  0.00000000000E+00  0.72970477984E+03  0.32921462629E+04  0.32102582374E+04 0.  0.
        2    1    3    3  502    0 -0.73668661164E+03 -0.91808160428E+03  0.14839532555E+04  0.18941220289E+04  0.25500000920E-02 0.  1.
       -2    1    3    3    0  502  0.73668661164E+03  0.91808160428E+03 -0.75424847562E+03  0.13980242340E+04  0.25500000920E-02 0. -1.
</event>
<event>
 5   0  0.2933646E-06  0.3187071E+04  0.7818609E-02  0.8192240E-01
       -1   -1    0    0    0  501  0.00000000000E+00  0.00000000000E+00  0.31732775225E+04  0.31732775225E+04  0.50400001928E-02 0. -1.
        1   -1    0    0  501    0  0.00000000000E+00  0.00000000000E+00 -0.80023097739E+03  0.80023097740E+03  0.50400001928E-02 0.  1.
    10030    2    1    2    0    0  0.00000000000E+00  0.00000000000E+00  0.23730465452E+04  0.39735084999E+04  0.31870707387E+04 0.  0.
        2    1    3    3  502    0  0.44024603164E+03 -0.14302578950E+04  0.18692882343E+04  0.23945130439E+04  0.25500000920E-02 0.  1.
       -2    1    3    3    0  502 -0.44024603164E+03  0.14302578950E+04  0.50375831090E+03  0.15789954561E+04  0.25500000920E-02 0. -1.
</event>
<event>
 5   0  0.4142886E-06  0.2961510E+04  0.7818609E-02  0.8254808E-01
       -1   -1    0    0    0  501  0.00000000000E+00  0.00000000000E+00  0.15457484052E+04  0.15457484052E+04  0.50400001928E-02 0.  1.
        1   -1    0    0  501    0  0.00000000000E+00  0.00000000000E+00 -0.14184947075E+04  0.14184947076E+04  0.50400001928E-02 0. -1.
    10030    2    1    2    0    0  0.00000000000E+00  0.00000000000E+00  0.12725369769E+03  0.29642431128E+04  0.29615103795E+04 0.  0.
        5    1    3    3  502    0 -0.40149557469E+03 -0.16500801878E+03  0.14806264724E+04  0.15429527483E+04  0.46999998093E+01 0.  1.
       -5    1    3    3    0  502  0.40149557469E+03  0.16500801878E+03 -0.13533727747E+04  0.14212903645E+04  0.46999998093E+01 0. -1.
</event>
<event>
 5   0  0.7971763E-06  0.3372263E+04  0.7818609E-02  0.8144748E-01
        2   -1    0    0  501    0  0.00000000000E+00  0.00000000000E+00  0.23905228760E+04  0.23905228760E+04  0.25500000920E-02 0.  1.
       -2   -1    0    0    0  501  0.00000000000E+00  0.00000000000E+00 -0.11892960341E+04  0.11892960341E+04  0.25500000920E-02 0. -1.
    10030    2    1    2    0    0  0.00000000000E+00  0.00000000000E+00  0.12012268418E+04  0.35798189101E+04  0.33722629648E+04 0.  0.
        1    1    3    3  502    0  0.55708419303E+01 -0.10341599785E+04 -0.81308851034E+03  0.13155344241E+04  0.50400001928E-02 0. -1.
       -1    1    3    3    0  502 -0.55708419303E+01  0.10341599785E+04  0.20143153522E+04  0.22642844860E+04  0.50400001928E-02 0.  1.
</event>
<event>
 5   0  0.7971763E-06  0.3368083E+04  0.7818609E-02  0.8145784E-01
       -2   -1    0    0    0  501  0.00000000000E+00  0.00000000000E+00  0.10511336276E+04  0.10511336277E+04  0.25500000920E-02 0. -1.
        2   -1    0    0  501    0  0.00000000000E+00  0.00000000000E+00 -0.26980357861E+04  0.26980357861E+04  0.25500000920E-02 0.  1.
    10030    2    1    2    0    0  0.00000000000E+00  0.00000000000E+00 -0.16469021585E+04  0.37491694138E+04  0.33680832195E+04 0.  0.
        1    1    3    3  502    0 -0.99047036399E+03 -0.95358610998E+03  0.25901610677E+03  0.13990880439E+04  0.50400001928E-02 0. -1.
       -1    1    3    3    0  502  0.99047036399E+03  0.95358610998E+03 -0.19059182653E+04  0.23500813699E+04  0.50400001928E-02 0.  1.
</event>
<event>
 5   0  0.7952307E-06  0.3107414E+04  0.7818609E-02  0.8213706E-01
        2   -1    0    0  501    0  0.00000000000E+00  0.00000000000E+00  0.14975681298E+04  0.14975681298E+04  0.25500000920E-02 0.  1.
       -2   -1    0    0    0  501  0.00000000000E+00  0.00000000000E+00 -0.16119506334E+04  0.16119506334E+04  0.25500000920E-02 0. -1.
    10030    2    1    2    0    0  0.00000000000E+00  0.00000000000E+00 -0.11438250362E+03  0.31095187632E+04  0.31074142919E+04 0.  0.
        2    1    3    3  502    0 -0.21471588490E+03 -0.29282924775E+02  0.14823712526E+04  0.14981271413E+04  0.25500000920E-02 0.  1.
       -2    1    3    3    0  502  0.21471588490E+03  0.29282924775E+02 -0.15967537563E+04  0.16113916219E+04  0.25500000920E-02 0. -1.
</event>
<event>
 5   0  0.8237664E-06  0.3104378E+04  0.7818609E-02  0.8214537E-01
       -2   -1    0    0    0  501  0.00000000000E+00  0.00000000000E+00  0.11870843832E+04  0.11870843832E+04  0.25500000920E-02 0.  1.
        2   -1    0    0  501    0  0.00000000000E+00  0.00000000000E+00 -0.20295869209E+04  0.20295869209E+04  0.25500000920E-02 0. -1.
    10030    2    1    2    0    0  0.00000000000E+00  0.00000000000E+00 -0.84250253776E+03  0.32166713041E+04  0.31043781587E+04 0.  0.
        5    1    3    3  502    0  0.10170716728E+03 -0.15472231643E+04 -0.49470252618E+03  0.16275738224E+04  0.46999998093E+01 0.  1.
       -5    1    3    3    0  502 -0.10170716728E+03  0.15472231643E+04 -0.34780001158E+03  0.15890974816E+04  0.46999998093E+01 0. -1.
</event>
<event>
 5   0  0.3938696E-06  0.3199010E+04  0.7818609E-02  0.8189079E-01
        1   -1    0    0  501    0  0.00000000000E+00  0.00000000000E+00  0.16796748939E+04  0.16796748939E+04  0.50400001928E-02 0. -1.
       -1   -1    0    0    0  501  0.00000000000E+00  0.00000000000E+00 -0.15231620292E+04  0.15231620292E+04  0.50400001928E-02 0.  1.
    10030    2    1    2    0    0  0.00000000000E+00  0.00000000000E+00  0.15651286474E+03  0.32028369231E+04  0.31990104844E+04 0.  0.
        4    1    3    3  502    0 -0.25887425532E+03 -0.11581831101E+04  0.11519249969E+04  0.16538853673E+04  0.12699999809E+01 0. -1.
       -4    1    3    3    0  502  0.25887425532E+03  0.11581831101E+04 -0.99541213213E+03  0.15489515559E+04  0.12699999809E+01 0.  1.
</event>
<event>
 5   0  0.7971763E-06  0.3154606E+04  0.7818609E-02  0.8200910E-01
        2   -1    0    0  501    0  0.00000000000E+00  0.00000000000E+00  0.83587323843E+03  0.83587323844E+03  0.25500000920E-02 0.  1.
       -2   -1    0    0    0  501  0.00000000000E+00  0.00000000000E+00 -0.29763891591E+04  0.29763891591E+04  0.25500000920E-02 0. -1.
    10030    2    1    2    0    0  0.00000000000E+00  0.00000000000E+00 -0.21405159206E+04  0.38122623975E+04  0.31546055508E+04 0.  0.
        1    1    3    3  502    0 -0.58207696936E+03  0.15937987428E+03 -0.28313460713E+04  0.28949501063E+04  0.50400001928E-02 0. -1.
       -1    1    3    3    0  502  0.58207696936E+03 -0.15937987428E+03  0.69083015063E+03  0.91731229122E+03  0.50400001928E-02 0.  1.
</event>
<event>
 5   0  0.2635798E-06  0.2171306E+04  0.7818609E-02  0.8530467E-01
        1   -1    0    0  501    0  0.00000000000E+00  0.00000000000E+00  0.16931803820E+04  0.16931803820E+04  0.50400001928E-02 0. -1.
       -1   -1    0    0    0  501  0.00000000000E+00  0.00000000000E+00 -0.69611130262E+03  0.69611130263E+03  0.50400001928E-02 0.  1.
    10030    2    1    2    0    0  0.00000000000E+00  0.00000000000E+00  0.99706907942E+03  0.23892916847E+04  0.21713055992E+04 0.  0.
        1    1    3    3  502    0  0.70912570706E+03  0.54707195898E+03 -0.17665830070E+03  0.91288287964E+03  0.50400001928E-02 0.  1.
       -1    1    3    3    0  502 -0.70912570706E+03 -0.54707195898E+03  0.11737273801E+04  0.14764088050E+04  0.50400001928E-02 0. -1.
</event>
<event>
 5   0  0.2933646E-06  0.3212266E+04  0.7818609E-02  0.8185585E-01
       -1   -1    0    0    0  501  0.00000000000E+00  0.00000000000E+00  0.16181679188E+04  0.16181679188E+04  0.50400001928E-02 0.  1.
        1   -1    0    0  501    0  0.00000000000E+00  0.00000000000E+00 -0.15941874597E+04  0.15941874597E+04  0.50400001928E-02 0. -1.
    10030    2    1    2    0    0  0.00000000000E+00  0.00000000000E+00  0.23980459108E+02  0.32123553785E+04  0.32122658694E+04 0.  0.
        2    1    3    3  502    0 -0.50186049748E+03 -0.44479189629E+03 -0.14474884162E+04  0.15952825784E+04  0.25500000920E-02 0. -1.
       -2    1    3    3    0  502  0.50186049748E+03  0.44479189629E+03  0.14714688753E+04  0.16170728001E+04  0.25500000920E-02 0.  1.
</event>
<event>
 5   0  0.2788054E-06  0.2051923E+04  0.7818609E-02  0.8582723E-01
       -1   -1    0    0    0  501  0.00000000000E+00  0.00000000000E+00  0.91038010212E+03  0.91038010213E+03  0.50400001928E-02 0.  1.
        1   -1    0    0  501    0  0.00000000000E+00  0.00000000000E+00 -0.11562166707E+04  0.11562166707E+04  0.50400001928E-02 0. -1.
    10030    2    1    2    0    0  0.00000000000E+00  0.00000000000E+00 -0.24583656862E+03  0.20665967729E+04  0.20519226601E+04 0.  0.
        3    1    3    3  502    0 -0.41484290169E+03  0.77041077174E+03  0.41660779334E+03  0.96911787413E+03  0.10100000352E+00 0.  1.
       -3    1    3    3    0  502  0.41484290169E+03 -0.77041077174E+03 -0.66244436196E+03  0.10974788987E+04  0.10100000352E+00 0. -1.
</event>
<event>
 5   0  0.2580875E-06  0.1865941E+04  0.7818609E-02  0.8671998E-01
        3   -1    0    0  501    0  0.00000000000E+00  0.00000000000E+00  0.62877523853E+03  0.62877524664E+03  0.10100000352E+00 0. -1.
       -3   -1    0    0    0  501  0.00000000000E+00  0.00000000000E+00 -0.13843322181E+04  0.13843322218E+04  0.10100000352E+00 0.  1.
    10030    2    1    2    0    0  0.00000000000E+00  0.00000000000E+00 -0.75555697958E+03  0.20131074684E+04  0.18659408699E+04 0.  0.
        4    1    3    3  502    0  0.75515740678E+03  0.53418199679E+03 -0.50911336596E+03  0.10558461758E+04  0.12699999809E+01 0.  1.
       -4    1    3    3    0  502 -0.75515740678E+03 -0.53418199679E+03 -0.24644361361E+03  0.95726129260E+03  0.12699999809E+01 0. -1.
</event>
<event>
 5   0  0.2933646E-06  0.3187588E+04  0.7818609E-02  0.8192103E-01
       -1   -1    0    0    0  501  0.00000000000E+00  0.00000000000E+00  0.15839095133E+04  0.15839095133E+04  0.50400001928E-02 0.  1.
        1   -1    0    0  501    0  0.00000000000E+00  0.00000000000E+00 -0.16037397140E+04  0.16037397140E+04  0.50400001928E-02 0. -1.
    10030    2    1    2    0    0  0.00000000000E+00  0.00000000000E+00 -0.19830200679E+02  0.31876492273E+04  0.31875875454E+04 0.  0.
        2    1    3    3  502    0  0.12248748543E+04 -0.95737664563E+03 -0.36104885137E+03  0.15960089985E+04  0.25500000920E-02 0.  1.
       -2    1    3    3    0  502 -0.12248748543E+04  0.95737664563E+03  0.34121865070E+03  0.15916402288E+04  0.25500000920E-02 0. -1.
</event>
<event>
 5   0  0.7971763E-06  0.2891419E+04  0.7818609E-02  0.8275435E-01
       -2   -1    0    0    0  501  0.00000000000E+00  0.00000000000E+00  0.85386525014E+03  0.85386525014E+03  0.25500000920E-02 0. -1.
        2   -1    0    0  501    0  0.00000000000E+00  0.00000000000E+00 -0.24477823523E+04  0.24477823523E+04  0.25500000920E-02 0.  1.
    10030    2    1    2    0    0  0.00000000000E+00  0.00000000000E+00 -0.15939171022E+04  0.33016476025E+04  0.28914192298E+04 0.  0.
        1    1    3    3  502    0 -0.72285199487E+03  0.11501915907E+04 -0.13617214463E+04  0.19234710810E+04  0.50400001928E-02 0. -1.
       -1    1    3    3    0  502  0.72285199487E+03 -0.11501915907E+04 -0.23219565590E+03  0.13781765215E+04  0.50400001928E-02 0.  1.
</event>
<event>
 5   0  0.7510251E-06  0.1877366E+04  0.7818609E-02  0.8666206E-01
        2   -1    0    0  501    0  0.00000000000E+00  0.00000000000E+00  0.12103437458E+04  0.12103437458E+04  0.25500000920E-02 0. -1.
       -2   -1    0    0    0  501  0.00000000000E+00  0.00000000000E+00 -0.72799610917E+03  0.72799610918E+03  0.25500000920E-02 0.  1.
    10030    2    1    2    0    0  0.00000000000E+00  0.00000000000E+00  0.48234763667E+03  0.19383398550E+04  0.18773657478E+04 0.  0.
        3    1    3    3  502    0  0.79454458372E+03 -0.86268620649E+02 -0.26713934771E+03  0.84267835603E+03  0.10100000352E+00 0.  1.
       -3    1    3    3    0  502 -0.79454458372E+03  0.86268620649E+02  0.74948698438E+03  0.10956614990E+04  0.10100000352E+00 0. -1.
</event>
<event>
 5   0  0.2635798E-06  0.3176583E+04  0.7818609E-02  0.8195029E-01
       -1   -1    0    0    0  501  0.00000000000E+00  0.00000000000E+00  0.82783685000E+03  0.82783685001E+03  0.50400001928E-02 0.  1.
        1   -1    0    0  501    0  0.00000000000E+00  0.00000000000E+00 -0.30473039124E+04  0.30473039124E+04  0.50400001928E-02 0. -1.
    10030    2    1    2    0    0  0.00000000000E+00  0.00000000000E+00 -0.22194670624E+04  0.38751407624E+04  0.31765833670E+04 0.  0.
        1    1    3    3  502    0 -0.25281662393E+03  0.62246753751E+03  0.64595515560E+03  0.93200866072E+03  0.50400001928E-02 0.  1.
       -1    1    3    3    0  502  0.25281662393E+03 -0.62246753751E+03 -0.28654222180E+04  0.29431321017E+04  0.50400001928E-02 0. -1.
</event>
<event>
 5   0  0.2933646E-06  0.3176102E+04  0.7818609E-02  0.8195157E-01
       -1   -1    0    0    0  501  0.00000000000E+00  0.00000000000E+00  0.87598855912E+03  0.87598855913E+03  0.50400001928E-02 0.  1.
        1   -1    0    0  501    0  0.00000000000E+00  0.00000000000E+00 -0.28789257819E+04  0.28789257819E+04  0.50400001928E-02 0. -1.
    10030    2    1    2    0    0  0.00000000000E+00  0.00000000000E+00 -0.20029372228E+04  0.37549143411E+04  0.31761020434E+04 0.  0.
        2    1    3    3  502    0  0.47704858385E+03 -0.92650487592E+02  0.78592263440E+03  0.92403130438E+03  0.25500000920E-02 0.  1.
       -2    1    3    3    0  502 -0.47704858385E+03  0.92650487592E+02 -0.27888598572E+04  0.28308830367E+04  0.25500000920E-02 0. -1.
</event>
<event>
 5   0  0.2635798E-06  0.3116217E+04  0.7818609E-02  0.8211301E-01
        1   -1    0    0  501    0  0.00000000000E+00  0.00000000000E+00  0.13995953211E+04  0.13995953211E+04  0.50400001928E-02 0. -1.
       -1   -1    0    0    0  501  0.00000000000E+00  0.00000000000E+00 -0.17345748645E+04  0.17345748646E+04  0.50400001928E-02 0.  1.
    10030    2    1    2    0    0  0.00000000000E+00  0.00000000000E+00 -0.33497954349E+03  0.31341701856E+04  0.31162174921E+04 0.  0.
        1    1    3    3  502    0 -0.57885307616E+03 -0.28447277189E+03  0.12590280493E+04  0.14146191257E+04  0.50400001928E-02 0. -1.
       -1    1    3    3    0  502  0.57885307616E+03  0.28447277189E+03 -0.15940075928E+04  0.17195510599E+04  0.50400001928E-02 0.  1.
</event>
<event>
 5   0  0.3938696E-06  0.3109908E+04  0.7818609E-02  0.8213024E-01
        1   -1    0    0  501    0  0.00000000000E+00  0.00000000000E+00  0.16622578510E+04  0.16622578510E+04  0.50400001928E-02 0.  1.
       -1   -1    0    0    0  501  0.00000000000E+00  0.00000000000E+00 -0.14545767815E+04  0.14545767815E+04  0.50400001928E-02 0. -1.
    10030    2    1    2    0    0  0.00000000000E+00  0.00000000000E+00  0.20768106948E+03  0.31168346325E+04  0.31099078281E+04 0.  0.
        4    1    3    3  502    0  0.42340311061E+03 -0.44198076024E+02  0.16027171331E+04  0.16582905311E+04  0.12699999809E+01 0.  1.
       -4    1    3    3    0  502 -0.42340311061E+03  0.44198076024E+02 -0.13950360636E+04  0.14585441014E+04  0.12699999809E+01 0. -1.
</event>
<event>
 5   0  0.4142886E-06  0.2216093E+04  0.7818609E-02  0.8511759E-01
        1   -1    0    0  501    0  0.00000000000E+00  0.00000000000E+00  0.10746623368E+04  0.10746623368E+04  0.50400001928E-02 0. -1.
       -1   -1    0    0    0  501  0.00000000000E+00  0.00000000000E+00 -0.11424679640E+04  0.11424679640E+04  0.50400001928E-02 0.  1.
    10030    2    1    2    0    0  0.00000000000E+00  0.00000000000E+00 -0.67805627240E+02  0.22171303008E+04  0.22160932218E+04 0.  0.
        5    1    3    3  502    0  0.72117471766E+02  0.49334055717E+03  0.95608507924E+03  0.10782887386E+04  0.46999998093E+01 0. -1.
       -5    1    3    3    0  502 -0.72117471766E+02 -0.49334055717E+03 -0.10238907065E+04  0.11388415622E+04  0.46999998093E+01 0.  1.
</event>
<event>
 5   0  0.7971763E-06  0.3181524E+04  0.7818609E-02  0.8193714E-01
        2   -1    0    0  501    0  0.00000000000E+00  0.00000000000E+00  0.22447398366E+04  0.22447398366E+04  0.25500000920E-02 0. -1.
       -2   -1    0    0    0  501  0.00000000000E+00  0.00000000000E+00 -0.11273129558E+04  0.11273129558E+04  0.25500000920E-02 0.  1.
    10030    2    1    2    0    0  0.00000000000E+00  0.00000000000E+00  0.11174268807E+04  0.33720527924E+04  0.31815243518E+04 0.  0.
        1    1    3    3  502    0  0.93949877629E+03 -0.72802040773E+03  0.16793154348E+04  0.20573701646E+04  0.50400001928E-02 0. -1.
       -1    1    3    3    0  502 -0.93949877629E+03  0.72802040773E+03 -0.56188855401E+03  0.13146826278E+04  0.50400001928E-02 0.  1.
</event>
<event>
 5   0  0.2580875E-06  0.2163201E+04  0.7818609E-02  0.8533903E-01
       -3   -1    0    0    0  501  0.00000000000E+00  0.00000000000E+00  0.14730871408E+04  0.14730871443E+04  0.10100000352E+00 0. -1.
        3   -1    0    0  501    0  0.00000000000E+00  0.00000000000E+00 -0.79415517085E+03  0.79415517727E+03  0.10100000352E+00 0.  1.
    10030    2    1    2    0    0  0.00000000000E+00  0.00000000000E+00  0.67893196998E+03  0.22672423216E+04  0.21632011291E+04 0.  0.
        3    1    3    3  502    0  0.91242058577E+03 -0.31417939815E+03 -0.17253692914E+03  0.98030047520E+03  0.10100000352E+00 0.  1.
       -3    1    3    3    0  502 -0.91242058577E+03  0.31417939815E+03  0.85146889912E+03  0.12869418464E+04  0.10100000352E+00 0. -1.
</event>
<event>
 5   0  0.7952307E-06  0.1987111E+04  0.7818609E-02  0.8612670E-01
        2   -1    0    0  501    0  0.00000000000E+00  0.00000000000E+00  0.22759770976E+04  0.22759770976E+04  0.25500000920E-02 0. -1.
       -2   -1    0    0    0  501  0.00000000000E+00  0.00000000000E+00 -0.43372701006E+03  0.43372701007E+03  0.25500000920E-02 0.  1.
    10030    2    1    2    0    0  0.00000000000E+00  0.00000000000E+00  0.18422500875E+04  0.27097041077E+04  0.19871112113E+04 0.  0.
        2    1    3    3  502    0 -0.43492310084E+03  0.46452928401E+03  0.19616163967E+04  0.20622522754E+04  0.25500000920E-02 0. -1.
       -2    1    3    3    0  502  0.43492310084E+03 -0.46452928401E+03 -0.11936630922E+03  0.64745183228E+03  0.25500000920E-02 0.  1.
</event>
<event>
 5   0  0.3938696E-06  0.1963707E+04  0.7818609E-02  0.8623779E-01
        1   -1    0    0  501    0  0.00000000000E+00  0.00000000000E+00  0.12096168932E+04  0.12096168933E+04  0.50400001928E-02 0.  1.
       -1   -1    0    0    0  501  0.00000000000E+00  0.00000000000E+00 -0.79697637846E+03  0.79697637847E+03  0.50400001928E-02 0. -1.
    10030    2    1    2    0    0  0.00000000000E+00  0.00000000000E+00  0.41264051479E+03  0.20065932717E+04  0.19637067917E+04 0.  0.
        4    1    3    3  502    0 -0.52388222251E+03 -0.82232122243E+03  0.88167577999E+02  0.97899944363E+03  0.12699999809E+01 0. -1.
       -4    1    3    3    0  502  0.52388222251E+03  0.82232122243E+03  0.32447293679E+03  0.10275938281E+04  0.12699999809E+01 0.  1.
</event>
<event>
 5   0  0.7510251E-06  0.3496831E+04  0.7818609E-02  0.8114541E-01
        2   -1    0    0  501    0  0.00000000000E+00  0.00000000000E+00  0.19660229376E+04  0.19660229376E+04  0.25500000920E-02 0.  1.
       -2   -1    0    0    0  501  0.00000000000E+00  0.00000000000E+00 -0.15548939474E+04  0.15548939474E+04  0.25500000920E-02 0. -1.
    10030    2    1    2    0    0  0.00000000000E+00  0.00000000000E+00  0.41112899018E+03  0.35209168850E+04  0.34968312320E+04 0.  0.
        3    1    3    3  502    0  0.10039274870E+04  0.11301309868E+04 -0.67906009566E+03  0.16571629583E+04  0.10100000352E+00 0. -1.
       -3    1    3    3    0  502 -0.10039274870E+04 -0.11301309868E+04  0.10901890858E+04  0.18637539268E+04  0.10100000352E+00 0.  1.
</event>
<event>
 5   0  0.2635798E-06  0.3200590E+04  0.7818609E-02  0.8188661E-01
       -1   -1    0    0    0  501  0.00000000000E+00  0.00000000000E+00  0.14871848262E+04  0.14871848262E+04  0.50400001928E-02 0.  1.
        1   -1    0    0  501    0  0.00000000000E+00  0.00000000000E+00 -0.17220076374E+04  0.17220076374E+04  0.50400001928E-02 0. -1.
    10030    2    1    2    0    0  0.00000000000E+00  0.00000000000E+00 -0.23482281121E+03  0.32091924636E+04  0.32005897138E+04 0.  0.
        1    1    3    3  502    0  0.43506765673E+03 -0.50417223047E+03  0.13416528035E+04  0.14978336854E+04  0.50400001928E-02 0.  1.
       -1    1    3    3    0  502 -0.43506765673E+03  0.50417223047E+03 -0.15764756147E+04  0.17113587782E+04  0.50400001928E-02 0. -1.
</event>
<event>
 5   0  0.7510251E-06  0.3100983E+04  0.7818609E-02  0.8215468E-01
       -2   -1    0    0    0  501  0.00000000000E+00  0.00000000000E+00  0.11698321381E+04  0.11698321381E+04  0.25500000920E-02 0. -1.
        2   -1    0    0  501    0  0.00000000000E+00  0.00000000000E+00 -0.20550164945E+04  0.20550164945E+04  0.25500000920E-02 0.  1.
    10030    2    1    2    0    0  0.00000000000E+00  0.00000000000E+00 -0.88518435631E+03  0.32248486326E+04  0.31009832890E+04 0.  0.
        3    1    3    3  502    0  0.13679533521E+04 -0.68068087028E+03 -0.16862763151E+03  0.15372241570E+04  0.10100000352E+00 0.  1.
       -3    1    3    3    0  502 -0.13679533521E+04  0.68068087028E+03 -0.71655672480E+03  0.16876244756E+04  0.10100000352E+00 0. -1.
</event>
<event>
 5   0  0.4142886E-06  0.3230147E+04  0.7818609E-02  0.8180901E-01
       -1   -1    0    0    0  501  0.00000000000E+00  0.00000000000E+00  0.10720317777E+04  0.10720317777E+04  0.50400001928E-02 0.  1.
        1   -1    0    0  501    0  0.00000000000E+00  0.00000000000E+00 -0.24331943505E+04  0.24331943506E+04  0.50400001928E-02 0. -1.
    10030    2    1    2    0    0  0.00000000000E+00  0.00000000000E+00 -0.13611625728E+04  0.35052261283E+04  0.32301465386E+04 0.  0.
        5    1    3    3  502    0 -0.85861799333E+03 -0.13286798700E+04 -0.10335912543E+04  0.18896952205E+04  0.46999998093E+01 0. -1.
       -5    1    3    3    0  502  0.85861799333E+03  0.13286798700E+04 -0.32757131850E+03  0.16155309078E+04  0.46999998093E+01 0.  1.
</event>
<event>
 5   0  0.2580875E-06  0.3124915E+04  0.7818609E-02  0.8208933E-01
       -3   -1    0    0    0  501  0.00000000000E+00  0.00000000000E+00  0.27405138121E+04  0.27405138140E+04  0.10100000352E+00 0.  1.
        3   -1    0    0  501    0  0.00000000000E+00  0.00000000000E+00 -0.89080841610E+03  0.89080842182E+03  0.10100000352E+00 0. -1.
    10030    2    1    2    0    0  0.00000000000E+00  0.00000000000E+00  0.18497053960E+04  0.36313222358E+04  0.31249145793E+04 0.  0.
        4    1    3    3  502    0  0.55091871182E+03 -0.90452153365E+03  0.22597500778E+04  0.24956247031E+04  0.12699999809E+01 0.  1.
       -4    1    3    3    0  502 -0.55091871182E+03  0.90452153365E+03 -0.41004468175E+03  0.11356975327E+04  0.12699999809E+01 0. -1.
</event>
<event>
 5   0  0.2788054E-06  0.1683602E+04  0.7818609E-02  0.8770772E-01
       -1   -1    0    0    0  501  0.00000000000E+00  0.00000000000E+00  0.76478367323E+03  0.76478367324E+03  0.50400001928E-02 0. -1.
        1   -1    0    0  501    0  0.00000000000E+00  0.00000000000E+00 -0.92657479461E+03  0.92657479462E+03  0.50400001928E-02 0.  1.
    10030    2    1    2    0    0  0.00000000000E+00  0.00000000000E+00 -0.16179112138E+03  0.16913584679E+04  0.16836024174E+04 0.  0.
        3    1    3    3  502    0 -0.69323835494E+03 -0.47203412986E+03 -0.82184661207E+01  0.83872712481E+03  0.10100000352E+00 0. -1.
       -3    1    3    3    0  502  0.69323835494E+03  0.47203412986E+03 -0.15357265526E+03  0.85263134305E+03  0.10100000352E+00 0.  1.
</event>
<event>
 5   0  0.8237664E-06  0.3189607E+04  0.7818609E-02  0.8191567E-01
       -2   -1    0    0    0  501  0.00000000000E+00  0.00000000000E+00  0.14751736759E+04  0.14751736759E+04  0.25500000920E-02 0.  1.
        2   -1    0    0  501    0  0.00000000000E+00  0.00000000000E+00 -0.17241348522E+04  0.17241348522E+04  0.25500000920E-02 0. -1.
    10030    2    1    2    0    0  0.00000000000E+00  0.00000000000E+00 -0.24896117628E+03  0.31993085281E+04  0.31896070903E+04 0.  0.
        5    1    3    3  502    0 -0.66874130232E+03  0.82648832819E+03 -0.13168259322E+04  0.16924392195E+04  0.46999998093E+01 0. -1.
       -5    1    3    3    0  502  0.66874130232E+03 -0.82648832819E+03  0.10678647559E+04  0.15068693086E+04  0.46999998093E+01 0.  1.
</event>
<event>
 5   0  0.7971763E-06  0.3160070E+04  0.7818609E-02  0.8199443E-01
       -2   -1    0    0    0  501  0.00000000000E+00  0.00000000000E+00  0.12095537082E+04  0.12095537082E+04  0.25500000920E-02 0.  1.
        2   -1    0    0  501    0  0.00000000000E+00  0.00000000000E+00 -0.20639927940E+04  0.20639927940E+04  0.25500000920E-02 0. -1.
    10030    2    1    2    0    0  0.00000000000E+00  0.00000000000E+00 -0.85443908578E+03  0.32735465022E+04  0.31600697067E+04 0.  0.
        1    1    3    3  502    0 -0.12943965276E+02  0.75133995294E+03  0.10125944915E+04  0.12609626780E+04  0.50400001928E-02 0.  1.
       -1    1    3    3    0  502  0.12943965276E+02 -0.75133995294E+03 -0.18670335772E+04  0.20125838243E+04  0.50400001928E-02 0. -1.
</event>
<event>
 5   0  0.7971763E-06  0.1615153E+04  0.7818609E-02  0.8811293E-01
       -2   -1    0    0    0  501  0.00000000000E+00  0.00000000000E+00  0.30458747862E+03  0.30458747863E+03  0.25500000920E-02 0. -1.
        2   -1    0    0  501    0  0.00000000000E+00  0.00000000000E+00 -0.21411904387E+04  0.21411904387E+04  0.25500000920E-02 0.  1.
    10030    2    1    2    0    0  0.00000000000E+00  0.00000000000E+00 -0.18366029600E+04  0.24457779173E+04  0.16151529921E+04 0.  0.
        1    1    3    3  502    0 -0.78248732116E+03  0.19652775153E+03 -0.97227054377E+03  0.12634158362E+04  0.50400001928E-02 0.  1.
       -1    1    3    3    0  502  0.78248732116E+03 -0.19652775153E+03 -0.86433241627E+03  0.11823620811E+04  0.50400001928E-02 0. -1.
</event>
<event>
 5   0  0.2933646E-06  0.3172951E+04  0.7818609E-02  0.8195998E-01
       -1   -1    0    0    0  501  0.00000000000E+00  0.00000000000E+00  0.14509235127E+04  0.14509235127E+04  0.50400001928E-02 0.  1.
        1   -1    0    0  501    0  0.00000000000E+00  0.00000000000E+00 -0.17346908352E+04  0.17346908352E+04  0.50400001928E-02 0. -1.
    10030    2    1    2    0    0  0.00000000000E+00  0.00000000000E+00 -0.28376732257E+03  0.31856143479E+04  0.31729505007E+04 0.  0.
        2    1    3    3  502    0 -0.98510436566E+03 -0.71973545537E+02 -0.13883268627E+04  0.17038375158E+04  0.25500000920E-02 0. -1.
       -2    1    3    3    0  502  0.98510436566E+03  0.71973545537E+02  0.11045595401E+04  0.14817768321E+04  0.25500000920E-02 0.  1.
</event>
<event>
 5   0  0.2933646E-06  0.1639963E+04  0.7818609E-02  0.8796367E-01
        1   -1    0    0  501    0  0.00000000000E+00  0.00000000000E+00  0.95053225638E+03  0.95053225639E+03  0.50400001928E-02 0. -1.
       -1   -1    0    0    0  501  0.00000000000E+00  0.00000000000E+00 -0.70736085794E+03  0.70736085795E+03  0.50400001928E-02 0.  1.
    10030    2    1    2    0    0  0.00000000000E+00  0.00000000000E+00  0.24317139844E+03  0.16578931143E+04  0.16399625757E+04 0.  0.
        2    1    3    3  502    0  0.67779701779E+03  0.29606431164E+03 -0.23627110852E+03  0.77645792589E+03  0.25500000920E-02 0.  1.
       -2    1    3    3    0  502 -0.67779701779E+03 -0.29606431164E+03  0.47944250697E+03  0.88143518845E+03  0.25500000920E-02 0. -1.
</event>
<event>
 5   0  0.7952307E-06  0.3091279E+04  0.7818609E-02  0.8218135E-01
        2   -1    0    0  501    0  0.00000000000E+00  0.00000000000E+00  0.26339182839E+04  0.26339182839E+04  0.25500000920E-02 0. -1.
       -2   -1    0    0    0  501  0.00000000000E+00  0.00000000000E+00 -0.90701422246E+03  0.90701422247E+03  0.25500000920E-02 0.  1.
    10030    2    1    2    0    0  0.00000000000E+00  0.00000000000E+00  0.17269040615E+04  0.35409325064E+04  0.30912789226E+04 0.  0.
        2    1    3    3  502    0 -0.88582373612E+03  0.12405641946E+04  0.11562016467E+04  0.19132395198E+04  0.25500000920E-02 0.  1.
       -2    1    3    3    0  502  0.88582373612E+03 -0.12405641946E+04  0.57070241478E+03  0.16276929866E+04  0.25500000920E-02 0. -1.
</event>
<event>
 5   0  0.2635798E-06  0.3249362E+04  0.7818609E-02  0.8175901E-01
        1   -1    0    0  501    0  0.00000000000E+00  0.00000000000E+00  0.13163653899E+04  0.13163653900E+04  0.50400001928E-02 0. -1.
       -1   -1    0    0    0  501  0.00000000000E+00  0.00000000000E+00 -0.20052096297E+04  0.20052096297E+04  0.50400001928E-02 0.  1.
    10030    2    1    2    0    0  0.00000000000E+00  0.00000000000E+00 -0.68884423977E+03  0.33215750197E+04  0.32493621258E+04 0.  0.
        1    1    3    3  502    0  0.58562887800E+03  0.55282019941E+03 -0.17868146267E+04  0.19599178212E+04  0.50400001928E-02 0.  1.
       -1    1    3    3    0  502 -0.58562887800E+03 -0.55282019941E+03  0.10979703869E+04  0.13616571985E+04  0.50400001928E-02 0. -1.
</event>
<event>
 5   0  0.2788054E-06  0.3243181E+04  0.7818609E-02  0.8177505E-01
       -1   -1    0    0    0  501  0.00000000000E+00  0.00000000000E+00  0.11471763677E+04  0.11471763677E+04  0.50400001928E-02 0. -1.
        1   -1    0    0  501    0  0.00000000000E+00  0.00000000000E+00 -0.22921979553E+04  0.22921979553E+04  0.50400001928E-02 0.  1.
    10030    2    1    2    0    0  0.00000000000E+00  0.00000000000E+00 -0.11450215876E+04  0.34393743230E+04  0.32431807377E+04 0.  0.
        3    1    3    3  502    0  0.15748921676E+04  0.38483986268E+03 -0.53626337862E+03  0.17076198292E+04  0.10100000352E+00 0. -1.
       -3    1    3    3    0  502 -0.15748921676E+04 -0.38483986268E+03 -0.60875820902E+03  0.17317544938E+04  0.10100000352E+00 0.  1.
</event>
<event>
 5   0  0.4142886E-06  0.3318960E+04  0.7818609E-02  0.8158088E-01
        1   -1    0    0  501    0  0.00000000000E+00  0.00000000000E+00  0.15338533697E+04  0.15338533697E+04  0.50400001928E-02 0. -1.
       -1   -1    0    0    0  501  0.00000000000E+00  0.00000000000E+00 -0.17953957801E+04  0.17953957801E+04  0.50400001928E-02 0.  1.
    10030    2    1    2    0    0  0.00000000000E+00  0.00000000000E+00 -0.26154241043E+03  0.33292491499E+04  0.33189599982E+04 0.  0.
        5    1    3    3  502    0  0.84520262311E+03  0.53778389999E+03 -0.14578513418E+04  0.17688786341E+04  0.46999998093E+01 0.  1.
       -5    1    3    3    0  502 -0.84520262311E+03 -0.53778389999E+03  0.11963089314E+04  0.15603705158E+04  0.46999998093E+01 0. -1.
</event>
<event>
 5   0  0.7952307E-06  0.3161670E+04  0.7818609E-02  0.8199014E-01
        2   -1    0    0  501    0  0.00000000000E+00  0.00000000000E+00  0.12257618979E+04  0.12257618979E+04  0.25500000920E-02 0.  1.
       -2   -1    0    0    0  501  0.00000000000E+00  0.00000000000E+00 -0.20387635117E+04  0.20387635117E+04  0.25500000920E-02 0. -1.
    10030    2    1    2    0    0  0.00000000000E+00  0.00000000000E+00 -0.81300161382E+03  0.32645254096E+04  0.31616695789E+04 0.  0.
        2    1    3    3  502    0 -0.15710487632E+04 -0.83192547153E+02 -0.24679703948E+03  0.15924898728E+04  0.25500000920E-02 0. -1.
       -2    1    3    3    0  502  0.15710487632E+04  0.83192547153E+02 -0.56620457434E+03  0.16720355368E+04  0.25500000920E-02 0.  1.
</event>
<event>
 5   0  0.7952307E-06  0.3158828E+04  0.7818609E-02  0.8199776E-01
        2   -1    0    0  501    0  0.00000000000E+00  0.00000000000E+00  0.15911247723E+04  0.15911247723E+04  0.25500000920E-02 0. -1.
       -2   -1    0    0    0  501  0.00000000000E+00  0.00000000000E+00 -0.15677898333E+04  0.15677898334E+04  0.25500000920E-02 0.  1.
    10030    2    1    2    0    0  0.00000000000E+00  0.00000000000E+00  0.23334938978E+02  0.31589146057E+04  0.31588284168E+04 0.  0.
        2    1    3    3  502    0 -0.23867674974E+03 -0.80082107351E+02  0.15709308142E+04  0.15909755993E+04  0.25500000920E-02 0. -1.
       -2    1    3    3    0  502  0.23867674974E+03  0.80082107351E+02 -0.15475958752E+04  0.15679390064E+04  0.25500000920E-02 0.  1.
</event>
<event>
 5   0  0.2635798E-06  0.3225382E+04  0.7818609E-02  0.8182146E-01
        1   -1    0    0  501    0  0.00000000000E+00  0.00000000000E+00  0.16139312946E+04  0.16139312946E+04  0.50400001928E-02 0. -1.
       -1   -1    0    0    0  501  0.00000000000E+00  0.00000000000E+00 -0.16114513145E+04  0.16114513145E+04  0.50400001928E-02 0.  1.
    10030    2    1    2    0    0  0.00000000000E+00  0.00000000000E+00  0.24799800353E+01  0.32253826091E+04  0.32253816557E+04 0.  0.
        1    1    3    3  502    0  0.37003885714E+03  0.40225038638E+03 -0.15160071678E+04  0.16115247011E+04  0.50400001928E-02 0.  1.
       -1    1    3    3    0  502 -0.37003885714E+03 -0.40225038638E+03  0.15184871479E+04  0.16138579081E+04  0.50400001928E-02 0. -1.
</event>
<event>
 5   0  0.2788054E-06  0.3067363E+04  0.7818609E-02  0.8224752E-01
       -1   -1    0    0    0  501  0.00000000000E+00  0.00000000000E+00  0.91867131346E+03  0.91867131347E+03  0.50400001928E-02 0. -1.
        1   -1    0    0  501    0  0.00000000000E+00  0.00000000000E+00 -0.25604136905E+04  0.25604136905E+04  0.50400001928E-02 0.  1.
    10030    2    1    2    0    0  0.00000000000E+00  0.00000000000E+00 -0.16417423771E+04  0.34790850040E+04  0.30673627814E+04 0.  0.
        3    1    3    3  502    0  0.14589984571E+03 -0.72196491645E+03 -0.23466732907E+04  0.24595519204E+04  0.10100000352E+00 0.  1.
       -3    1    3    3    0  502 -0.14589984571E+03  0.72196491645E+03  0.70493091359E+03  0.10195330837E+04  0.10100000352E+00 0. -1.
</event>
<event>
 5   0  0.2635798E-06  0.3221465E+04  0.7818609E-02  0.8183171E-01
       -1   -1    0    0    0  501  0.00000000000E+00  0.00000000000E+00  0.20948237626E+04  0.20948237626E+04  0.50400001928E-02 0.  1.
        1   -1    0    0  501    0  0.00000000000E+00  0.00000000000E+00 -0.12385094688E+04  0.12385094688E+04  0.50400001928E-02 0. -1.
    10030    2    1    2    0    0  0.00000000000E+00  0.00000000000E+00  0.85631429378E+03  0.33333332315E+04  0.32214649249E+04 0.  0.
        1    1    3    3  502    0  0.54758959577E+03  0.14121611562E+04 -0.13896853538E+03  0.15209752629E+04  0.50400001928E-02 0. -1.
       -1    1    3    3    0  502 -0.54758959577E+03 -0.14121611562E+04  0.99528282915E+03  0.18123579686E+04  0.50400001928E-02 0.  1.
</event>
<event>
 5   0  0.4142886E-06  0.2824343E+04  0.7818609E-02  0.8295751E-01
        1   -1    0    0  501    0  0.00000000000E+00  0.00000000000E+00  0.14740682237E+04  0.14740682237E+04  0.50400001928E-02 0. -1.
       -1   -1    0    0    0  501  0.00000000000E+00  0.00000000000E+00 -0.13528735482E+04  0.13528735482E+04  0.50400001928E-02 0.  1.
    10030    2    1    2    0    0  0.00000000000E+00  0.00000000000E+00  0.12119467553E+03  0.28269417719E+04  0.28243426903E+04 0.  0.
        5    1    3    3  502    0  0.59341615323E+03 -0.12676183151E+04 -0.12721033542E+03  0.14054193264E+04  0.46999998093E+01 0. -1.
       -5    1    3    3    0  502 -0.59341615323E+03  0.12676183151E+04  0.24840501095E+03  0.14215224455E+04  0.46999998093E+01 0.  1.
</event>
<event>
 5   0  0.7971763E-06  0.1781904E+04  0.7818609E-02  0.8715983E-01
       -2   -1    0    0    0  501  0.00000000000E+00  0.00000000000E+00  0.19306117080E+04  0.19306117080E+04  0.25500000920E-02 0. -1.
        2   -1    0    0  501    0  0.00000000000E+00  0.00000000000E+00 -0.41116246895E+03  0.41116246896E+03  0.25500000920E-02 0.  1.
    10030    2    1    2    0    0  0.00000000000E+00  0.00000000000E+00  0.15194492390E+04  0.23417741770E+04  0.17819035624E+04 0.  0.
        1    1    3    3  502    0 -0.19119541644E+03 -0.86592765205E+03  0.64660666453E+03  0.10974910316E+04  0.50400001928E-02 0. -1.
       -1    1    3    3    0  502  0.19119541644E+03  0.86592765205E+03  0.87284257451E+03  0.12442831453E+04  0.50400001928E-02 0.  1.
</event>
<event>
 5   0  0.7510251E-06  0.2998292E+04  0.7818609E-02  0.8244219E-01
       -2   -1    0    0    0  501  0.00000000000E+00  0.00000000000E+00  0.12923997356E+04  0.12923997356E+04  0.25500000920E-02 0.  1.
        2   -1    0    0  501    0  0.00000000000E+00  0.00000000000E+00 -0.17389659457E+04  0.17389659457E+04  0.25500000920E-02 0. -1.
    10030    2    1    2    0    0  0.00000000000E+00  0.00000000000E+00 -0.44656621013E+03  0.30313656814E+04  0.29982922663E+04 0.  0.
        3    1    3    3  502    0  0.93433107824E+03  0.11382573543E+04  0.60589322951E+02  0.14738641201E+04  0.10100000352E+00 0.  1.
       -3    1    3    3    0  502 -0.93433107824E+03 -0.11382573543E+04 -0.50715553308E+03  0.15575015612E+04  0.10100000352E+00 0. -1.
</event>
<event>
 5   0  0.7971763E-06  0.2519715E+04  0.7818609E-02  0.8395995E-01
       -2   -1    0    0    0  501  0.00000000000E+00  0.00000000000E+00  0.64275074168E+03  0.64275074168E+03  0.25500000920E-02 0. -1.
        2   -1    0    0  501    0  0.00000000000E+00  0.00000000000E+00 -0.24694510361E+04  0.24694510361E+04  0.25500000920E-02 0.  1.
    10030    2    1    2    0    0  0.00000000000E+00  0.00000000000E+00 -0.18267002944E+04  0.31122017778E+04  0.25197154482E+04 0.  0.
        1    1    3    3  502    0  0.16814470690E+03  0.78426232366E+03 -0.21133455286E+04  0.22604356567E+04  0.50400001928E-02 0.  1.
       -1    1    3    3    0  502 -0.16814470690E+03 -0.78426232366E+03  0.28664523416E+03  0.85176612110E+03  0.50400001928E-02 0. -1.
</event>
<event>
 5   0  0.7510251E-06  0.3215020E+04  0.7818609E-02  0.8184862E-01
       -2   -1    0    0    0  501  0.00000000000E+00  0.00000000000E+00  0.26809971440E+04  0.26809971440E+04  0.25500000920E-02 0.  1.
        2   -1    0    0  501    0  0.00000000000E+00  0.00000000000E+00 -0.96385318126E+03  0.96385318126E+03  0.25500000920E-02 0. -1.
    10030    2    1    2    0    0  0.00000000000E+00  0.00000000000E+00  0.17171439628E+04  0.36448503253E+04  0.32150195186E+04 0.  0.
        3    1    3    3  502    0  0.14746727061E+04  0.52933355522E+02  0.15814977460E+04  0.21630063941E+04  0.10100000352E+00 0.  1.
       -3    1    3    3    0  502 -0.14746727061E+04 -0.52933355522E+02  0.13564621682E+03  0.14818439312E+04  0.10100000352E+00 0. -1.
</event>
<event>
 5   0  0.8237664E-06  0.3194975E+04  0.7818609E-02  0.8190145E-01
       -2   -1    0    0    0  501  0.00000000000E+00  0.00000000000E+00  0.14044685955E+04  0.14044685955E+04  0.25500000920E-02 0.  1.
        2   -1    0    0  501    0  0.00000000000E+00  0.00000000000E+00 -0.18170335116E+04  0.18170335116E+04  0.25500000920E-02 0. -1.
    10030    2    1    2    0    0  0.00000000000E+00  0.00000000000E+00 -0.41256491608E+03  0.32215021071E+04  0.31949751198E+04 0.  0.
        5    1    3    3  502    0  0.11447700967E+04 -0.47203661574E+03  0.81136789874E+03  0.14804246344E+04  0.46999998093E+01 0.  1.
       -5    1    3    3    0  502 -0.11447700967E+04  0.47203661574E+03 -0.12239328148E+04  0.17410774728E+04  0.46999998093E+01 0. -1.
</event>
<event>
 5   0  0.2933646E-06  0.1638325E+04  0.7818609E-02  0.8797343E-01
       -1   -1    0    0    0  501  0.00000000000E+00  0.00000000000E+00  0.13625799324E+04  0.13625799324E+04  0.50400001928E-02 0. -1.
        1   -1    0    0  501    0  0.00000000000E+00  0.00000000000E+00 -0.49246806151E+03  0.49246806154E+03  0.50400001928E-02 0.  1.
    10030    2    1    2    0    0  0.00000000000E+00  0.00000000000E+00  0.87011187087E+03  0.18550479939E+04  0.16383248738E+04 0.  0.
        2    1    3    3  502    0  0.31150507720E+03  0.15672603761E+03  0.12743434643E+04  0.13211925405E+04  0.25500000920E-02 0. -1.
       -2    1    3    3    0  502 -0.31150507720E+03 -0.15672603761E+03 -0.40423159347E+03  0.53385545342E+03  0.25500000920E-02 0.  1.
</event>
<event>
 5   0  0.2788054E-06  0.3244651E+04  0.7818609E-02  0.8177124E-01
       -1   -1    0    0    0  501  0.00000000000E+00  0.00000000000E+00  0.13270386592E+04  0.13270386592E+04  0.50400001928E-02 0.  1.
        1   -1    0    0  501    0  0.00000000000E+00  0.00000000000E+00 -0.19833178425E+04  0.19833178425E+04  0.50400001928E-02 0. -1.
    10030    2    1    2    0    0  0.00000000000E+00  0.00000000000E+00 -0.65627918323E+03  0.33103565017E+04  0.32446506441E+04 0.  0.
        3    1    3    3  502    0  0.87686757000E+03  0.11509344515E+03 -0.17157538892E+04  0.19302732074E+04  0.10100000352E+00 0. -1.
       -3    1    3    3    0  502 -0.87686757000E+03 -0.11509344515E+03  0.10594747060E+04  0.13800832943E+04  0.10100000352E+00 0.  1.
</event>
<event>
 5   0  0.7971763E-06  0.1898374E+04  0.7818609E-02  0.8655666E-01
        2   -1    0    0  501    0  0.00000000000E+00  0.00000000000E+00  0.65645409523E+03  0.65645409523E+03  0.25500000920E-02 0.  1.
       -2   -1    0    0    0  501  0.00000000000E+00  0.00000000000E+00 -0.13724577200E+04  0.13724577200E+04  0.25500000920E-02 0. -1.
    10030    2    1    2    0    0  0.00000000000E+00  0.00000000000E+00 -0.71600362478E+03  0.20289118152E+04  0.18983735047E+04 0.  0.
        1    1    3    3  502    0 -0.15755157462E+03  0.67983701661E+03  0.32963303266E+03  0.77178935214E+03  0.50400001928E-02 0.  1.
       -1    1    3    3    0  502  0.15755157462E+03 -0.67983701661E+03 -0.10456366574E+04  0.12571224631E+04  0.50400001928E-02 0. -1.
</event>
<event>
 5   0  0.4142886E-06  0.3215692E+04  0.7818609E-02  0.8184685E-01
        1   -1    0    0  501    0  0.00000000000E+00  0.00000000000E+00  0.22486036960E+04  0.22486036960E+04  0.50400001928E-02 0. -1.
       -1   -1    0    0    0  501  0.00000000000E+00  0.00000000000E+00 -0.11496775622E+04  0.11496775622E+04  0.50400001928E-02 0.  1.
    10030    2    1    2    0    0  0.00000000000E+00  0.00000000000E+00  0.10989261338E+04  0.33982812582E+04  0.32156922835E+04 0.  0.
        5    1    3    3  502    0 -0.79420872559E+03 -0.13887473595E+04  0.37984929407E+03  0.16442914293E+04  0.46999998093E+01 0. -1.
       -5    1    3    3    0  502  0.79420872559E+03  0.13887473595E+04  0.71907683978E+03  0.17539898289E+04  0.46999998093E+01 0.  1.
</event>
<event>
 5   0  0.2933646E-06  0.3519143E+04  0.7818609E-02  0.8109268E-01
        1   -1    0    0  501    0  0.00000000000E+00  0.00000000000E+00  0.23803584357E+04  0.23803584357E+04  0.50400001928E-02 0.  1.
       -1   -1    0    0    0  501  0.00000000000E+00  0.00000000000E+00 -0.13006830758E+04  0.13006830758E+04  0.50400001928E-02 0. -1.
    10030    2    1    2    0    0  0.00000000000E+00  0.00000000000E+00  0.10796753600E+04  0.36810415115E+04  0.35191430386E+04 0.  0.
        2    1    3    3  502    0 -0.10813100737E+04 -0.13872413058E+04  0.59131575166E+03  0.18556196362E+04  0.25500000920E-02 0.  1.
       -2    1    3    3    0  502  0.10813100737E+04  0.13872413058E+04  0.48835960831E+03  0.18254218753E+04  0.25500000920E-02 0. -1.
</event>
<event>
 5   0  0.2635798E-06  0.3139506E+04  0.7818609E-02  0.8204979E-01
       -1   -1    0    0    0  501  0.00000000000E+00  0.00000000000E+00  0.11245350410E+04  0.11245350410E+04  0.50400001928E-02 0. -1.
        1   -1    0    0  501    0  0.00000000000E+00  0.00000000000E+00 -0.21912385466E+04  0.21912385466E+04  0.50400001928E-02 0.  1.
    10030    2    1    2    0    0  0.00000000000E+00  0.00000000000E+00 -0.10667035056E+04  0.33157735877E+04  0.31395060305E+04 0.  0.
        1    1    3    3  502    0  0.97889629120E+02 -0.13095973940E+03  0.11155174627E+04  0.11274360480E+04  0.50400001928E-02 0. -1.
       -1    1    3    3    0  502 -0.97889629120E+02  0.13095973940E+03 -0.21822209683E+04  0.21883375396E+04  0.50400001928E-02 0.  1.
</event>
<event>
 5   0  0.7941434E-06  0.3282419E+04  0.7818609E-02  0.8167383E-01
       -2   -1    0    0    0  501  0.00000000000E+00  0.00000000000E+00  0.13058236312E+04  0.13058236312E+04  0.25500000920E-02 0. -1.
        2   -1    0    0  501    0  0.00000000000E+00  0.00000000000E+00 -0.20627350822E+04  0.20627350822E+04  0.25500000920E-02 0.  1.
    10030    2    1    2    0    0  0.00000000000E+00  0.00000000000E+00 -0.75691145099E+03  0.33685587134E+04  0.32824187516E+04 0.  0.
        4    1    3    3  502    0  0.26813757423E+02  0.70813048329E+03 -0.18976413791E+04  0.20256387080E+04  0.12699999809E+01 0.  1.
       -4    1    3    3    0  502 -0.26813757423E+02 -0.70813048329E+03  0.11407299281E+04  0.13429200053E+04  0.12699999809E+01 0. -1.
</event>
<event>
 5   0  0.4142886E-06  0.3211634E+04  0.7818609E-02  0.8185751E-01
       -1   -1    0    0    0  501  0.00000000000E+00  0.00000000000E+00  0.17817630029E+04  0.17817630029E+04  0.50400001928E-02 0. -1.
        1   -1    0    0  501    0  0.00000000000E+00  0.00000000000E+00 -0.14472453914E+04  0.14472453914E+04  0.50400001928E-02 0.  1.
    10030    2    1    2    0    0  0.00000000000E+00  0.00000000000E+00  0.33451761150E+03  0.32290083943E+04  0.32116340355E+04 0.  0.
        5    1    3    3  502    0  0.22800718613E+03 -0.12540130256E+04 -0.81480081204E+03  0.15127651499E+04  0.46999998093E+01 0.  1.
       -5    1    3    3    0  502 -0.22800718613E+03  0.12540130256E+04  0.11493184235E+04  0.17162432444E+04  0.46999998093E+01 0. -1.
</event>
<event>
 5   0  0.8237664E-06  0.3171730E+04  0.7818609E-02  0.8196323E-01
       -2   -1    0    0    0  501  0.00000000000E+00  0.00000000000E+00  0.14096241472E+04  0.14096241472E+04  0.25500000920E-02 0.  1.
        2   -1    0    0  501    0  0.00000000000E+00  0.00000000000E+00 -0.17841412243E+04  0.17841412243E+04  0.25500000920E-02 0. -1.
    10030    2    1    2    0    0  0.00000000000E+00  0.00000000000E+00 -0.37451707708E+03  0.31937653714E+04  0.31717304751E+04 0.  0.
        5    1    3    3  502    0  0.62444815607E+03 -0.49736921917E+03  0.11925292535E+04  0.14350817922E+04  0.46999998093E+01 0.  1.
       -5    1    3    3    0  502 -0.62444815607E+03  0.49736921917E+03 -0.15670463306E+04  0.17586835793E+04  0.46999998093E+01 0. -1.
</event>
<event>
 5   0  0.7971763E-06  0.3265535E+04  0.7818609E-02  0.8171721E-01
       -2   -1    0    0    0  501  0.00000000000E+00  0.00000000000E+00  0.13440912328E+04  0.13440912328E+04  0.25500000920E-02 0. -1.
        2   -1    0    0  501    0  0.00000000000E+00  0.00000000000E+00 -0.19834441083E+04  0.19834441083E+04  0.25500000920E-02 0.  1.
    10030    2    1    2    0    0  0.00000000000E+00  0.00000000000E+00 -0.63935287544E+03  0.33275353411E+04  0.32655350782E+04 0.  0.
        1    1    3    3  502    0 -0.11925592721E+04  0.10222244469E+04 -0.77399965829E+03  0.17510613663E+04  0.50400001928E-02 0.  1.
       -1    1    3    3    0  502  0.11925592721E+04 -0.10222244469E+04  0.13464678284E+03  0.15764739749E+04  0.50400001928E-02 0. -1.
</event>
<event>
 5   0  0.2933646E-06  0.2040504E+04  0.7818609E-02  0.8587915E-01
        1   -1    0    0  501    0  0.00000000000E+00  0.00000000000E+00  0.15459893064E+04  0.15459893064E+04  0.50400001928E-02 0. -1.
       -1   -1    0    0    0  501  0.00000000000E+00  0.00000000000E+00 -0.67329941035E+03  0.67329941037E+03  0.50400001928E-02 0.  1.
    10030    2    1    2    0    0  0.00000000000E+00  0.00000000000E+00  0.87268989607E+03  0.22192887168E+04  0.20405035540E+04 0.  0.
        2    1    3    3  502    0  0.96403099976E+03  0.29379688180E+03  0.26354945378E+03  0.10416960645E+04  0.25500000920E-02 0. -1.
       -2    1    3    3    0  502 -0.96403099976E+03 -0.29379688180E+03  0.60914044229E+03  0.11775926523E+04  0.25500000920E-02 0.  1.
</event>
<event>
 5   0  0.2933646E-06  0.3664778E+04  0.7818609E-02  0.8075813E-01
       -1   -1    0    0    0  501  0.00000000000E+00  0.00000000000E+00  0.13361780542E+04  0.13361780542E+04  0.50400001928E-02 0. -1.
        1   -1    0    0  501    0  0.00000000000E+00  0.00000000000E+00 -0.25128760645E+04  0.25128760645E+04  0.50400001928E-02 0.  1.
    10030    2    1    2    0    0  0.00000000000E+00  0.00000000000E+00 -0.11766980102E+04  0.38490541187E+04  0.36647782199E+04 0.  0.
        2    1    3    3  502    0 -0.82414360115E+03 -0.13243777276E+04 -0.15981843616E+04  0.22332447905E+04  0.25500000920E-02 0.  1.
       -2    1    3    3    0  502  0.82414360115E+03  0.13243777276E+04  0.42148635134E+03  0.16158093282E+04  0.25500000920E-02 0. -1.
</event>
<event>
 5   0  0.7971763E-06  0.3061392E+04  0.7818609E-02  0.8226414E-01
        2   -1    0    0  501    0  0.00000000000E+00  0.00000000000E+00  0.16045942039E+04  0.16045942039E+04  0.25500000920E-02 0.  1.
       -2   -1    0    0    0  501  0.00000000000E+00  0.00000000000E+00 -0.14602008021E+04  0.14602008021E+04  0.25500000920E-02 0. -1.
    10030    2    1    2    0    0  0.00000000000E+00  0.00000000000E+00  0.14439340182E+03  0.30647950060E+04  0.30613916728E+04 0.  0.
        1    1    3    3  502    0  0.96600933712E+02  0.89736655874E+03  0.13098684868E+04  0.15907086263E+04  0.50400001928E-02 0.  1.
       -1    1    3    3    0  502 -0.96600933712E+02 -0.89736655874E+03 -0.11654750849E+04  0.14740863797E+04  0.50400001928E-02 0. -1.
</event>
<event>
 5   0  0.7971763E-06  0.1683776E+04  0.7818609E-02  0.8770672E-01
       -2   -1    0    0    0  501  0.00000000000E+00  0.00000000000E+00  0.51645153178E+03  0.51645153179E+03  0.25500000920E-02 0.  1.
        2   -1    0    0  501    0  0.00000000000E+00  0.00000000000E+00 -0.13723945567E+04  0.13723945567E+04  0.25500000920E-02 0. -1.
    10030    2    1    2    0    0  0.00000000000E+00  0.00000000000E+00 -0.85594302489E+03  0.18888460885E+04  0.16837758414E+04 0.  0.
        1    1    3    3  502    0 -0.41573136146E+02 -0.65060443749E+03  0.16959810135E+03  0.67363044449E+03  0.50400001928E-02 0.  1.
       -1    1    3    3    0  502  0.41573136146E+02  0.65060443749E+03 -0.10255411262E+04  0.12152156440E+04  0.50400001928E-02 0. -1.
</event>
<event>
 5   0  0.7510251E-06  0.2111357E+04  0.7818609E-02  0.8556257E-01
        2   -1    0    0  501    0  0.00000000000E+00  0.00000000000E+00  0.10123001689E+04  0.10123001689E+04  0.25500000920E-02 0.  1.
       -2   -1    0    0    0  501  0.00000000000E+00  0.00000000000E+00 -0.11009153819E+04  0.11009153819E+04  0.25500000920E-02 0. -1.
    10030    2    1    2    0    0  0.00000000000E+00  0.00000000000E+00 -0.88615212987E+02  0.21132155508E+04  0.21113567458E+04 0.  0.
        3    1    3    3  502    0  0.29276467376E+03  0.51486457204E+03 -0.91895345227E+03  0.10932850220E+04  0.10100000352E+00 0. -1.
       -3    1    3    3    0  502 -0.29276467376E+03 -0.51486457204E+03  0.83033823928E+03  0.10199305288E+04  0.10100000352E+00 0.  1.
</event>
<event>
 5   0  0.2635798E-06  0.3258546E+04  0.7818609E-02  0.8173524E-01
       -1   -1    0    0    0  501  0.00000000000E+00  0.00000000000E+00  0.88494945612E+03  0.88494945613E+03  0.50400001928E-02 0. -1.
        1   -1    0    0  501    0  0.00000000000E+00  0.00000000000E+00 -0.29996410244E+04  0.29996410244E+04  0.50400001928E-02 0.  1.
    10030    2    1    2    0    0  0.00000000000E+00  0.00000000000E+00 -0.21146915683E+04  0.38845904806E+04  0.32585461133E+04 0.  0.
        1    1    3    3  502    0  0.77370562490E+03  0.25623673648E+03  0.62445874453E+03  0.10267552692E+04  0.50400001928E-02 0. -1.
       -1    1    3    3    0  502 -0.77370562490E+03 -0.25623673648E+03 -0.27391503128E+04  0.28578352114E+04  0.50400001928E-02 0.  1.
</event>
<event>
 5   0  0.3938696E-06  0.3061826E+04  0.7818609E-02  0.8226293E-01
        1   -1    0    0  501    0  0.00000000000E+00  0.00000000000E+00  0.14216154460E+04  0.14216154460E+04  0.50400001928E-02 0.  1.
       -1   -1    0    0    0  501  0.00000000000E+00  0.00000000000E+00 -0.16486141480E+04  0.16486141480E+04  0.50400001928E-02 0. -1.
    10030    2    1    2    0    0  0.00000000000E+00  0.00000000000E+00 -0.22699870200E+03  0.30702295941E+04  0.30618264728E+04 0.  0.
        4    1    3    3  502    0  0.11575800345E+04  0.79780335814E+02 -0.11149079302E+04  0.16091543568E+04  0.12699999809E+01 0. -1.
       -4    1    3    3    0  502 -0.11575800345E+04 -0.79780335814E+02  0.88790922824E+03  0.14610752372E+04  0.12699999809E+01 0.  1.
</event>
<event>
 5   0  0.2788054E-06  0.3154919E+04  0.7818609E-02  0.8200825E-01
       -1   -1    0    0    0  501  0.00000000000E+00  0.00000000000E+00  0.16119687452E+04  0.16119687452E+04  0.50400001928E-02 0. -1.
        1   -1    0    0  501    0  0.00000000000E+00  0.00000000000E+00 -0.15436894686E+04  0.15436894686E+04  0.50400001928E-02 0.  1.
    10030    2    1    2    0    0  0.00000000000E+00  0.00000000000E+00  0.68279276650E+02  0.31556582138E+04  0.31549194447E+04 0.  0.
        3    1    3    3  502    0  0.56558944457E+03  0.12501679523E+04 -0.74422497697E+03  0.15609875577E+04  0.10100000352E+00 0.  1.
       -3    1    3    3    0  502 -0.56558944457E+03 -0.12501679523E+04  0.81250425362E+03  0.15946706560E+04  0.10100000352E+00 0. -1.
</event>
<event>
 5   0  0.8237664E-06  0.3049396E+04  0.7818609E-02  0.8229764E-01
        2   -1    0    0  501    0  0.00000000000E+00  0.00000000000E+00  0.17642816859E+04  0.17642816859E+04  0.25500000920E-02 0. -1.
       -2   -1    0    0    0  501  0.00000000000E+00  0.00000000000E+00 -0.13176492735E+04  0.13176492735E+04  0.25500000920E-02 0.  1.
    10030    2    1    2    0    0  0.00000000000E+00  0.00000000000E+00  0.44663241241E+03  0.30819309595E+04  0.30493963218E+04 0.  0.
        5    1    3    3  502    0  0.39749339922E+03 -0.13560916754E+03 -0.12580268390E+04  0.13262897370E+04  0.46999998093E+01 0.  1.
       -5    1    3    3    0  502 -0.39749339922E+03  0.13560916754E+03  0.17046592514E+04  0.17556412225E+04  0.46999998093E+01 0. -1.
</event>
<event>
 5   0  0.2788054E-06  0.3246052E+04  0.7818609E-02  0.8176760E-01
        1   -1    0    0  501    0  0.00000000000E+00  0.00000000000E+00  0.26477685671E+04  0.26477685671E+04  0.50400001928E-02 0.  1.
       -1   -1    0    0    0  501  0.00000000000E+00  0.00000000000E+00 -0.99488063208E+03  0.99488063209E+03  0.50400001928E-02 0. -1.
    10030    2    1    2    0    0  0.00000000000E+00  0.00000000000E+00  0.16528879350E+04  0.36426491992E+04  0.32460521657E+04 0.  0.
        3    1    3    3  502    0  0.68625879422E+03 -0.19616281560E+03  0.24622021906E+04  0.25635659969E+04  0.10100000352E+00 0.  1.
       -3    1    3    3    0  502 -0.68625879422E+03  0.19616281560E+03 -0.80931425561E+03  0.10790832023E+04  0.10100000352E+00 0. -1.
</event>
<event>
 5   0  0.8237664E-06  0.3151304E+04  0.7818609E-02  0.8201797E-01
       -2   -1    0    0    0  501  0.00000000000E+00  0.00000000000E+00  0.15828187889E+04  0.15828187889E+04  0.25500000920E-02 0.  1.
        2   -1    0    0  501    0  0.00000000000E+00  0.00000000000E+00 -0.15685178547E+04  0.15685178547E+04  0.25500000920E-02 0. -1.
    10030    2    1    2    0    0  0.00000000000E+00  0.00000000000E+00  0.14300934153E+02  0.31513366436E+04  0.31513041942E+04 0.  0.
        5    1    3    3  502    0  0.16263899664E+03  0.15521455944E+04 -0.20976200523E+03  0.15746839614E+04  0.46999998093E+01 0. -1.
       -5    1    3    3    0  502 -0.16263899664E+03 -0.15521455944E+04  0.22406293938E+03  0.15766526822E+04  0.46999998093E+01 0.  1.
</event>
<event>
 5   0  0.7971763E-06  0.3320011E+04  0.7818609E-02  0.8157822E-01
       -2   -1    0    0    0  501  0.00000000000E+00  0.00000000000E+00  0.16191276652E+04  0.16191276652E+04  0.25500000920E-02 0. -1.
        2   -1    0    0  501    0  0.00000000000E+00  0.00000000000E+00 -0.17019149716E+04  0.17019149716E+04  0.25500000920E-02 0.  1.
    10030    2    1    2    0    0  0.00000000000E+00  0.00000000000E+00 -0.82787306359E+02  0.33210426367E+04  0.33200106110E+04 0.  0.
        1    1    3    3  502    0 -0.16579535403E+04 -0.82101635868E+02 -0.49581171891E+02  0.16607254177E+04  0.50400001928E-02 0.  1.
       -1    1    3    3    0  502  0.16579535403E+04  0.82101635868E+02 -0.33206134468E+02  0.16603172190E+04  0.50400001928E-02 0. -1.
</event>
<event>
 5   0  0.7941434E-06  0.3196786E+04  0.7818609E-02  0.8189667E-01
        2   -1    0    0  501    0  0.00000000000E+00  0.00000000000E+00  0.22976563347E+04  0.22976563347E+04  0.25500000920E-02 0. -1.
       -2   -1    0    0    0  501  0.00000000000E+00  0.00000000000E+00 -0.11119415827E+04  0.11119415827E+04  0.25500000920E-02 0.  1.
    10030    2    1    2    0    0  0.00000000000E+00  0.00000000000E+00  0.11857147520E+04  0.34095979174E+04  0.31967856490E+04 0.  0.
        4    1    3    3  502    0 -0.10150056689E+04  0.43278436984E+02  0.19090023727E+04  0.21624988331E+04  0.12699999809E+01 0. -1.
       -4    1    3    3    0  502  0.10150056689E+04 -0.43278436984E+02 -0.72328762076E+03  0.12470990844E+04  0.12699999809E+01 0.  1.
</event>
<event>
 5   0  0.8237664E-06  0.3196615E+04  0.7818609E-02  0.8189712E-01
       -2   -1    0    0    0  501  0.00000000000E+00  0.00000000000E+00  0.11427444204E+04  0.11427444204E+04  0.25500000920E-02 0. -1.
        2   -1    0    0  501    0  0.00000000000E+00  0.00000000000E+00 -0.22354844254E+04  0.22354844254E+04  0.25500000920E-02 0.  1.
    10030    2    1    2    0    0  0.00000000000E+00  0.00000000000E+00 -0.10927400049E+04  0.33782288458E+04  0.31966153063E+04 0.  0.
        5    1    3    3  502    0 -0.12638914851E+04  0.81110394516E+02  0.48399127370E+03  0.13558282432E+04  0.46999998093E+01 0. -1.
       -5    1    3    3    0  502  0.12638914851E+04 -0.81110394516E+02 -0.15767312786E+04  0.20224006026E+04  0.46999998093E+01 0.  1.
</event>
<event>
 5   0  0.2635798E-06  0.3607645E+04  0.7818609E-02  0.8088743E-01
        1   -1    0    0  501    0  0.00000000000E+00  0.00000000000E+00  0.17448016369E+04  0.17448016369E+04  0.50400001928E-02 0. -1.
       -1   -1    0    0    0  501  0.00000000000E+00  0.00000000000E+00 -0.18648401133E+04  0.18648401133E+04  0.50400001928E-02 0.  1.
    10030    2    1    2    0    0  0.00000000000E+00  0.00000000000E+00 -0.12003847637E+03  0.36096417502E+04  0.36076452610E+04 0.  0.
        1    1    3    3  502    0 -0.78224671094E+03  0.14307677782E+04  0.71162070996E+03  0.17791600228E+04  0.50400001928E-02 0. -1.
       -1    1    3    3    0  502  0.78224671094E+03 -0.14307677782E+04 -0.83165918633E+03  0.18304817274E+04  0.50400001928E-02 0.  1.
</event>
<event>
 5   0  0.7971763E-06  0.3168732E+04  0.7818609E-02  0.8197124E-01
       -2   -1    0    0    0  501  0.00000000000E+00  0.00000000000E+00  0.83338762573E+03  0.83338762574E+03  0.25500000920E-02 0. -1.
        2   -1    0    0  501    0  0.00000000000E+00  0.00000000000E+00 -0.30120626634E+04  0.30120626634E+04  0.25500000920E-02 0.  1.
    10030    2    1    2    0    0  0.00000000000E+00  0.00000000000E+00 -0.21786750377E+04  0.38454502892E+04  0.31687320818E+04 0.  0.
        1    1    3    3  502    0  0.42401640078E+03 -0.14381855262E+04 -0.17105673479E+04  0.22746885870E+04  0.50400001928E-02 0.  1.
       -1    1    3    3    0  502 -0.42401640078E+03  0.14381855262E+04 -0.46810768977E+03  0.15707617022E+04  0.50400001928E-02 0. -1.
</event>
<event>
 5   0  0.2635798E-06  0.2051704E+04  0.7818609E-02  0.8582822E-01
        1   -1    0    0  501    0  0.00000000000E+00  0.00000000000E+00  0.49089611182E+03  0.49089611184E+03  0.50400001928E-02 0. -1.
       -1   -1    0    0    0  501  0.00000000000E+00  0.00000000000E+00 -0.21437783024E+04  0.21437783024E+04  0.50400001928E-02 0.  1.
    10030    2    1    2    0    0  0.00000000000E+00  0.00000000000E+00 -0.16528821906E+04  0.26346744142E+04  0.20517041047E+04 0.  0.
        1    1    3    3  502    0  0.77858887309E+03  0.16742989893E+03 -0.16568128723E+04  0.18382769917E+04  0.50400001928E-02 0.  1.
       -1    1    3    3    0  502 -0.77858887309E+03 -0.16742989893E+03  0.39306817110E+01  0.79639742255E+03  0.50400001928E-02 0. -1.
</event>
<event>
 5   0  0.2933646E-06  0.3287692E+04  0.7818609E-02  0.8166034E-01
        1   -1    0    0  501    0  0.00000000000E+00  0.00000000000E+00  0.16064255639E+04  0.16064255639E+04  0.50400001928E-02 0.  1.
       -1   -1    0    0    0  501  0.00000000000E+00  0.00000000000E+00 -0.16821376839E+04  0.16821376839E+04  0.50400001928E-02 0. -1.
    10030    2    1    2    0    0  0.00000000000E+00  0.00000000000E+00 -0.75712119991E+02  0.32885632478E+04  0.32876915776E+04 0.  0.
        2    1    3    3  502    0 -0.10013765986E+04 -0.52783495536E+03  0.11544600374E+04  0.16168311014E+04  0.25500000920E-02 0.  1.
       -2    1    3    3    0  502  0.10013765986E+04  0.52783495536E+03 -0.12301721574E+04  0.16717321464E+04  0.25500000920E-02 0. -1.
</event>
<event>
 5   0  0.2933646E-06  0.3165699E+04  0.7818609E-02  0.8197935E-01
        1   -1    0    0  501    0  0.00000000000E+00  0.00000000000E+00  0.10066461213E+04  0.10066461213E+04  0.50400001928E-02 0. -1.
       -1   -1    0    0    0  501  0.00000000000E+00  0.00000000000E+00 -0.24888716508E+04  0.24888716508E+04  0.50400001928E-02 0.  1.
    10030    2    1    2    0    0  0.00000000000E+00  0.00000000000E+00 -0.14822255295E+04  0.34955177721E+04  0.31656992869E+04 0.  0.
        2    1    3    3  502    0 -0.17046890124E+03 -0.10556683811E+04 -0.20297102366E+04  0.22941706609E+04  0.25500000920E-02 0.  1.
       -2    1    3    3    0  502  0.17046890124E+03  0.10556683811E+04  0.54748470702E+03  0.12013471112E+04  0.25500000920E-02 0. -1.
</event>
<event>
 5   0  0.2635798E-06  0.1968540E+04  0.7818609E-02  0.8621472E-01
        1   -1    0    0  501    0  0.00000000000E+00  0.00000000000E+00  0.11766557203E+04  0.11766557203E+04  0.50400001928E-02 0. -1.
       -1   -1    0    0    0  501  0.00000000000E+00  0.00000000000E+00 -0.82334016085E+03  0.82334016087E+03  0.50400001928E-02 0.  1.
    10030    2    1    2    0    0  0.00000000000E+00  0.00000000000E+00  0.35331555946E+03  0.19999958812E+04  0.19685404848E+04 0.  0.
        1    1    3    3  502    0  0.57950612418E+03 -0.44157829133E+03  0.84902498546E+03  0.11187770829E+04  0.50400001928E-02 0. -1.
       -1    1    3    3    0  502 -0.57950612418E+03  0.44157829133E+03 -0.49570942600E+03  0.88121879825E+03  0.50400001928E-02 0.  1.
</event>
<event>
 5   0  0.2635798E-06  0.1896496E+04  0.7818609E-02  0.8656603E-01
        1   -1    0    0  501    0  0.00000000000E+00  0.00000000000E+00  0.90000463410E+03  0.90000463411E+03  0.50400001928E-02 0.  1.
       -1   -1    0    0    0  501  0.00000000000E+00  0.00000000000E+00 -0.99907696969E+03  0.99907696971E+03  0.50400001928E-02 0. -1.
    10030    2    1    2    0    0  0.00000000000E+00  0.00000000000E+00 -0.99072335593E+02  0.18990816038E+04  0.18964956130E+04 0.  0.
        1    1    3    3  502    0  0.56760440743E+03 -0.66840855662E+02 -0.80722599143E+03  0.98906838215E+03  0.50400001928E-02 0. -1.
       -1    1    3    3    0  502 -0.56760440743E+03  0.66840855662E+02  0.70815365583E+03  0.91001322167E+03  0.50400001928E-02 0.  1.
</event>
<event>
 5   0  0.7941434E-06  0.3252239E+04  0.7818609E-02  0.8175156E-01
       -2   -1    0    0    0  501  0.00000000000E+00  0.00000000000E+00  0.16626957293E+04  0.16626957294E+04  0.25500000920E-02 0. -1.
        2   -1    0    0  501    0  0.00000000000E+00  0.00000000000E+00 -0.15903480993E+04  0.15903480993E+04  0.25500000920E-02 0.  1.
    10030    2    1    2    0    0  0.00000000000E+00  0.00000000000E+00  0.72347630089E+02  0.32530438286E+04  0.32522392242E+04 0.  0.
        4    1    3    3  502    0  0.12317618601E+04  0.14566412485E+03  0.10880080627E+04  0.16499146871E+04  0.12699999809E+01 0. -1.
       -4    1    3    3    0  502 -0.12317618601E+04 -0.14566412485E+03 -0.10156604326E+04  0.16031291415E+04  0.12699999809E+01 0.  1.
</event>
<event>
 5   0  0.7941434E-06  0.3189364E+04  0.7818609E-02  0.8191632E-01
       -2   -1    0    0    0  501  0.00000000000E+00  0.00000000000E+00  0.92784069874E+03  0.92784069875E+03  0.25500000920E-02 0.  1.
        2   -1    0    0  501    0  0.00000000000E+00  0.00000000000E+00 -0.27407830212E+04  0.27407830212E+04  0.25500000920E-02 0. -1.
    10030    2    1    2    0    0  0.00000000000E+00  0.00000000000E+00 -0.18129423225E+04  0.36686237200E+04  0.31893635939E+04 0.  0.
        4    1    3    3  502    0 -0.14324140958E+04 -0.61066021487E+03 -0.51085181283E+03  0.16388066474E+04  0.12699999809E+01 0.  1.
       -4    1    3    3    0  502  0.14324140958E+04  0.61066021487E+03 -0.13020905097E+04  0.20298170726E+04  0.12699999809E+01 0. -1.
</event>
<event>
 5   0  0.4142886E-06  0.3231460E+04  0.7818609E-02  0.8180558E-01
        1   -1    0    0  501    0  0.00000000000E+00  0.00000000000E+00  0.17789692742E+04  0.17789692742E+04  0.50400001928E-02 0.  1.
       -1   -1    0    0    0  501  0.00000000000E+00  0.00000000000E+00 -0.14674693458E+04  0.14674693458E+04  0.50400001928E-02 0. -1.
    10030    2    1    2    0    0  0.00000000000E+00  0.00000000000E+00  0.31149992842E+03  0.32464386200E+04  0.32314596560E+04 0.  0.
        5    1    3    3  502    0 -0.44247539638E+03  0.10671273756E+04  0.12905946507E+04  0.17321091059E+04  0.46999998093E+01 0.  1.
       -5    1    3    3    0  502  0.44247539638E+03 -0.10671273756E+04 -0.97909472231E+03  0.15143295142E+04  0.46999998093E+01 0. -1.
</event>
<event>
 5   0  0.7952307E-06  0.3022522E+04  0.7818609E-02  0.8237329E-01
       -2   -1    0    0    0  501  0.00000000000E+00  0.00000000000E+00  0.17448570921E+04  0.17448570921E+04  0.25500000920E-02 0.  1.
        2   -1    0    0  501    0  0.00000000000E+00  0.00000000000E+00 -0.13089377433E+04  0.13089377433E+04  0.25500000920E-02 0. -1.
    10030    2    1    2    0    0  0.00000000000E+00  0.00000000000E+00  0.43591934874E+03  0.30537948354E+04  0.30225216654E+04 0.  0.
        2    1    3    3  502    0  0.21349111613E+03  0.11378274069E+04  0.11994425492E+04  0.16670009278E+04  0.25500000920E-02 0.  1.
       -2    1    3    3    0  502 -0.21349111613E+03 -0.11378274069E+04 -0.76352320047E+03  0.13867939076E+04  0.25500000920E-02 0. -1.
</event>
<event>
 5   0  0.7971763E-06  0.3158589E+04  0.7818609E-02  0.8199840E-01
        2   -1    0    0  501    0  0.00000000000E+00  0.00000000000E+00  0.24120129486E+04  0.24120129486E+04  0.25500000920E-02 0.  1.
       -2   -1    0    0    0  501  0.00000000000E+00  0.00000000000E+00 -0.10340618993E+04  0.10340618994E+04  0.25500000920E-02 0. -1.
    10030    2    1    2    0    0  0.00000000000E+00  0.00000000000E+00  0.13779510493E+04  0.34460748480E+04  0.31585887298E+04 0.  0.
        1    1    3    3  502    0 -0.15707452425E+04 -0.14957453885E+03  0.76262954419E+03  0.17524887964E+04  0.50400001928E-02 0. -1.
       -1    1    3    3    0  502  0.15707452425E+04  0.14957453885E+03  0.61532150510E+03  0.16935860516E+04  0.50400001928E-02 0.  1.
</event>
<event>
 5   0  0.7941434E-06  0.1890210E+04  0.7818609E-02  0.8659745E-01
       -2   -1    0    0    0  501  0.00000000000E+00  0.00000000000E+00  0.10911040736E+04  0.10911040736E+04  0.25500000920E-02 0. -1.
        2   -1    0    0  501    0  0.00000000000E+00  0.00000000000E+00 -0.81864206476E+03  0.81864206476E+03  0.25500000920E-02 0.  1.
    10030    2    1    2    0    0  0.00000000000E+00  0.00000000000E+00  0.27246200883E+03  0.19097461384E+04  0.18902102440E+04 0.  0.
        4    1    3    3  502    0  0.26680583361E+03  0.62666183980E+03  0.79823709964E+03  0.10493209683E+04  0.12699999809E+01 0. -1.
       -4    1    3    3    0  502 -0.26680583361E+03 -0.62666183980E+03 -0.52577509081E+03  0.86042517009E+03  0.12699999809E+01 0.  1.
</event>
<event>
 5   0  0.4142886E-06  0.3168425E+04  0.7818609E-02  0.8197206E-01
        1   -1    0    0  501    0  0.00000000000E+00  0.00000000000E+00  0.13362495130E+04  0.13362495130E+04  0.50400001928E-02 0.  1.
       -1   -1    0    0    0  501  0.00000000000E+00  0.00000000000E+00 -0.18781887345E+04  0.18781887345E+04  0.50400001928E-02 0. -1.
    10030    2    1    2    0    0  0.00000000000E+00  0.00000000000E+00 -0.54193922150E+03  0.32144382476E+04  0.31684247076E+04 0.  0.
        5    1    3    3  502    0  0.39936384362E+02 -0.66762540101E+03  0.11859879209E+04  0.13615829131E+04  0.46999998093E+01 0.  1.
       -5    1    3    3    0  502 -0.39936384362E+02  0.66762540101E+03 -0.17279271424E+04  0.18528553344E+04  0.46999998093E+01 0. -1.
</event>
<event>
 5   0  0.7941434E-06  0.1583573E+04  0.7818609E-02  0.8830704E-01
        2   -1    0    0  501    0  0.00000000000E+00  0.00000000000E+00  0.12390144615E+04  0.12390144615E+04  0.25500000920E-02 0.  1.
       -2   -1    0    0    0  501  0.00000000000E+00  0.00000000000E+00 -0.50598772415E+03  0.50598772415E+03  0.25500000920E-02 0. -1.
    10030    2    1    2    0    0  0.00000000000E+00  0.00000000000E+00  0.73302673736E+03  0.17450021857E+04  0.15835733107E+04 0.  0.
        4    1    3    3  502    0  0.20940618649E+03 -0.19682762780E+03  0.11795121709E+04  0.12140192092E+04  0.12699999809E+01 0.  1.
       -4    1    3    3    0  502 -0.20940618649E+03  0.19682762780E+03 -0.44648543358E+03  0.53098297647E+03  0.12699999809E+01 0. -1.
</event>
<event>
 5   0  0.8237664E-06  0.3153365E+04  0.7818609E-02  0.8201243E-01
        2   -1    0    0  501    0  0.00000000000E+00  0.00000000000E+00  0.24293266458E+04  0.24293266458E+04  0.25500000920E-02 0.  1.
       -2   -1    0    0    0  501  0.00000000000E+00  0.00000000000E+00 -0.10232993737E+04  0.10232993737E+04  0.25500000920E-02 0. -1.
    10030    2    1    2    0    0  0.00000000000E+00  0.00000000000E+00  0.14060272721E+04  0.34526260195E+04  0.31533654626E+04 0.  0.
        5    1    3    3  502    0 -0.67629386941E+03 -0.13719439826E+04  0.28421878087E+03  0.15557654369E+04  0.46999998093E+01 0. -1.
       -5    1    3    3    0  502  0.67629386941E+03  0.13719439826E+04  0.11218084912E+04  0.18968605827E+04  0.46999998093E+01 0.  1.
</event>
<event>
 5   0  0.7971763E-06  0.3054506E+04  0.7818609E-02  0.8228335E-01
       -2   -1    0    0    0  501  0.00000000000E+00  0.00000000000E+00  0.98048891258E+03  0.98048891258E+03  0.25500000920E-02 0. -1.
        2   -1    0    0  501    0  0.00000000000E+00  0.00000000000E+00 -0.23789175714E+04  0.23789175714E+04  0.25500000920E-02 0.  1.
    10030    2    1    2    0    0  0.00000000000E+00  0.00000000000E+00 -0.13984286588E+04  0.33594064839E+04  0.30545063776E+04 0.  0.
        1    1    3    3  502    0 -0.76859094164E+03  0.10326426154E+04 -0.16030892076E+04  0.20559615304E+04  0.50400001928E-02 0.  1.
       -1    1    3    3    0  502  0.76859094164E+03 -0.10326426154E+04  0.20466054882E+03  0.13034449536E+04  0.50400001928E-02 0. -1.
</event>
<event>
 5   0  0.2635798E-06  0.3170747E+04  0.7818609E-02  0.8196586E-01
        1   -1    0    0  501    0  0.00000000000E+00  0.00000000000E+00  0.97633552663E+03  0.97633552665E+03  0.50400001928E-02 0.  1.
       -1   -1    0    0    0  501  0.00000000000E+00  0.00000000000E+00 -0.25743290274E+04  0.25743290274E+04  0.50400001928E-02 0. -1.
    10030    2    1    2    0    0  0.00000000000E+00  0.00000000000E+00 -0.15979935007E+04  0.35506645540E+04  0.31707468437E+04 0.  0.
        1    1    3    3  502    0  0.74744726587E+03  0.13252197972E+04 -0.30004960617E+03  0.15507787374E+04  0.50400001928E-02 0.  1.
       -1    1    3    3    0  502 -0.74744726587E+03 -0.13252197972E+04 -0.12979438946E+04  0.19998858166E+04  0.50400001928E-02 0. -1.
</event>
<event>
 5   0  0.7971763E-06  0.1989111E+04  0.7818609E-02  0.8611729E-01
       -2   -1    0    0    0  501  0.00000000000E+00  0.00000000000E+00  0.10633900562E+04  0.10633900562E+04  0.25500000920E-02 0. -1.
        2   -1    0    0  501    0  0.00000000000E+00  0.00000000000E+00 -0.93017640843E+03  0.93017640844E+03  0.25500000920E-02 0.  1.
    10030    2    1    2    0    0  0.00000000000E+00  0.00000000000E+00  0.13321364773E+03  0.19935664646E+04  0.19891106990E+04 0.  0.
        1    1    3    3  502    0 -0.42885938286E+03 -0.16576644365E+03  0.95047885464E+03  0.10558451294E+04  0.50400001928E-02 0. -1.
       -1    1    3    3    0  502  0.42885938286E+03  0.16576644365E+03 -0.81726520690E+03  0.93772133523E+03  0.50400001928E-02 0.  1.
</event>
<event>
 5   0  0.2933646E-06  0.3252556E+04  0.7818609E-02  0.8175073E-01
        1   -1    0    0  501    0  0.00000000000E+00  0.00000000000E+00  0.17568930871E+04  0.17568930871E+04  0.50400001928E-02 0. -1.
       -1   -1    0    0    0  501  0.00000000000E+00  0.00000000000E+00 -0.15053736924E+04  0.15053736924E+04  0.50400001928E-02 0.  1.
    10030    2    1    2    0    0  0.00000000000E+00  0.00000000000E+00  0.25151939476E+03  0.32622667795E+04  0.32525563077E+04 0.  0.
        2    1    3    3  502    0  0.91975157921E+03  0.10504740427E+04 -0.71060148143E+03  0.15666502951E+04  0.25500000920E-02 0.  1.
       -2    1    3    3    0  502 -0.91975157921E+03 -0.10504740427E+04  0.96212087619E+03  0.16956164844E+04  0.25500000920E-02 0. -1.
</event>
<event>
 5   0  0.7510251E-06  0.3049832E+04  0.7818609E-02  0.8229643E-01
       -2   -1    0    0    0  501  0.00000000000E+00  0.00000000000E+00  0.18392803619E+04  0.18392803619E+04  0.25500000920E-02 0.  1.
        2   -1    0    0  501    0  0.00000000000E+00  0.00000000000E+00 -0.12642816500E+04  0.12642816500E+04  0.25500000920E-02 0. -1.
    10030    2    1    2    0    0  0.00000000000E+00  0.00000000000E+00  0.57499871186E+03  0.31035620119E+04  0.30498317402E+04 0.  0.
        3    1    3    3  502    0  0.13703745583E+04 -0.39944317937E+03  0.83350315290E+03  0.16529394422E+04  0.10100000352E+00 0.  1.
       -3    1    3    3    0  502 -0.13703745583E+04  0.39944317937E+03 -0.25850444104E+03  0.14506225697E+04  0.10100000352E+00 0. -1.
</event>
<event>
 5   0  0.3938696E-06  0.2126478E+04  0.7818609E-02  0.8549668E-01
        1   -1    0    0  501    0  0.00000000000E+00  0.00000000000E+00  0.11234783497E+04  0.11234783497E+04  0.50400001928E-02 0. -1.
       -1   -1    0    0    0  501  0.00000000000E+00  0.00000000000E+00 -0.10062298840E+04  0.10062298840E+04  0.50400001928E-02 0.  1.
    10030    2    1    2    0    0  0.00000000000E+00  0.00000000000E+00  0.11724846576E+03  0.21297082337E+04  0.21264782995E+04 0.  0.
        4    1    3    3  502    0 -0.10286041380E+03  0.10580588840E+04  0.78829359594E+02  0.10659664852E+04  0.12699999809E+01 0. -1.
       -4    1    3    3    0  502  0.10286041380E+03 -0.10580588840E+04  0.38419106164E+02  0.10637417485E+04  0.12699999809E+01 0.  1.
</event>
<event>
 5   0  0.2635798E-06  0.3184711E+04  0.7818609E-02  0.8192867E-01
       -1   -1    0    0    0  501  0.00000000000E+00  0.00000000000E+00  0.15541851645E+04  0.15541851645E+04  0.50400001928E-02 0. -1.
        1   -1    0    0  501    0  0.00000000000E+00  0.00000000000E+00 -0.16314628240E+04  0.16314628240E+04  0.50400001928E-02 0.  1.
    10030    2    1    2    0    0  0.00000000000E+00  0.00000000000E+00 -0.77277659499E+02  0.31856479884E+04  0.31847105472E+04 0.  0.
        1    1    3    3  502    0 -0.30971039304E+03  0.15600644907E+04  0.38022980492E+02  0.15909643270E+04  0.50400001928E-02 0.  1.
       -1    1    3    3    0  502  0.30971039304E+03 -0.15600644907E+04 -0.11530063999E+03  0.15946836615E+04  0.50400001928E-02 0. -1.
</event>
<event>
 5   0  0.7971763E-06  0.3113115E+04  0.7818609E-02  0.8212148E-01
       -2   -1    0    0    0  501  0.00000000000E+00  0.00000000000E+00  0.16461055090E+04  0.16461055090E+04  0.25500000920E-02 0. -1.
        2   -1    0    0  501    0  0.00000000000E+00  0.00000000000E+00 -0.14718810890E+04  0.14718810890E+04  0.25500000920E-02 0.  1.
    10030    2    1    2    0    0  0.00000000000E+00  0.00000000000E+00  0.17422442002E+03  0.31179865979E+04  0.31131152045E+04 0.  0.
        1    1    3    3  502    0  0.15174990500E+04  0.33963484677E+03  0.18328890681E+02  0.15551498784E+04  0.50400001928E-02 0. -1.
       -1    1    3    3    0  502 -0.15174990500E+04 -0.33963484677E+03  0.15589552933E+03  0.15628367196E+04  0.50400001928E-02 0.  1.
</event>
<event>
 5   0  0.7941434E-06  0.3163985E+04  0.7818609E-02  0.8198394E-01
        2   -1    0    0  501    0  0.00000000000E+00  0.00000000000E+00  0.22764300513E+04  0.22764300513E+04  0.25500000920E-02 0. -1.
       -2   -1    0    0    0  501  0.00000000000E+00  0.00000000000E+00 -0.10993967213E+04  0.10993967213E+04  0.25500000920E-02 0.  1.
    10030    2    1    2    0    0  0.00000000000E+00  0.00000000000E+00  0.11770333300E+04  0.33758267726E+04  0.31639846616E+04 0.  0.
        4    1    3    3  502    0  0.15238308056E+03  0.15745551433E+04  0.60550836604E+03  0.16938378012E+04  0.12699999809E+01 0.  1.
       -4    1    3    3    0  502 -0.15238308056E+03 -0.15745551433E+04  0.57152496399E+03  0.16819889714E+04  0.12699999809E+01 0. -1.
</event>
<event>
 5   0  0.7971763E-06  0.3173864E+04  0.7818609E-02  0.8195754E-01
        2   -1    0    0  501    0  0.00000000000E+00  0.00000000000E+00  0.14364364557E+04  0.14364364557E+04  0.25500000920E-02 0.  1.
       -2   -1    0    0    0  501  0.00000000000E+00  0.00000000000E+00 -0.17531947197E+04  0.17531947197E+04  0.25500000920E-02 0. -1.
    10030    2    1    2    0    0  0.00000000000E+00  0.00000000000E+00 -0.31675826400E+03  0.31896311753E+04  0.31738637710E+04 0.  0.
        1    1    3    3  502    0  0.11802056010E+04 -0.55591988614E+03  0.74966962928E+03  0.15046384062E+04  0.50400001928E-02 0.  1.
       -1    1    3    3    0  502 -0.11802056010E+04  0.55591988614E+03 -0.10664278933E+04  0.16849927691E+04  0.50400001928E-02 0. -1.
</event>
<event>
 5   0  0.7510251E-06  0.3266636E+04  0.7818609E-02  0.8171437E-01
        2   -1    0    0  501    0  0.00000000000E+00  0.00000000000E+00  0.17477821260E+04  0.17477821260E+04  0.25500000920E-02 0. -1.
       -2   -1    0    0    0  501  0.00000000000E+00  0.00000000000E+00 -0.15263506417E+04  0.15263506417E+04  0.25500000920E-02 0.  1.
    10030    2    1    2    0    0  0.00000000000E+00  0.00000000000E+00  0.22143148426E+03  0.32741327677E+04  0.32666364167E+04 0.  0.
        3    1    3    3  502    0  0.22613258019E+03 -0.43430831871E+03  0.16724855719E+04  0.17426897767E+04  0.10100000352E+00 0. -1.
       -3    1    3    3    0  502 -0.22613258019E+03  0.43430831871E+03 -0.14510540876E+04  0.15314429911E+04  0.10100000352E+00 0.  1.
</event>
<event>
 5   0  0.2635798E-06  0.3255370E+04  0.7818609E-02  0.8174345E-01
        1   -1    0    0  501    0  0.00000000000E+00  0.00000000000E+00  0.18094809213E+04  0.18094809213E+04  0.50400001928E-02 0. -1.
       -1   -1    0    0    0  501  0.00000000000E+00  0.00000000000E+00 -0.14641540864E+04  0.14641540864E+04  0.50400001928E-02 0.  1.
    10030    2    1    2    0    0  0.00000000000E+00  0.00000000000E+00  0.34532683489E+03  0.32736350077E+04  0.32553702617E+04 0.  0.
        1    1    3    3  502    0  0.15141654415E+03  0.50729559982E+03  0.17204818381E+04  0.18000926506E+04  0.50400001928E-02 0. -1.
       -1    1    3    3    0  502 -0.15141654415E+03 -0.50729559982E+03 -0.13751550032E+04  0.14735423571E+04  0.50400001928E-02 0.  1.
</event>
<event>
 5   0  0.2635798E-06  0.1888246E+04  0.7818609E-02  0.8660729E-01
        1   -1    0    0  501    0  0.00000000000E+00  0.00000000000E+00  0.97299864375E+03  0.97299864376E+03  0.50400001928E-02 0. -1.
       -1   -1    0    0    0  501  0.00000000000E+00  0.00000000000E+00 -0.91610437477E+03  0.91610437478E+03  0.50400001928E-02 0.  1.
    10030    2    1    2    0    0  0.00000000000E+00  0.00000000000E+00  0.56894268977E+02  0.18891030185E+04  0.18882460795E+04 0.  0.
        1    1    3    3  502    0 -0.24418999078E+03 -0.55200843239E+03 -0.69784806740E+03  0.92267761771E+03  0.50400001928E-02 0.  1.
       -1    1    3    3    0  502  0.24418999078E+03  0.55200843239E+03  0.75474233638E+03  0.96642540083E+03  0.50400001928E-02 0. -1.
</event>
<event>
 5   0  0.2788054E-06  0.2921751E+04  0.7818609E-02  0.8266435E-01
        1   -1    0    0  501    0  0.00000000000E+00  0.00000000000E+00  0.20446205530E+04  0.20446205530E+04  0.50400001928E-02 0.  1.
       -1   -1    0    0    0  501  0.00000000000E+00  0.00000000000E+00 -0.10437915179E+04  0.10437915179E+04  0.50400001928E-02 0. -1.
    10030    2    1    2    0    0  0.00000000000E+00  0.00000000000E+00  0.10008290351E+04  0.30884120709E+04  0.29217512492E+04 0.  0.
        3    1    3    3  502    0  0.14109770841E+04 -0.33705425277E+03  0.68256848516E+03  0.16032347452E+04  0.10100000352E+00 0. -1.
       -3    1    3    3    0  502 -0.14109770841E+04  0.33705425277E+03  0.31826054998E+03  0.14851773258E+04  0.10100000352E+00 0.  1.
</event>
<event>
 5   0  0.4142886E-06  0.3221089E+04  0.7818609E-02  0.8183270E-01
        1   -1    0    0  501    0  0.00000000000E+00  0.00000000000E+00  0.17793171858E+04  0.17793171858E+04  0.50400001928E-02 0. -1.
       -1   -1    0    0    0  501  0.00000000000E+00  0.00000000000E+00 -0.14577799029E+04  0.14577799029E+04  0.50400001928E-02 0.  1.
    10030    2    1    2    0    0  0.00000000000E+00  0.00000000000E+00  0.32153728290E+03  0.32370970887E+04  0.32210885330E+04 0.  0.
        5    1    3    3  502    0  0.63311742364E+03 -0.80343180738E+03 -0.10893955224E+04  0.14943711170E+04  0.46999998093E+01 0.  1.
       -5    1    3    3    0  502 -0.63311742364E+03  0.80343180738E+03  0.14109328053E+04  0.17427259716E+04  0.46999998093E+01 0. -1.
</event>
<event>
 5   0  0.4142886E-06  0.2877207E+04  0.7818609E-02  0.8279691E-01
       -1   -1    0    0    0  501  0.00000000000E+00  0.00000000000E+00  0.13935369099E+04  0.13935369099E+04  0.50400001928E-02 0. -1.
        1   -1    0    0  501    0  0.00000000000E+00  0.00000000000E+00 -0.14851280033E+04  0.14851280033E+04  0.50400001928E-02 0.  1.
    10030    2    1    2    0    0  0.00000000000E+00  0.00000000000E+00 -0.91591093395E+02  0.28786649133E+04  0.28772074577E+04 0.  0.
        5    1    3    3  502    0  0.96180258700E+03  0.45987431911E+03 -0.10122092618E+04  0.14700810472E+04  0.46999998093E+01 0.  1.
       -5    1    3    3    0  502 -0.96180258700E+03 -0.45987431911E+03  0.92061816839E+03  0.14085838661E+04  0.46999998093E+01 0. -1.
</event>
<event>
 5   0  0.7941434E-06  0.3100110E+04  0.7818609E-02  0.8215708E-01
        2   -1    0    0  501    0  0.00000000000E+00  0.00000000000E+00  0.23399339008E+04  0.23399339008E+04  0.25500000920E-02 0. -1.
       -2   -1    0    0    0  501  0.00000000000E+00  0.00000000000E+00 -0.10268110253E+04  0.10268110253E+04  0.25500000920E-02 0.  1.
    10030    2    1    2    0    0  0.00000000000E+00  0.00000000000E+00  0.13131228755E+04  0.33667449261E+04  0.31001096289E+04 0.  0.
        4    1    3    3  502    0  0.93744819542E+02  0.96626575410E+03 -0.65576212880E+03  0.11715302733E+04  0.12699999809E+01 0.  1.
       -4    1    3    3    0  502 -0.93744819542E+02 -0.96626575410E+03  0.19688850043E+04  0.21952146528E+04  0.12699999809E+01 0. -1.
</event>
<event>
 5   0  0.7971763E-06  0.2006155E+04  0.7818609E-02  0.8603748E-01
       -2   -1    0    0    0  501  0.00000000000E+00  0.00000000000E+00  0.12324252079E+04  0.12324252079E+04  0.25500000920E-02 0.  1.
        2   -1    0    0  501    0  0.00000000000E+00  0.00000000000E+00 -0.81641024515E+03  0.81641024516E+03  0.25500000920E-02 0. -1.
    10030    2    1    2    0    0  0.00000000000E+00  0.00000000000E+00  0.41601496273E+03  0.20488354530E+04  0.20061550948E+04 0.  0.
        1    1    3    3  502    0  0.71358758503E+03  0.56012833966E+03 -0.22913336758E+03  0.93565650672E+03  0.50400001928E-02 0.  1.
       -1    1    3    3    0  502 -0.71358758503E+03 -0.56012833966E+03  0.64514833031E+03  0.11131789463E+04  0.50400001928E-02 0. -1.
</event>
<event>
 5   0  0.2933646E-06  0.3192792E+04  0.7818609E-02  0.8190723E-01
       -1   -1    0    0    0  501  0.00000000000E+00  0.00000000000E+00  0.12258940123E+04  0.12258940123E+04  0.50400001928E-02 0. -1.
        1   -1    0    0  501    0  0.00000000000E+00  0.00000000000E+00 -0.20788746459E+04  0.20788746459E+04  0.50400001928E-02 0.  1.
    10030    2    1    2    0    0  0.00000000000E+00  0.00000000000E+00 -0.85298063366E+03  0.33047686582E+04  0.31927918696E+04 0.  0.
        2    1    3    3  502    0 -0.61922439747E+03 -0.14571283756E+04 -0.63815685404E+03  0.17070167333E+04  0.25500000920E-02 0. -1.
       -2    1    3    3    0  502  0.61922439747E+03  0.14571283756E+04 -0.21482377961E+03  0.15977519249E+04  0.25500000920E-02 0.  1.
</event>
<event>
 5   0  0.8237664E-06  0.3214093E+04  0.7818609E-02  0.8185105E-01
        2   -1    0    0  501    0  0.00000000000E+00  0.00000000000E+00  0.19315794483E+04  0.19315794483E+04  0.25500000920E-02 0.  1.
       -2   -1    0    0    0  501  0.00000000000E+00  0.00000000000E+00 -0.13370394781E+04  0.13370394781E+04  0.25500000920E-02 0. -1.
    10030    2    1    2    0    0  0.00000000000E+00  0.00000000000E+00  0.59453997023E+03  0.32686189263E+04  0.32140927039E+04 0.  0.
        5    1    3    3  502    0 -0.84794101811E+03 -0.13581780644E+04  0.15737073908E+03  0.16088627239E+04  0.46999998093E+01 0. -1.
       -5    1    3    3    0  502  0.84794101811E+03  0.13581780644E+04  0.43716923115E+03  0.16597562024E+04  0.46999998093E+01 0.  1.
</event>
<event>
 5   0  0.2933646E-06  0.3056688E+04  0.7818609E-02  0.8227726E-01
       -1   -1    0    0    0  501  0.00000000000E+00  0.00000000000E+00  0.15533735813E+04  0.15533735813E+04  0.50400001928E-02 0.  1.
        1   -1    0    0  501    0  0.00000000000E+00  0.00000000000E+00 -0.15037180979E+04  0.15037180979E+04  0.50400001928E-02 0. -1.
    10030    2    1    2    0    0  0.00000000000E+00  0.00000000000E+00  0.49655483327E+02  0.30570916792E+04  0.30566883826E+04 0.  0.
        2    1    3    3  502    0  0.66085556132E+03 -0.12033331525E+04 -0.64689709799E+03  0.15176352013E+04  0.25500000920E-02 0. -1.
       -2    1    3    3    0  502 -0.66085556132E+03  0.12033331525E+04  0.69655258132E+03  0.15394564779E+04  0.25500000920E-02 0.  1.
</event>
<event>
 5   0  0.7952307E-06  0.3442135E+04  0.7818609E-02  0.8127642E-01
       -2   -1    0    0    0  501  0.00000000000E+00  0.00000000000E+00  0.11940296584E+04  0.11940296584E+04  0.25500000920E-02 0. -1.
        2   -1    0    0  501    0  0.00000000000E+00  0.00000000000E+00 -0.24807369996E+04  0.24807369996E+04  0.25500000920E-02 0.  1.
    10030    2    1    2    0    0  0.00000000000E+00  0.00000000000E+00 -0.12867073412E+04  0.36747666580E+04  0.34421351235E+04 0.  0.
        2    1    3    3  502    0 -0.59856389030E+03 -0.42423539637E+03  0.10187264632E+04  0.12554114900E+04  0.25500000920E-02 0. -1.
       -2    1    3    3    0  502  0.59856389030E+03  0.42423539637E+03 -0.23054338044E+04  0.24193551680E+04  0.25500000920E-02 0.  1.
</event>
<event>
 5   0  0.7510251E-06  0.3176201E+04  0.7818609E-02  0.8195131E-01
        2   -1    0    0  501    0  0.00000000000E+00  0.00000000000E+00  0.17128627200E+04  0.17128627200E+04  0.25500000920E-02 0. -1.
       -2   -1    0    0    0  501  0.00000000000E+00  0.00000000000E+00 -0.14724262244E+04  0.14724262244E+04  0.25500000920E-02 0.  1.
    10030    2    1    2    0    0  0.00000000000E+00  0.00000000000E+00  0.24043649567E+03  0.31852889444E+04  0.31762014972E+04 0.  0.
        3    1    3    3  502    0  0.52091748475E+03  0.21220061573E+02  0.16245963703E+04  0.17062000743E+04  0.10100000352E+00 0. -1.
       -3    1    3    3    0  502 -0.52091748475E+03 -0.21220061573E+02 -0.13841598746E+04  0.14790888701E+04  0.10100000352E+00 0.  1.
</event>
<event>
 5   0  0.7971763E-06  0.3232307E+04  0.7818609E-02  0.8180337E-01
        2   -1    0    0  501    0  0.00000000000E+00  0.00000000000E+00  0.10130915908E+04  0.10130915908E+04  0.25500000920E-02 0.  1.
       -2   -1    0    0    0  501  0.00000000000E+00  0.00000000000E+00 -0.25781990031E+04  0.25781990031E+04  0.25500000920E-02 0. -1.
    10030    2    1    2    0    0  0.00000000000E+00  0.00000000000E+00 -0.15651074123E+04  0.35912905939E+04  0.32323067487E+04 0.  0.
        1    1    3    3  502    0 -0.80345272973E+03  0.35099901264E+03  0.72587918241E+03  0.11382605955E+04  0.50400001928E-02 0.  1.
       -1    1    3    3    0  502  0.80345272973E+03 -0.35099901264E+03 -0.22909865947E+04  0.24530299984E+04  0.50400001928E-02 0. -1.
</event>
<event>
 5   0  0.7941434E-06  0.3110248E+04  0.7818609E-02  0.8212931E-01
        2   -1    0    0  501    0  0.00000000000E+00  0.00000000000E+00  0.11601557512E+04  0.11601557512E+04  0.25500000920E-02 0.  1.
       -2   -1    0    0    0  501  0.00000000000E+00  0.00000000000E+00 -0.20845563099E+04  0.20845563099E+04  0.25500000920E-02 0. -1.
    10030    2    1    2    0    0  0.00000000000E+00  0.00000000000E+00 -0.92440055871E+03  0.32447120610E+04  0.31102475731E+04 0.  0.
        4    1    3    3  502    0 -0.13713749827E+04  0.12867930162E+03  0.29093909685E+03  0.14077907788E+04  0.12699999809E+01 0.  1.
       -4    1    3    3    0  502  0.13713749827E+04 -0.12867930162E+03 -0.12153396556E+04  0.18369212822E+04  0.12699999809E+01 0. -1.
</event>
<event>
 5   0  0.2580875E-06  0.3232475E+04  0.7818609E-02  0.8180293E-01
        3   -1    0    0  501    0  0.00000000000E+00  0.00000000000E+00  0.16518016355E+04  0.16518016386E+04  0.10100000352E+00 0.  1.
       -3   -1    0    0    0  501  0.00000000000E+00  0.00000000000E+00 -0.15814388357E+04  0.15814388390E+04  0.10100000352E+00 0. -1.
    10030    2    1    2    0    0  0.00000000000E+00  0.00000000000E+00  0.70362799755E+02  0.32332404775E+04  0.32324747582E+04 0.  0.
        2    1    3    3  502    0  0.21190702486E+03 -0.15427998228E+04 -0.39745705339E+03  0.16072050242E+04  0.25500000920E-02 0. -1.
       -2    1    3    3    0  502 -0.21190702486E+03  0.15427998228E+04  0.46781985314E+03  0.16260354533E+04  0.25500000920E-02 0.  1.
</event>
<event>
 5   0  0.3938696E-06  0.1839229E+04  0.7818609E-02  0.8685712E-01
       -1   -1    0    0    0  501  0.00000000000E+00  0.00000000000E+00  0.59913955345E+03  0.59913955347E+03  0.50400001928E-02 0.  1.
        1   -1    0    0  501    0  0.00000000000E+00  0.00000000000E+00 -0.14115088102E+04  0.14115088102E+04  0.50400001928E-02 0. -1.
    10030    2    1    2    0    0  0.00000000000E+00  0.00000000000E+00 -0.81236925678E+03  0.20106483637E+04  0.18392289235E+04 0.  0.
        4    1    3    3  502    0 -0.83956886457E+03 -0.22007782863E+03 -0.73845147029E+03  0.11395711105E+04  0.12699999809E+01 0.  1.
       -4    1    3    3    0  502  0.83956886457E+03  0.22007782863E+03 -0.73917786494E+02  0.87107725322E+03  0.12699999809E+01 0. -1.
</event>
<event>
 5   0  0.7510251E-06  0.2682218E+04  0.7818609E-02  0.8340798E-01
       -2   -1    0    0    0  501  0.00000000000E+00  0.00000000000E+00  0.16037951675E+04  0.16037951675E+04  0.25500000920E-02 0. -1.
        2   -1    0    0  501    0  0.00000000000E+00  0.00000000000E+00 -0.11214478853E+04  0.11214478853E+04  0.25500000920E-02 0.  1.
    10030    2    1    2    0    0  0.00000000000E+00  0.00000000000E+00  0.48234728219E+03  0.27252430528E+04  0.26822175147E+04 0.  0.
        3    1    3    3  502    0  0.71775924082E+03 -0.68617552598E+03 -0.67470578017E+03  0.12005178384E+04  0.10100000352E+00 0.  1.
       -3    1    3    3    0  502 -0.71775924082E+03  0.68617552598E+03  0.11570530624E+04  0.15247252144E+04  0.10100000352E+00 0. -1.
</event>
<event>
 5   0  0.7952307E-06  0.2287977E+04  0.7818609E-02  0.8482677E-01
       -2   -1    0    0    0  501  0.00000000000E+00  0.00000000000E+00  0.72509288547E+03  0.72509288548E+03  0.25500000920E-02 0.  1.
        2   -1    0    0  501    0  0.00000000000E+00  0.00000000000E+00 -0.18048858213E+04  0.18048858213E+04  0.25500000920E-02 0. -1.
    10030    2    1    2    0    0  0.00000000000E+00  0.00000000000E+00 -0.10797929359E+04  0.25299787068E+04  0.22879771574E+04 0.  0.
        2    1    3    3  502    0 -0.44259348017E+03 -0.73393922651E+03 -0.13777718177E+04  0.16225938982E+04  0.25500000920E-02 0. -1.
       -2    1    3    3    0  502  0.44259348017E+03  0.73393922651E+03  0.29797888181E+03  0.90738480861E+03  0.25500000920E-02 0.  1.
</event>
<event>
 5   0  0.8237664E-06  0.3198432E+04  0.7818609E-02  0.8189231E-01
        2   -1    0    0  501    0  0.00000000000E+00  0.00000000000E+00  0.17645493388E+04  0.17645493389E+04  0.25500000920E-02 0. -1.
       -2   -1    0    0    0  501  0.00000000000E+00  0.00000000000E+00 -0.14493740054E+04  0.14493740054E+04  0.25500000920E-02 0.  1.
    10030    2    1    2    0    0  0.00000000000E+00  0.00000000000E+00  0.31517533342E+03  0.32139233443E+04  0.31984320803E+04 0.  0.
        5    1    3    3  502    0  0.14974502367E+03  0.12111703772E+04  0.11960886214E+04  0.17088028953E+04  0.46999998093E+01 0. -1.
       -5    1    3    3    0  502 -0.14974502367E+03 -0.12111703772E+04 -0.88091328801E+03  0.15051204489E+04  0.46999998093E+01 0.  1.
</event>
<event>
 5   0  0.3938696E-06  0.3089659E+04  0.7818609E-02  0.8218582E-01
        1   -1    0    0  501    0  0.00000000000E+00  0.00000000000E+00  0.17451662100E+04  0.17451662100E+04  0.50400001928E-02 0.  1.
       -1   -1    0    0    0  501  0.00000000000E+00  0.00000000000E+00 -0.13674908818E+04  0.13674908818E+04  0.50400001928E-02 0. -1.
    10030    2    1    2    0    0  0.00000000000E+00  0.00000000000E+00  0.37767532816E+03  0.31126570919E+04  0.30896594502E+04 0.  0.
        4    1    3    3  502    0  0.40926497630E+03 -0.36839096599E+03  0.16429410117E+04  0.17327626801E+04  0.12699999809E+01 0.  1.
       -4    1    3    3    0  502 -0.40926497630E+03  0.36839096599E+03 -0.12652656836E+04  0.13798944117E+04  0.12699999809E+01 0. -1.
</event>
<event>
 5   0  0.2788054E-06  0.3271479E+04  0.7818609E-02  0.8170191E-01
        1   -1    0    0  501    0  0.00000000000E+00  0.00000000000E+00  0.12648910235E+04  0.12648910235E+04  0.50400001928E-02 0.  1.
       -1   -1    0    0    0  501  0.00000000000E+00  0.00000000000E+00 -0.21153154221E+04  0.21153154221E+04  0.50400001928E-02 0. -1.
    10030    2    1    2    0    0  0.00000000000E+00  0.00000000000E+00 -0.85042439855E+03  0.33802064456E+04  0.32714788640E+04 0.  0.
        3    1    3    3  502    0 -0.79058309128E+03 -0.62259159593E+03 -0.17576453675E+04  0.20253293973E+04  0.10100000352E+00 0. -1.
       -3    1    3    3    0  502  0.79058309128E+03  0.62259159593E+03  0.90722096891E+03  0.13548770484E+04  0.10100000352E+00 0.  1.
</event>
<event>
 5   0  0.7952307E-06  0.3178021E+04  0.7818609E-02  0.8194646E-01
       -2   -1    0    0    0  501  0.00000000000E+00  0.00000000000E+00  0.13306144879E+04  0.13306144879E+04  0.25500000920E-02 0.  1.
        2   -1    0    0  501    0  0.00000000000E+00  0.00000000000E+00 -0.18975855471E+04  0.18975855471E+04  0.25500000920E-02 0. -1.
    10030    2    1    2    0    0  0.00000000000E+00  0.00000000000E+00 -0.56697105919E+03  0.32282000351E+04  0.31780212845E+04 0.  0.
        2    1    3    3  502    0  0.99191471480E+03  0.20222483112E+03  0.96066569300E+03  0.13955888569E+04  0.25500000920E-02 0.  1.
       -2    1    3    3    0  502 -0.99191471480E+03 -0.20222483112E+03 -0.15276367522E+04  0.18326111782E+04  0.25500000920E-02 0. -1.
</event>
<event>
 5   0  0.2635798E-06  0.3137421E+04  0.7818609E-02  0.8205542E-01
       -1   -1    0    0    0  501  0.00000000000E+00  0.00000000000E+00  0.14203665884E+04  0.14203665884E+04  0.50400001928E-02 0.  1.
        1   -1    0    0  501    0  0.00000000000E+00  0.00000000000E+00 -0.17325476563E+04  0.17325476563E+04  0.50400001928E-02 0. -1.
    10030    2    1    2    0    0  0.00000000000E+00  0.00000000000E+00 -0.31218106792E+03  0.31529142446E+04  0.31374211090E+04 0.  0.
        1    1    3    3  502    0 -0.12733670904E+04  0.88862619898E+03  0.68018644662E+02  0.15542672886E+04  0.50400001928E-02 0.  1.
       -1    1    3    3    0  502  0.12733670904E+04 -0.88862619898E+03 -0.38019971258E+03  0.15986469560E+04  0.50400001928E-02 0. -1.
</event>
<event>
 5   0  0.7941434E-06  0.3249480E+04  0.7818609E-02  0.8175871E-01
       -2   -1    0    0    0  501  0.00000000000E+00  0.00000000000E+00  0.14570938877E+04  0.14570938877E+04  0.25500000920E-02 0. -1.
        2   -1    0    0  501    0  0.00000000000E+00  0.00000000000E+00 -0.18116745829E+04  0.18116745830E+04  0.25500000920E-02 0.  1.
    10030    2    1    2    0    0  0.00000000000E+00  0.00000000000E+00 -0.35458069528E+03  0.32687684706E+04  0.32494799345E+04 0.  0.
        4    1    3    3  502    0 -0.31730216311E+02  0.11321543455E+03 -0.18073888252E+04  0.18112096840E+04  0.12699999809E+01 0.  1.
       -4    1    3    3    0  502  0.31730216311E+02 -0.11321543455E+03  0.14528081299E+04  0.14575587866E+04  0.12699999809E+01 0. -1.
</event>
<event>
 5   0  0.2580875E-06  0.1761571E+04  0.7818609E-02  0.8727007E-01
        3   -1    0    0  501    0  0.00000000000E+00  0.00000000000E+00  0.64607850891E+03  0.64607851680E+03  0.10100000352E+00 0.  1.
       -3   -1    0    0    0  501  0.00000000000E+00  0.00000000000E+00 -0.12007563942E+04  0.12007563985E+04  0.10100000352E+00 0. -1.
    10030    2    1    2    0    0  0.00000000000E+00  0.00000000000E+00 -0.55467788531E+03  0.18468349153E+04  0.17615707899E+04 0.  0.
        3    1    3    3  502    0  0.51275887736E+03 -0.54557937350E+03 -0.76369410721E+03  0.10694892326E+04  0.10100000352E+00 0. -1.
       -3    1    3    3    0  502 -0.51275887736E+03  0.54557937350E+03  0.20901622191E+03  0.77734568264E+03  0.10100000352E+00 0.  1.
</event>
<event>
 5   0  0.8237664E-06  0.3169190E+04  0.7818609E-02  0.8197002E-01
        2   -1    0    0  501    0  0.00000000000E+00  0.00000000000E+00  0.14655937733E+04  0.14655937733E+04  0.25500000920E-02 0.  1.
       -2   -1    0    0    0  501  0.00000000000E+00  0.00000000000E+00 -0.17132584384E+04  0.17132584384E+04  0.25500000920E-02 0. -1.
    10030    2    1    2    0    0  0.00000000000E+00  0.00000000000E+00 -0.24766466513E+03  0.31788522117E+04  0.31691897383E+04 0.  0.
        5    1    3    3  502    0 -0.52342150629E+03  0.91360358595E+03  0.10639559498E+04  0.14968854127E+04  0.46999998093E+01 0.  1.
       -5    1    3    3    0  502  0.52342150629E+03 -0.91360358595E+03 -0.13116206150E+04  0.16819667990E+04  0.46999998093E+01 0. -1.
</event>
<event>
 5   0  0.7971763E-06  0.3136252E+04  0.7818609E-02  0.8205859E-01
        2   -1    0    0  501    0  0.00000000000E+00  0.00000000000E+00  0.12244113356E+04  0.12244113356E+04  0.25500000920E-02 0.  1.
       -2   -1    0    0    0  501  0.00000000000E+00  0.00000000000E+00 -0.20083279062E+04  0.20083279062E+04  0.25500000920E-02 0. -1.
    10030    2    1    2    0    0  0.00000000000E+00  0.00000000000E+00 -0.78391657057E+03  0.32327392418E+04  0.31362521926E+04 0.  0.
        1    1    3    3  502    0  0.13690601761E+04  0.63138139888E+03 -0.83656493636E+03  0.17241836124E+04  0.50400001928E-02 0. -1.
       -1    1    3    3    0  502 -0.13690601761E+04 -0.63138139888E+03  0.52648365790E+02  0.15085556294E+04  0.50400001928E-02 0.  1.
</event>
<event>
 5   0  0.2788054E-06  0.3215402E+04  0.7818609E-02  0.8184761E-01
        1   -1    0    0  501    0  0.00000000000E+00  0.00000000000E+00  0.22016591404E+04  0.22016591404E+04  0.50400001928E-02 0. -1.
       -1   -1    0    0    0  501  0.00000000000E+00  0.00000000000E+00 -0.11739792596E+04  0.11739792596E+04  0.50400001928E-02 0.  1.
    10030    2    1    2    0    0  0.00000000000E+00  0.00000000000E+00  0.10276798808E+04  0.33756384000E+04  0.32154017898E+04 0.  0.
        3    1    3    3  502    0  0.10296854440E+04  0.23860310207E+03  0.17856213640E+04  0.20750005349E+04  0.10100000352E+00 0. -1.
       -3    1    3    3    0  502 -0.10296854440E+04 -0.23860310207E+03 -0.75794148322E+03  0.13006378651E+04  0.10100000352E+00 0.  1.
</event>
<event>
 5   0  0.3938696E-06  0.3230445E+04  0.7818609E-02  0.8180823E-01
       -1   -1    0    0    0  501  0.00000000000E+00  0.00000000000E+00  0.10443482779E+04  0.10443482779E+04  0.50400001928E-02 0.  1.
        1   -1    0    0  501    0  0.00000000000E+00  0.00000000000E+00 -0.24981554556E+04  0.24981554556E+04  0.50400001928E-02 0. -1.
    10030    2    1    2    0    0  0.00000000000E+00  0.00000000000E+00 -0.14538071777E+04  0.35425037336E+04  0.32304453861E+04 0.  0.
        4    1    3    3  502    0 -0.91359754173E+01  0.69946663699E+03 -0.23234275907E+04  0.24264489330E+04  0.12699999809E+01 0. -1.
       -4    1    3    3    0  502  0.91359754173E+01 -0.69946663699E+03  0.86962041298E+03  0.11160548006E+04  0.12699999809E+01 0.  1.
</event>
<event>
 5   0  0.2635798E-06  0.3197931E+04  0.7818609E-02  0.8189364E-01
        1   -1    0    0  501    0  0.00000000000E+00  0.00000000000E+00  0.13477111450E+04  0.13477111450E+04  0.50400001928E-02 0. -1.
       -1   -1    0    0    0  501  0.00000000000E+00  0.00000000000E+00 -0.18970618548E+04  0.18970618548E+04  0.50400001928E-02 0.  1.
    10030    2    1    2    0    0  0.00000000000E+00  0.00000000000E+00 -0.54935070975E+03  0.32447729998E+04  0.31979314593E+04 0.  0.
        1    1    3    3  502    0  0.90004541582E+03 -0.19136380698E+03  0.10521442990E+04  0.13977515814E+04  0.50400001928E-02 0. -1.
       -1    1    3    3    0  502 -0.90004541582E+03  0.19136380698E+03 -0.16014950088E+04  0.18470214185E+04  0.50400001928E-02 0.  1.
</event>
<event>
 5   0  0.3938696E-06  0.2343838E+04  0.7818609E-02  0.8460834E-01
        1   -1    0    0  501    0  0.00000000000E+00  0.00000000000E+00  0.11388623608E+04  0.11388623608E+04  0.50400001928E-02 0. -1.
       -1   -1    0    0    0  501  0.00000000000E+00  0.00000000000E+00 -0.12059348586E+04  0.12059348586E+04  0.50400001928E-02 0.  1.
    10030    2    1    2    0    0  0.00000000000E+00  0.00000000000E+00 -0.67072497783E+02  0.23447972194E+04  0.23438377248E+04 0.  0.
        4    1    3    3  502    0  0.39578585591E+03 -0.87490172895E+03  0.63852200321E+03  0.11531745057E+04  0.12699999809E+01 0.  1.
       -4    1    3    3    0  502 -0.39578585591E+03  0.87490172895E+03 -0.70559450099E+03  0.11916227137E+04  0.12699999809E+01 0. -1.
</event>
<event>
 5   0  0.2788054E-06  0.3461713E+04  0.7818609E-02  0.8122924E-01
        1   -1    0    0  501    0  0.00000000000E+00  0.00000000000E+00  0.13599182531E+04  0.13599182531E+04  0.50400001928E-02 0. -1.
       -1   -1    0    0    0  501  0.00000000000E+00  0.00000000000E+00 -0.22029731765E+04  0.22029731765E+04  0.50400001928E-02 0.  1.
    10030    2    1    2    0    0  0.00000000000E+00  0.00000000000E+00 -0.84305492345E+03  0.35628914297E+04  0.34617125438E+04 0.  0.
        3    1    3    3  502    0 -0.12514090036E+04 -0.33967043093E+02  0.80868424366E+03  0.14903517942E+04  0.10100000352E+00 0. -1.
       -3    1    3    3    0  502  0.12514090036E+04  0.33967043093E+02 -0.16517391671E+04  0.20725396355E+04  0.10100000352E+00 0.  1.
</event>
<event>
 5   0  0.8237664E-06  0.3193212E+04  0.7818609E-02  0.8190612E-01
       -2   -1    0    0    0  501  0.00000000000E+00  0.00000000000E+00  0.19853688663E+04  0.19853688663E+04  0.25500000920E-02 0.  1.
        2   -1    0    0  501    0  0.00000000000E+00  0.00000000000E+00 -0.12839682599E+04  0.12839682599E+04  0.25500000920E-02 0. -1.
    10030    2    1    2    0    0  0.00000000000E+00  0.00000000000E+00  0.70140060647E+03  0.32693371262E+04  0.31932119306E+04 0.  0.
        5    1    3    3  502    0 -0.44389628577E+03  0.13891361726E+04 -0.31470515763E+03  0.14919130822E+04  0.46999998093E+01 0. -1.
       -5    1    3    3    0  502  0.44389628577E+03 -0.13891361726E+04  0.10161057641E+04  0.17774240440E+04  0.46999998093E+01 0.  1.
</event>
<event>
 5   0  0.7952307E-06  0.3186874E+04  0.7818609E-02  0.8192292E-01
        2   -1    0    0  501    0  0.00000000000E+00  0.00000000000E+00  0.23506228009E+04  0.23506228009E+04  0.25500000920E-02 0.  1.
       -2   -1    0    0    0  501  0.00000000000E+00  0.00000000000E+00 -0.10801569066E+04  0.10801569066E+04  0.25500000920E-02 0. -1.
    10030    2    1    2    0    0  0.00000000000E+00  0.00000000000E+00  0.12704658943E+04  0.34307797075E+04  0.31868739876E+04 0.  0.
        2    1    3    3  502    0 -0.65200633918E+03  0.13677672975E+04  0.11660657608E+04  0.19119646976E+04  0.25500000920E-02 0. -1.
       -2    1    3    3    0  502  0.65200633918E+03 -0.13677672975E+04  0.10440013351E+03  0.15188150099E+04  0.25500000920E-02 0.  1.
</event>
<event>
 5   0  0.2933646E-06  0.3064709E+04  0.7818609E-02  0.8225490E-01
       -1   -1    0    0    0  501  0.00000000000E+00  0.00000000000E+00  0.10138051236E+04  0.10138051236E+04  0.50400001928E-02 0.  1.
        1   -1    0    0  501    0  0.00000000000E+00  0.00000000000E+00 -0.23161356793E+04  0.23161356793E+04  0.50400001928E-02 0. -1.
    10030    2    1    2    0    0  0.00000000000E+00  0.00000000000E+00 -0.13023305557E+04  0.33299408029E+04  0.30647089380E+04 0.  0.
        2    1    3    3  502    0 -0.87199751426E+03 -0.14655775809E+03  0.70864403459E+03  0.11331527739E+04  0.25500000920E-02 0.  1.
       -2    1    3    3    0  502  0.87199751426E+03  0.14655775809E+03 -0.20109745903E+04  0.21967880290E+04  0.25500000920E-02 0. -1.
</event>
<event>
 5   0  0.2635798E-06  0.2948255E+04  0.7818609E-02  0.8258663E-01
        1   -1    0    0  501    0  0.00000000000E+00  0.00000000000E+00  0.14590592122E+04  0.14590592122E+04  0.50400001928E-02 0. -1.
       -1   -1    0    0    0  501  0.00000000000E+00  0.00000000000E+00 -0.14893516974E+04  0.14893516975E+04  0.50400001928E-02 0.  1.
    10030    2    1    2    0    0  0.00000000000E+00  0.00000000000E+00 -0.30292485279E+02  0.29484109096E+04  0.29482552904E+04 0.  0.
        1    1    3    3  502    0 -0.40421503080E+03  0.88119278594E+03  0.10953905563E+04  0.14627956070E+04  0.50400001928E-02 0. -1.
       -1    1    3    3    0  502  0.40421503080E+03 -0.88119278594E+03 -0.11256830416E+04  0.14856153026E+04  0.50400001928E-02 0.  1.
</event>
<event>
 5   0  0.2788054E-06  0.2164891E+04  0.7818609E-02  0.8533185E-01
       -1   -1    0    0    0  501  0.00000000000E+00  0.00000000000E+00  0.11723855829E+04  0.11723855829E+04  0.50400001928E-02 0.  1.
        1   -1    0    0  501    0  0.00000000000E+00  0.00000000000E+00 -0.99940544708E+03  0.99940544709E+03  0.50400001928E-02 0. -1.
    10030    2    1    2    0    0  0.00000000000E+00  0.00000000000E+00  0.17298013578E+03  0.21717910300E+04  0.21648912560E+04 0.  0.
        3    1    3    3  502    0 -0.59824789297E+03  0.78072253559E+03  0.53988215925E+03  0.11220075646E+04  0.10100000352E+00 0.  1.
       -3    1    3    3    0  502  0.59824789297E+03 -0.78072253559E+03 -0.36690202347E+03  0.10497834653E+04  0.10100000352E+00 0. -1.
</event>
<event>
 5   0  0.2635798E-06  0.3266147E+04  0.7818609E-02  0.8171563E-01
       -1   -1    0    0    0  501  0.00000000000E+00  0.00000000000E+00  0.13041305864E+04  0.13041305864E+04  0.50400001928E-02 0.  1.
        1   -1    0    0  501    0  0.00000000000E+00  0.00000000000E+00 -0.20449856663E+04  0.20449856663E+04  0.50400001928E-02 0. -1.
    10030    2    1    2    0    0  0.00000000000E+00  0.00000000000E+00 -0.74085507993E+03  0.33491162527E+04  0.32661465712E+04 0.  0.
        1    1    3    3  502    0  0.10307615353E+04 -0.90001723244E+03  0.54352116650E+03  0.14723843316E+04  0.50400001928E-02 0.  1.
       -1    1    3    3    0  502 -0.10307615353E+04  0.90001723244E+03 -0.12843762464E+04  0.18767319211E+04  0.50400001928E-02 0. -1.
</event>
<event>
 5   0  0.4248791E-06  0.1731831E+04  0.7818609E-02  0.8743415E-01
        1   -1    0    0  501    0  0.00000000000E+00  0.00000000000E+00  0.13525358503E+04  0.13525358503E+04  0.50400001928E-02 0. -1.
       -1   -1    0    0    0  501  0.00000000000E+00  0.00000000000E+00 -0.55437308118E+03  0.55437308120E+03  0.50400001928E-02 0.  1.
    10030    2    1    2    0    0  0.00000000000E+00  0.00000000000E+00  0.79816276908E+03  0.19069089315E+04  0.17318307847E+04 0.  0.
        4    1    3    3  502    0 -0.14954296497E+03 -0.54784491095E+03 -0.32069299869E+03  0.65218307026E+03  0.12699999809E+01 0.  1.
       -4    1    3    3    0  502  0.14954296497E+03  0.54784491095E+03  0.11188557678E+04  0.12547258612E+04  0.12699999809E+01 0. -1.
</event>
<event>
 5   0  0.2635798E-06  0.3026842E+04  0.7818609E-02  0.8236107E-01
        1   -1    0    0  501    0  0.00000000000E+00  0.00000000000E+00  0.17457025966E+04  0.17457025966E+04  0.50400001928E-02 0.  1.
       -1   -1    0    0    0  501  0.00000000000E+00  0.00000000000E+00 -0.13120463264E+04  0.13120463264E+04  0.50400001928E-02 0. -1.
    10030    2    1    2    0    0  0.00000000000E+00  0.00000000000E+00  0.43365627026E+03  0.30577489230E+04  0.30268417063E+04 0.  0.
        1    1    3    3  502    0  0.71672564681E+03  0.74144895651E+03  0.13358394481E+04  0.16875749580E+04  0.50400001928E-02 0.  1.
       -1    1    3    3    0  502 -0.71672564681E+03 -0.74144895651E+03 -0.90218317781E+03  0.13701739650E+04  0.50400001928E-02 0. -1.
</event>
<event>
 5   0  0.2788054E-06  0.3149221E+04  0.7818609E-02  0.8202358E-01
        1   -1    0    0  501    0  0.00000000000E+00  0.00000000000E+00  0.24320625098E+04  0.24320625098E+04  0.50400001928E-02 0. -1.
       -1   -1    0    0    0  501  0.00000000000E+00  0.00000000000E+00 -0.10194634218E+04  0.10194634218E+04  0.50400001928E-02 0.  1.
    10030    2    1    2    0    0  0.00000000000E+00  0.00000000000E+00  0.14125990880E+04  0.34515259316E+04  0.31492213439E+04 0.  0.
        3    1    3    3  502    0  0.50191695206E+03 -0.49773321124E+02  0.23411311867E+04  0.23948472298E+04  0.10100000352E+00 0. -1.
       -3    1    3    3    0  502 -0.50191695206E+03  0.49773321124E+02 -0.92853209876E+03  0.10566787018E+04  0.10100000352E+00 0.  1.
</event>
<event>
 5   0  0.7952307E-06  0.1644558E+04  0.7818609E-02  0.8793632E-01
       -2   -1    0    0    0  501  0.00000000000E+00  0.00000000000E+00  0.13432970279E+04  0.13432970279E+04  0.25500000920E-02 0.  1.
        2   -1    0    0  501    0  0.00000000000E+00  0.00000000000E+00 -0.50334581270E+03  0.50334581271E+03  0.25500000920E-02 0. -1.
    10030    2    1    2    0    0  0.00000000000E+00  0.00000000000E+00  0.83995121520E+03  0.18466428406E+04  0.16445582194E+04 0.  0.
        2    1    3    3  502    0  0.34671430018E+03  0.43121266597E+03  0.11029860371E+04  0.12339908295E+04  0.25500000920E-02 0.  1.
       -2    1    3    3    0  502 -0.34671430018E+03 -0.43121266597E+03 -0.26303482186E+03  0.61265201115E+03  0.25500000920E-02 0. -1.
</event>
<event>
 5   0  0.7971763E-06  0.2361737E+04  0.7818609E-02  0.8453969E-01
       -2   -1    0    0    0  501  0.00000000000E+00  0.00000000000E+00  0.88539752820E+03  0.88539752821E+03  0.25500000920E-02 0.  1.
        2   -1    0    0  501    0  0.00000000000E+00  0.00000000000E+00 -0.15749433306E+04  0.15749433306E+04  0.25500000920E-02 0. -1.
    10030    2    1    2    0    0  0.00000000000E+00  0.00000000000E+00 -0.68954580238E+03  0.24603408588E+04  0.23617374384E+04 0.  0.
        1    1    3    3  502    0  0.18029754870E+03 -0.39091984536E+03 -0.14902840943E+04  0.15512163658E+04  0.50400001928E-02 0. -1.
       -1    1    3    3    0  502 -0.18029754870E+03  0.39091984536E+03  0.80073829196E+03  0.90912449302E+03  0.50400001928E-02 0.  1.
</event>
<event>
 5   0  0.2788054E-06  0.3084515E+04  0.7818609E-02  0.8220000E-01
        1   -1    0    0  501    0  0.00000000000E+00  0.00000000000E+00  0.20303936004E+04  0.20303936004E+04  0.50400001928E-02 0. -1.
       -1   -1    0    0    0  501  0.00000000000E+00  0.00000000000E+00 -0.11714764894E+04  0.11714764894E+04  0.50400001928E-02 0.  1.
    10030    2    1    2    0    0  0.00000000000E+00  0.00000000000E+00  0.85891711094E+03  0.32018700898E+04  0.30845151108E+04 0.  0.
        3    1    3    3  502    0  0.90061504778E+03 -0.41005730787E+02  0.17283734860E+04  0.19493752465E+04  0.10100000352E+00 0. -1.
       -3    1    3    3    0  502 -0.90061504778E+03  0.41005730787E+02 -0.86945637506E+03  0.12524948433E+04  0.10100000352E+00 0.  1.
</event>
<event>
 5   0  0.7971763E-06  0.3160499E+04  0.7818609E-02  0.8199328E-01
       -2   -1    0    0    0  501  0.00000000000E+00  0.00000000000E+00  0.10649606831E+04  0.10649606831E+04  0.25500000920E-02 0.  1.
        2   -1    0    0  501    0  0.00000000000E+00  0.00000000000E+00 -0.23448651278E+04  0.23448651278E+04  0.25500000920E-02 0. -1.
    10030    2    1    2    0    0  0.00000000000E+00  0.00000000000E+00 -0.12799044447E+04  0.34098258110E+04  0.31604994342E+04 0.  0.
        1    1    3    3  502    0  0.12623026407E+04  0.12091575053E+03 -0.16572932995E+04  0.20867797335E+04  0.50400001928E-02 0.  1.
       -1    1    3    3    0  502 -0.12623026407E+04 -0.12091575053E+03  0.37738885476E+03  0.13230460775E+04  0.50400001928E-02 0. -1.
</event>
<event>
 5   0  0.2788054E-06  0.3187895E+04  0.7818609E-02  0.8192021E-01
        1   -1    0    0  501    0  0.00000000000E+00  0.00000000000E+00  0.86386461206E+03  0.86386461207E+03  0.50400001928E-02 0.  1.
       -1   -1    0    0    0  501  0.00000000000E+00  0.00000000000E+00 -0.29410504565E+04  0.29410504565E+04  0.50400001928E-02 0. -1.
    10030    2    1    2    0    0  0.00000000000E+00  0.00000000000E+00 -0.20771858445E+04  0.38049150686E+04  0.31878954887E+04 0.  0.
        3    1    3    3  502    0 -0.12173579902E+03 -0.10826896341E+03 -0.29310871010E+04  0.29356112442E+04  0.10100000352E+00 0. -1.
       -3    1    3    3    0  502  0.12173579902E+03  0.10826896341E+03  0.85390125648E+03  0.86930382446E+03  0.10100000352E+00 0.  1.
</event>
<event>
 5   0  0.8237664E-06  0.2974078E+04  0.7818609E-02  0.8251172E-01
       -2   -1    0    0    0  501  0.00000000000E+00  0.00000000000E+00  0.11564704214E+04  0.11564704214E+04  0.25500000920E-02 0. -1.
        2   -1    0    0  501    0  0.00000000000E+00  0.00000000000E+00 -0.19120986302E+04  0.19120986302E+04  0.25500000920E-02 0.  1.
    10030    2    1    2    0    0  0.00000000000E+00  0.00000000000E+00 -0.75562820881E+03  0.30685690515E+04  0.29740783503E+04 0.  0.
        5    1    3    3  502    0 -0.30157819498E+03 -0.12869178086E+04  0.32512182747E+03  0.13611881378E+04  0.46999998093E+01 0. -1.
       -5    1    3    3    0  502  0.30157819498E+03  0.12869178086E+04 -0.10807500363E+04  0.17073809137E+04  0.46999998093E+01 0.  1.
</event>
<event>
 5   0  0.2933646E-06  0.2796903E+04  0.7818609E-02  0.8304231E-01
       -1   -1    0    0    0  501  0.00000000000E+00  0.00000000000E+00  0.74247031657E+03  0.74247031658E+03  0.50400001928E-02 0.  1.
        1   -1    0    0  501    0  0.00000000000E+00  0.00000000000E+00 -0.26339995633E+04  0.26339995633E+04  0.50400001928E-02 0. -1.
    10030    2    1    2    0    0  0.00000000000E+00  0.00000000000E+00 -0.18915292467E+04  0.33764698799E+04  0.27969029226E+04 0.  0.
        2    1    3    3  502    0  0.13124949599E+03  0.31695358352E+03 -0.25824150768E+04  0.26051014631E+04  0.25500000920E-02 0. -1.
       -2    1    3    3    0  502 -0.13124949599E+03 -0.31695358352E+03  0.69088583002E+03  0.77136841680E+03  0.25500000920E-02 0.  1.
</event>
<event>
 5   0  0.7510251E-06  0.3158605E+04  0.7818609E-02  0.8199836E-01
        2   -1    0    0  501    0  0.00000000000E+00  0.00000000000E+00  0.22525276421E+04  0.22525276421E+04  0.25500000920E-02 0. -1.
       -2   -1    0    0    0  501  0.00000000000E+00  0.00000000000E+00 -0.11072876616E+04  0.11072876616E+04  0.25500000920E-02 0.  1.
    10030    2    1    2    0    0  0.00000000000E+00  0.00000000000E+00  0.11452399806E+04  0.33598153037E+04  0.31586047967E+04 0.  0.
        3    1    3    3  502    0 -0.49815069509E+03  0.86479084821E+02 -0.10188732704E+04  0.11374249419E+04  0.10100000352E+00 0.  1.
       -3    1    3    3    0  502  0.49815069509E+03 -0.86479084821E+02  0.21641132510E+04  0.22223903618E+04  0.10100000352E+00 0. -1.
</event>
<event>
 5   0  0.7952307E-06  0.2855975E+04  0.7818609E-02  0.8286098E-01
        2   -1    0    0  501    0  0.00000000000E+00  0.00000000000E+00  0.24065326439E+04  0.24065326439E+04  0.25500000920E-02 0.  1.
       -2   -1    0    0    0  501  0.00000000000E+00  0.00000000000E+00 -0.84733888006E+03  0.84733888007E+03  0.25500000920E-02 0. -1.
    10030    2    1    2    0    0  0.00000000000E+00  0.00000000000E+00  0.15591937638E+04  0.32538715240E+04  0.28559752627E+04 0.  0.
        2    1    3    3  502    0 -0.75609144963E+03 -0.97392263946E+02 -0.59610111412E+03  0.96772727126E+03  0.25500000920E-02 0. -1.
       -2    1    3    3    0  502  0.75609144963E+03  0.97392263946E+02  0.21552948780E+04  0.22861442527E+04  0.25500000920E-02 0.  1.
</event>
<event>
 5   0  0.2933646E-06  0.1769320E+04  0.7818609E-02  0.8722787E-01
       -1   -1    0    0    0  501  0.00000000000E+00  0.00000000000E+00  0.43993397770E+03  0.43993397773E+03  0.50400001928E-02 0. -1.
        1   -1    0    0  501    0  0.00000000000E+00  0.00000000000E+00 -0.17789568734E+04  0.17789568734E+04  0.50400001928E-02 0.  1.
    10030    2    1    2    0    0  0.00000000000E+00  0.00000000000E+00 -0.13390228957E+04  0.22188908512E+04  0.17693202916E+04 0.  0.
        2    1    3    3  502    0 -0.97991383262E+02  0.60128554677E+02 -0.17695482492E+04  0.17732790983E+04  0.25500000920E-02 0.  1.
       -2    1    3    3    0  502  0.97991383262E+02 -0.60128554677E+02  0.43052535347E+03  0.44561175284E+03  0.25500000920E-02 0. -1.
</event>
<event>
 5   0  0.8237664E-06  0.3234986E+04  0.7818609E-02  0.8179638E-01
       -2   -1    0    0    0  501  0.00000000000E+00  0.00000000000E+00  0.15214100411E+04  0.15214100411E+04  0.25500000920E-02 0. -1.
        2   -1    0    0  501    0  0.00000000000E+00  0.00000000000E+00 -0.17196442033E+04  0.17196442033E+04  0.25500000920E-02 0.  1.
    10030    2    1    2    0    0  0.00000000000E+00  0.00000000000E+00 -0.19823416219E+03  0.32410542444E+04  0.32349862183E+04 0.  0.
        5    1    3    3  502    0 -0.14330161242E+04 -0.74258382022E+03  0.73645714618E+01  0.16140143336E+04  0.46999998093E+01 0. -1.
       -5    1    3    3    0  502  0.14330161242E+04  0.74258382022E+03 -0.20559873365E+03  0.16270399108E+04  0.46999998093E+01 0.  1.
</event>
<event>
 5   0  0.8237664E-06  0.3240102E+04  0.7818609E-02  0.8178306E-01
        2   -1    0    0  501    0  0.00000000000E+00  0.00000000000E+00  0.13256013404E+04  0.13256013404E+04  0.25500000920E-02 0.  1.
       -2   -1    0    0    0  501  0.00000000000E+00  0.00000000000E+00 -0.19799051062E+04  0.19799051062E+04  0.25500000920E-02 0. -1.
    10030    2    1    2    0    0  0.00000000000E+00  0.00000000000E+00 -0.65430376582E+03  0.33055064466E+04  0.32401017655E+04 0.  0.
        5    1    3    3  502    0  0.14313072852E+04  0.34614674903E+03  0.36182093577E+03  0.15163754799E+04  0.46999998093E+01 0. -1.
       -5    1    3    3    0  502 -0.14313072852E+04 -0.34614674903E+03 -0.10161247016E+04  0.17891309666E+04  0.46999998093E+01 0.  1.
</event>
<event>
 5   0  0.7510251E-06  0.3285088E+04  0.7818609E-02  0.8166700E-01
        2   -1    0    0  501    0  0.00000000000E+00  0.00000000000E+00  0.22465271040E+04  0.22465271041E+04  0.25500000920E-02 0.  1.
       -2   -1    0    0    0  501  0.00000000000E+00  0.00000000000E+00 -0.12009431435E+04  0.12009431435E+04  0.25500000920E-02 0. -1.
    10030    2    1    2    0    0  0.00000000000E+00  0.00000000000E+00  0.10455839606E+04  0.34474702475E+04  0.32850883228E+04 0.  0.
        3    1    3    3  502    0 -0.12674209543E+04  0.10447627001E+04  0.51424462385E+03  0.17211427943E+04  0.10100000352E+00 0. -1.
       -3    1    3    3    0  502  0.12674209543E+04 -0.10447627001E+04  0.53133933674E+03  0.17263274533E+04  0.10100000352E+00 0.  1.
</event>
<event>
 5   0  0.7971763E-06  0.2837735E+04  0.7818609E-02  0.8291648E-01
        2   -1    0    0  501    0  0.00000000000E+00  0.00000000000E+00  0.18604056261E+04  0.18604056261E+04  0.25500000920E-02 0.  1.
       -2   -1    0    0    0  501  0.00000000000E+00  0.00000000000E+00 -0.10821211590E+04  0.10821211590E+04  0.25500000920E-02 0. -1.
    10030    2    1    2    0    0  0.00000000000E+00  0.00000000000E+00  0.77828446705E+03  0.29425267851E+04  0.28377345136E+04 0.  0.
        1    1    3    3  502    0 -0.10461736966E+04  0.74885595897E+03 -0.23121439712E+03  0.13071819874E+04  0.50400001928E-02 0. -1.
       -1    1    3    3    0  502  0.10461736966E+04 -0.74885595897E+03  0.10094988642E+04  0.16353447977E+04  0.50400001928E-02 0.  1.
</event>
<event>
 5   0  0.2580875E-06  0.3151483E+04  0.7818609E-02  0.8201749E-01
        3   -1    0    0  501    0  0.00000000000E+00  0.00000000000E+00  0.90985051161E+03  0.90985051722E+03  0.10100000352E+00 0. -1.
       -3   -1    0    0    0  501  0.00000000000E+00  0.00000000000E+00 -0.27289771197E+04  0.27289771216E+04  0.10100000352E+00 0.  1.
    10030    2    1    2    0    0  0.00000000000E+00  0.00000000000E+00 -0.18191266081E+04  0.36388276388E+04  0.31514829793E+04 0.  0.
        2    1    3    3  502    0 -0.36464725701E+03 -0.40545450959E+03  0.79743026814E+03  0.96605176567E+03  0.25500000920E-02 0. -1.
       -2    1    3    3    0  502  0.36464725701E+03  0.40545450959E+03 -0.26165568763E+04  0.26727758732E+04  0.25500000920E-02 0.  1.
</event>
<event>
 5   0  0.2788054E-06  0.3228198E+04  0.7818609E-02  0.8181410E-01
       -1   -1    0    0    0  501  0.00000000000E+00  0.00000000000E+00  0.25035650441E+04  0.25035650441E+04  0.50400001928E-02 0. -1.
        1   -1    0    0  501    0  0.00000000000E+00  0.00000000000E+00 -0.10406423242E+04  0.10406423242E+04  0.50400001928E-02 0.  1.
    10030    2    1    2    0    0  0.00000000000E+00  0.00000000000E+00  0.14629227199E+04  0.35442073684E+04  0.32281981019E+04 0.  0.
        3    1    3    3  502    0  0.93816759500E+03 -0.10354553136E+04 -0.15571932141E+03  0.14059070595E+04  0.10100000352E+00 0.  1.
       -3    1    3    3    0  502 -0.93816759500E+03  0.10354553136E+04  0.16186420413E+04  0.21383003089E+04  0.10100000352E+00 0. -1.
</event>
<event>
 5   0  0.7952307E-06  0.3136283E+04  0.7818609E-02  0.8205850E-01
        2   -1    0    0  501    0  0.00000000000E+00  0.00000000000E+00  0.11316300705E+04  0.11316300705E+04  0.25500000920E-02 0. -1.
       -2   -1    0    0    0  501  0.00000000000E+00  0.00000000000E+00 -0.21730319676E+04  0.21730319676E+04  0.25500000920E-02 0.  1.
    10030    2    1    2    0    0  0.00000000000E+00  0.00000000000E+00 -0.10414018971E+04  0.33046620381E+04  0.31362833537E+04 0.  0.
        2    1    3    3  502    0  0.11070121289E+04  0.90806301112E+03  0.15317640693E+03  0.14399712835E+04  0.25500000920E-02 0. -1.
       -2    1    3    3    0  502 -0.11070121289E+04 -0.90806301112E+03 -0.11945783040E+04  0.18646907546E+04  0.25500000920E-02 0.  1.
</event>
<event>
 5   0  0.2933646E-06  0.3262279E+04  0.7818609E-02  0.8172560E-01
        1   -1    0    0  501    0  0.00000000000E+00  0.00000000000E+00  0.25566211496E+04  0.25566211496E+04  0.50400001928E-02 0. -1.
       -1   -1    0    0    0  501  0.00000000000E+00  0.00000000000E+00 -0.10406764963E+04  0.10406764963E+04  0.50400001928E-02 0.  1.
    10030    2    1    2    0    0  0.00000000000E+00  0.00000000000E+00  0.15159446533E+04  0.35972976458E+04  0.32622786761E+04 0.  0.
        2    1    3    3  502    0  0.35710562016E+03  0.16194509773E+03  0.25038780194E+04  0.25343945578E+04  0.25500000920E-02 0. -1.
       -2    1    3    3    0  502 -0.35710562016E+03 -0.16194509773E+03 -0.98793336611E+03  0.10629030880E+04  0.25500000920E-02 0.  1.
</event>
<event>
 5   0  0.7510251E-06  0.3248145E+04  0.7818609E-02  0.8176217E-01
       -2   -1    0    0    0  501  0.00000000000E+00  0.00000000000E+00  0.17123355592E+04  0.17123355592E+04  0.25500000920E-02 0.  1.
        2   -1    0    0  501    0  0.00000000000E+00  0.00000000000E+00 -0.15403594031E+04  0.15403594031E+04  0.25500000920E-02 0. -1.
    10030    2    1    2    0    0  0.00000000000E+00  0.00000000000E+00  0.17197615603E+03  0.32526949623E+04  0.32481454277E+04 0.  0.
        3    1    3    3  502    0 -0.91612987003E+03  0.83759124874E+03 -0.96274146160E+03  0.15708991600E+04  0.10100000352E+00 0. -1.
       -3    1    3    3    0  502  0.91612987003E+03 -0.83759124874E+03  0.11347176176E+04  0.16817958023E+04  0.10100000352E+00 0.  1.
</event>
<event>
 5   0  0.8237664E-06  0.2996883E+04  0.7818609E-02  0.8244622E-01
        2   -1    0    0  501    0  0.00000000000E+00  0.00000000000E+00  0.22947614458E+04  0.22947614458E+04  0.25500000920E-02 0. -1.
       -2   -1    0    0    0  501  0.00000000000E+00  0.00000000000E+00 -0.97845753078E+03  0.97845753078E+03  0.25500000920E-02 0.  1.
    10030    2    1    2    0    0  0.00000000000E+00  0.00000000000E+00  0.13163039150E+04  0.32732189766E+04  0.29968827925E+04 0.  0.
        5    1    3    3  502    0 -0.87855969783E+03 -0.56699955491E+03  0.18304064548E+04  0.21080240790E+04  0.46999998093E+01 0. -1.
       -5    1    3    3    0  502  0.87855969783E+03  0.56699955491E+03 -0.51410253977E+03  0.11651948976E+04  0.46999998093E+01 0.  1.
</event>
<event>
 5   0  0.4142886E-06  0.3276934E+04  0.7818609E-02  0.8168790E-01
        1   -1    0    0  501    0  0.00000000000E+00  0.00000000000E+00  0.18524434869E+04  0.18524434869E+04  0.50400001928E-02 0.  1.
       -1   -1    0    0    0  501  0.00000000000E+00  0.00000000000E+00 -0.14492066818E+04  0.14492066818E+04  0.50400001928E-02 0. -1.
    10030    2    1    2    0    0  0.00000000000E+00  0.00000000000E+00  0.40323680514E+03  0.33016501687E+04  0.32769336148E+04 0.  0.
        5    1    3    3  502    0 -0.14850187459E+04 -0.55013506543E+03 -0.22181582643E+03  0.15991102579E+04  0.46999998093E+01 0. -1.
       -5    1    3    3    0  502  0.14850187459E+04  0.55013506543E+03  0.62505263156E+03  0.17025399109E+04  0.46999998093E+01 0.  1.
</event>
<event>
 5   0  0.2580875E-06  0.3033070E+04  0.7818609E-02  0.8234350E-01
        3   -1    0    0  501    0  0.00000000000E+00  0.00000000000E+00  0.10829454646E+04  0.10829454693E+04  0.10100000352E+00 0. -1.
       -3   -1    0    0    0  501  0.00000000000E+00  0.00000000000E+00 -0.21237254956E+04  0.21237254980E+04  0.10100000352E+00 0.  1.
    10030    2    1    2    0    0  0.00000000000E+00  0.00000000000E+00 -0.10407800309E+04  0.32066709673E+04  0.30330703289E+04 0.  0.
        2    1    3    3  502    0  0.23004239977E+02  0.53705239879E+03  0.97884526777E+03  0.11167329727E+04  0.25500000920E-02 0. -1.
       -2    1    3    3    0  502 -0.23004239977E+02 -0.53705239879E+03 -0.20196252987E+04  0.20899379946E+04  0.25500000920E-02 0.  1.
</event>
<event>
 5   0  0.7971763E-06  0.1705783E+04  0.7818609E-02  0.8758073E-01
       -2   -1    0    0    0  501  0.00000000000E+00  0.00000000000E+00  0.38784707497E+03  0.38784707498E+03  0.25500000920E-02 0.  1.
        2   -1    0    0  501    0  0.00000000000E+00  0.00000000000E+00 -0.18755430748E+04  0.18755430748E+04  0.25500000920E-02 0. -1.
    10030    2    1    2    0    0  0.00000000000E+00  0.00000000000E+00 -0.14876959999E+04  0.22633901498E+04  0.17057829822E+04 0.  0.
        1    1    3    3  502    0 -0.49022902734E+03 -0.66176731391E+03 -0.10380574925E+04  0.13250750298E+04  0.50400001928E-02 0. -1.
       -1    1    3    3    0  502  0.49022902734E+03  0.66176731391E+03 -0.44963850738E+03  0.93831511996E+03  0.50400001928E-02 0.  1.
</event>
<event>
 5   0  0.7941434E-06  0.2644435E+04  0.7818609E-02  0.8353262E-01
        2   -1    0    0  501    0  0.00000000000E+00  0.00000000000E+00  0.14226964358E+04  0.14226964358E+04  0.25500000920E-02 0.  1.
       -2   -1    0    0    0  501  0.00000000000E+00  0.00000000000E+00 -0.12288349862E+04  0.12288349862E+04  0.25500000920E-02 0. -1.
    10030    2    1    2    0    0  0.00000000000E+00  0.00000000000E+00  0.19386144962E+03  0.26515314220E+04  0.26444350285E+04 0.  0.
        4    1    3    3  502    0  0.32655109643E+03  0.44959640968E+03 -0.11060743170E+04  0.12378103885E+04  0.12699999809E+01 0. -1.
       -4    1    3    3    0  502 -0.32655109643E+03 -0.44959640968E+03  0.12999357667E+04  0.14137210335E+04  0.12699999809E+01 0.  1.
</event>
<event>
 5   0  0.2933646E-06  0.3215088E+04  0.7818609E-02  0.8184844E-01
       -1   -1    0    0    0  501  0.00000000000E+00  0.00000000000E+00  0.13235521823E+04  0.13235521824E+04  0.50400001928E-02 0.  1.
        1   -1    0    0  501    0  0.00000000000E+00  0.00000000000E+00 -0.19524713422E+04  0.19524713422E+04  0.50400001928E-02 0. -1.
    10030    2    1    2    0    0  0.00000000000E+00  0.00000000000E+00 -0.62891915981E+03  0.32760235245E+04  0.32150879962E+04 0.  0.
        2    1    3    3  502    0  0.10526365495E+04  0.23721294697E+03 -0.15286326138E+04  0.18711043144E+04  0.25500000920E-02 0. -1.
       -2    1    3    3    0  502 -0.10526365495E+04 -0.23721294697E+03  0.89971345396E+03  0.14049192101E+04  0.25500000920E-02 0.  1.
</event>
<event>
 5   0  0.3938696E-06  0.3243142E+04  0.7818609E-02  0.8177515E-01
        1   -1    0    0  501    0  0.00000000000E+00  0.00000000000E+00  0.18139088811E+04  0.18139088811E+04  0.50400001928E-02 0. -1.
       -1   -1    0    0    0  501  0.00000000000E+00  0.00000000000E+00 -0.14496279069E+04  0.14496279069E+04  0.50400001928E-02 0.  1.
    10030    2    1    2    0    0  0.00000000000E+00  0.00000000000E+00  0.36428097418E+03  0.32635367881E+04  0.32431422631E+04 0.  0.
        4    1    3    3  502    0  0.41596689497E+02  0.36207608868E+03  0.17721597417E+04  0.18092487782E+04  0.12699999809E+01 0. -1.
       -4    1    3    3    0  502 -0.41596689497E+02 -0.36207608868E+03 -0.14078787675E+04  0.14542880098E+04  0.12699999809E+01 0.  1.
</event>
<event>
 5   0  0.7510251E-06  0.3255955E+04  0.7818609E-02  0.8174194E-01
       -2   -1    0    0    0  501  0.00000000000E+00  0.00000000000E+00  0.24431192991E+04  0.24431192991E+04  0.25500000920E-02 0.  1.
        2   -1    0    0  501    0  0.00000000000E+00  0.00000000000E+00 -0.10848059533E+04  0.10848059533E+04  0.25500000920E-02 0. -1.
    10030    2    1    2    0    0  0.00000000000E+00  0.00000000000E+00  0.13583133458E+04  0.35279252524E+04  0.32559547664E+04 0.  0.
        3    1    3    3  502    0  0.54591780265E+02 -0.15656305586E+04  0.19929708199E+03  0.15792082338E+04  0.10100000352E+00 0.  1.
       -3    1    3    3    0  502 -0.54591780265E+02  0.15656305586E+04  0.11590162638E+04  0.19487170186E+04  0.10100000352E+00 0. -1.
</event>
<event>
 5   0  0.2635798E-06  0.3163546E+04  0.7818609E-02  0.8198511E-01
        1   -1    0    0  501    0  0.00000000000E+00  0.00000000000E+00  0.27459918086E+04  0.27459918086E+04  0.50400001928E-02 0.  1.
       -1   -1    0    0    0  501  0.00000000000E+00  0.00000000000E+00 -0.91114834106E+03  0.91114834108E+03  0.50400001928E-02 0. -1.
    10030    2    1    2    0    0  0.00000000000E+00  0.00000000000E+00  0.18348434675E+04  0.36571401496E+04  0.31635460363E+04 0.  0.
        1    1    3    3  502    0 -0.94127321573E+03  0.64938813178E+03 -0.34593265052E+03  0.11947257472E+04  0.50400001928E-02 0. -1.
       -1    1    3    3    0  502  0.94127321573E+03 -0.64938813178E+03  0.21807761180E+04  0.24624144024E+04  0.50400001928E-02 0.  1.
</event>
<event>
 5   0  0.8237664E-06  0.2936268E+04  0.7818609E-02  0.8262168E-01
       -2   -1    0    0    0  501  0.00000000000E+00  0.00000000000E+00  0.11331388080E+04  0.11331388080E+04  0.25500000920E-02 0. -1.
        2   -1    0    0  501    0  0.00000000000E+00  0.00000000000E+00 -0.19021656426E+04  0.19021656426E+04  0.25500000920E-02 0.  1.
    10030    2    1    2    0    0  0.00000000000E+00  0.00000000000E+00 -0.76902683464E+03  0.30353044505E+04  0.29362681817E+04 0.  0.
        5    1    3    3  502    0  0.32250623115E+03 -0.19466309420E+03 -0.18513490586E+04  0.18892907177E+04  0.46999998093E+01 0.  1.
       -5    1    3    3    0  502 -0.32250623115E+03  0.19466309420E+03  0.10823222239E+04  0.11460137328E+04  0.46999998093E+01 0. -1.
</event>
<event>
 5   0  0.2933646E-06  0.1673002E+04  0.7818609E-02  0.8776914E-01
        1   -1    0    0  501    0  0.00000000000E+00  0.00000000000E+00  0.15129714912E+04  0.15129714912E+04  0.50400001928E-02 0. -1.
       -1   -1    0    0    0  501  0.00000000000E+00  0.00000000000E+00 -0.46249005318E+03  0.46249005321E+03  0.50400001928E-02 0.  1.
    10030    2    1    2    0    0  0.00000000000E+00  0.00000000000E+00  0.10504814380E+04  0.19754615444E+04  0.16730024094E+04 0.  0.
        2    1    3    3  502    0 -0.47726085105E+02  0.29749346662E+03  0.14466748633E+04  0.14777172605E+04  0.25500000920E-02 0. -1.
       -2    1    3    3    0  502  0.47726085105E+02 -0.29749346662E+03 -0.39619342531E+03  0.49774428389E+03  0.25500000920E-02 0.  1.
</event>
<event>
 5   0  0.7971763E-06  0.2884975E+04  0.7818609E-02  0.8277362E-01
       -2   -1    0    0    0  501  0.00000000000E+00  0.00000000000E+00  0.98788880023E+03  0.98788880024E+03  0.25500000920E-02 0. -1.
        2   -1    0    0  501    0  0.00000000000E+00  0.00000000000E+00 -0.21062801923E+04  0.21062801923E+04  0.25500000920E-02 0.  1.
    10030    2    1    2    0    0  0.00000000000E+00  0.00000000000E+00 -0.11183913920E+04  0.30941689925E+04  0.28849752942E+04 0.  0.
        1    1    3    3  502    0  0.68497279270E+03 -0.31807184672E+03 -0.18773001131E+04  0.20235150459E+04  0.50400001928E-02 0.  1.
       -1    1    3    3    0  502 -0.68497279270E+03  0.31807184672E+03  0.75890872106E+03  0.10706539466E+04  0.50400001928E-02 0. -1.
</event>
<event>
 5   0  0.7952307E-06  0.3064867E+04  0.7818609E-02  0.8225447E-01
        2   -1    0    0  501    0  0.00000000000E+00  0.00000000000E+00  0.22076941615E+04  0.22076941615E+04  0.25500000920E-02 0. -1.
       -2   -1    0    0    0  501  0.00000000000E+00  0.00000000000E+00 -0.10637127180E+04  0.10637127180E+04  0.25500000920E-02 0.  1.
    10030    2    1    2    0    0  0.00000000000E+00  0.00000000000E+00  0.11439814435E+04  0.32714068795E+04  0.30648669512E+04 0.  0.
        2    1    3    3  502    0  0.13958149426E+04  0.79016926554E+02  0.12418227909E+04  0.18699376654E+04  0.25500000920E-02 0. -1.
       -2    1    3    3    0  502 -0.13958149426E+04 -0.79016926554E+02 -0.97841347385E+02  0.14014692141E+04  0.25500000920E-02 0.  1.
</event>
<event>
 5   0  0.4528990E-06  0.1608132E+04  0.7818609E-02  0.8815568E-01
       -1   -1    0    0    0  501  0.00000000000E+00  0.00000000000E+00  0.75743844411E+03  0.75743844413E+03  0.50400001928E-02 0.  1.
        1   -1    0    0  501    0  0.00000000000E+00  0.00000000000E+00 -0.85356386517E+03  0.85356386518E+03  0.50400001928E-02 0. -1.
    10030    2    1    2    0    0  0.00000000000E+00  0.00000000000E+00 -0.96125421060E+02  0.16110023093E+04  0.16081319424E+04 0.  0.
        4    1    3    3  502    0  0.10905019634E+03  0.69828778520E+03  0.33605707430E+03  0.78258146308E+03  0.12699999809E+01 0.  1.
       -4    1    3    3    0  502 -0.10905019634E+03 -0.69828778520E+03 -0.43218249535E+03  0.82842084623E+03  0.12699999809E+01 0. -1.
</event>
<event>
 5   0  0.7941434E-06  0.3197076E+04  0.7818609E-02  0.8189590E-01
        2   -1    0    0  501    0  0.00000000000E+00  0.00000000000E+00  0.19223729251E+04  0.19223729251E+04  0.25500000920E-02 0.  1.
       -2   -1    0    0    0  501  0.00000000000E+00  0.00000000000E+00 -0.13292553581E+04  0.13292553581E+04  0.25500000920E-02 0. -1.
    10030    2    1    2    0    0  0.00000000000E+00  0.00000000000E+00  0.59311756698E+03  0.32516282831E+04  0.31970764838E+04 0.  0.
        4    1    3    3  502    0  0.52140857866E+03 -0.10873081831E+04 -0.77073579090E+03  0.14311328600E+04  0.12699999809E+01 0. -1.
       -4    1    3    3    0  502 -0.52140857866E+03  0.10873081831E+04  0.13638533579E+04  0.18204954231E+04  0.12699999809E+01 0.  1.
</event>
<event>
 5   0  0.8237664E-06  0.1604556E+04  0.7818609E-02  0.8817754E-01
        2   -1    0    0  501    0  0.00000000000E+00  0.00000000000E+00  0.14630764146E+04  0.14630764146E+04  0.25500000920E-02 0.  1.
       -2   -1    0    0    0  501  0.00000000000E+00  0.00000000000E+00 -0.43992917356E+03  0.43992917357E+03  0.25500000920E-02 0. -1.
    10030    2    1    2    0    0  0.00000000000E+00  0.00000000000E+00  0.10231472411E+04  0.19030055882E+04  0.16045560108E+04 0.  0.
        5    1    3    3  502    0 -0.56821707491E+03  0.11676870232E+03 -0.14569194737E+03  0.59812524407E+03  0.46999998093E+01 0. -1.
       -5    1    3    3    0  502  0.56821707491E+03 -0.11676870232E+03  0.11688391885E+04  0.13048803441E+04  0.46999998093E+01 0.  1.
</event>
<event>
 5   0  0.2635798E-06  0.2748784E+04  0.7818609E-02  0.8319348E-01
       -1   -1    0    0    0  501  0.00000000000E+00  0.00000000000E+00  0.16635039607E+04  0.16635039607E+04  0.50400001928E-02 0.  1.
        1   -1    0    0  501    0  0.00000000000E+00  0.00000000000E+00 -0.11355266370E+04  0.11355266370E+04  0.50400001928E-02 0. -1.
    10030    2    1    2    0    0  0.00000000000E+00  0.00000000000E+00  0.52797732370E+03  0.27990305977E+04  0.27487837734E+04 0.  0.
        1    1    3    3  502    0  0.38840176161E+03 -0.57372333860E+03 -0.94469627733E+03  0.11715227075E+04  0.50400001928E-02 0. -1.
       -1    1    3    3    0  502 -0.38840176161E+03  0.57372333860E+03  0.14726736010E+04  0.16275078903E+04  0.50400001928E-02 0.  1.
</event>
<event>
 5   0  0.7941434E-06  0.3218128E+04  0.7818609E-02  0.8184046E-01
        2   -1    0    0  501    0  0.00000000000E+00  0.00000000000E+00  0.32676020214E+04  0.32676020214E+04  0.25500000920E-02 0.  1.
       -2   -1    0    0    0  501  0.00000000000E+00  0.00000000000E+00 -0.79235072734E+03  0.79235072735E+03  0.25500000920E-02 0. -1.
    10030    2    1    2    0    0  0.00000000000E+00  0.00000000000E+00  0.24752512941E+04  0.40599527488E+04  0.32181279268E+04 0.  0.
        4    1    3    3  502    0 -0.82077480664E+03 -0.59979070122E+03 -0.33590687483E+03  0.10706330884E+04  0.12699999809E+01 0. -1.
       -4    1    3    3    0  502  0.82077480664E+03  0.59979070122E+03  0.28111581689E+04  0.29893196604E+04  0.12699999809E+01 0.  1.
</event>
<event>
 5   0  0.4142886E-06  0.3252207E+04  0.7818609E-02  0.8175164E-01
       -1   -1    0    0    0  501  0.00000000000E+00  0.00000000000E+00  0.91590639492E+03  0.91590639494E+03  0.50400001928E-02 0.  1.
        1   -1    0    0  501    0  0.00000000000E+00  0.00000000000E+00 -0.28869895390E+04  0.28869895391E+04  0.50400001928E-02 0. -1.
    10030    2    1    2    0    0  0.00000000000E+00  0.00000000000E+00 -0.19710831441E+04  0.38028959340E+04  0.32522067468E+04 0.  0.
        5    1    3    3  502    0 -0.38855527410E+03 -0.27595601399E+03  0.83240156520E+03  0.95918787442E+03  0.46999998093E+01 0.  1.
       -5    1    3    3    0  502  0.38855527410E+03  0.27595601399E+03 -0.28034847093E+04  0.28437080596E+04  0.46999998093E+01 0. -1.
</event>
<event>
 5   0  0.2933646E-06  0.3169096E+04  0.7818609E-02  0.8197027E-01
        1   -1    0    0  501    0  0.00000000000E+00  0.00000000000E+00  0.17143100195E+04  0.17143100195E+04  0.50400001928E-02 0.  1.
       -1   -1    0    0    0  501  0.00000000000E+00  0.00000000000E+00 -0.14646083144E+04  0.14646083144E+04  0.50400001928E-02 0. -1.
    10030    2    1    2    0    0  0.00000000000E+00  0.00000000000E+00  0.24970170514E+03  0.31789183339E+04  0.31690962169E+04 0.  0.
        2    1    3    3  502    0 -0.15255465594E+04  0.51624233076E+02  0.55141622878E+03  0.16229655646E+04  0.25500000920E-02 0.  1.
       -2    1    3    3    0  502  0.15255465594E+04 -0.51624233076E+02 -0.30171452364E+03  0.15559527693E+04  0.25500000920E-02 0. -1.
</event>
<event>
 5   0  0.2933646E-06  0.2148883E+04  0.7818609E-02  0.8540011E-01
        1   -1    0    0  501    0  0.00000000000E+00  0.00000000000E+00  0.92795741501E+03  0.92795741502E+03  0.50400001928E-02 0. -1.
       -1   -1    0    0    0  501  0.00000000000E+00  0.00000000000E+00 -0.12440488149E+04  0.12440488149E+04  0.50400001928E-02 0.  1.
    10030    2    1    2    0    0  0.00000000000E+00  0.00000000000E+00 -0.31609139991E+03  0.21720062300E+04  0.21488828004E+04 0.  0.
        2    1    3    3  502    0 -0.15292634691E+03 -0.89677694896E+03  0.41979563066E+03  0.10019100435E+04  0.25500000920E-02 0.  1.
       -2    1    3    3    0  502  0.15292634691E+03  0.89677694896E+03 -0.73588703057E+03  0.11700961864E+04  0.25500000920E-02 0. -1.
</event>
<event>
 5   0  0.2788054E-06  0.3071407E+04  0.7818609E-02  0.8223629E-01
       -1   -1    0    0    0  501  0.00000000000E+00  0.00000000000E+00  0.12316960848E+04  0.12316960848E+04  0.50400001928E-02 0.  1.
        1   -1    0    0  501    0  0.00000000000E+00  0.00000000000E+00 -0.19147465867E+04  0.19147465867E+04  0.50400001928E-02 0. -1.
    10030    2    1    2    0    0  0.00000000000E+00  0.00000000000E+00 -0.68305050195E+03  0.31464426716E+04  0.30714074131E+04 0.  0.
        3    1    3    3  502    0  0.33927757207E+03  0.83059506534E+02 -0.18735118727E+04  0.19057950834E+04  0.10100000352E+00 0. -1.
       -3    1    3    3    0  502 -0.33927757207E+03 -0.83059506534E+02  0.11904613708E+04  0.12406475882E+04  0.10100000352E+00 0.  1.
</event>
<event>
 5   0  0.2933646E-06  0.2171216E+04  0.7818609E-02  0.8530505E-01
       -1   -1    0    0    0  501  0.00000000000E+00  0.00000000000E+00  0.10445741093E+04  0.10445741094E+04  0.50400001928E-02 0. -1.
        1   -1    0    0  501    0  0.00000000000E+00  0.00000000000E+00 -0.11282539342E+04  0.11282539343E+04  0.50400001928E-02 0.  1.
    10030    2    1    2    0    0  0.00000000000E+00  0.00000000000E+00 -0.83679824895E+02  0.21728280436E+04  0.21712161095E+04 0.  0.
        2    1    3    3  502    0  0.31989149472E+03 -0.34943743639E+03 -0.10193494846E+04  0.11240598125E+04  0.25500000920E-02 0.  1.
       -2    1    3    3    0  502 -0.31989149472E+03  0.34943743639E+03  0.93566965974E+03  0.10487682311E+04  0.25500000920E-02 0. -1.
</event>
<event>
 5   0  0.7941434E-06  0.1895694E+04  0.7818609E-02  0.8657003E-01
        2   -1    0    0  501    0  0.00000000000E+00  0.00000000000E+00  0.10251024059E+04  0.10251024059E+04  0.25500000920E-02 0.  1.
       -2   -1    0    0    0  501  0.00000000000E+00  0.00000000000E+00 -0.87641406910E+03  0.87641406910E+03  0.25500000920E-02 0. -1.
    10030    2    1    2    0    0  0.00000000000E+00  0.00000000000E+00  0.14868833681E+03  0.19015164750E+04  0.18956942484E+04 0.  0.
        4    1    3    3  502    0 -0.59632899395E+03  0.14416388789E+03  0.79907345754E+03  0.10074281607E+04  0.12699999809E+01 0.  1.
       -4    1    3    3    0  502  0.59632899395E+03 -0.14416388789E+03 -0.65038512072E+03  0.89408831429E+03  0.12699999809E+01 0. -1.
</event>
<event>
 5   0  0.7941434E-06  0.3213863E+04  0.7818609E-02  0.8185166E-01
       -2   -1    0    0    0  501  0.00000000000E+00  0.00000000000E+00  0.12768979067E+04  0.12768979067E+04  0.25500000920E-02 0. -1.
        2   -1    0    0  501    0  0.00000000000E+00  0.00000000000E+00 -0.20222671161E+04  0.20222671161E+04  0.25500000920E-02 0.  1.
    10030    2    1    2    0    0  0.00000000000E+00  0.00000000000E+00 -0.74536920942E+03  0.32991650227E+04  0.32138628765E+04 0.  0.
        4    1    3    3  502    0  0.75481610135E+03 -0.54867849647E+03 -0.17156241693E+04  0.19529883109E+04  0.12699999809E+01 0.  1.
       -4    1    3    3    0  502 -0.75481610135E+03  0.54867849647E+03  0.97025495990E+03  0.13461767118E+04  0.12699999809E+01 0. -1.
</event>
<event>
 5   0  0.7971763E-06  0.3612104E+04  0.7818609E-02  0.8087725E-01
       -2   -1    0    0    0  501  0.00000000000E+00  0.00000000000E+00  0.23835927516E+04  0.23835927516E+04  0.25500000920E-02 0.  1.
        2   -1    0    0  501    0  0.00000000000E+00  0.00000000000E+00 -0.13684482518E+04  0.13684482518E+04  0.25500000920E-02 0. -1.
    10030    2    1    2    0    0  0.00000000000E+00  0.00000000000E+00  0.10151444997E+04  0.37520410034E+04  0.36121037272E+04 0.  0.
        1    1    3    3  502    0 -0.17259044739E+04  0.39943260348E+03  0.14248659257E+03  0.17772436769E+04  0.50400001928E-02 0. -1.
       -1    1    3    3    0  502  0.17259044739E+04 -0.39943260348E+03  0.87265790717E+03  0.19747973265E+04  0.50400001928E-02 0.  1.
</event>
<event>
 5   0  0.3938696E-06  0.2248001E+04  0.7818609E-02  0.8498711E-01
        1   -1    0    0  501    0  0.00000000000E+00  0.00000000000E+00  0.17103671960E+04  0.17103671960E+04  0.50400001928E-02 0. -1.
       -1   -1    0    0    0  501  0.00000000000E+00  0.00000000000E+00 -0.73865812749E+03  0.73865812751E+03  0.50400001928E-02 0.  1.
    10030    2    1    2    0    0  0.00000000000E+00  0.00000000000E+00  0.97170906855E+03  0.24490253236E+04  0.22480005608E+04 0.  0.
        4    1    3    3  502    0  0.42024081755E+03 -0.85763586334E+01  0.16215228725E+04  0.16751160967E+04  0.12699999809E+01 0. -1.
       -4    1    3    3    0  502 -0.42024081755E+03  0.85763586334E+01 -0.64981380394E+03  0.77390922682E+03  0.12699999809E+01 0.  1.
</event>
<event>
 5   0  0.3938696E-06  0.2659254E+04  0.7818609E-02  0.8348348E-01
        1   -1    0    0  501    0  0.00000000000E+00  0.00000000000E+00  0.14300552471E+04  0.14300552471E+04  0.50400001928E-02 0. -1.
       -1   -1    0    0    0  501  0.00000000000E+00  0.00000000000E+00 -0.12362519498E+04  0.12362519498E+04  0.50400001928E-02 0.  1.
    10030    2    1    2    0    0  0.00000000000E+00  0.00000000000E+00  0.19380329726E+03  0.26663071969E+04  0.26592544727E+04 0.  0.
        4    1    3    3  502    0 -0.52664838432E+03 -0.57664685217E+02 -0.11258503122E+04  0.12442766071E+04  0.12699999809E+01 0.  1.
       -4    1    3    3    0  502  0.52664838432E+03  0.57664685217E+02  0.13196536094E+04  0.14220305898E+04  0.12699999809E+01 0. -1.
</event>
<event>
 5   0  0.8237664E-06  0.2662635E+04  0.7818609E-02  0.8347231E-01
       -2   -1    0    0    0  501  0.00000000000E+00  0.00000000000E+00  0.86439727638E+03  0.86439727639E+03  0.25500000920E-02 0.  1.
        2   -1    0    0  501    0  0.00000000000E+00  0.00000000000E+00 -0.20504534438E+04  0.20504534438E+04  0.25500000920E-02 0. -1.
    10030    2    1    2    0    0  0.00000000000E+00  0.00000000000E+00 -0.11860561674E+04  0.29148507202E+04  0.26626350649E+04 0.  0.
        5    1    3    3  502    0  0.63514129083E+03  0.11331415365E+04 -0.91213608018E+03  0.15872707771E+04  0.46999998093E+01 0. -1.
       -5    1    3    3    0  502 -0.63514129083E+03 -0.11331415365E+04 -0.27392008722E+03  0.13275799431E+04  0.46999998093E+01 0.  1.
</event>
<event>
 5   0  0.7952307E-06  0.3296941E+04  0.7818609E-02  0.8163674E-01
       -2   -1    0    0    0  501  0.00000000000E+00  0.00000000000E+00  0.10236423296E+04  0.10236423296E+04  0.25500000920E-02 0. -1.
        2   -1    0    0  501    0  0.00000000000E+00  0.00000000000E+00 -0.26546918090E+04  0.26546918090E+04  0.25500000920E-02 0.  1.
    10030    2    1    2    0    0  0.00000000000E+00  0.00000000000E+00 -0.16310494794E+04  0.36783341386E+04  0.32969409505E+04 0.  0.
        2    1    3    3  502    0 -0.83494266132E+03 -0.14072308674E+04 -0.10387360704E+04  0.19381435926E+04  0.25500000920E-02 0. -1.
       -2    1    3    3    0  502  0.83494266132E+03  0.14072308674E+04 -0.59231340905E+03  0.17401905460E+04  0.25500000920E-02 0.  1.
</event>
<event>
 5   0  0.2788054E-06  0.2935497E+04  0.7818609E-02  0.8262394E-01
        1   -1    0    0  501    0  0.00000000000E+00  0.00000000000E+00  0.17345491966E+04  0.17345491966E+04  0.50400001928E-02 0. -1.
       -1   -1    0    0    0  501  0.00000000000E+00  0.00000000000E+00 -0.12419862979E+04  0.12419862979E+04  0.50400001928E-02 0.  1.
    10030    2    1    2    0    0  0.00000000000E+00  0.00000000000E+00  0.49256289864E+03  0.29765354945E+04  0.29354974605E+04 0.  0.
        3    1    3    3  502    0  0.11511187909E+04 -0.59981581635E+03 -0.44844861153E+03  0.13733024619E+04  0.10100000352E+00 0.  1.
       -3    1    3    3    0  502 -0.11511187909E+04  0.59981581635E+03  0.94101151017E+03  0.16032330326E+04  0.10100000352E+00 0. -1.
</event>
<event>
 5   0  0.7510251E-06  0.3123057E+04  0.7818609E-02  0.8209439E-01
       -2   -1    0    0    0  501  0.00000000000E+00  0.00000000000E+00  0.18863851954E+04  0.18863851954E+04  0.25500000920E-02 0.  1.
        2   -1    0    0  501    0  0.00000000000E+00  0.00000000000E+00 -0.12926154103E+04  0.12926154103E+04  0.25500000920E-02 0. -1.
    10030    2    1    2    0    0  0.00000000000E+00  0.00000000000E+00  0.59376978512E+03  0.31790006056E+04  0.31230565626E+04 0.  0.
        3    1    3    3  502    0  0.46071602191E+03  0.19720036412E+03 -0.12085338725E+04  0.13083200555E+04  0.10100000352E+00 0. -1.
       -3    1    3    3    0  502 -0.46071602191E+03 -0.19720036412E+03  0.18023036576E+04  0.18706805502E+04  0.10100000352E+00 0.  1.
</event>
<event>
 5   0  0.7941434E-06  0.3069870E+04  0.7818609E-02  0.8224056E-01
        2   -1    0    0  501    0  0.00000000000E+00  0.00000000000E+00  0.10253154967E+04  0.10253154967E+04  0.25500000920E-02 0. -1.
       -2   -1    0    0    0  501  0.00000000000E+00  0.00000000000E+00 -0.22978542302E+04  0.22978542302E+04  0.25500000920E-02 0.  1.
    10030    2    1    2    0    0  0.00000000000E+00  0.00000000000E+00 -0.12725387335E+04  0.33231697269E+04  0.30698700633E+04 0.  0.
        4    1    3    3  502    0  0.82477150568E+03  0.70948182620E+03  0.53585191945E+03  0.12127453940E+04  0.12699999809E+01 0. -1.
       -4    1    3    3    0  502 -0.82477150568E+03 -0.70948182620E+03 -0.18083906530E+04  0.21104243329E+04  0.12699999809E+01 0.  1.
</event>
<event>
 5   0  0.7941434E-06  0.3183498E+04  0.7818609E-02  0.8193189E-01
       -2   -1    0    0    0  501  0.00000000000E+00  0.00000000000E+00  0.14186598999E+04  0.14186598999E+04  0.25500000920E-02 0.  1.
        2   -1    0    0  501    0  0.00000000000E+00  0.00000000000E+00 -0.17859570159E+04  0.17859570159E+04  0.25500000920E-02 0. -1.
    10030    2    1    2    0    0  0.00000000000E+00  0.00000000000E+00 -0.36729711601E+03  0.32046169158E+04  0.31834984539E+04 0.  0.
        4    1    3    3  502    0  0.14765015264E+04 -0.58832741937E+03 -0.96599014716E+02  0.15923312759E+04  0.12699999809E+01 0.  1.
       -4    1    3    3    0  502 -0.14765015264E+04  0.58832741937E+03 -0.27069810130E+03  0.16122856399E+04  0.12699999809E+01 0. -1.
</event>
<event>
 5   0  0.2933646E-06  0.3233989E+04  0.7818609E-02  0.8179898E-01
        1   -1    0    0  501    0  0.00000000000E+00  0.00000000000E+00  0.17714142381E+04  0.17714142381E+04  0.50400001928E-02 0. -1.
       -1   -1    0    0    0  501  0.00000000000E+00  0.00000000000E+00 -0.14760359165E+04  0.14760359165E+04  0.50400001928E-02 0.  1.
    10030    2    1    2    0    0  0.00000000000E+00  0.00000000000E+00  0.29537832160E+03  0.32474501545E+04  0.32339888919E+04 0.  0.
        2    1    3    3  502    0 -0.67508198361E+02  0.64168216138E+03 -0.13411683903E+04  0.14883030619E+04  0.25500000920E-02 0.  1.
       -2    1    3    3    0  502  0.67508198361E+02 -0.64168216138E+03  0.16365467119E+04  0.17591470926E+04  0.25500000920E-02 0. -1.
</event>
<event>
 5   0  0.7971763E-06  0.3167151E+04  0.7818609E-02  0.8197547E-01
       -2   -1    0    0    0  501  0.00000000000E+00  0.00000000000E+00  0.12870541636E+04  0.12870541636E+04  0.25500000920E-02 0. -1.
        2   -1    0    0  501    0  0.00000000000E+00  0.00000000000E+00 -0.19484115865E+04  0.19484115865E+04  0.25500000920E-02 0.  1.
    10030    2    1    2    0    0  0.00000000000E+00  0.00000000000E+00 -0.66135742289E+03  0.32354657501E+04  0.31671509247E+04 0.  0.
        1    1    3    3  502    0  0.76401970171E+03  0.67681909939E+03  0.90618080530E+03  0.13649080005E+04  0.50400001928E-02 0. -1.
       -1    1    3    3    0  502 -0.76401970171E+03 -0.67681909939E+03 -0.15675382282E+04  0.18705577496E+04  0.50400001928E-02 0.  1.
</event>
<event>
 5   0  0.2788054E-06  0.3333286E+04  0.7818609E-02  0.8154477E-01
       -1   -1    0    0    0  501  0.00000000000E+00  0.00000000000E+00  0.13935274784E+04  0.13935274784E+04  0.50400001928E-02 0. -1.
        1   -1    0    0  501    0  0.00000000000E+00  0.00000000000E+00 -0.19932857727E+04  0.19932857727E+04  0.50400001928E-02 0.  1.
    10030    2    1    2    0    0  0.00000000000E+00  0.00000000000E+00 -0.59975829423E+03  0.33868132511E+04  0.33332857643E+04 0.  0.
        3    1    3    3  502    0 -0.14361768000E+04  0.84377834597E+03 -0.35674927768E+03  0.17034775477E+04  0.10100000352E+00 0. -1.
       -3    1    3    3    0  502  0.14361768000E+04 -0.84377834597E+03 -0.24300901656E+03  0.16833357034E+04  0.10100000352E+00 0.  1.
</event>
<event>
 5   0  0.7971763E-06  0.3027815E+04  0.7818609E-02  0.8235832E-01
        2   -1    0    0  501    0  0.00000000000E+00  0.00000000000E+00  0.18194086265E+04  0.18194086265E+04  0.25500000920E-02 0.  1.
       -2   -1    0    0    0  501  0.00000000000E+00  0.00000000000E+00 -0.12597039370E+04  0.12597039371E+04  0.25500000920E-02 0. -1.
    10030    2    1    2    0    0  0.00000000000E+00  0.00000000000E+00  0.55970468947E+03  0.30791125636E+04  0.30278151925E+04 0.  0.
        1    1    3    3  502    0 -0.11651815659E+04  0.13628124908E+03  0.12529843442E+04  0.17164470360E+04  0.50400001928E-02 0.  1.
       -1    1    3    3    0  502  0.11651815659E+04 -0.13628124908E+03 -0.69327965475E+03  0.13626655276E+04  0.50400001928E-02 0. -1.
</event>
<event>
 5   0  0.4142886E-06  0.3123911E+04  0.7818609E-02  0.8209206E-01
       -1   -1    0    0    0  501  0.00000000000E+00  0.00000000000E+00  0.15790008011E+04  0.15790008011E+04  0.50400001928E-02 0. -1.
        1   -1    0    0  501    0  0.00000000000E+00  0.00000000000E+00 -0.15450938742E+04  0.15450938742E+04  0.50400001928E-02 0.  1.
    10030    2    1    2    0    0  0.00000000000E+00  0.00000000000E+00  0.33906926880E+02  0.31240946753E+04  0.31239106678E+04 0.  0.
        5    1    3    3  502    0 -0.12511953964E+03  0.14844063760E+02  0.15739032625E+04  0.15789454756E+04  0.46999998093E+01 0. -1.
       -5    1    3    3    0  502  0.12511953964E+03 -0.14844063760E+02 -0.15399963356E+04  0.15451491996E+04  0.46999998093E+01 0.  1.
</event>
<event>
 5   0  0.4142886E-06  0.3312758E+04  0.7818609E-02  0.8159657E-01
       -1   -1    0    0    0  501  0.00000000000E+00  0.00000000000E+00  0.11020378976E+04  0.11020378976E+04  0.50400001928E-02 0.  1.
        1   -1    0    0  501    0  0.00000000000E+00  0.00000000000E+00 -0.24895616993E+04  0.24895616993E+04  0.50400001928E-02 0. -1.
    10030    2    1    2    0    0  0.00000000000E+00  0.00000000000E+00 -0.13875238017E+04  0.35915995969E+04  0.33127579694E+04 0.  0.
        5    1    3    3  502    0 -0.36655638507E+03  0.12212752783E+03 -0.24400162963E+04  0.24704210841E+04  0.46999998093E+01 0. -1.
       -5    1    3    3    0  502  0.36655638507E+03 -0.12212752783E+03  0.10524924946E+04  0.11211785128E+04  0.46999998093E+01 0.  1.
</event>
<event>
 5   0  0.2635798E-06  0.2887750E+04  0.7818609E-02  0.8276532E-01
        1   -1    0    0  501    0  0.00000000000E+00  0.00000000000E+00  0.11517866277E+04  0.11517866277E+04  0.50400001928E-02 0. -1.
       -1   -1    0    0    0  501  0.00000000000E+00  0.00000000000E+00 -0.18100358788E+04  0.18100358788E+04  0.50400001928E-02 0.  1.
    10030    2    1    2    0    0  0.00000000000E+00  0.00000000000E+00 -0.65824925111E+03  0.29618225065E+04  0.28877500729E+04 0.  0.
        1    1    3    3  502    0  0.44884434076E+03 -0.13475583499E+04 -0.59539973545E+03  0.15400894759E+04  0.50400001928E-02 0.  1.
       -1    1    3    3    0  502 -0.44884434076E+03  0.13475583499E+04 -0.62849515664E+02  0.14217330306E+04  0.50400001928E-02 0. -1.
</event>
<event>
 5   0  0.8237664E-06  0.2277589E+04  0.7818609E-02  0.8486810E-01
        2   -1    0    0  501    0  0.00000000000E+00  0.00000000000E+00  0.16891046240E+04  0.16891046240E+04  0.25500000920E-02 0. -1.
       -2   -1    0    0    0  501  0.00000000000E+00  0.00000000000E+00 -0.76777560389E+03  0.76777560389E+03  0.25500000920E-02 0.  1.
    10030    2    1    2    0    0  0.00000000000E+00  0.00000000000E+00  0.92132902015E+03  0.24568802279E+04  0.22775893596E+04 0.  0.
        5    1    3    3  502    0 -0.53635379973E+03 -0.70231395714E+02 -0.62033058991E+03  0.82306742020E+03  0.46999998093E+01 0.  1.
       -5    1    3    3    0  502  0.53635379973E+03  0.70231395714E+02  0.15416596101E+04  0.16338128077E+04  0.46999998093E+01 0. -1.
</event>
<event>
 5   0  0.7971763E-06  0.2774580E+04  0.7818609E-02  0.8311204E-01
       -2   -1    0    0    0  501  0.00000000000E+00  0.00000000000E+00  0.83610913916E+03  0.83610913917E+03  0.25500000920E-02 0.  1.
        2   -1    0    0  501    0  0.00000000000E+00  0.00000000000E+00 -0.23018217428E+04  0.23018217428E+04  0.25500000920E-02 0. -1.
    10030    2    1    2    0    0  0.00000000000E+00  0.00000000000E+00 -0.14657126036E+04  0.31379308819E+04  0.27745804698E+04 0.  0.
        1    1    3    3  502    0 -0.74798910363E+03  0.37994720747E+03  0.51669834898E+03  0.98530440143E+03  0.50400001928E-02 0.  1.
       -1    1    3    3    0  502  0.74798910363E+03 -0.37994720747E+03 -0.19824109526E+04  0.21526264805E+04  0.50400001928E-02 0. -1.
</event>
<event>
 5   0  0.2933646E-06  0.2402138E+04  0.7818609E-02  0.8438704E-01
       -1   -1    0    0    0  501  0.00000000000E+00  0.00000000000E+00  0.65626678950E+03  0.65626678952E+03  0.50400001928E-02 0.  1.
        1   -1    0    0  501    0  0.00000000000E+00  0.00000000000E+00 -0.21981407030E+04  0.21981407030E+04  0.50400001928E-02 0. -1.
    10030    2    1    2    0    0  0.00000000000E+00  0.00000000000E+00 -0.15418739135E+04  0.28544074925E+04  0.24021379994E+04 0.  0.
        2    1    3    3  502    0  0.99652254472E+03 -0.52346753134E+03 -0.27314735640E+03  0.11583112349E+04  0.25500000920E-02 0.  1.
       -2    1    3    3    0  502 -0.99652254472E+03  0.52346753134E+03 -0.12687265571E+04  0.16960962576E+04  0.25500000920E-02 0. -1.
</event>
<event>
 5   0  0.5937135E-06  0.1597448E+04  0.7818609E-02  0.8822117E-01
       -1   -1    0    0    0  501  0.00000000000E+00  0.00000000000E+00  0.69918884644E+03  0.69918884646E+03  0.50400001928E-02 0. -1.
        1   -1    0    0  501    0  0.00000000000E+00  0.00000000000E+00 -0.91242934543E+03  0.91242934545E+03  0.50400001928E-02 0.  1.
    10030    2    1    2    0    0  0.00000000000E+00  0.00000000000E+00 -0.21324049899E+03  0.16116181919E+04  0.15974484925E+04 0.  0.
        5    1    3    3  502    0  0.11495528265E+03  0.58828201549E+03 -0.63917366278E+03  0.87627364901E+03  0.46999998093E+01 0.  1.
       -5    1    3    3    0  502 -0.11495528265E+03 -0.58828201549E+03  0.42593316378E+03  0.73534454290E+03  0.46999998093E+01 0. -1.
</event>
<event>
 5   0  0.7510251E-06  0.2857398E+04  0.7818609E-02  0.8285667E-01
        2   -1    0    0  501    0  0.00000000000E+00  0.00000000000E+00  0.12754103197E+04  0.12754103198E+04  0.25500000920E-02 0. -1.
       -2   -1    0    0    0  501  0.00000000000E+00  0.00000000000E+00 -0.16004114007E+04  0.16004114007E+04  0.25500000920E-02 0.  1.
    10030    2    1    2    0    0  0.00000000000E+00  0.00000000000E+00 -0.32500108098E+03  0.28758217205E+04  0.28573982686E+04 0.  0.
        3    1    3    3  502    0 -0.22207453507E+03  0.11577054811E+04 -0.97491148129E+03  0.15297226830E+04  0.10100000352E+00 0.  1.
       -3    1    3    3    0  502  0.22207453507E+03 -0.11577054811E+04  0.64991040032E+03  0.13460990375E+04  0.10100000352E+00 0. -1.
</event>
<event>
 5   0  0.7971763E-06  0.3223376E+04  0.7818609E-02  0.8182671E-01
       -2   -1    0    0    0  501  0.00000000000E+00  0.00000000000E+00  0.10545263780E+04  0.10545263780E+04  0.25500000920E-02 0.  1.
        2   -1    0    0  501    0  0.00000000000E+00  0.00000000000E+00 -0.24632275099E+04  0.24632275099E+04  0.25500000920E-02 0. -1.
    10030    2    1    2    0    0  0.00000000000E+00  0.00000000000E+00 -0.14087011319E+04  0.35177538878E+04  0.32233761084E+04 0.  0.
        1    1    3    3  502    0  0.11263507428E+04 -0.54426166445E+03  0.40464902586E+03  0.13147728280E+04  0.50400001928E-02 0.  1.
       -1    1    3    3    0  502 -0.11263507428E+04  0.54426166445E+03 -0.18133501578E+04  0.22029810598E+04  0.50400001928E-02 0. -1.
</event>
<event>
 5   0  0.2933646E-06  0.3269247E+04  0.7818609E-02  0.8170765E-01
       -1   -1    0    0    0  501  0.00000000000E+00  0.00000000000E+00  0.11718044165E+04  0.11718044165E+04  0.50400001928E-02 0.  1.
        1   -1    0    0  501    0  0.00000000000E+00  0.00000000000E+00 -0.22802391095E+04  0.22802391095E+04  0.50400001928E-02 0. -1.
    10030    2    1    2    0    0  0.00000000000E+00  0.00000000000E+00 -0.11084346931E+04  0.34520435260E+04  0.32692471666E+04 0.  0.
        2    1    3    3  502    0  0.14840259556E+04 -0.57655052415E+03 -0.94540560893E+03  0.18516304462E+04  0.25500000920E-02 0. -1.
       -2    1    3    3    0  502 -0.14840259556E+04  0.57655052415E+03 -0.16302908412E+03  0.16004130798E+04  0.25500000920E-02 0.  1.
</event>
<event>
 5   0  0.4142886E-06  0.1822763E+04  0.7818609E-02  0.8694287E-01
        1   -1    0    0  501    0  0.00000000000E+00  0.00000000000E+00  0.15382946405E+04  0.15382946405E+04  0.50400001928E-02 0. -1.
       -1   -1    0    0    0  501  0.00000000000E+00  0.00000000000E+00 -0.53995927195E+03  0.53995927198E+03  0.50400001928E-02 0.  1.
    10030    2    1    2    0    0  0.00000000000E+00  0.00000000000E+00  0.99833536854E+03  0.20782539125E+04  0.18227632366E+04 0.  0.
        5    1    3    3  502    0  0.77692418223E+03  0.18888089353E+03  0.99786150774E+03  0.12786855968E+04  0.46999998093E+01 0. -1.
       -5    1    3    3    0  502 -0.77692418223E+03 -0.18888089353E+03  0.47386080195E+00  0.79956831567E+03  0.46999998093E+01 0.  1.
</event>
<event>
 5   0  0.2933646E-06  0.3337036E+04  0.7818609E-02  0.8153535E-01
       -1   -1    0    0    0  501  0.00000000000E+00  0.00000000000E+00  0.23461550259E+04  0.23461550259E+04  0.50400001928E-02 0.  1.
        1   -1    0    0  501    0  0.00000000000E+00  0.00000000000E+00 -0.11866017239E+04  0.11866017239E+04  0.50400001928E-02 0. -1.
    10030    2    1    2    0    0  0.00000000000E+00  0.00000000000E+00  0.11595533020E+04  0.35327567498E+04  0.33370355697E+04 0.  0.
        2    1    3    3  502    0 -0.60714998793E+03  0.75847523603E+03 -0.85626169276E+03  0.12950289101E+04  0.25500000920E-02 0. -1.
       -2    1    3    3    0  502  0.60714998793E+03 -0.75847523603E+03  0.20158149948E+04  0.22377278397E+04  0.25500000920E-02 0.  1.
</event>
<event>
 5   0  0.2933646E-06  0.2623390E+04  0.7818609E-02  0.8360299E-01
        1   -1    0    0  501    0  0.00000000000E+00  0.00000000000E+00  0.10114261047E+04  0.10114261047E+04  0.50400001928E-02 0.  1.
       -1   -1    0    0    0  501  0.00000000000E+00  0.00000000000E+00 -0.17011068912E+04  0.17011068912E+04  0.50400001928E-02 0. -1.
    10030    2    1    2    0    0  0.00000000000E+00  0.00000000000E+00 -0.68968078649E+03  0.27125329960E+04  0.26233901096E+04 0.  0.
        2    1    3    3  502    0 -0.56822656164E+03  0.10837584369E+04 -0.83325795763E+03  0.14804501339E+04  0.25500000920E-02 0. -1.
       -2    1    3    3    0  502  0.56822656164E+03 -0.10837584369E+04  0.14357717114E+03  0.12320828621E+04  0.25500000920E-02 0.  1.
</event>
<event>
 5   0  0.7510251E-06  0.3176735E+04  0.7818609E-02  0.8194988E-01
       -2   -1    0    0    0  501  0.00000000000E+00  0.00000000000E+00  0.91065921004E+03  0.91065921004E+03  0.25500000920E-02 0. -1.
        2   -1    0    0  501    0  0.00000000000E+00  0.00000000000E+00 -0.27704235240E+04  0.27704235240E+04  0.25500000920E-02 0.  1.
    10030    2    1    2    0    0  0.00000000000E+00  0.00000000000E+00 -0.18597643139E+04  0.36810827340E+04  0.31767352410E+04 0.  0.
        3    1    3    3  502    0 -0.11126461086E+04 -0.17627890712E+03  0.36765081101E+03  0.11849990485E+04  0.10100000352E+00 0. -1.
       -3    1    3    3    0  502  0.11126461086E+04  0.17627890712E+03 -0.22274151249E+04  0.24960836855E+04  0.10100000352E+00 0.  1.
</event>
<event>
 5   0  0.7952307E-06  0.3221694E+04  0.7818609E-02  0.8183111E-01
        2   -1    0    0  501    0  0.00000000000E+00  0.00000000000E+00  0.16509701924E+04  0.16509701924E+04  0.25500000920E-02 0.  1.
       -2   -1    0    0    0  501  0.00000000000E+00  0.00000000000E+00 -0.15716992596E+04  0.15716992596E+04  0.25500000920E-02 0. -1.
    10030    2    1    2    0    0  0.00000000000E+00  0.00000000000E+00  0.79270932877E+02  0.32226694520E+04  0.32216943549E+04 0.  0.
        2    1    3    3  502    0 -0.95396081454E+03 -0.12933128834E+04  0.14980135163E+03  0.16140445765E+04  0.25500000920E-02 0.  1.
       -2    1    3    3    0  502  0.95396081454E+03  0.12933128834E+04 -0.70530418757E+02  0.16086248755E+04  0.25500000920E-02 0. -1.
</event>
<event>
 5   0  0.7971763E-06  0.3176595E+04  0.7818609E-02  0.8195026E-01
        2   -1    0    0  501    0  0.00000000000E+00  0.00000000000E+00  0.11466497897E+04  0.11466497897E+04  0.25500000920E-02 0.  1.
       -2   -1    0    0    0  501  0.00000000000E+00  0.00000000000E+00 -0.22000513510E+04  0.22000513510E+04  0.25500000920E-02 0. -1.
    10030    2    1    2    0    0  0.00000000000E+00  0.00000000000E+00 -0.10534015613E+04  0.33467011408E+04  0.31765946667E+04 0.  0.
        1    1    3    3  502    0  0.20612766858E+03 -0.15733151052E+04 -0.45310759874E+03  0.16501865144E+04  0.50400001928E-02 0.  1.
       -1    1    3    3    0  502 -0.20612766858E+03  0.15733151052E+04 -0.60029396253E+03  0.16965146264E+04  0.50400001928E-02 0. -1.
</event>
<event>
 5   0  0.2933646E-06  0.2112653E+04  0.7818609E-02  0.8555690E-01
       -1   -1    0    0    0  501  0.00000000000E+00  0.00000000000E+00  0.11842137521E+04  0.11842137521E+04  0.50400001928E-02 0. -1.
        1   -1    0    0  501    0  0.00000000000E+00  0.00000000000E+00 -0.94224987588E+03  0.94224987589E+03  0.50400001928E-02 0.  1.
    10030    2    1    2    0    0  0.00000000000E+00  0.00000000000E+00  0.24196387617E+03  0.21264636280E+04  0.21126526084E+04 0.  0.
        2    1    3    3  502    0  0.66033521893E+03 -0.79009914500E+03  0.35816193843E+03  0.10902198101E+04  0.25500000920E-02 0. -1.
       -2    1    3    3    0  502 -0.66033521893E+03  0.79009914500E+03 -0.11619806226E+03  0.10362438178E+04  0.25500000920E-02 0.  1.
</event>
<event>
 5   0  0.7941434E-06  0.3182192E+04  0.7818609E-02  0.8193536E-01
        2   -1    0    0  501    0  0.00000000000E+00  0.00000000000E+00  0.16644902656E+04  0.16644902656E+04  0.25500000920E-02 0.  1.
       -2   -1    0    0    0  501  0.00000000000E+00  0.00000000000E+00 -0.15209383446E+04  0.15209383446E+04  0.25500000920E-02 0. -1.
    10030    2    1    2    0    0  0.00000000000E+00  0.00000000000E+00  0.14355192095E+03  0.31854286102E+04  0.31821923695E+04 0.  0.
        4    1    3    3  502    0  0.38522007722E+03 -0.12289354844E+04  0.10070218616E+04  0.16348613321E+04  0.12699999809E+01 0.  1.
       -4    1    3    3    0  502 -0.38522007722E+03  0.12289354844E+04 -0.86346994061E+03  0.15505672781E+04  0.12699999809E+01 0. -1.
</event>
<event>
 5   0  0.2635798E-06  0.3211687E+04  0.7818609E-02  0.8185737E-01
       -1   -1    0    0    0  501  0.00000000000E+00  0.00000000000E+00  0.16391518810E+04  0.16391518810E+04  0.50400001928E-02 0. -1.
        1   -1    0    0  501    0  0.00000000000E+00  0.00000000000E+00 -0.15732123427E+04  0.15732123427E+04  0.50400001928E-02 0.  1.
    10030    2    1    2    0    0  0.00000000000E+00  0.00000000000E+00  0.65939538268E+02  0.32123642237E+04  0.32116873888E+04 0.  0.
        1    1    3    3  502    0 -0.27300668128E+03 -0.41566147083E+03 -0.14942530776E+04  0.15748331233E+04  0.50400001928E-02 0.  1.
       -1    1    3    3    0  502  0.27300668128E+03  0.41566147083E+03  0.15601926158E+04  0.16375311004E+04  0.50400001928E-02 0. -1.
</event>
<event>
 5   0  0.3938696E-06  0.3234963E+04  0.7818609E-02  0.8179644E-01
       -1   -1    0    0    0  501  0.00000000000E+00  0.00000000000E+00  0.11857362478E+04  0.11857362478E+04  0.50400001928E-02 0. -1.
        1   -1    0    0  501    0  0.00000000000E+00  0.00000000000E+00 -0.22064313983E+04  0.22064313983E+04  0.50400001928E-02 0.  1.
    10030    2    1    2    0    0  0.00000000000E+00  0.00000000000E+00 -0.10206951505E+04  0.33921676461E+04  0.32349625576E+04 0.  0.
        4    1    3    3  502    0  0.26089459491E+03  0.38776000057E+03  0.11133919502E+04  0.12075044743E+04  0.12699999809E+01 0. -1.
       -4    1    3    3    0  502 -0.26089459491E+03 -0.38776000057E+03 -0.21340871008E+04  0.21846631718E+04  0.12699999809E+01 0.  1.
</event>
<event>
 5   0  0.7510251E-06  0.3271881E+04  0.7818609E-02  0.8170087E-01
       -2   -1    0    0    0  501  0.00000000000E+00  0.00000000000E+00  0.11884686153E+04  0.11884686153E+04  0.25500000920E-02 0. -1.
        2   -1    0    0  501    0  0.00000000000E+00  0.00000000000E+00 -0.22518910614E+04  0.22518910614E+04  0.25500000920E-02 0.  1.
    10030    2    1    2    0    0  0.00000000000E+00  0.00000000000E+00 -0.10634224460E+04  0.34403596767E+04  0.32718813252E+04 0.  0.
        3    1    3    3  502    0  0.83111620943E+02 -0.17372737813E+02  0.11861501614E+04  0.11891852543E+04  0.10100000352E+00 0. -1.
       -3    1    3    3    0  502 -0.83111620943E+02  0.17372737813E+02 -0.22495726074E+04  0.22511744224E+04  0.10100000352E+00 0.  1.
</event>
<event>
 5   0  0.4142886E-06  0.1932161E+04  0.7818609E-02  0.8639012E-01
       -1   -1    0    0    0  501  0.00000000000E+00  0.00000000000E+00  0.64097947874E+03  0.64097947876E+03  0.50400001928E-02 0.  1.
        1   -1    0    0  501    0  0.00000000000E+00  0.00000000000E+00 -0.14560702348E+04  0.14560702348E+04  0.50400001928E-02 0. -1.
    10030    2    1    2    0    0  0.00000000000E+00  0.00000000000E+00 -0.81509075605E+03  0.20970497136E+04  0.19321605939E+04 0.  0.
        5    1    3    3  502    0 -0.31471030930E+03 -0.21599559750E+03 -0.13707448961E+04  0.14229055967E+04  0.46999998093E+01 0. -1.
       -5    1    3    3    0  502  0.31471030930E+03  0.21599559750E+03  0.55565414007E+03  0.67414411685E+03  0.46999998093E+01 0.  1.
</event>
<event>
 5   0  0.7510251E-06  0.3054358E+04  0.7818609E-02  0.8228377E-01
        2   -1    0    0  501    0  0.00000000000E+00  0.00000000000E+00  0.91375054168E+03  0.91375054169E+03  0.25500000920E-02 0. -1.
       -2   -1    0    0    0  501  0.00000000000E+00  0.00000000000E+00 -0.25524203861E+04  0.25524203861E+04  0.25500000920E-02 0.  1.
    10030    2    1    2    0    0  0.00000000000E+00  0.00000000000E+00 -0.16386698444E+04  0.34661709277E+04  0.30543578771E+04 0.  0.
        3    1    3    3  502    0 -0.86120687206E+03  0.66902776398E+03  0.39392313190E+03  0.11595045793E+04  0.10100000352E+00 0. -1.
       -3    1    3    3    0  502  0.86120687206E+03 -0.66902776398E+03 -0.20325929763E+04  0.23066663484E+04  0.10100000352E+00 0.  1.
</event>
<event>
 5   0  0.2635798E-06  0.2778205E+04  0.7818609E-02  0.8310067E-01
        1   -1    0    0  501    0  0.00000000000E+00  0.00000000000E+00  0.21583636993E+04  0.21583636993E+04  0.50400001928E-02 0.  1.
       -1   -1    0    0    0  501  0.00000000000E+00  0.00000000000E+00 -0.89401310099E+03  0.89401310100E+03  0.50400001928E-02 0. -1.
    10030    2    1    2    0    0  0.00000000000E+00  0.00000000000E+00  0.12643505983E+04  0.30523768003E+04  0.27782047613E+04 0.  0.
        1    1    3    3  502    0 -0.10621736532E+03  0.88499069276E+03 -0.53838497156E+03  0.10413208116E+04  0.50400001928E-02 0. -1.
       -1    1    3    3    0  502  0.10621736532E+03 -0.88499069276E+03  0.18027355699E+04  0.20110559888E+04  0.50400001928E-02 0.  1.
</event>
<event>
 5   0  0.8237664E-06  0.3167023E+04  0.7818609E-02  0.8197581E-01
        2   -1    0    0  501    0  0.00000000000E+00  0.00000000000E+00  0.16855939578E+04  0.16855939578E+04  0.25500000920E-02 0.  1.
       -2   -1    0    0    0  501  0.00000000000E+00  0.00000000000E+00 -0.14876114609E+04  0.14876114609E+04  0.25500000920E-02 0. -1.
    10030    2    1    2    0    0  0.00000000000E+00  0.00000000000E+00  0.19798249695E+03  0.31732054187E+04  0.31670231386E+04 0.  0.
        5    1    3    3  502    0  0.12316808817E+04  0.47241690208E+03 -0.77865888042E+03  0.15318444000E+04  0.46999998093E+01 0. -1.
       -5    1    3    3    0  502 -0.12316808817E+04 -0.47241690208E+03  0.97664137737E+03  0.16413610187E+04  0.46999998093E+01 0.  1.
</event>
<event>
 5   0  0.2635798E-06  0.2688612E+04  0.7818609E-02  0.8338709E-01
        1   -1    0    0  501    0  0.00000000000E+00  0.00000000000E+00  0.15947346150E+04  0.15947346150E+04  0.50400001928E-02 0.  1.
       -1   -1    0    0    0  501  0.00000000000E+00  0.00000000000E+00 -0.11332033158E+04  0.11332033159E+04  0.50400001928E-02 0. -1.
    10030    2    1    2    0    0  0.00000000000E+00  0.00000000000E+00  0.46153129913E+03  0.27279379308E+04  0.26886119494E+04 0.  0.
        1    1    3    3  502    0  0.99184054646E+03 -0.68920416564E+03 -0.36812941235E+03  0.12626437803E+04  0.50400001928E-02 0. -1.
       -1    1    3    3    0  502 -0.99184054646E+03  0.68920416564E+03  0.82966071148E+03  0.14652941506E+04  0.50400001928E-02 0.  1.
</event>
<event>
 5   0  0.8237664E-06  0.3159041E+04  0.7818609E-02  0.8199719E-01
        2   -1    0    0  501    0  0.00000000000E+00  0.00000000000E+00  0.23720957440E+04  0.23720957440E+04  0.25500000920E-02 0. -1.
       -2   -1    0    0    0  501  0.00000000000E+00  0.00000000000E+00 -0.10517641044E+04  0.10517641044E+04  0.25500000920E-02 0.  1.
    10030    2    1    2    0    0  0.00000000000E+00  0.00000000000E+00  0.13203316396E+04  0.34238598484E+04  0.31590410924E+04 0.  0.
        5    1    3    3  502    0  0.85307592654E+03  0.13063999676E+04  0.92662829598E+03  0.18146849591E+04  0.46999998093E+01 0. -1.
       -5    1    3    3    0  502 -0.85307592654E+03 -0.13063999676E+04  0.39370334361E+03  0.16091748894E+04  0.46999998093E+01 0.  1.
</event>
<event>
 5   0  0.2933646E-06  0.2098378E+04  0.7818609E-02  0.8561958E-01
        1   -1    0    0  501    0  0.00000000000E+00  0.00000000000E+00  0.11368488412E+04  0.11368488412E+04  0.50400001928E-02 0.  1.
       -1   -1    0    0    0  501  0.00000000000E+00  0.00000000000E+00 -0.96828825527E+03  0.96828825528E+03  0.50400001928E-02 0. -1.
    10030    2    1    2    0    0  0.00000000000E+00  0.00000000000E+00  0.16856058594E+03  0.21051370965E+04  0.20983778316E+04 0.  0.
        2    1    3    3  502    0 -0.92399883063E+03  0.72891316699E+02  0.57750447542E+03  0.10920615377E+04  0.25500000920E-02 0.  1.
       -2    1    3    3    0  502  0.92399883063E+03 -0.72891316699E+02 -0.40894388948E+03  0.10130755588E+04  0.25500000920E-02 0. -1.
</event>
<event>
 5   0  0.2788054E-06  0.3184545E+04  0.7818609E-02  0.8192911E-01
       -1   -1    0    0    0  501  0.00000000000E+00  0.00000000000E+00  0.13575632774E+04  0.13575632775E+04  0.50400001928E-02 0.  1.
        1   -1    0    0  501    0  0.00000000000E+00  0.00000000000E+00 -0.18675602328E+04  0.18675602328E+04  0.50400001928E-02 0. -1.
    10030    2    1    2    0    0  0.00000000000E+00  0.00000000000E+00 -0.50999695531E+03  0.32251235102E+04  0.31845446710E+04 0.  0.
        3    1    3    3  502    0  0.15612706829E+04 -0.29258205391E+03 -0.36667957284E+03  0.16302221698E+04  0.10100000352E+00 0.  1.
       -3    1    3    3    0  502 -0.15612706829E+04  0.29258205391E+03 -0.14331738247E+03  0.15949013405E+04  0.10100000352E+00 0. -1.
</event>
<event>
 5   0  0.4142886E-06  0.3093099E+04  0.7818609E-02  0.8217634E-01
        1   -1    0    0  501    0  0.00000000000E+00  0.00000000000E+00  0.22130656176E+04  0.22130656176E+04  0.50400001928E-02 0. -1.
       -1   -1    0    0    0  501  0.00000000000E+00  0.00000000000E+00 -0.10807702508E+04  0.10807702508E+04  0.50400001928E-02 0.  1.
    10030    2    1    2    0    0  0.00000000000E+00  0.00000000000E+00  0.11322953668E+04  0.32938358684E+04  0.30930990818E+04 0.  0.
        5    1    3    3  502    0 -0.15208596314E+04 -0.10618958466E+03  0.28947254907E+03  0.15518075567E+04  0.46999998093E+01 0. -1.
       -5    1    3    3    0  502  0.15208596314E+04  0.10618958466E+03  0.84282281777E+03  0.17420283116E+04  0.46999998093E+01 0.  1.
</event>
<event>
 5   0  0.7952307E-06  0.3018591E+04  0.7818609E-02  0.8238442E-01
       -2   -1    0    0    0  501  0.00000000000E+00  0.00000000000E+00  0.95346696591E+03  0.95346696592E+03  0.25500000920E-02 0.  1.
        2   -1    0    0  501    0  0.00000000000E+00  0.00000000000E+00 -0.23891476442E+04  0.23891476442E+04  0.25500000920E-02 0. -1.
    10030    2    1    2    0    0  0.00000000000E+00  0.00000000000E+00 -0.14356806783E+04  0.33426146101E+04  0.30185912975E+04 0.  0.
        2    1    3    3  502    0  0.91909129691E+03 -0.32447327475E+03  0.55823041698E+03  0.11232243394E+04  0.25500000920E-02 0.  1.
       -2    1    3    3    0  502 -0.91909129691E+03  0.32447327475E+03 -0.19939110952E+04  0.22193902707E+04  0.25500000920E-02 0. -1.
</event>
<event>
 5   0  0.7971763E-06  0.3188456E+04  0.7818609E-02  0.8191873E-01
        2   -1    0    0  501    0  0.00000000000E+00  0.00000000000E+00  0.20124816781E+04  0.20124816781E+04  0.25500000920E-02 0.  1.
       -2   -1    0    0    0  501  0.00000000000E+00  0.00000000000E+00 -0.12628996950E+04  0.12628996950E+04  0.25500000920E-02 0. -1.
    10030    2    1    2    0    0  0.00000000000E+00  0.00000000000E+00  0.74958198316E+03  0.32753813731E+04  0.31884557374E+04 0.  0.
        1    1    3    3  502    0 -0.11395866267E+04 -0.19829519817E+02 -0.77027814676E+03  0.13756377841E+04  0.50400001928E-02 0. -1.
       -1    1    3    3    0  502  0.11395866267E+04  0.19829519817E+02  0.15198601299E+04  0.18997435890E+04  0.50400001928E-02 0.  1.
</event>
<event>
 5   0  0.2635798E-06  0.3111891E+04  0.7818609E-02  0.8212482E-01
        1   -1    0    0  501    0  0.00000000000E+00  0.00000000000E+00  0.84465383403E+03  0.84465383404E+03  0.50400001928E-02 0.  1.
       -1   -1    0    0    0  501  0.00000000000E+00  0.00000000000E+00 -0.28662234745E+04  0.28662234745E+04  0.50400001928E-02 0. -1.
    10030    2    1    2    0    0  0.00000000000E+00  0.00000000000E+00 -0.20215696405E+04  0.37108773085E+04  0.31118911594E+04 0.  0.
        1    1    3    3  502    0  0.15521183523E+04 -0.99246502272E+02 -0.10647161612E+04  0.18848187584E+04  0.50400001928E-02 0. -1.
       -1    1    3    3    0  502 -0.15521183523E+04  0.99246502272E+02 -0.95685347926E+03  0.18260585502E+04  0.50400001928E-02 0.  1.
</event>
<event>
 5   0  0.2788054E-06  0.3447365E+04  0.7818609E-02  0.8126378E-01
       -1   -1    0    0    0  501  0.00000000000E+00  0.00000000000E+00  0.19883793319E+04  0.19883793319E+04  0.50400001928E-02 0. -1.
        1   -1    0    0  501    0  0.00000000000E+00  0.00000000000E+00 -0.14942227795E+04  0.14942227795E+04  0.50400001928E-02 0.  1.
    10030    2    1    2    0    0  0.00000000000E+00  0.00000000000E+00  0.49415655239E+03  0.34826021114E+04  0.34473651921E+04 0.  0.
        3    1    3    3  502    0  0.14752820911E+04 -0.31123472785E+03 -0.59677858385E+03  0.16215637491E+04  0.10100000352E+00 0.  1.
       -3    1    3    3    0  502 -0.14752820911E+04  0.31123472785E+03  0.10909351362E+04  0.18610383623E+04  0.10100000352E+00 0. -1.
</event>
<event>
 5   0  0.2788054E-06  0.3190046E+04  0.7818609E-02  0.8191451E-01
        1   -1    0    0  501    0  0.00000000000E+00  0.00000000000E+00  0.17459105056E+04  0.17459105056E+04  0.50400001928E-02 0. -1.
       -1   -1    0    0    0  501  0.00000000000E+00  0.00000000000E+00 -0.14571759233E+04  0.14571759233E+04  0.50400001928E-02 0.  1.
    10030    2    1    2    0    0  0.00000000000E+00  0.00000000000E+00  0.28873458233E+03  0.32030864290E+04  0.31900462398E+04 0.  0.
        3    1    3    3  502    0  0.41951377675E+03  0.10850938294E+04 -0.95127528743E+03  0.15027791289E+04  0.10100000352E+00 0.  1.
       -3    1    3    3    0  502 -0.41951377675E+03 -0.10850938294E+04  0.12400098698E+04  0.17003073001E+04  0.10100000352E+00 0. -1.
</event>
<event>
 5   0  0.3938696E-06  0.3332087E+04  0.7818609E-02  0.8154779E-01
        1   -1    0    0  501    0  0.00000000000E+00  0.00000000000E+00  0.21497518716E+04  0.21497518716E+04  0.50400001928E-02 0. -1.
       -1   -1    0    0    0  501  0.00000000000E+00  0.00000000000E+00 -0.12911724747E+04  0.12911724748E+04  0.50400001928E-02 0.  1.
    10030    2    1    2    0    0  0.00000000000E+00  0.00000000000E+00  0.85857939687E+03  0.34409243464E+04  0.33320867001E+04 0.  0.
        4    1    3    3  502    0  0.10995073471E+04  0.74604720082E+03  0.14672043749E+04  0.19794426294E+04  0.12699999809E+01 0. -1.
       -4    1    3    3    0  502 -0.10995073471E+04 -0.74604720082E+03 -0.60862497807E+03  0.14614817170E+04  0.12699999809E+01 0.  1.
</event>
<event>
 5   0  0.7971763E-06  0.2993894E+04  0.7818609E-02  0.8245477E-01
       -2   -1    0    0    0  501  0.00000000000E+00  0.00000000000E+00  0.17520609680E+04  0.17520609680E+04  0.25500000920E-02 0. -1.
        2   -1    0    0  501    0  0.00000000000E+00  0.00000000000E+00 -0.12789793558E+04  0.12789793558E+04  0.25500000920E-02 0.  1.
    10030    2    1    2    0    0  0.00000000000E+00  0.00000000000E+00  0.47308161217E+03  0.30310403238E+04  0.29938936575E+04 0.  0.
        1    1    3    3  502    0  0.13687461812E+04 -0.23389155361E+02  0.84972605876E+03  0.16112254765E+04  0.50400001928E-02 0. -1.
       -1    1    3    3    0  502 -0.13687461812E+04  0.23389155361E+02 -0.37664444660E+03  0.14198148472E+04  0.50400001928E-02 0.  1.
</event>
<event>
 5   0  0.7510251E-06  0.3250033E+04  0.7818609E-02  0.8175727E-01
       -2   -1    0    0    0  501  0.00000000000E+00  0.00000000000E+00  0.14055420158E+04  0.14055420158E+04  0.25500000920E-02 0.  1.
        2   -1    0    0  501    0  0.00000000000E+00  0.00000000000E+00 -0.18787612679E+04  0.18787612679E+04  0.25500000920E-02 0. -1.
    10030    2    1    2    0    0  0.00000000000E+00  0.00000000000E+00 -0.47321925208E+03  0.32843032836E+04  0.32500325534E+04 0.  0.
        3    1    3    3  502    0  0.62921506690E+03  0.74917265055E+03 -0.15477915664E+04  0.18310734568E+04  0.10100000352E+00 0. -1.
       -3    1    3    3    0  502 -0.62921506690E+03 -0.74917265055E+03  0.10745723144E+04  0.14532298269E+04  0.10100000352E+00 0.  1.
</event>
<event>
 5   0  0.3499871E-06  0.1785053E+04  0.7818609E-02  0.8714289E-01
       -1   -1    0    0    0  501  0.00000000000E+00  0.00000000000E+00  0.59076454726E+03  0.59076454728E+03  0.50400001928E-02 0.  1.
        1   -1    0    0  501    0  0.00000000000E+00  0.00000000000E+00 -0.13484274474E+04  0.13484274474E+04  0.50400001928E-02 0. -1.
    10030    2    1    2    0    0  0.00000000000E+00  0.00000000000E+00 -0.75766290017E+03  0.19391919947E+04  0.17850525264E+04 0.  0.
        3    1    3    3  502    0 -0.32236911140E+03 -0.94525011140E+02  0.51946007792E+03  0.61862396047E+03  0.10100000352E+00 0.  1.
       -3    1    3    3    0  502  0.32236911140E+03  0.94525011140E+02 -0.12771229781E+04  0.13205680343E+04  0.10100000352E+00 0. -1.
</event>
<event>
 5   0  0.7941434E-06  0.3273526E+04  0.7818609E-02  0.8169665E-01
       -2   -1    0    0    0  501  0.00000000000E+00  0.00000000000E+00  0.11966254159E+04  0.11966254159E+04  0.25500000920E-02 0. -1.
        2   -1    0    0  501    0  0.00000000000E+00  0.00000000000E+00 -0.22387897020E+04  0.22387897020E+04  0.25500000920E-02 0.  1.
    10030    2    1    2    0    0  0.00000000000E+00  0.00000000000E+00 -0.10421642861E+04  0.34354151179E+04  0.32735257190E+04 0.  0.
        4    1    3    3  502    0  0.21692394928E+03 -0.13949763960E+04  0.34811420756E+03  0.14540289748E+04  0.12699999809E+01 0. -1.
       -4    1    3    3    0  502 -0.21692394928E+03  0.13949763960E+04 -0.13902784936E+04  0.19813861431E+04  0.12699999809E+01 0.  1.
</event>
<event>
 5   0  0.4142886E-06  0.3185045E+04  0.7818609E-02  0.8192778E-01
        1   -1    0    0  501    0  0.00000000000E+00  0.00000000000E+00  0.10878821761E+04  0.10878821761E+04  0.50400001928E-02 0.  1.
       -1   -1    0    0    0  501  0.00000000000E+00  0.00000000000E+00 -0.23312526761E+04  0.23312526761E+04  0.50400001928E-02 0. -1.
    10030    2    1    2    0    0  0.00000000000E+00  0.00000000000E+00 -0.12433705000E+04  0.34191348522E+04  0.31850452018E+04 0.  0.
        5    1    3    3  502    0  0.87721258117E+03  0.88734334204E+03  0.44060232891E+03  0.13232658922E+04  0.46999998093E+01 0.  1.
       -5    1    3    3    0  502 -0.87721258117E+03 -0.88734334204E+03 -0.16839728289E+04  0.20958689600E+04  0.46999998093E+01 0. -1.
</event>
<event>
 5   0  0.4142886E-06  0.3162292E+04  0.7818609E-02  0.8198847E-01
        1   -1    0    0  501    0  0.00000000000E+00  0.00000000000E+00  0.20752439800E+04  0.20752439800E+04  0.50400001928E-02 0. -1.
       -1   -1    0    0    0  501  0.00000000000E+00  0.00000000000E+00 -0.12046882709E+04  0.12046882709E+04  0.50400001928E-02 0.  1.
    10030    2    1    2    0    0  0.00000000000E+00  0.00000000000E+00  0.87055570912E+03  0.32799322509E+04  0.31622916260E+04 0.  0.
        5    1    3    3  502    0  0.96866646885E+03  0.88619128915E+03 -0.47860768902E+03  0.13974037136E+04  0.46999998093E+01 0.  1.
       -5    1    3    3    0  502 -0.96866646885E+03 -0.88619128915E+03  0.13491633981E+04  0.18825285373E+04  0.46999998093E+01 0. -1.
</event>
<event>
 5   0  0.8237664E-06  0.3301160E+04  0.7818609E-02  0.8162600E-01
       -2   -1    0    0    0  501  0.00000000000E+00  0.00000000000E+00  0.11541331680E+04  0.11541331680E+04  0.25500000920E-02 0. -1.
        2   -1    0    0  501    0  0.00000000000E+00  0.00000000000E+00 -0.23605722898E+04  0.23605722898E+04  0.25500000920E-02 0.  1.
    10030    2    1    2    0    0  0.00000000000E+00  0.00000000000E+00 -0.12064391218E+04  0.35147054578E+04  0.33011602658E+04 0.  0.
        5    1    3    3  502    0 -0.34343204707E+03 -0.15426512753E+04 -0.11101207749E+04  0.19313489465E+04  0.46999998093E+01 0.  1.
       -5    1    3    3    0  502  0.34343204707E+03  0.15426512753E+04 -0.96318346881E+02  0.15833565114E+04  0.46999998093E+01 0. -1.
</event>
<event>
 5   0  0.3938696E-06  0.3166759E+04  0.7818609E-02  0.8197652E-01
       -1   -1    0    0    0  501  0.00000000000E+00  0.00000000000E+00  0.15120992078E+04  0.15120992078E+04  0.50400001928E-02 0.  1.
        1   -1    0    0  501    0  0.00000000000E+00  0.00000000000E+00 -0.16580198014E+04  0.16580198014E+04  0.50400001928E-02 0. -1.
    10030    2    1    2    0    0  0.00000000000E+00  0.00000000000E+00 -0.14592059363E+03  0.31701190093E+04  0.31667588657E+04 0.  0.
        4    1    3    3  502    0 -0.60138584048E+03  0.76814006077E+03  0.11755136595E+04  0.15275922423E+04  0.12699999809E+01 0.  1.
       -4    1    3    3    0  502  0.60138584048E+03 -0.76814006077E+03 -0.13214342531E+04  0.16425267670E+04  0.12699999809E+01 0. -1.
</event>
<event>
 5   0  0.2788054E-06  0.3185100E+04  0.7818609E-02  0.8192763E-01
        1   -1    0    0  501    0  0.00000000000E+00  0.00000000000E+00  0.23580994899E+04  0.23580994899E+04  0.50400001928E-02 0.  1.
       -1   -1    0    0    0  501  0.00000000000E+00  0.00000000000E+00 -0.10755337333E+04  0.10755337333E+04  0.50400001928E-02 0. -1.
    10030    2    1    2    0    0  0.00000000000E+00  0.00000000000E+00  0.12825657566E+04  0.34336332233E+04  0.31851000286E+04 0.  0.
        3    1    3    3  502    0  0.32565182312E+03  0.79329429379E+03  0.20879535193E+04  0.22571918074E+04  0.10100000352E+00 0.  1.
       -3    1    3    3    0  502 -0.32565182312E+03 -0.79329429379E+03 -0.80538776269E+03  0.11764414159E+04  0.10100000352E+00 0. -1.
</event>
<event>
 5   0  0.7952307E-06  0.3329230E+04  0.7818609E-02  0.8155498E-01
        2   -1    0    0  501    0  0.00000000000E+00  0.00000000000E+00  0.14014832229E+04  0.14014832229E+04  0.25500000920E-02 0. -1.
       -2   -1    0    0    0  501  0.00000000000E+00  0.00000000000E+00 -0.19771498485E+04  0.19771498485E+04  0.25500000920E-02 0.  1.
    10030    2    1    2    0    0  0.00000000000E+00  0.00000000000E+00 -0.57566662559E+03  0.33786330714E+04  0.33292295456E+04 0.  0.
        2    1    3    3  502    0 -0.14147506860E+04  0.18441224202E+03 -0.11581223636E+04  0.18376002796E+04  0.25500000920E-02 0.  1.
       -2    1    3    3    0  502  0.14147506860E+04 -0.18441224202E+03  0.58245573806E+03  0.15410327918E+04  0.25500000920E-02 0. -1.
</event>
<event>
 5   0  0.2635798E-06  0.2184270E+04  0.7818609E-02  0.8525004E-01
       -1   -1    0    0    0  501  0.00000000000E+00  0.00000000000E+00  0.97339120504E+03  0.97339120505E+03  0.50400001928E-02 0.  1.
        1   -1    0    0  501    0  0.00000000000E+00  0.00000000000E+00 -0.12253644919E+04  0.12253644919E+04  0.50400001928E-02 0. -1.
    10030    2    1    2    0    0  0.00000000000E+00  0.00000000000E+00 -0.25197328686E+03  0.21987556970E+04  0.21842701476E+04 0.  0.
        1    1    3    3  502    0  0.46418916271E+03  0.33272473208E+03 -0.10630638679E+04  0.12067651442E+04  0.50400001928E-02 0. -1.
       -1    1    3    3    0  502 -0.46418916271E+03 -0.33272473208E+03  0.81109058101E+03  0.99199055275E+03  0.50400001928E-02 0.  1.
</event>
<event>
 5   0  0.7971763E-06  0.3145142E+04  0.7818609E-02  0.8203457E-01
        2   -1    0    0  501    0  0.00000000000E+00  0.00000000000E+00  0.19261443658E+04  0.19261443658E+04  0.25500000920E-02 0.  1.
       -2   -1    0    0    0  501  0.00000000000E+00  0.00000000000E+00 -0.12839014894E+04  0.12839014894E+04  0.25500000920E-02 0. -1.
    10030    2    1    2    0    0  0.00000000000E+00  0.00000000000E+00  0.64224287639E+03  0.32100458551E+04  0.31451420445E+04 0.  0.
        1    1    3    3  502    0  0.92435368857E+03 -0.33475308425E+03 -0.93159891845E+03  0.13543876527E+04  0.50400001928E-02 0. -1.
       -1    1    3    3    0  502 -0.92435368857E+03  0.33475308425E+03  0.15738417948E+04  0.18556582024E+04  0.50400001928E-02 0.  1.
</event>
<event>
 5   0  0.2933646E-06  0.3222628E+04  0.7818609E-02  0.8182867E-01
        1   -1    0    0  501    0  0.00000000000E+00  0.00000000000E+00  0.11615760633E+04  0.11615760633E+04  0.50400001928E-02 0. -1.
       -1   -1    0    0    0  501  0.00000000000E+00  0.00000000000E+00 -0.22351815417E+04  0.22351815417E+04  0.50400001928E-02 0.  1.
    10030    2    1    2    0    0  0.00000000000E+00  0.00000000000E+00 -0.10736054784E+04  0.33967576051E+04  0.32226283534E+04 0.  0.
        2    1    3    3  502    0  0.12114077602E+04 -0.79589698774E+03 -0.12786599512E+04  0.19328559303E+04  0.25500000920E-02 0.  1.
       -2    1    3    3    0  502 -0.12114077602E+04  0.79589698774E+03  0.20505447277E+03  0.14639016748E+04  0.25500000920E-02 0. -1.
</event>
<event>
 5   0  0.2635798E-06  0.1615028E+04  0.7818609E-02  0.8811369E-01
       -1   -1    0    0    0  501  0.00000000000E+00  0.00000000000E+00  0.66538608091E+03  0.66538608092E+03  0.50400001928E-02 0. -1.
        1   -1    0    0  501    0  0.00000000000E+00  0.00000000000E+00 -0.98000060810E+03  0.98000060811E+03  0.50400001928E-02 0.  1.
    10030    2    1    2    0    0  0.00000000000E+00  0.00000000000E+00 -0.31461452719E+03  0.16453866890E+04  0.16150278808E+04 0.  0.
        1    1    3    3  502    0  0.28829681742E+03 -0.75066386618E+03 -0.23263954498E+03  0.83709763638E+03  0.50400001928E-02 0. -1.
       -1    1    3    3    0  502 -0.28829681742E+03  0.75066386618E+03 -0.81974982217E+02  0.80828905266E+03  0.50400001928E-02 0.  1.
</event>
<event>
 5   0  0.7510251E-06  0.1671770E+04  0.7818609E-02  0.8777631E-01
        2   -1    0    0  501    0  0.00000000000E+00  0.00000000000E+00  0.76441231301E+03  0.76441231301E+03  0.25500000920E-02 0.  1.
       -2   -1    0    0    0  501  0.00000000000E+00  0.00000000000E+00 -0.91404045710E+03  0.91404045711E+03  0.25500000920E-02 0. -1.
    10030    2    1    2    0    0  0.00000000000E+00  0.00000000000E+00 -0.14962814410E+03  0.16784527701E+04  0.16717700560E+04 0.  0.
        3    1    3    3  502    0  0.57027312959E+03  0.73428617366E+02  0.53432411373E+03  0.78492386439E+03  0.10100000352E+00 0.  1.
       -3    1    3    3    0  502 -0.57027312959E+03 -0.73428617366E+02 -0.68395225783E+03  0.89352890573E+03  0.10100000352E+00 0. -1.
</event>
<event>
 5   0  0.2788054E-06  0.3138407E+04  0.7818609E-02  0.8205276E-01
       -1   -1    0    0    0  501  0.00000000000E+00  0.00000000000E+00  0.15081352094E+04  0.15081352094E+04  0.50400001928E-02 0.  1.
        1   -1    0    0  501    0  0.00000000000E+00  0.00000000000E+00 -0.16327441281E+04  0.16327441281E+04  0.50400001928E-02 0. -1.
    10030    2    1    2    0    0  0.00000000000E+00  0.00000000000E+00 -0.12460891870E+03  0.31408793374E+04  0.31384065431E+04 0.  0.
        3    1    3    3  502    0  0.22991996058E+03 -0.25454768691E+03 -0.15947657307E+04  0.16312374013E+04  0.10100000352E+00 0. -1.
       -3    1    3    3    0  502 -0.22991996058E+03  0.25454768691E+03  0.14701568120E+04  0.15096419362E+04  0.10100000352E+00 0.  1.
</event>
<event>
 5   0  0.7952307E-06  0.3223866E+04  0.7818609E-02  0.8182542E-01
       -2   -1    0    0    0  501  0.00000000000E+00  0.00000000000E+00  0.16046848644E+04  0.16046848644E+04  0.25500000920E-02 0.  1.
        2   -1    0    0  501    0  0.00000000000E+00  0.00000000000E+00 -0.16192140344E+04  0.16192140344E+04  0.25500000920E-02 0. -1.
    10030    2    1    2    0    0  0.00000000000E+00  0.00000000000E+00 -0.14529170059E+02  0.32238988988E+04  0.32238661593E+04 0.  0.
        2    1    3    3  502    0 -0.15765778837E+04 -0.28388836058E+02  0.32729001025E+03  0.16104417096E+04  0.25500000920E-02 0.  1.
       -2    1    3    3    0  502  0.15765778837E+04  0.28388836058E+02 -0.34181918030E+03  0.16134571892E+04  0.25500000920E-02 0. -1.
</event>
<event>
 5   0  0.7510251E-06  0.1674853E+04  0.7818609E-02  0.8775838E-01
       -2   -1    0    0    0  501  0.00000000000E+00  0.00000000000E+00  0.51767016716E+03  0.51767016717E+03  0.25500000920E-02 0. -1.
        2   -1    0    0  501    0  0.00000000000E+00  0.00000000000E+00 -0.13546904020E+04  0.13546904020E+04  0.25500000920E-02 0.  1.
    10030    2    1    2    0    0  0.00000000000E+00  0.00000000000E+00 -0.83702023481E+03  0.18723605691E+04  0.16748525987E+04 0.  0.
        3    1    3    3  502    0 -0.39816004802E+02 -0.16288831337E+03  0.49871010253E+03  0.52614607614E+03  0.10100000352E+00 0. -1.
       -3    1    3    3    0  502  0.39816004802E+02  0.16288831337E+03 -0.13357303373E+04  0.13462144930E+04  0.10100000352E+00 0.  1.
</event>
<event>
 5   0  0.7952307E-06  0.3167007E+04  0.7818609E-02  0.8197585E-01
        2   -1    0    0  501    0  0.00000000000E+00  0.00000000000E+00  0.16492977870E+04  0.16492977870E+04  0.25500000920E-02 0.  1.
       -2   -1    0    0    0  501  0.00000000000E+00  0.00000000000E+00 -0.15203340213E+04  0.15203340213E+04  0.25500000920E-02 0. -1.
    10030    2    1    2    0    0  0.00000000000E+00  0.00000000000E+00  0.12896376577E+03  0.31696318083E+04  0.31670071278E+04 0.  0.
        2    1    3    3  502    0 -0.89294854000E+03 -0.76417425271E+03 -0.99760641872E+03  0.15416023970E+04  0.25500000920E-02 0. -1.
       -2    1    3    3    0  502  0.89294854000E+03  0.76417425271E+03  0.11265701845E+04  0.16280294113E+04  0.25500000920E-02 0.  1.
</event>
<event>
 5   0  0.7952307E-06  0.3191312E+04  0.7818609E-02  0.8191115E-01
        2   -1    0    0  501    0  0.00000000000E+00  0.00000000000E+00  0.10454599657E+04  0.10454599657E+04  0.25500000920E-02 0.  1.
       -2   -1    0    0    0  501  0.00000000000E+00  0.00000000000E+00 -0.24354047407E+04  0.24354047407E+04  0.25500000920E-02 0. -1.
    10030    2    1    2    0    0  0.00000000000E+00  0.00000000000E+00 -0.13899447751E+04  0.34808647064E+04  0.31913120541E+04 0.  0.
        2    1    3    3  502    0  0.84361837529E+03  0.10801985182E+04  0.19622760569E+03  0.13845671074E+04  0.25500000920E-02 0.  1.
       -2    1    3    3    0  502 -0.84361837529E+03 -0.10801985182E+04 -0.15861723808E+04  0.20962975989E+04  0.25500000920E-02 0. -1.
</event>
<event>
 5   0  0.2635798E-06  0.1895506E+04  0.7818609E-02  0.8657096E-01
        1   -1    0    0  501    0  0.00000000000E+00  0.00000000000E+00  0.10826463812E+04  0.10826463812E+04  0.50400001928E-02 0.  1.
       -1   -1    0    0    0  501  0.00000000000E+00  0.00000000000E+00 -0.82966700484E+03  0.82966700485E+03  0.50400001928E-02 0. -1.
    10030    2    1    2    0    0  0.00000000000E+00  0.00000000000E+00  0.25297937635E+03  0.19123133860E+04  0.18955062441E+04 0.  0.
        1    1    3    3  502    0  0.56688052557E+02 -0.62359119840E+03  0.84424470826E+03  0.10511082939E+04  0.50400001928E-02 0.  1.
       -1    1    3    3    0  502 -0.56688052557E+02  0.62359119840E+03 -0.59126533191E+03  0.86120509216E+03  0.50400001928E-02 0. -1.
</event>
<event>
 5   0  0.7952307E-06  0.1732495E+04  0.7818609E-02  0.8743045E-01
        2   -1    0    0  501    0  0.00000000000E+00  0.00000000000E+00  0.11117030907E+04  0.11117030907E+04  0.25500000920E-02 0. -1.
       -2   -1    0    0    0  501  0.00000000000E+00  0.00000000000E+00 -0.67498693728E+03  0.67498693728E+03  0.25500000920E-02 0.  1.
    10030    2    1    2    0    0  0.00000000000E+00  0.00000000000E+00  0.43671615342E+03  0.17866900280E+04  0.17324953845E+04 0.  0.
        2    1    3    3  502    0 -0.32138050832E+03 -0.88377988151E+02 -0.60620850764E+03  0.69179827599E+03  0.25500000920E-02 0.  1.
       -2    1    3    3    0  502  0.32138050832E+03  0.88377988151E+02  0.10429246611E+04  0.10948917520E+04  0.25500000920E-02 0. -1.
</event>
<event>
 5   0  0.7952307E-06  0.3193143E+04  0.7818609E-02  0.8190630E-01
       -2   -1    0    0    0  501  0.00000000000E+00  0.00000000000E+00  0.99028252564E+03  0.99028252564E+03  0.25500000920E-02 0. -1.
        2   -1    0    0  501    0  0.00000000000E+00  0.00000000000E+00 -0.25740536596E+04  0.25740536596E+04  0.25500000920E-02 0.  1.
    10030    2    1    2    0    0  0.00000000000E+00  0.00000000000E+00 -0.15837711339E+04  0.35643361852E+04  0.31931428776E+04 0.  0.
        2    1    3    3  502    0 -0.38620843296E+03  0.52747153227E+03  0.83402972088E+03  0.10597116336E+04  0.25500000920E-02 0. -1.
       -2    1    3    3    0  502  0.38620843296E+03 -0.52747153227E+03 -0.24178008548E+04  0.25046245516E+04  0.25500000920E-02 0.  1.
</event>
<event>
 5   0  0.7510251E-06  0.2423677E+04  0.7818609E-02  0.8430692E-01
        2   -1    0    0  501    0  0.00000000000E+00  0.00000000000E+00  0.21734620609E+04  0.21734620609E+04  0.25500000920E-02 0. -1.
       -2   -1    0    0    0  501  0.00000000000E+00  0.00000000000E+00 -0.67567450520E+03  0.67567450520E+03  0.25500000920E-02 0.  1.
    10030    2    1    2    0    0  0.00000000000E+00  0.00000000000E+00  0.14977875557E+04  0.28491365661E+04  0.24236772909E+04 0.  0.
        3    1    3    3  502    0 -0.10991491658E+04 -0.46804859757E+03  0.50983762103E+03  0.12988967582E+04  0.10100000352E+00 0.  1.
       -3    1    3    3    0  502  0.10991491658E+04  0.46804859757E+03  0.98794993471E+03  0.15502398079E+04  0.10100000352E+00 0. -1.
</event>
<event>
 5   0  0.2933646E-06  0.3210733E+04  0.7818609E-02  0.8185988E-01
        1   -1    0    0  501    0  0.00000000000E+00  0.00000000000E+00  0.24905114996E+04  0.24905114996E+04  0.50400001928E-02 0. -1.
       -1   -1    0    0    0  501  0.00000000000E+00  0.00000000000E+00 -0.10348084573E+04  0.10348084573E+04  0.50400001928E-02 0.  1.
    10030    2    1    2    0    0  0.00000000000E+00  0.00000000000E+00  0.14557030423E+04  0.35253199569E+04  0.32107334756E+04 0.  0.
        2    1    3    3  502    0  0.62513915311E+03  0.85495885076E+03 -0.59677286019E+03  0.12156855860E+04  0.25500000920E-02 0.  1.
       -2    1    3    3    0  502 -0.62513915311E+03 -0.85495885076E+03  0.20524759025E+04  0.23096343710E+04  0.25500000920E-02 0. -1.
</event>
<event>
 5   0  0.2635798E-06  0.1584246E+04  0.7818609E-02  0.8830285E-01
       -1   -1    0    0    0  501  0.00000000000E+00  0.00000000000E+00  0.68620565634E+03  0.68620565636E+03  0.50400001928E-02 0. -1.
        1   -1    0    0  501    0  0.00000000000E+00  0.00000000000E+00 -0.91438865993E+03  0.91438865994E+03  0.50400001928E-02 0.  1.
    10030    2    1    2    0    0  0.00000000000E+00  0.00000000000E+00 -0.22818300359E+03  0.16005943163E+04  0.15842457771E+04 0.  0.
        1    1    3    3  502    0  0.26274868662E+03  0.56002917987E+03 -0.61395884421E+03  0.87155895786E+03  0.50400001928E-02 0.  1.
       -1    1    3    3    0  502 -0.26274868662E+03 -0.56002917987E+03  0.38577584062E+03  0.72903535844E+03  0.50400001928E-02 0. -1.
</event>
<event>
 5   0  0.7952307E-06  0.2427906E+04  0.7818609E-02  0.8429129E-01
        2   -1    0    0  501    0  0.00000000000E+00  0.00000000000E+00  0.14018922680E+04  0.14018922680E+04  0.25500000920E-02 0. -1.
       -2   -1    0    0    0  501  0.00000000000E+00  0.00000000000E+00 -0.10512092972E+04  0.10512092973E+04  0.25500000920E-02 0.  1.
    10030    2    1    2    0    0  0.00000000000E+00  0.00000000000E+00  0.35068297074E+03  0.24531015652E+04  0.24279062468E+04 0.  0.
        2    1    3    3  502    0 -0.98560317432E+03  0.60480371072E+03 -0.19792567156E+03  0.11731904011E+04  0.25500000920E-02 0.  1.
       -2    1    3    3    0  502  0.98560317432E+03 -0.60480371072E+03  0.54860864229E+03  0.12799111642E+04  0.25500000920E-02 0. -1.
</event>
<event>
 5   0  0.8237664E-06  0.3078281E+04  0.7818609E-02  0.8221724E-01
       -2   -1    0    0    0  501  0.00000000000E+00  0.00000000000E+00  0.14236607491E+04  0.14236607491E+04  0.25500000920E-02 0.  1.
        2   -1    0    0  501    0  0.00000000000E+00  0.00000000000E+00 -0.16639870134E+04  0.16639870134E+04  0.25500000920E-02 0. -1.
    10030    2    1    2    0    0  0.00000000000E+00  0.00000000000E+00 -0.24032626427E+03  0.30876477626E+04  0.30782806877E+04 0.  0.
        5    1    3    3  502    0 -0.11960547885E+03 -0.16333196128E+03  0.14102411786E+04  0.14247052579E+04  0.46999998093E+01 0.  1.
       -5    1    3    3    0  502  0.11960547885E+03  0.16333196128E+03 -0.16505674429E+04  0.16629425046E+04  0.46999998093E+01 0. -1.
</event>
<event>
 5   0  0.2933646E-06  0.3249510E+04  0.7818609E-02  0.8175863E-01
        1   -1    0    0  501    0  0.00000000000E+00  0.00000000000E+00  0.18274738552E+04  0.18274738552E+04  0.50400001928E-02 0.  1.
       -1   -1    0    0    0  501  0.00000000000E+00  0.00000000000E+00 -0.14445233989E+04  0.14445233989E+04  0.50400001928E-02 0. -1.
    10030    2    1    2    0    0  0.00000000000E+00  0.00000000000E+00  0.38295045629E+03  0.32719972540E+04  0.32495099597E+04 0.  0.
        2    1    3    3  502    0  0.12682209000E+04  0.36030440306E+03  0.11475857251E+04  0.17479006008E+04  0.25500000920E-02 0.  1.
       -2    1    3    3    0  502 -0.12682209000E+04 -0.36030440306E+03 -0.76463526881E+03  0.15240966532E+04  0.25500000920E-02 0. -1.
</event>
<event>
 5   0  0.2580875E-06  0.3102450E+04  0.7818609E-02  0.8215066E-01
        3   -1    0    0  501    0  0.00000000000E+00  0.00000000000E+00  0.21144644069E+04  0.21144644093E+04  0.10100000352E+00 0.  1.
       -3   -1    0    0    0  501  0.00000000000E+00  0.00000000000E+00 -0.11380178604E+04  0.11380178649E+04  0.10100000352E+00 0. -1.
    10030    2    1    2    0    0  0.00000000000E+00  0.00000000000E+00  0.97644654649E+03  0.32524822741E+04  0.31024495299E+04 0.  0.
        2    1    3    3  502    0 -0.15214002547E+04 -0.96925117141E+02  0.78887598040E+03  0.17165018281E+04  0.25500000920E-02 0.  1.
       -2    1    3    3    0  502  0.15214002547E+04  0.96925117141E+02  0.18757056608E+03  0.15359804460E+04  0.25500000920E-02 0. -1.
</event>
<event>
 5   0  0.7941434E-06  0.3224085E+04  0.7818609E-02  0.8182485E-01
        2   -1    0    0  501    0  0.00000000000E+00  0.00000000000E+00  0.24249919230E+04  0.24249919230E+04  0.25500000920E-02 0. -1.
       -2   -1    0    0    0  501  0.00000000000E+00  0.00000000000E+00 -0.10716248927E+04  0.10716248927E+04  0.25500000920E-02 0.  1.
    10030    2    1    2    0    0  0.00000000000E+00  0.00000000000E+00  0.13533670303E+04  0.34966168157E+04  0.32240854264E+04 0.  0.
        4    1    3    3  502    0 -0.10876220206E+04  0.11831552835E+04  0.53992085606E+03  0.16953743623E+04  0.12699999809E+01 0.  1.
       -4    1    3    3    0  502  0.10876220206E+04 -0.11831552835E+04  0.81344617425E+03  0.18012424534E+04  0.12699999809E+01 0. -1.
</event>
<event>
 5   0  0.3362030E-06  0.1773262E+04  0.7818609E-02  0.8720649E-01
       -1   -1    0    0    0  501  0.00000000000E+00  0.00000000000E+00  0.63891984236E+03  0.63891984238E+03  0.50400001928E-02 0. -1.
        1   -1    0    0  501    0  0.00000000000E+00  0.00000000000E+00 -0.12303811874E+04  0.12303811874E+04  0.50400001928E-02 0.  1.
    10030    2    1    2    0    0  0.00000000000E+00  0.00000000000E+00 -0.59146134500E+03  0.18693010297E+04  0.17732624784E+04 0.  0.
        3    1    3    3  502    0  0.50499885841E+03  0.17100574501E+03  0.45104880881E+03  0.69836369461E+03  0.10100000352E+00 0. -1.
       -3    1    3    3    0  502 -0.50499885841E+03 -0.17100574501E+03 -0.10425101538E+04  0.11709373351E+04  0.10100000352E+00 0.  1.
</event>
<event>
 5   0  0.2933646E-06  0.2937217E+04  0.7818609E-02  0.8261890E-01
        1   -1    0    0  501    0  0.00000000000E+00  0.00000000000E+00  0.17269424165E+04  0.17269424165E+04  0.50400001928E-02 0. -1.
       -1   -1    0    0    0  501  0.00000000000E+00  0.00000000000E+00 -0.12489185309E+04  0.12489185309E+04  0.50400001928E-02 0.  1.
    10030    2    1    2    0    0  0.00000000000E+00  0.00000000000E+00  0.47802388562E+03  0.29758609474E+04  0.29372166320E+04 0.  0.
        2    1    3    3  502    0  0.89193985230E+03 -0.11667258262E+04  0.24116885934E+03  0.14882769474E+04  0.25500000920E-02 0.  1.
       -2    1    3    3    0  502 -0.89193985230E+03  0.11667258262E+04  0.23685502628E+03  0.14875840000E+04  0.25500000920E-02 0. -1.
</event>
<event>
 5   0  0.7952307E-06  0.3055526E+04  0.7818609E-02  0.8228050E-01
       -2   -1    0    0    0  501  0.00000000000E+00  0.00000000000E+00  0.11487095550E+04  0.11487095550E+04  0.25500000920E-02 0.  1.
        2   -1    0    0  501    0  0.00000000000E+00  0.00000000000E+00 -0.20318975744E+04  0.20318975744E+04  0.25500000920E-02 0. -1.
    10030    2    1    2    0    0  0.00000000000E+00  0.00000000000E+00 -0.88318801940E+03  0.31806071294E+04  0.30555262450E+04 0.  0.
        2    1    3    3  502    0  0.14886623728E+04  0.30309117282E+03 -0.60969868605E+03  0.16369827143E+04  0.25500000920E-02 0.  1.
       -2    1    3    3    0  502 -0.14886623728E+04 -0.30309117282E+03 -0.27348933336E+03  0.15436244150E+04  0.25500000920E-02 0. -1.
</event>
<event>
 5   0  0.8237664E-06  0.2095063E+04  0.7818609E-02  0.8563421E-01
        2   -1    0    0  501    0  0.00000000000E+00  0.00000000000E+00  0.22991594732E+04  0.22991594732E+04  0.25500000920E-02 0.  1.
       -2   -1    0    0    0  501  0.00000000000E+00  0.00000000000E+00 -0.47727084252E+03  0.47727084253E+03  0.25500000920E-02 0. -1.
    10030    2    1    2    0    0  0.00000000000E+00  0.00000000000E+00  0.18218886306E+04  0.27764303157E+04  0.20950625564E+04 0.  0.
        5    1    3    3  502    0 -0.78797966140E+02 -0.72148507469E+03 -0.90061459412E+02  0.73135695042E+03  0.46999998093E+01 0. -1.
       -5    1    3    3    0  502  0.78797966140E+02  0.72148507469E+03  0.19119500901E+04  0.20450733653E+04  0.46999998093E+01 0.  1.
</event>
<event>
 5   0  0.2635798E-06  0.1894350E+04  0.7818609E-02  0.8657674E-01
       -1   -1    0    0    0  501  0.00000000000E+00  0.00000000000E+00  0.76657598581E+03  0.76657598583E+03  0.50400001928E-02 0.  1.
        1   -1    0    0  501    0  0.00000000000E+00  0.00000000000E+00 -0.11703215576E+04  0.11703215576E+04  0.50400001928E-02 0. -1.
    10030    2    1    2    0    0  0.00000000000E+00  0.00000000000E+00 -0.40374557175E+03  0.19368975434E+04  0.18943499167E+04 0.  0.
        1    1    3    3  502    0  0.30090672025E+03  0.64037597490E+03  0.44196401192E+03  0.83424123092E+03  0.50400001928E-02 0.  1.
       -1    1    3    3    0  502 -0.30090672025E+03 -0.64037597490E+03 -0.84570958367E+03  0.11026563125E+04  0.50400001928E-02 0. -1.
</event>
<event>
 5   0  0.8237664E-06  0.3168098E+04  0.7818609E-02  0.8197294E-01
       -2   -1    0    0    0  501  0.00000000000E+00  0.00000000000E+00  0.12970798673E+04  0.12970798673E+04  0.25500000920E-02 0. -1.
        2   -1    0    0  501    0  0.00000000000E+00  0.00000000000E+00 -0.19345080286E+04  0.19345080286E+04  0.25500000920E-02 0.  1.
    10030    2    1    2    0    0  0.00000000000E+00  0.00000000000E+00 -0.63742816132E+03  0.32315878959E+04  0.31680981153E+04 0.  0.
        5    1    3    3  502    0 -0.85037606705E+03 -0.10604703470E+04  0.51088198865E+03  0.14521567782E+04  0.46999998093E+01 0.  1.
       -5    1    3    3    0  502  0.85037606705E+03  0.10604703470E+04 -0.11483101500E+04  0.17794311177E+04  0.46999998093E+01 0. -1.
</event>
<event>
 5   0  0.2788054E-06  0.3224282E+04  0.7818609E-02  0.8182434E-01
        1   -1    0    0  501    0  0.00000000000E+00  0.00000000000E+00  0.15096009648E+04  0.15096009648E+04  0.50400001928E-02 0. -1.
       -1   -1    0    0    0  501  0.00000000000E+00  0.00000000000E+00 -0.17216465892E+04  0.17216465892E+04  0.50400001928E-02 0.  1.
    10030    2    1    2    0    0  0.00000000000E+00  0.00000000000E+00 -0.21204562439E+03  0.32312475540E+04  0.32242824641E+04 0.  0.
        3    1    3    3  502    0  0.12391060484E+04 -0.87937078003E+03  0.43395703681E+03  0.15801884343E+04  0.10100000352E+00 0. -1.
       -3    1    3    3    0  502 -0.12391060484E+04  0.87937078003E+03 -0.64600266120E+03  0.16510591196E+04  0.10100000352E+00 0.  1.
</event>
<event>
 5   0  0.7952307E-06  0.3124832E+04  0.7818609E-02  0.8208956E-01
        2   -1    0    0  501    0  0.00000000000E+00  0.00000000000E+00  0.14679634948E+04  0.14679634948E+04  0.25500000920E-02 0.  1.
       -2   -1    0    0    0  501  0.00000000000E+00  0.00000000000E+00 -0.16629458904E+04  0.16629458904E+04  0.25500000920E-02 0. -1.
    10030    2    1    2    0    0  0.00000000000E+00  0.00000000000E+00 -0.19498239560E+03  0.31309093852E+04  0.31248320665E+04 0.  0.
        2    1    3    3  502    0  0.46661432581E+03  0.84107166639E+03  0.11361683763E+04  0.14886265671E+04  0.25500000920E-02 0.  1.
       -2    1    3    3    0  502 -0.46661432581E+03 -0.84107166639E+03 -0.13311507719E+04  0.16422828181E+04  0.25500000920E-02 0. -1.
</event>
<event>
 5   0  0.7510251E-06  0.3137770E+04  0.7818609E-02  0.8205448E-01
       -2   -1    0    0    0  501  0.00000000000E+00  0.00000000000E+00  0.12949413031E+04  0.12949413031E+04  0.25500000920E-02 0.  1.
        2   -1    0    0  501    0  0.00000000000E+00  0.00000000000E+00 -0.19007812423E+04  0.19007812423E+04  0.25500000920E-02 0. -1.
    10030    2    1    2    0    0  0.00000000000E+00  0.00000000000E+00 -0.60583993927E+03  0.31957225454E+04  0.31377699972E+04 0.  0.
        3    1    3    3  502    0  0.12314970264E+04 -0.83551518425E+03 -0.80881285280E+03  0.16937676317E+04  0.10100000352E+00 0. -1.
       -3    1    3    3    0  502 -0.12314970264E+04  0.83551518425E+03  0.20297291354E+03  0.15019549137E+04  0.10100000352E+00 0.  1.
</event>
<event>
 5   0  0.7971763E-06  0.3117725E+04  0.7818609E-02  0.8210890E-01
       -2   -1    0    0    0  501  0.00000000000E+00  0.00000000000E+00  0.13025972395E+04  0.13025972395E+04  0.25500000920E-02 0. -1.
        2   -1    0    0  501    0  0.00000000000E+00  0.00000000000E+00 -0.18655434535E+04  0.18655434535E+04  0.25500000920E-02 0.  1.
    10030    2    1    2    0    0  0.00000000000E+00  0.00000000000E+00 -0.56294621396E+03  0.31681406930E+04  0.31177246528E+04 0.  0.
        1    1    3    3  502    0  0.11156182268E+03 -0.74141832590E+03  0.11073407658E+04  0.13372923188E+04  0.50400001928E-02 0. -1.
       -1    1    3    3    0  502 -0.11156182268E+03  0.74141832590E+03 -0.16702869798E+04  0.18308483742E+04  0.50400001928E-02 0.  1.
</event>
<event>
 5   0  0.2635798E-06  0.2014867E+04  0.7818609E-02  0.8599701E-01
        1   -1    0    0  501    0  0.00000000000E+00  0.00000000000E+00  0.10993437001E+04  0.10993437001E+04  0.50400001928E-02 0. -1.
       -1   -1    0    0    0  501  0.00000000000E+00  0.00000000000E+00 -0.92320738554E+03  0.92320738555E+03  0.50400001928E-02 0.  1.
    10030    2    1    2    0    0  0.00000000000E+00  0.00000000000E+00  0.17613631457E+03  0.20225510857E+04  0.20148669665E+04 0.  0.
        1    1    3    3  502    0  0.20066079581E+03  0.84315093784E+03 -0.42746027341E+03  0.96638012413E+03  0.50400001928E-02 0.  1.
       -1    1    3    3    0  502 -0.20066079581E+03 -0.84315093784E+03  0.60359658799E+03  0.10561709615E+04  0.50400001928E-02 0. -1.
</event>
<event>
 5   0  0.7510251E-06  0.3208389E+04  0.7818609E-02  0.8186605E-01
       -2   -1    0    0    0  501  0.00000000000E+00  0.00000000000E+00  0.12185708946E+04  0.12185708946E+04  0.25500000920E-02 0. -1.
        2   -1    0    0  501    0  0.00000000000E+00  0.00000000000E+00 -0.21118502803E+04  0.21118502803E+04  0.25500000920E-02 0.  1.
    10030    2    1    2    0    0  0.00000000000E+00  0.00000000000E+00 -0.89327938569E+03  0.33304211749E+04  0.32083885583E+04 0.  0.
        3    1    3    3  502    0  0.73636168929E+03  0.14250907890E+04 -0.46541008027E+03  0.16702451459E+04  0.10100000352E+00 0. -1.
       -3    1    3    3    0  502 -0.73636168929E+03 -0.14250907890E+04 -0.42786930542E+03  0.16601760290E+04  0.10100000352E+00 0.  1.
</event>
<event>
 5   0  0.3938696E-06  0.2859015E+04  0.7818609E-02  0.8285177E-01
        1   -1    0    0  501    0  0.00000000000E+00  0.00000000000E+00  0.15538219389E+04  0.15538219389E+04  0.50400001928E-02 0.  1.
       -1   -1    0    0    0  501  0.00000000000E+00  0.00000000000E+00 -0.13151386068E+04  0.13151386068E+04  0.50400001928E-02 0. -1.
    10030    2    1    2    0    0  0.00000000000E+00  0.00000000000E+00  0.23868333208E+03  0.28689605457E+04  0.28590146694E+04 0.  0.
        4    1    3    3  502    0  0.87708969052E+03  0.10555333100E+04 -0.28211596050E+03  0.14010809833E+04  0.12699999809E+01 0. -1.
       -4    1    3    3    0  502 -0.87708969052E+03 -0.10555333100E+04  0.52079929257E+03  0.14678795624E+04  0.12699999809E+01 0.  1.
</event>
<event>
 5   0  0.8237664E-06  0.3171630E+04  0.7818609E-02  0.8196350E-01
        2   -1    0    0  501    0  0.00000000000E+00  0.00000000000E+00  0.15215566727E+04  0.15215566727E+04  0.25500000920E-02 0.  1.
       -2   -1    0    0    0  501  0.00000000000E+00  0.00000000000E+00 -0.16527868548E+04  0.16527868548E+04  0.25500000920E-02 0. -1.
    10030    2    1    2    0    0  0.00000000000E+00  0.00000000000E+00 -0.13123018204E+03  0.31743435275E+04  0.31716297813E+04 0.  0.
        5    1    3    3  502    0 -0.15384055741E+04  0.14286632121E+03  0.29202002503E+03  0.15723868103E+04  0.46999998093E+01 0.  1.
       -5    1    3    3    0  502  0.15384055741E+04 -0.14286632121E+03 -0.42325020707E+03  0.16019567172E+04  0.46999998093E+01 0. -1.
</event>
<event>
 5   0  0.3938696E-06  0.3191876E+04  0.7818609E-02  0.8190966E-01
       -1   -1    0    0    0  501  0.00000000000E+00  0.00000000000E+00  0.17853755157E+04  0.17853755157E+04  0.50400001928E-02 0. -1.
        1   -1    0    0  501    0  0.00000000000E+00  0.00000000000E+00 -0.14266005749E+04  0.14266005749E+04  0.50400001928E-02 0.  1.
    10030    2    1    2    0    0  0.00000000000E+00  0.00000000000E+00  0.35877494081E+03  0.32119760906E+04  0.31918757727E+04 0.  0.
        4    1    3    3  502    0 -0.13392589256E+04 -0.68789521621E+03  0.71206184418E+03  0.16654873104E+04  0.12699999809E+01 0. -1.
       -4    1    3    3    0  502  0.13392589256E+04  0.68789521621E+03 -0.35328690337E+03  0.15464887802E+04  0.12699999809E+01 0.  1.
</event>
<event>
 5   0  0.4142886E-06  0.3165131E+04  0.7818609E-02  0.8198087E-01
       -1   -1    0    0    0  501  0.00000000000E+00  0.00000000000E+00  0.12805570951E+04  0.12805570951E+04  0.50400001928E-02 0. -1.
        1   -1    0    0  501    0  0.00000000000E+00  0.00000000000E+00 -0.19557993944E+04  0.19557993945E+04  0.50400001928E-02 0.  1.
    10030    2    1    2    0    0  0.00000000000E+00  0.00000000000E+00 -0.67524229933E+03  0.32363564896E+04  0.31651305131E+04 0.  0.
        5    1    3    3  502    0 -0.53986997955E+03 -0.13707893959E+04 -0.92852505307E+03  0.17414660568E+04  0.46999998093E+01 0.  1.
       -5    1    3    3    0  502  0.53986997955E+03  0.13707893959E+04  0.25328275374E+03  0.14948904328E+04  0.46999998093E+01 0. -1.
</event>
<event>
 5   0  0.7971763E-06  0.3123946E+04  0.7818609E-02  0.8209197E-01
       -2   -1    0    0    0  501  0.00000000000E+00  0.00000000000E+00  0.15553278005E+04  0.15553278006E+04  0.25500000920E-02 0.  1.
        2   -1    0    0  501    0  0.00000000000E+00  0.00000000000E+00 -0.15686465100E+04  0.15686465101E+04  0.25500000920E-02 0. -1.
    10030    2    1    2    0    0  0.00000000000E+00  0.00000000000E+00 -0.13318709499E+02  0.31239743106E+04  0.31239459191E+04 0.  0.
        1    1    3    3  502    0  0.15192220364E+04  0.32938810765E+03  0.14574742748E+03  0.15613373863E+04  0.50400001928E-02 0.  1.
       -1    1    3    3    0  502 -0.15192220364E+04 -0.32938810765E+03 -0.15906613698E+03  0.15626369243E+04  0.50400001928E-02 0. -1.
</event>
<event>
 5   0  0.7941434E-06  0.3085553E+04  0.7818609E-02  0.8219714E-01
       -2   -1    0    0    0  501  0.00000000000E+00  0.00000000000E+00  0.18271777358E+04  0.18271777358E+04  0.25500000920E-02 0. -1.
        2   -1    0    0  501    0  0.00000000000E+00  0.00000000000E+00 -0.13026423473E+04  0.13026423473E+04  0.25500000920E-02 0.  1.
    10030    2    1    2    0    0  0.00000000000E+00  0.00000000000E+00  0.52453538847E+03  0.31298200830E+04  0.30855528481E+04 0.  0.
        4    1    3    3  502    0  0.94006598116E+03  0.54482065016E+02 -0.97733904393E+03  0.13571608468E+04  0.12699999809E+01 0.  1.
       -4    1    3    3    0  502 -0.94006598116E+03 -0.54482065016E+02  0.15018744324E+04  0.17726592363E+04  0.12699999809E+01 0. -1.
</event>
<event>
 5   0  0.7510251E-06  0.2760641E+04  0.7818609E-02  0.8315593E-01
       -2   -1    0    0    0  501  0.00000000000E+00  0.00000000000E+00  0.73346654669E+03  0.73346654670E+03  0.25500000920E-02 0.  1.
        2   -1    0    0  501    0  0.00000000000E+00  0.00000000000E+00 -0.25976438339E+04  0.25976438339E+04  0.25500000920E-02 0. -1.
    10030    2    1    2    0    0  0.00000000000E+00  0.00000000000E+00 -0.18641772872E+04  0.33311103806E+04  0.27606411229E+04 0.  0.
        3    1    3    3  502    0 -0.54352357775E+03 -0.15207613727E+03  0.58787055480E+03  0.81494590649E+03  0.10100000352E+00 0.  1.
       -3    1    3    3    0  502  0.54352357775E+03  0.15207613727E+03 -0.24520478420E+04  0.25161644741E+04  0.10100000352E+00 0. -1.
</event>
<event>
 5   0  0.6010550E-06  0.1581215E+04  0.7818609E-02  0.8832172E-01
       -1   -1    0    0    0  501  0.00000000000E+00  0.00000000000E+00  0.45669982266E+03  0.45669982268E+03  0.50400001928E-02 0. -1.
        1   -1    0    0  501    0  0.00000000000E+00  0.00000000000E+00 -0.13686450646E+04  0.13686450646E+04  0.50400001928E-02 0.  1.
    10030    2    1    2    0    0  0.00000000000E+00  0.00000000000E+00 -0.91194524192E+03  0.18253448873E+04  0.15812146702E+04 0.  0.
        4    1    3    3  502    0 -0.69521881450E+03  0.36591096309E+03 -0.55817603065E+03  0.96373343152E+03  0.12699999809E+01 0. -1.
       -4    1    3    3    0  502  0.69521881450E+03 -0.36591096309E+03 -0.35376921128E+03  0.86161145576E+03  0.12699999809E+01 0.  1.
</event>
<event>
 5   0  0.2933646E-06  0.2206084E+04  0.7818609E-02  0.8515900E-01
       -1   -1    0    0    0  501  0.00000000000E+00  0.00000000000E+00  0.12997541606E+04  0.12997541606E+04  0.50400001928E-02 0. -1.
        1   -1    0    0  501    0  0.00000000000E+00  0.00000000000E+00 -0.93610129982E+03  0.93610129983E+03  0.50400001928E-02 0.  1.
    10030    2    1    2    0    0  0.00000000000E+00  0.00000000000E+00  0.36365286077E+03  0.22358554604E+04  0.22060839143E+04 0.  0.
        2    1    3    3  502    0 -0.46224800558E+02 -0.55818469039E+03 -0.78125784519E+03  0.96128596237E+03  0.25500000920E-02 0.  1.
       -2    1    3    3    0  502  0.46224800558E+02  0.55818469039E+03  0.11449107060E+04  0.12745694981E+04  0.25500000920E-02 0. -1.
</event>
<event>
 5   0  0.8237664E-06  0.3188162E+04  0.7818609E-02  0.8191951E-01
       -2   -1    0    0    0  501  0.00000000000E+00  0.00000000000E+00  0.16334425856E+04  0.16334425856E+04  0.25500000920E-02 0.  1.
        2   -1    0    0  501    0  0.00000000000E+00  0.00000000000E+00 -0.15556680407E+04  0.15556680407E+04  0.25500000920E-02 0. -1.
    10030    2    1    2    0    0  0.00000000000E+00  0.00000000000E+00  0.77774544861E+02  0.31891106263E+04  0.31881621206E+04 0.  0.
        5    1    3    3  502    0  0.84930235634E+02 -0.95230830029E+03  0.13147933470E+04  0.16256715164E+04  0.46999998093E+01 0.  1.
       -5    1    3    3    0  502 -0.84930235634E+02  0.95230830029E+03 -0.12370188022E+04  0.15634391100E+04  0.46999998093E+01 0. -1.
</event>
<event>
 5   0  0.2635798E-06  0.1974619E+04  0.7818609E-02  0.8618580E-01
        1   -1    0    0  501    0  0.00000000000E+00  0.00000000000E+00  0.91487186538E+03  0.91487186539E+03  0.50400001928E-02 0. -1.
       -1   -1    0    0    0  501  0.00000000000E+00  0.00000000000E+00 -0.10654826039E+04  0.10654826039E+04  0.50400001928E-02 0.  1.
    10030    2    1    2    0    0  0.00000000000E+00  0.00000000000E+00 -0.15061073853E+03  0.19803544693E+04  0.19746190087E+04 0.  0.
        1    1    3    3  502    0  0.59159956380E+03  0.34970592055E+02 -0.86726164748E+03  0.10504074216E+04  0.50400001928E-02 0.  1.
       -1    1    3    3    0  502 -0.59159956380E+03 -0.34970592055E+02  0.71665090894E+03  0.92994704769E+03  0.50400001928E-02 0. -1.
</event>
<event>
 5   0  0.7510251E-06  0.3200603E+04  0.7818609E-02  0.8188658E-01
        2   -1    0    0  501    0  0.00000000000E+00  0.00000000000E+00  0.14085330419E+04  0.14085330419E+04  0.25500000920E-02 0.  1.
       -2   -1    0    0    0  501  0.00000000000E+00  0.00000000000E+00 -0.18181791753E+04  0.18181791753E+04  0.25500000920E-02 0. -1.
    10030    2    1    2    0    0  0.00000000000E+00  0.00000000000E+00 -0.40964613332E+03  0.32267122172E+04  0.32006033459E+04 0.  0.
        3    1    3    3  502    0 -0.45036272339E+03  0.12766451442E+03 -0.17476138872E+04  0.18092205835E+04  0.10100000352E+00 0. -1.
       -3    1    3    3    0  502  0.45036272339E+03 -0.12766451442E+03  0.13379677539E+04  0.14174916337E+04  0.10100000352E+00 0.  1.
</event>
<event>
 5   0  0.2933646E-06  0.3104303E+04  0.7818609E-02  0.8214558E-01
        1   -1    0    0  501    0  0.00000000000E+00  0.00000000000E+00  0.19366264120E+04  0.19366264120E+04  0.50400001928E-02 0. -1.
       -1   -1    0    0    0  501  0.00000000000E+00  0.00000000000E+00 -0.12440059763E+04  0.12440059763E+04  0.50400001928E-02 0.  1.
    10030    2    1    2    0    0  0.00000000000E+00  0.00000000000E+00  0.69262043576E+03  0.31806323883E+04  0.31043033553E+04 0.  0.
        2    1    3    3  502    0 -0.11243256404E+04  0.75946630260E+03  0.11186876917E+04  0.17585105521E+04  0.25500000920E-02 0. -1.
       -2    1    3    3    0  502  0.11243256404E+04 -0.75946630260E+03 -0.42606725597E+03  0.14221218362E+04  0.25500000920E-02 0.  1.
</event>
<event>
 5   0  0.2635798E-06  0.3118291E+04  0.7818609E-02  0.8210736E-01
       -1   -1    0    0    0  501  0.00000000000E+00  0.00000000000E+00  0.12137486165E+04  0.12137486165E+04  0.50400001928E-02 0.  1.
        1   -1    0    0  501    0  0.00000000000E+00  0.00000000000E+00 -0.20028323751E+04  0.20028323751E+04  0.50400001928E-02 0. -1.
    10030    2    1    2    0    0  0.00000000000E+00  0.00000000000E+00 -0.78908375865E+03  0.32165809916E+04  0.31182912143E+04 0.  0.
        1    1    3    3  502    0 -0.97204669479E+00  0.98527168468E+03  0.85192313675E+03  0.13025107556E+04  0.50400001928E-02 0. -1.
       -1    1    3    3    0  502  0.97204669479E+00 -0.98527168468E+03 -0.16410068954E+04  0.19140702360E+04  0.50400001928E-02 0.  1.
</event>
<event>
 5   0  0.7941434E-06  0.3276295E+04  0.7818609E-02  0.8168954E-01
        2   -1    0    0  501    0  0.00000000000E+00  0.00000000000E+00  0.21892487389E+04  0.21892487389E+04  0.25500000920E-02 0.  1.
       -2   -1    0    0    0  501  0.00000000000E+00  0.00000000000E+00 -0.12257751885E+04  0.12257751885E+04  0.25500000920E-02 0. -1.
    10030    2    1    2    0    0  0.00000000000E+00  0.00000000000E+00  0.96347355037E+03  0.34150239274E+04  0.32762947276E+04 0.  0.
        4    1    3    3  502    0  0.13232963935E+02  0.54595816313E+03 -0.11280948252E+04  0.12533335449E+04  0.12699999809E+01 0. -1.
       -4    1    3    3    0  502 -0.13232963935E+02 -0.54595816313E+03  0.20915683756E+04  0.21616903825E+04  0.12699999809E+01 0.  1.
</event>
<event>
 5   0  0.4142886E-06  0.3128734E+04  0.7818609E-02  0.8207896E-01
       -1   -1    0    0    0  501  0.00000000000E+00  0.00000000000E+00  0.17232415867E+04  0.17232415867E+04  0.50400001928E-02 0. -1.
        1   -1    0    0  501    0  0.00000000000E+00  0.00000000000E+00 -0.14201401560E+04  0.14201401560E+04  0.50400001928E-02 0.  1.
    10030    2    1    2    0    0  0.00000000000E+00  0.00000000000E+00  0.30310143072E+03  0.31433817427E+04  0.31287342972E+04 0.  0.
        5    1    3    3  502    0 -0.18014159077E+03 -0.45326897522E+03 -0.13417856138E+04  0.14276955138E+04  0.46999998093E+01 0.  1.
       -5    1    3    3    0  502  0.18014159077E+03  0.45326897522E+03  0.16448870445E+04  0.17156862289E+04  0.46999998093E+01 0. -1.
</event>
<event>
 5   0  0.7952307E-06  0.2886865E+04  0.7818609E-02  0.8276796E-01
       -2   -1    0    0    0  501  0.00000000000E+00  0.00000000000E+00  0.93382966804E+03  0.93382966804E+03  0.25500000920E-02 0. -1.
        2   -1    0    0  501    0  0.00000000000E+00  0.00000000000E+00 -0.22311318555E+04  0.22311318555E+04  0.25500000920E-02 0.  1.
    10030    2    1    2    0    0  0.00000000000E+00  0.00000000000E+00 -0.12973021875E+04  0.31649615236E+04  0.28868648185E+04 0.  0.
        2    1    3    3  502    0  0.23421436513E+03 -0.21485123294E+02 -0.22099826690E+04  0.22224629078E+04  0.25500000920E-02 0.  1.
       -2    1    3    3    0  502 -0.23421436513E+03  0.21485123294E+02  0.91268048151E+03  0.94249861575E+03  0.25500000920E-02 0. -1.
</event>
<event>
 5   0  0.3938696E-06  0.3012205E+04  0.7818609E-02  0.8240254E-01
        1   -1    0    0  501    0  0.00000000000E+00  0.00000000000E+00  0.12243825311E+04  0.12243825312E+04  0.50400001928E-02 0.  1.
       -1   -1    0    0    0  501  0.00000000000E+00  0.00000000000E+00 -0.18526436594E+04  0.18526436595E+04  0.50400001928E-02 0. -1.
    10030    2    1    2    0    0  0.00000000000E+00  0.00000000000E+00 -0.62826112830E+03  0.30770261906E+04  0.30122048623E+04 0.  0.
        4    1    3    3  502    0 -0.14521554926E+04  0.39132923543E+03 -0.23209818599E+03  0.15217638864E+04  0.12699999809E+01 0. -1.
       -4    1    3    3    0  502  0.14521554926E+04 -0.39132923543E+03 -0.39616294231E+03  0.15552623042E+04  0.12699999809E+01 0.  1.
</event>
<event>
 5   0  0.2635798E-06  0.3203097E+04  0.7818609E-02  0.8188000E-01
       -1   -1    0    0    0  501  0.00000000000E+00  0.00000000000E+00  0.13294325646E+04  0.13294325646E+04  0.50400001928E-02 0.  1.
        1   -1    0    0  501    0  0.00000000000E+00  0.00000000000E+00 -0.19293624372E+04  0.19293624372E+04  0.50400001928E-02 0. -1.
    10030    2    1    2    0    0  0.00000000000E+00  0.00000000000E+00 -0.59992987261E+03  0.32587950018E+04  0.32030967847E+04 0.  0.
        1    1    3    3  502    0 -0.10139782803E+04 -0.77388101200E+03 -0.12852646775E+04  0.18107868635E+04  0.50400001928E-02 0. -1.
       -1    1    3    3    0  502  0.10139782803E+04  0.77388101200E+03  0.68533480493E+03  0.14480081383E+04  0.50400001928E-02 0.  1.
</event>
<event>
 5   0  0.7952307E-06  0.3174413E+04  0.7818609E-02  0.8195607E-01
       -2   -1    0    0    0  501  0.00000000000E+00  0.00000000000E+00  0.27990401253E+04  0.27990401253E+04  0.25500000920E-02 0.  1.
        2   -1    0    0  501    0  0.00000000000E+00  0.00000000000E+00 -0.90003179392E+03  0.90003179392E+03  0.25500000920E-02 0. -1.
    10030    2    1    2    0    0  0.00000000000E+00  0.00000000000E+00  0.18990083313E+04  0.36990719192E+04  0.31744133979E+04 0.  0.
        2    1    3    3  502    0 -0.68435528624E+03  0.15516795471E+03  0.26084620722E+04  0.27012022572E+04  0.25500000920E-02 0.  1.
       -2    1    3    3    0  502  0.68435528624E+03 -0.15516795471E+03 -0.70945374085E+03  0.99786966203E+03  0.25500000920E-02 0. -1.
</event>
<event>
 5   0  0.7971763E-06  0.3059443E+04  0.7818609E-02  0.8226957E-01
       -2   -1    0    0    0  501  0.00000000000E+00  0.00000000000E+00  0.23416214853E+04  0.23416214853E+04  0.25500000920E-02 0. -1.
        2   -1    0    0  501    0  0.00000000000E+00  0.00000000000E+00 -0.99932804198E+03  0.99932804199E+03  0.25500000920E-02 0.  1.
    10030    2    1    2    0    0  0.00000000000E+00  0.00000000000E+00  0.13422934434E+04  0.33409495273E+04  0.30594430957E+04 0.  0.
        1    1    3    3  502    0  0.30879342712E+03 -0.23027471493E+03 -0.94549929606E+03  0.10209548197E+04  0.50400001928E-02 0.  1.
       -1    1    3    3    0  502 -0.30879342712E+03  0.23027471493E+03  0.22877927394E+04  0.23199947077E+04  0.50400001928E-02 0. -1.
</event>
<event>
 5   0  0.2933646E-06  0.1744595E+04  0.7818609E-02  0.8736331E-01
        1   -1    0    0  501    0  0.00000000000E+00  0.00000000000E+00  0.22974933054E+04  0.22974933054E+04  0.50400001928E-02 0. -1.
       -1   -1    0    0    0  501  0.00000000000E+00  0.00000000000E+00 -0.33118817688E+03  0.33118817692E+03  0.50400001928E-02 0.  1.
    10030    2    1    2    0    0  0.00000000000E+00  0.00000000000E+00  0.19663051285E+04  0.26286814823E+04  0.17445946455E+04 0.  0.
        2    1    3    3  502    0 -0.70501898698E+03  0.26280699249E+03  0.16481490127E+04  0.18117710825E+04  0.25500000920E-02 0. -1.
       -2    1    3    3    0  502  0.70501898698E+03 -0.26280699249E+03  0.31815611583E+03  0.81691039984E+03  0.25500000920E-02 0.  1.
</event>
<event>
 5   0  0.2788054E-06  0.3194320E+04  0.7818609E-02  0.8190319E-01
        1   -1    0    0  501    0  0.00000000000E+00  0.00000000000E+00  0.16743796438E+04  0.16743796438E+04  0.50400001928E-02 0. -1.
       -1   -1    0    0    0  501  0.00000000000E+00  0.00000000000E+00 -0.15235018254E+04  0.15235018254E+04  0.50400001928E-02 0.  1.
    10030    2    1    2    0    0  0.00000000000E+00  0.00000000000E+00  0.15087781834E+03  0.31978814692E+04  0.31943202368E+04 0.  0.
        3    1    3    3  502    0  0.56098409134E+03 -0.10884778581E+04  0.11019762695E+04  0.16473733356E+04  0.10100000352E+00 0. -1.
       -3    1    3    3    0  502 -0.56098409134E+03  0.10884778581E+04 -0.95109845117E+03  0.15505081336E+04  0.10100000352E+00 0.  1.
</event>
<event>
 5   0  0.2635798E-06  0.2314161E+04  0.7818609E-02  0.8472358E-01
       -1   -1    0    0    0  501  0.00000000000E+00  0.00000000000E+00  0.90690384753E+03  0.90690384754E+03  0.50400001928E-02 0.  1.
        1   -1    0    0  501    0  0.00000000000E+00  0.00000000000E+00 -0.14762704862E+04  0.14762704862E+04  0.50400001928E-02 0. -1.
    10030    2    1    2    0    0  0.00000000000E+00  0.00000000000E+00 -0.56936663867E+03  0.23831743337E+04  0.23141610868E+04 0.  0.
        1    1    3    3  502    0 -0.59738266873E+03  0.90494239420E+03  0.13115140831E+03  0.10922396631E+04  0.50400001928E-02 0.  1.
       -1    1    3    3    0  502  0.59738266873E+03 -0.90494239420E+03 -0.70051804698E+03  0.12909346706E+04  0.50400001928E-02 0. -1.
</event>
<event>
 5   0  0.7941434E-06  0.3174539E+04  0.7818609E-02  0.8195574E-01
        2   -1    0    0  501    0  0.00000000000E+00  0.00000000000E+00  0.21533901822E+04  0.21533901822E+04  0.25500000920E-02 0.  1.
       -2   -1    0    0    0  501  0.00000000000E+00  0.00000000000E+00 -0.11699804802E+04  0.11699804802E+04  0.25500000920E-02 0. -1.
    10030    2    1    2    0    0  0.00000000000E+00  0.00000000000E+00  0.98340970198E+03  0.33233706624E+04  0.31745390087E+04 0.  0.
        4    1    3    3  502    0 -0.96999607514E+03 -0.60519000995E+03  0.16443583783E+04  0.20027639459E+04  0.12699999809E+01 0.  1.
       -4    1    3    3    0  502  0.96999607514E+03  0.60519000995E+03 -0.66094867629E+03  0.13206067164E+04  0.12699999809E+01 0. -1.
</event>
<event>
 5   0  0.2788054E-06  0.3222463E+04  0.7818609E-02  0.8182910E-01
        1   -1    0    0  501    0  0.00000000000E+00  0.00000000000E+00  0.26964735347E+04  0.26964735347E+04  0.50400001928E-02 0. -1.
       -1   -1    0    0    0  501  0.00000000000E+00  0.00000000000E+00 -0.96276372522E+03  0.96276372524E+03  0.50400001928E-02 0.  1.
    10030    2    1    2    0    0  0.00000000000E+00  0.00000000000E+00  0.17337098095E+04  0.36592372600E+04  0.32224629744E+04 0.  0.
        3    1    3    3  502    0 -0.78723257195E+03 -0.33859540432E+03 -0.68251717092E+03  0.10955417240E+04  0.10100000352E+00 0.  1.
       -3    1    3    3    0  502  0.78723257195E+03  0.33859540432E+03  0.24162269804E+04  0.25636955360E+04  0.10100000352E+00 0. -1.
</event>
<event>
 5   0  0.2635798E-06  0.3143117E+04  0.7818609E-02  0.8204003E-01
       -1   -1    0    0    0  501  0.00000000000E+00  0.00000000000E+00  0.82852543678E+03  0.82852543679E+03  0.50400001928E-02 0.  1.
        1   -1    0    0  501    0  0.00000000000E+00  0.00000000000E+00 -0.29809547042E+04  0.29809547042E+04  0.50400001928E-02 0. -1.
    10030    2    1    2    0    0  0.00000000000E+00  0.00000000000E+00 -0.21524292675E+04  0.38094801410E+04  0.31431174323E+04 0.  0.
        1    1    3    3  502    0 -0.11241065128E+04  0.86976541357E+02  0.25070683081E+03  0.11550040199E+04  0.50400001928E-02 0.  1.
       -1    1    3    3    0  502  0.11241065128E+04 -0.86976541357E+02 -0.24031360983E+04  0.26544761212E+04  0.50400001928E-02 0. -1.
</event>
<event>
 5   0  0.2788054E-06  0.1778430E+04  0.7818609E-02  0.8717855E-01
        1   -1    0    0  501    0  0.00000000000E+00  0.00000000000E+00  0.11724901235E+04  0.11724901235E+04  0.50400001928E-02 0.  1.
       -1   -1    0    0    0  501  0.00000000000E+00  0.00000000000E+00 -0.67437957496E+03  0.67437957498E+03  0.50400001928E-02 0. -1.
    10030    2    1    2    0    0  0.00000000000E+00  0.00000000000E+00  0.49811054854E+03  0.18468696985E+04  0.17784300843E+04 0.  0.
        3    1    3    3  502    0  0.38151103037E+03 -0.22141864453E+03  0.10508601136E+04  0.11396858650E+04  0.10100000352E+00 0.  1.
       -3    1    3    3    0  502 -0.38151103037E+03  0.22141864453E+03 -0.55274956505E+03  0.70718383345E+03  0.10100000352E+00 0. -1.
</event>
<event>
 5   0  0.7941434E-06  0.2991661E+04  0.7818609E-02  0.8246116E-01
        2   -1    0    0  501    0  0.00000000000E+00  0.00000000000E+00  0.12945245986E+04  0.12945245986E+04  0.25500000920E-02 0. -1.
       -2   -1    0    0    0  501  0.00000000000E+00  0.00000000000E+00 -0.17284403341E+04  0.17284403341E+04  0.25500000920E-02 0.  1.
    10030    2    1    2    0    0  0.00000000000E+00  0.00000000000E+00 -0.43391573555E+03  0.30229649327E+04  0.29916607627E+04 0.  0.
        4    1    3    3  502    0 -0.17066474546E+03  0.92121480369E+03 -0.13952400189E+04  0.16806128326E+04  0.12699999809E+01 0.  1.
       -4    1    3    3    0  502  0.17066474546E+03 -0.92121480369E+03  0.96132428339E+03  0.13423521001E+04  0.12699999809E+01 0. -1.
</event>
<event>
 5   0  0.7510251E-06  0.3245146E+04  0.7818609E-02  0.8176995E-01
       -2   -1    0    0    0  501  0.00000000000E+00  0.00000000000E+00  0.11955904313E+04  0.11955904313E+04  0.25500000920E-02 0.  1.
        2   -1    0    0  501    0  0.00000000000E+00  0.00000000000E+00 -0.22020441377E+04  0.22020441377E+04  0.25500000920E-02 0. -1.
    10030    2    1    2    0    0  0.00000000000E+00  0.00000000000E+00 -0.10064537064E+04  0.33976345690E+04  0.32451458521E+04 0.  0.
        3    1    3    3  502    0 -0.14771658678E+04  0.24396483400E+03 -0.11580811349E+04  0.18927994523E+04  0.10100000352E+00 0. -1.
       -3    1    3    3    0  502  0.14771658678E+04 -0.24396483400E+03  0.15162742851E+03  0.15048351167E+04  0.10100000352E+00 0.  1.
</event>
<event>
 5   0  0.8237664E-06  0.3184311E+04  0.7818609E-02  0.8192973E-01
       -2   -1    0    0    0  501  0.00000000000E+00  0.00000000000E+00  0.10106562445E+04  0.10106562445E+04  0.25500000920E-02 0.  1.
        2   -1    0    0  501    0  0.00000000000E+00  0.00000000000E+00 -0.25082308067E+04  0.25082308067E+04  0.25500000920E-02 0. -1.
    10030    2    1    2    0    0  0.00000000000E+00  0.00000000000E+00 -0.14975745622E+04  0.35188870512E+04  0.31843109946E+04 0.  0.
        5    1    3    3  502    0 -0.33512393316E+03 -0.15536212912E+04 -0.85298004769E+03  0.18037860790E+04  0.46999998093E+01 0.  1.
       -5    1    3    3    0  502  0.33512393316E+03  0.15536212912E+04 -0.64459451446E+03  0.17151009722E+04  0.46999998093E+01 0. -1.
</event>
<event>
 5   0  0.7510251E-06  0.2369654E+04  0.7818609E-02  0.8450953E-01
       -2   -1    0    0    0  501  0.00000000000E+00  0.00000000000E+00  0.83957463604E+03  0.83957463604E+03  0.25500000920E-02 0.  1.
        2   -1    0    0  501    0  0.00000000000E+00  0.00000000000E+00 -0.16720544079E+04  0.16720544079E+04  0.25500000920E-02 0. -1.
    10030    2    1    2    0    0  0.00000000000E+00  0.00000000000E+00 -0.83247977188E+03  0.25116290440E+04  0.23696535367E+04 0.  0.
        3    1    3    3  502    0 -0.82350102892E+03  0.12825398992E+03  0.47636345200E+03  0.95996103003E+03  0.10100000352E+00 0.  1.
       -3    1    3    3    0  502  0.82350102892E+03 -0.12825398992E+03 -0.13088432239E+04  0.15516680139E+04  0.10100000352E+00 0. -1.
</event>
<event>
 5   0  0.4142886E-06  0.3152353E+04  0.7818609E-02  0.8201515E-01
       -1   -1    0    0    0  501  0.00000000000E+00  0.00000000000E+00  0.17250150217E+04  0.17250150217E+04  0.50400001928E-02 0.  1.
        1   -1    0    0  501    0  0.00000000000E+00  0.00000000000E+00 -0.14401798091E+04  0.14401798091E+04  0.50400001928E-02 0. -1.
    10030    2    1    2    0    0  0.00000000000E+00  0.00000000000E+00  0.28483521260E+03  0.31651948308E+04  0.31523526482E+04 0.  0.
        5    1    3    3  502    0 -0.15160265941E+04 -0.34831236463E+03 -0.11288498039E+03  0.15596227897E+04  0.46999998093E+01 0. -1.
       -5    1    3    3    0  502  0.15160265941E+04  0.34831236463E+03  0.39772019299E+03  0.16055720411E+04  0.46999998093E+01 0.  1.
</event>
<event>
 5   0  0.8237664E-06  0.2330379E+04  0.7818609E-02  0.8466038E-01
        2   -1    0    0  501    0  0.00000000000E+00  0.00000000000E+00  0.13065305944E+04  0.13065305944E+04  0.25500000920E-02 0.  1.
       -2   -1    0    0    0  501  0.00000000000E+00  0.00000000000E+00 -0.10391390050E+04  0.10391390050E+04  0.25500000920E-02 0. -1.
    10030    2    1    2    0    0  0.00000000000E+00  0.00000000000E+00  0.26739158941E+03  0.23456695995E+04  0.23303792841E+04 0.  0.
        5    1    3    3  502    0 -0.68563047420E+03 -0.36357213232E+02  0.10812725256E+04  0.12808525906E+04  0.46999998093E+01 0.  1.
       -5    1    3    3    0  502  0.68563047420E+03  0.36357213232E+02 -0.81388093622E+03  0.10648170089E+04  0.46999998093E+01 0. -1.
</event>
<event>
 5   0  0.7952307E-06  0.2990754E+04  0.7818609E-02  0.8246376E-01
        2   -1    0    0  501    0  0.00000000000E+00  0.00000000000E+00  0.12877513988E+04  0.12877513988E+04  0.25500000920E-02 0. -1.
       -2   -1    0    0    0  501  0.00000000000E+00  0.00000000000E+00 -0.17364787193E+04  0.17364787193E+04  0.25500000920E-02 0.  1.
    10030    2    1    2    0    0  0.00000000000E+00  0.00000000000E+00 -0.44872732045E+03  0.30242301181E+04  0.29907543529E+04 0.  0.
        2    1    3    3  502    0 -0.82603833457E+03  0.14035125782E+03  0.10280940255E+04  0.13262786778E+04  0.25500000920E-02 0. -1.
       -2    1    3    3    0  502  0.82603833457E+03 -0.14035125782E+03 -0.14768213460E+04  0.16979514403E+04  0.25500000920E-02 0.  1.
</event>
<event>
 5   0  0.8237664E-06  0.3120293E+04  0.7818609E-02  0.8210191E-01
        2   -1    0    0  501    0  0.00000000000E+00  0.00000000000E+00  0.28227162302E+04  0.28227162302E+04  0.25500000920E-02 0. -1.
       -2   -1    0    0    0  501  0.00000000000E+00  0.00000000000E+00 -0.86231016591E+03  0.86231016591E+03  0.25500000920E-02 0.  1.
    10030    2    1    2    0    0  0.00000000000E+00  0.00000000000E+00  0.19604060643E+04  0.36850263962E+04  0.31202928714E+04 0.  0.
        5    1    3    3  502    0  0.70401126870E+03  0.11909858877E+04  0.12861733753E+03  0.13894760742E+04  0.46999998093E+01 0.  1.
       -5    1    3    3    0  502 -0.70401126870E+03 -0.11909858877E+04  0.18317887268E+04  0.22955503220E+04  0.46999998093E+01 0. -1.
</event>
<event>
 5   0  0.2635798E-06  0.2391363E+04  0.7818609E-02  0.8442744E-01
        1   -1    0    0  501    0  0.00000000000E+00  0.00000000000E+00  0.14536346656E+04  0.14536346656E+04  0.50400001928E-02 0.  1.
       -1   -1    0    0    0  501  0.00000000000E+00  0.00000000000E+00 -0.98350326580E+03  0.98350326582E+03  0.50400001928E-02 0. -1.
    10030    2    1    2    0    0  0.00000000000E+00  0.00000000000E+00  0.47013139983E+03  0.24371379315E+04  0.23913631602E+04 0.  0.
        1    1    3    3  502    0  0.10671862462E+04 -0.33392974487E+03  0.66655985443E+03  0.13018055147E+04  0.50400001928E-02 0.  1.
       -1    1    3    3    0  502 -0.10671862462E+04  0.33392974487E+03 -0.19642845460E+03  0.11353324167E+04  0.50400001928E-02 0. -1.
</event>
<event>
 5   0  0.7952307E-06  0.1585396E+04  0.7818609E-02  0.8829570E-01
       -2   -1    0    0    0  501  0.00000000000E+00  0.00000000000E+00  0.34319884724E+03  0.34319884725E+03  0.25500000920E-02 0.  1.
        2   -1    0    0  501    0  0.00000000000E+00  0.00000000000E+00 -0.18309208744E+04  0.18309208744E+04  0.25500000920E-02 0. -1.
    10030    2    1    2    0    0  0.00000000000E+00  0.00000000000E+00 -0.14877220272E+04  0.21741197217E+04  0.15853957657E+04 0.  0.
        2    1    3    3  502    0  0.43020858392E+03  0.61610127226E+03 -0.39772352014E+03  0.85020244756E+03  0.25500000920E-02 0.  1.
       -2    1    3    3    0  502 -0.43020858392E+03 -0.61610127226E+03 -0.10899985070E+04  0.13239172741E+04  0.25500000920E-02 0. -1.
</event>
<event>
 5   0  0.2580875E-06  0.3195578E+04  0.7818609E-02  0.8189986E-01
        3   -1    0    0  501    0  0.00000000000E+00  0.00000000000E+00  0.17100914992E+04  0.17100915022E+04  0.10100000352E+00 0. -1.
       -3   -1    0    0    0  501  0.00000000000E+00  0.00000000000E+00 -0.14928610195E+04  0.14928610229E+04  0.10100000352E+00 0.  1.
    10030    2    1    2    0    0  0.00000000000E+00  0.00000000000E+00  0.21723047974E+03  0.32029525251E+04  0.31955775372E+04 0.  0.
        1    1    3    3  502    0  0.95637525997E+03  0.38973946764E+03  0.13306001504E+04  0.16843536596E+04  0.50400001928E-02 0.  1.
       -1    1    3    3    0  502 -0.95637525997E+03 -0.38973946764E+03 -0.11133696706E+04  0.15185988654E+04  0.50400001928E-02 0. -1.
</event>
<event>
 5   0  0.4142886E-06  0.3185325E+04  0.7818609E-02  0.8192704E-01
        1   -1    0    0  501    0  0.00000000000E+00  0.00000000000E+00  0.24572956646E+04  0.24572956646E+04  0.50400001928E-02 0. -1.
       -1   -1    0    0    0  501  0.00000000000E+00  0.00000000000E+00 -0.10322620879E+04  0.10322620879E+04  0.50400001928E-02 0.  1.
    10030    2    1    2    0    0  0.00000000000E+00  0.00000000000E+00  0.14250335768E+04  0.34895577525E+04  0.31853245695E+04 0.  0.
        5    1    3    3  502    0 -0.15261915005E+04 -0.25285058849E+03  0.11273049696E+04  0.19141662679E+04  0.46999998093E+01 0.  1.
       -5    1    3    3    0  502  0.15261915005E+04  0.25285058849E+03  0.29772860713E+03  0.15753914847E+04  0.46999998093E+01 0. -1.
</event>
<event>
 5   0  0.7941434E-06  0.2616542E+04  0.7818609E-02  0.8362604E-01
        2   -1    0    0  501    0  0.00000000000E+00  0.00000000000E+00  0.13158530618E+04  0.13158530618E+04  0.25500000920E-02 0. -1.
       -2   -1    0    0    0  501  0.00000000000E+00  0.00000000000E+00 -0.13007323372E+04  0.13007323372E+04  0.25500000920E-02 0.  1.
    10030    2    1    2    0    0  0.00000000000E+00  0.00000000000E+00  0.15120724582E+02  0.26165853990E+04  0.26165417088E+04 0.  0.
        4    1    3    3  502    0 -0.99094065532E+02  0.51322915052E+03  0.12068915323E+04  0.13152233949E+04  0.12699999809E+01 0. -1.
       -4    1    3    3    0  502  0.99094065532E+02 -0.51322915052E+03 -0.11917708077E+04  0.13013620041E+04  0.12699999809E+01 0.  1.
</event>
<event>
 5   0  0.4142886E-06  0.2965097E+04  0.7818609E-02  0.8253769E-01
       -1   -1    0    0    0  501  0.00000000000E+00  0.00000000000E+00  0.18016465091E+04  0.18016465091E+04  0.50400001928E-02 0. -1.
        1   -1    0    0  501    0  0.00000000000E+00  0.00000000000E+00 -0.12199670575E+04  0.12199670575E+04  0.50400001928E-02 0.  1.
    10030    2    1    2    0    0  0.00000000000E+00  0.00000000000E+00  0.58167945158E+03  0.30216135667E+04  0.29650965518E+04 0.  0.
        5    1    3    3  502    0 -0.12351438415E+03  0.54779028808E+03 -0.11073908584E+04  0.12416386778E+04  0.46999998093E+01 0.  1.
       -5    1    3    3    0  502  0.12351438415E+03 -0.54779028808E+03  0.16890703100E+04  0.17799748889E+04  0.46999998093E+01 0. -1.
</event>
<event>
 5   0  0.2635798E-06  0.3140021E+04  0.7818609E-02  0.8204840E-01
       -1   -1    0    0    0  501  0.00000000000E+00  0.00000000000E+00  0.13502968708E+04  0.13502968708E+04  0.50400001928E-02 0. -1.
        1   -1    0    0  501    0  0.00000000000E+00  0.00000000000E+00 -0.18254748594E+04  0.18254748594E+04  0.50400001928E-02 0.  1.
    10030    2    1    2    0    0  0.00000000000E+00  0.00000000000E+00 -0.47517798859E+03  0.31757717302E+04  0.31400210129E+04 0.  0.
        1    1    3    3  502    0  0.55592295787E+02  0.64331709932E+03  0.12097830266E+04  0.13713213938E+04  0.50400001928E-02 0. -1.
       -1    1    3    3    0  502 -0.55592295787E+02 -0.64331709932E+03 -0.16849610152E+04  0.18044503364E+04  0.50400001928E-02 0.  1.
</event>
<event>
 5   0  0.5446737E-06  0.1598105E+04  0.7818609E-02  0.8821713E-01
        1   -1    0    0  501    0  0.00000000000E+00  0.00000000000E+00  0.10178587447E+04  0.10178587447E+04  0.50400001928E-02 0.  1.
       -1   -1    0    0    0  501  0.00000000000E+00  0.00000000000E+00 -0.62728246006E+03  0.62728246008E+03  0.50400001928E-02 0. -1.
    10030    2    1    2    0    0  0.00000000000E+00  0.00000000000E+00  0.39057628463E+03  0.16451412048E+04  0.15981050496E+04 0.  0.
        5    1    3    3  502    0 -0.17610229098E+03 -0.22304746009E+03  0.96406169770E+03  0.10050866795E+04  0.46999998093E+01 0.  1.
       -5    1    3    3    0  502  0.17610229098E+03  0.22304746009E+03 -0.57348541307E+03  0.64005452529E+03  0.46999998093E+01 0. -1.
</event>
<event>
 5   0  0.8237664E-06  0.2580580E+04  0.7818609E-02  0.8374828E-01
       -2   -1    0    0    0  501  0.00000000000E+00  0.00000000000E+00  0.72473925654E+03  0.72473925655E+03  0.25500000920E-02 0.  1.
        2   -1    0    0  501    0  0.00000000000E+00  0.00000000000E+00 -0.22971680869E+04  0.22971680869E+04  0.25500000920E-02 0. -1.
    10030    2    1    2    0    0  0.00000000000E+00  0.00000000000E+00 -0.15724288303E+04  0.30219073434E+04  0.25805796957E+04 0.  0.
        5    1    3    3  502    0  0.87333033083E+03 -0.94977739254E+03 -0.79387893632E+03  0.15149418529E+04  0.46999998093E+01 0. -1.
       -5    1    3    3    0  502 -0.87333033083E+03  0.94977739254E+03 -0.77854989399E+03  0.15069654905E+04  0.46999998093E+01 0.  1.
</event>
<event>
 5   0  0.2635798E-06  0.3235886E+04  0.7818609E-02  0.8179404E-01
        1   -1    0    0  501    0  0.00000000000E+00  0.00000000000E+00  0.21302595759E+04  0.21302595759E+04  0.50400001928E-02 0. -1.
       -1   -1    0    0    0  501  0.00000000000E+00  0.00000000000E+00 -0.12288357192E+04  0.12288357192E+04  0.50400001928E-02 0.  1.
    10030    2    1    2    0    0  0.00000000000E+00  0.00000000000E+00  0.90142385665E+03  0.33590952951E+04  0.32358856951E+04 0.  0.
        1    1    3    3  502    0  0.10470215727E+04 -0.56138186238E+03 -0.68944116197E+03  0.13735839563E+04  0.50400001928E-02 0.  1.
       -1    1    3    3    0  502 -0.10470215727E+04  0.56138186238E+03  0.15908650186E+04  0.19855113388E+04  0.50400001928E-02 0. -1.
</event>
<event>
 5   0  0.8237664E-06  0.2122418E+04  0.7818609E-02  0.8551432E-01
       -2   -1    0    0    0  501  0.00000000000E+00  0.00000000000E+00  0.45111745552E+03  0.45111745553E+03  0.25500000920E-02 0. -1.
        2   -1    0    0  501    0  0.00000000000E+00  0.00000000000E+00 -0.24963880980E+04  0.24963880980E+04  0.25500000920E-02 0.  1.
    10030    2    1    2    0    0  0.00000000000E+00  0.00000000000E+00 -0.20452706425E+04  0.29475055535E+04  0.21224177221E+04 0.  0.
        5    1    3    3  502    0  0.39951096947E+03  0.65444629025E+03 -0.37882338217E+01  0.76677597919E+03  0.46999998093E+01 0. -1.
       -5    1    3    3    0  502 -0.39951096947E+03 -0.65444629025E+03 -0.20414824087E+04  0.21807295744E+04  0.46999998093E+01 0.  1.
</event>
<event>
 5   0  0.2580875E-06  0.3122561E+04  0.7818609E-02  0.8209573E-01
       -3   -1    0    0    0  501  0.00000000000E+00  0.00000000000E+00  0.12250902579E+04  0.12250902621E+04  0.10100000352E+00 0.  1.
        3   -1    0    0  501    0  0.00000000000E+00  0.00000000000E+00 -0.19897279829E+04  0.19897279854E+04  0.10100000352E+00 0. -1.
    10030    2    1    2    0    0  0.00000000000E+00  0.00000000000E+00 -0.76463772494E+03  0.32148182475E+04  0.31225607303E+04 0.  0.
        5    1    3    3  502    0 -0.89866168293E+03 -0.10458962720E+04 -0.11361278801E+04  0.17867010053E+04  0.46999998093E+01 0. -1.
       -5    1    3    3    0  502  0.89866168293E+03  0.10458962720E+04  0.37149015521E+03  0.14281172423E+04  0.46999998093E+01 0.  1.
</event>
<event>
 5   0  0.7941434E-06  0.3214522E+04  0.7818609E-02  0.8184992E-01
        2   -1    0    0  501    0  0.00000000000E+00  0.00000000000E+00  0.22092009850E+04  0.22092009850E+04  0.25500000920E-02 0.  1.
       -2   -1    0    0    0  501  0.00000000000E+00  0.00000000000E+00 -0.11693315246E+04  0.11693315246E+04  0.25500000920E-02 0. -1.
    10030    2    1    2    0    0  0.00000000000E+00  0.00000000000E+00  0.10398694604E+04  0.33785325096E+04  0.32145222699E+04 0.  0.
        4    1    3    3  502    0  0.91261203555E+03 -0.82598794811E+03 -0.56632038961E+03  0.13549307047E+04  0.12699999809E+01 0. -1.
       -4    1    3    3    0  502 -0.91261203555E+03  0.82598794811E+03  0.16061898500E+04  0.20236018050E+04  0.12699999809E+01 0.  1.
</event>
<event>
 5   0  0.3938696E-06  0.3066604E+04  0.7818609E-02  0.8224963E-01
        1   -1    0    0  501    0  0.00000000000E+00  0.00000000000E+00  0.13627140679E+04  0.13627140679E+04  0.50400001928E-02 0. -1.
       -1   -1    0    0    0  501  0.00000000000E+00  0.00000000000E+00 -0.17252443638E+04  0.17252443638E+04  0.50400001928E-02 0.  1.
    10030    2    1    2    0    0  0.00000000000E+00  0.00000000000E+00 -0.36253029586E+03  0.30879584318E+04  0.30666038317E+04 0.  0.
        4    1    3    3  502    0 -0.73185154280E+03 -0.13391365396E+04 -0.31502204037E+02  0.15263968534E+04  0.12699999809E+01 0. -1.
       -4    1    3    3    0  502  0.73185154280E+03  0.13391365396E+04 -0.33102809182E+03  0.15615615783E+04  0.12699999809E+01 0.  1.
</event>
<event>
 5   0  0.2933646E-06  0.3185650E+04  0.7818609E-02  0.8192617E-01
       -1   -1    0    0    0  501  0.00000000000E+00  0.00000000000E+00  0.15138943285E+04  0.15138943285E+04  0.50400001928E-02 0. -1.
        1   -1    0    0  501    0  0.00000000000E+00  0.00000000000E+00 -0.16758710685E+04  0.16758710685E+04  0.50400001928E-02 0.  1.
    10030    2    1    2    0    0  0.00000000000E+00  0.00000000000E+00 -0.16197673996E+03  0.31897653970E+04  0.31856501415E+04 0.  0.
        2    1    3    3  502    0  0.10905994310E+03  0.74889249145E+03 -0.14843543607E+04  0.16661458229E+04  0.25500000920E-02 0.  1.
       -2    1    3    3    0  502 -0.10905994310E+03 -0.74889249145E+03  0.13223776207E+04  0.15236195742E+04  0.25500000920E-02 0. -1.
</event>
<event>
 5   0  0.2788054E-06  0.2374205E+04  0.7818609E-02  0.8449224E-01
       -1   -1    0    0    0  501  0.00000000000E+00  0.00000000000E+00  0.16398907981E+04  0.16398907981E+04  0.50400001928E-02 0.  1.
        1   -1    0    0  501    0  0.00000000000E+00  0.00000000000E+00 -0.85933340005E+03  0.85933340007E+03  0.50400001928E-02 0. -1.
    10030    2    1    2    0    0  0.00000000000E+00  0.00000000000E+00  0.78055739801E+03  0.24992241981E+04  0.23742054968E+04 0.  0.
        3    1    3    3  502    0 -0.50193648272E+03 -0.85112082647E+03  0.10828486811E+04  0.14659154718E+04  0.10100000352E+00 0.  1.
       -3    1    3    3    0  502  0.50193648272E+03  0.85112082647E+03 -0.30229128313E+03  0.10333087264E+04  0.10100000352E+00 0. -1.
</event>
<event>
 5   0  0.7510251E-06  0.3113197E+04  0.7818609E-02  0.8212125E-01
       -2   -1    0    0    0  501  0.00000000000E+00  0.00000000000E+00  0.17672540185E+04  0.17672540185E+04  0.25500000920E-02 0. -1.
        2   -1    0    0  501    0  0.00000000000E+00  0.00000000000E+00 -0.13710533366E+04  0.13710533366E+04  0.25500000920E-02 0.  1.
    10030    2    1    2    0    0  0.00000000000E+00  0.00000000000E+00  0.39620068192E+03  0.31383073551E+04  0.31131974037E+04 0.  0.
        3    1    3    3  502    0  0.13995006850E+04  0.67440458020E+03  0.99455034931E+02  0.15567000415E+04  0.10100000352E+00 0.  1.
       -3    1    3    3    0  502 -0.13995006850E+04 -0.67440458020E+03  0.29674564699E+03  0.15816073136E+04  0.10100000352E+00 0. -1.
</event>
<event>
 5   0  0.2933646E-06  0.3120513E+04  0.7818609E-02  0.8210131E-01
        1   -1    0    0  501    0  0.00000000000E+00  0.00000000000E+00  0.12209074998E+04  0.12209074998E+04  0.50400001928E-02 0. -1.
       -1   -1    0    0    0  501  0.00000000000E+00  0.00000000000E+00 -0.19939265301E+04  0.19939265301E+04  0.50400001928E-02 0.  1.
    10030    2    1    2    0    0  0.00000000000E+00  0.00000000000E+00 -0.77301903033E+03  0.32148340299E+04  0.31205126852E+04 0.  0.
        2    1    3    3  502    0  0.60026240360E+03  0.12028783264E+04 -0.12023866636E+04  0.18035977684E+04  0.25500000920E-02 0.  1.
       -2    1    3    3    0  502 -0.60026240360E+03 -0.12028783264E+04  0.42936763327E+03  0.14112362615E+04  0.25500000920E-02 0. -1.
</event>
<event>
 5   0  0.3938696E-06  0.2782446E+04  0.7818609E-02  0.8308739E-01
       -1   -1    0    0    0  501  0.00000000000E+00  0.00000000000E+00  0.10727395738E+04  0.10727395738E+04  0.50400001928E-02 0. -1.
        1   -1    0    0  501    0  0.00000000000E+00  0.00000000000E+00 -0.18042601573E+04  0.18042601573E+04  0.50400001928E-02 0.  1.
    10030    2    1    2    0    0  0.00000000000E+00  0.00000000000E+00 -0.73152058344E+03  0.28769997311E+04  0.27824458825E+04 0.  0.
        4    1    3    3  502    0  0.51592373882E+03  0.12320756089E+04 -0.76796750134E+03  0.15407671162E+04  0.12699999809E+01 0.  1.
       -4    1    3    3    0  502 -0.51592373882E+03 -0.12320756089E+04  0.36446917901E+02  0.13362326149E+04  0.12699999809E+01 0. -1.
</event>
<event>
 5   0  0.8237664E-06  0.3304252E+04  0.7818609E-02  0.8161814E-01
        2   -1    0    0  501    0  0.00000000000E+00  0.00000000000E+00  0.19175519925E+04  0.19175519925E+04  0.25500000920E-02 0. -1.
       -2   -1    0    0    0  501  0.00000000000E+00  0.00000000000E+00 -0.14234397445E+04  0.14234397445E+04  0.25500000920E-02 0.  1.
    10030    2    1    2    0    0  0.00000000000E+00  0.00000000000E+00  0.49411224803E+03  0.33409917371E+04  0.33042516359E+04 0.  0.
        5    1    3    3  502    0  0.13289081280E+04 -0.54719624507E+03  0.10710263810E+04  0.17923560310E+04  0.46999998093E+01 0. -1.
       -5    1    3    3    0  502 -0.13289081280E+04  0.54719624507E+03 -0.57691413299E+03  0.15486357060E+04  0.46999998093E+01 0.  1.
</event>
<event>
 5   0  0.7941434E-06  0.3198159E+04  0.7818609E-02  0.8189304E-01
       -2   -1    0    0    0  501  0.00000000000E+00  0.00000000000E+00  0.35657381200E+04  0.35657381200E+04  0.25500000920E-02 0. -1.
        2   -1    0    0  501    0  0.00000000000E+00  0.00000000000E+00 -0.71711801075E+03  0.71711801076E+03  0.25500000920E-02 0.  1.
    10030    2    1    2    0    0  0.00000000000E+00  0.00000000000E+00  0.28486201093E+04  0.42828561308E+04  0.31981588625E+04 0.  0.
        4    1    3    3  502    0 -0.49656658124E+03  0.11522541983E+04  0.96723697388E+02  0.12584217073E+04  0.12699999809E+01 0.  1.
       -4    1    3    3    0  502  0.49656658124E+03 -0.11522541983E+04  0.27518964119E+04  0.30244344234E+04  0.12699999809E+01 0. -1.
</event>
<event>
 5   0  0.2933646E-06  0.3123586E+04  0.7818609E-02  0.8209295E-01
       -1   -1    0    0    0  501  0.00000000000E+00  0.00000000000E+00  0.14740379727E+04  0.14740379727E+04  0.50400001928E-02 0.  1.
        1   -1    0    0  501    0  0.00000000000E+00  0.00000000000E+00 -0.16547721468E+04  0.16547721468E+04  0.50400001928E-02 0. -1.
    10030    2    1    2    0    0  0.00000000000E+00  0.00000000000E+00 -0.18073417410E+03  0.31288101195E+04  0.31235857476E+04 0.  0.
        2    1    3    3  502    0 -0.70460376882E+03  0.25079740430E+02  0.13055567991E+04  0.14837702047E+04  0.25500000920E-02 0.  1.
       -2    1    3    3    0  502  0.70460376882E+03 -0.25079740430E+02 -0.14862909732E+04  0.16450399149E+04  0.25500000920E-02 0. -1.
</event>
<event>
 5   0  0.2788054E-06  0.3182405E+04  0.7818609E-02  0.8193480E-01
       -1   -1    0    0    0  501  0.00000000000E+00  0.00000000000E+00  0.18187577483E+04  0.18187577483E+04  0.50400001928E-02 0. -1.
        1   -1    0    0  501    0  0.00000000000E+00  0.00000000000E+00 -0.13921177802E+04  0.13921177802E+04  0.50400001928E-02 0.  1.
    10030    2    1    2    0    0  0.00000000000E+00  0.00000000000E+00  0.42663996810E+03  0.32108755285E+04  0.31824047507E+04 0.  0.
        3    1    3    3  502    0 -0.54627369644E+03 -0.14190598184E+03 -0.12877306198E+04  0.14059880578E+04  0.10100000352E+00 0.  1.
       -3    1    3    3    0  502  0.54627369644E+03  0.14190598184E+03  0.17143705879E+04  0.18048874708E+04  0.10100000352E+00 0. -1.
</event>
<event>
 5   0  0.4142886E-06  0.1695957E+04  0.7818609E-02  0.8763673E-01
        1   -1    0    0  501    0  0.00000000000E+00  0.00000000000E+00  0.11287771069E+04  0.11287771069E+04  0.50400001928E-02 0.  1.
       -1   -1    0    0    0  501  0.00000000000E+00  0.00000000000E+00 -0.63703269369E+03  0.63703269371E+03  0.50400001928E-02 0. -1.
    10030    2    1    2    0    0  0.00000000000E+00  0.00000000000E+00  0.49174441321E+03  0.17658098006E+04  0.16959574535E+04 0.  0.
        5    1    3    3  502    0  0.84082509821E+00 -0.38020169145E+03  0.10350427861E+04  0.11026738830E+04  0.46999998093E+01 0.  1.
       -5    1    3    3    0  502 -0.84082509821E+00  0.38020169145E+03 -0.54329837293E+03  0.66313591759E+03  0.46999998093E+01 0. -1.
</event>
<event>
 5   0  0.7952307E-06  0.3260746E+04  0.7818609E-02  0.8172956E-01
       -2   -1    0    0    0  501  0.00000000000E+00  0.00000000000E+00  0.13441238093E+04  0.13441238093E+04  0.25500000920E-02 0.  1.
        2   -1    0    0  501    0  0.00000000000E+00  0.00000000000E+00 -0.19775831197E+04  0.19775831197E+04  0.25500000920E-02 0. -1.
    10030    2    1    2    0    0  0.00000000000E+00  0.00000000000E+00 -0.63345931041E+03  0.33217069291E+04  0.32607462681E+04 0.  0.
        2    1    3    3  502    0  0.54817675992E+03 -0.11154213722E+02 -0.18808481075E+04  0.19591354675E+04  0.25500000920E-02 0. -1.
       -2    1    3    3    0  502 -0.54817675992E+03  0.11154213722E+02  0.12473887971E+04  0.13625714615E+04  0.25500000920E-02 0.  1.
</event>
<event>
 5   0  0.2788054E-06  0.3122809E+04  0.7818609E-02  0.8209506E-01
       -1   -1    0    0    0  501  0.00000000000E+00  0.00000000000E+00  0.98964036318E+03  0.98964036319E+03  0.50400001928E-02 0.  1.
        1   -1    0    0  501    0  0.00000000000E+00  0.00000000000E+00 -0.24635056354E+04  0.24635056354E+04  0.50400001928E-02 0. -1.
    10030    2    1    2    0    0  0.00000000000E+00  0.00000000000E+00 -0.14738652722E+04  0.34531459986E+04  0.31228093837E+04 0.  0.
        3    1    3    3  502    0  0.12199251969E+04 -0.87217290109E+03 -0.25609988924E+03  0.15213448718E+04  0.10100000352E+00 0.  1.
       -3    1    3    3    0  502 -0.12199251969E+04  0.87217290109E+03 -0.12177653830E+04  0.19318011268E+04  0.10100000352E+00 0. -1.
</event>
<event>
 5   0  0.8237664E-06  0.3251810E+04  0.7818609E-02  0.8175267E-01
        2   -1    0    0  501    0  0.00000000000E+00  0.00000000000E+00  0.13919738243E+04  0.13919738243E+04  0.25500000920E-02 0. -1.
       -2   -1    0    0    0  501  0.00000000000E+00  0.00000000000E+00 -0.18991501504E+04  0.18991501504E+04  0.25500000920E-02 0.  1.
    10030    2    1    2    0    0  0.00000000000E+00  0.00000000000E+00 -0.50717632607E+03  0.32911239747E+04  0.32518101407E+04 0.  0.
        5    1    3    3  502    0  0.10993479117E+04 -0.34334666410E+03 -0.14151094955E+04  0.18245574085E+04  0.46999998093E+01 0.  1.
       -5    1    3    3    0  502 -0.10993479117E+04  0.34334666410E+03  0.90793316946E+03  0.14665665661E+04  0.46999998093E+01 0. -1.
</event>
<event>
 5   0  0.2788054E-06  0.3023085E+04  0.7818609E-02  0.8237169E-01
       -1   -1    0    0    0  501  0.00000000000E+00  0.00000000000E+00  0.10549180509E+04  0.10549180509E+04  0.50400001928E-02 0. -1.
        1   -1    0    0  501    0  0.00000000000E+00  0.00000000000E+00 -0.21658179896E+04  0.21658179896E+04  0.50400001928E-02 0.  1.
    10030    2    1    2    0    0  0.00000000000E+00  0.00000000000E+00 -0.11108999387E+04  0.32207360405E+04  0.30230848431E+04 0.  0.
        3    1    3    3  502    0  0.12126368070E+04 -0.26338417538E+03  0.36405513340E+03  0.12932112742E+04  0.10100000352E+00 0. -1.
       -3    1    3    3    0  502 -0.12126368070E+04  0.26338417538E+03 -0.14749550721E+04  0.19275247662E+04  0.10100000352E+00 0.  1.
</event>
<event>
 5   0  0.7952307E-06  0.3145764E+04  0.7818609E-02  0.8203289E-01
       -2   -1    0    0    0  501  0.00000000000E+00  0.00000000000E+00  0.11327273338E+04  0.11327273338E+04  0.25500000920E-02 0. -1.
        2   -1    0    0  501    0  0.00000000000E+00  0.00000000000E+00 -0.21840724422E+04  0.21840724422E+04  0.25500000920E-02 0.  1.
    10030    2    1    2    0    0  0.00000000000E+00  0.00000000000E+00 -0.10513451084E+04  0.33167997759E+04  0.31457644885E+04 0.  0.
        2    1    3    3  502    0  0.94559505940E+03 -0.96509319605E+03 -0.13746883669E+04  0.19275173150E+04  0.25500000920E-02 0.  1.
       -2    1    3    3    0  502 -0.94559505940E+03  0.96509319605E+03  0.32334325856E+03  0.13892824609E+04  0.25500000920E-02 0. -1.
</event>
<event>
 5   0  0.8237664E-06  0.3164847E+04  0.7818609E-02  0.8198163E-01
        2   -1    0    0  501    0  0.00000000000E+00  0.00000000000E+00  0.17195265952E+04  0.17195265952E+04  0.25500000920E-02 0.  1.
       -2   -1    0    0    0  501  0.00000000000E+00  0.00000000000E+00 -0.14562520429E+04  0.14562520429E+04  0.25500000920E-02 0. -1.
    10030    2    1    2    0    0  0.00000000000E+00  0.00000000000E+00  0.26327455228E+03  0.31757786380E+04  0.31648469897E+04 0.  0.
        5    1    3    3  502    0  0.58185565661E+03 -0.77641174093E+03 -0.11227488956E+04  0.14838997167E+04  0.46999998093E+01 0. -1.
       -5    1    3    3    0  502 -0.58185565661E+03  0.77641174093E+03  0.13860234479E+04  0.16918789214E+04  0.46999998093E+01 0.  1.
</event>
<event>
 5   0  0.2788054E-06  0.3200940E+04  0.7818609E-02  0.8188569E-01
        1   -1    0    0  501    0  0.00000000000E+00  0.00000000000E+00  0.16553315785E+04  0.16553315785E+04  0.50400001928E-02 0.  1.
       -1   -1    0    0    0  501  0.00000000000E+00  0.00000000000E+00 -0.15474270282E+04  0.15474270282E+04  0.50400001928E-02 0. -1.
    10030    2    1    2    0    0  0.00000000000E+00  0.00000000000E+00  0.10790455028E+03  0.32027586067E+04  0.32009403776E+04 0.  0.
        3    1    3    3  502    0  0.10604300927E+04  0.11489497592E+04  0.39606356685E+03  0.16129054187E+04  0.10100000352E+00 0.  1.
       -3    1    3    3    0  502 -0.10604300927E+04 -0.11489497592E+04 -0.28815901657E+03  0.15898531880E+04  0.10100000352E+00 0. -1.
</event>
<event>
 5   0  0.3938696E-06  0.1750355E+04  0.7818609E-02  0.8733155E-01
       -1   -1    0    0    0  501  0.00000000000E+00  0.00000000000E+00  0.39915558042E+03  0.39915558045E+03  0.50400001928E-02 0.  1.
        1   -1    0    0  501    0  0.00000000000E+00  0.00000000000E+00 -0.19188895668E+04  0.19188895668E+04  0.50400001928E-02 0. -1.
    10030    2    1    2    0    0  0.00000000000E+00  0.00000000000E+00 -0.15197339864E+04  0.23180451473E+04  0.17503547970E+04 0.  0.
        4    1    3    3  502    0  0.39505361439E+03  0.73933447005E+03 -0.10929325072E+04  0.13773837138E+04  0.12699999809E+01 0. -1.
       -4    1    3    3    0  502 -0.39505361439E+03 -0.73933447005E+03 -0.42680147917E+03  0.94066143345E+03  0.12699999809E+01 0.  1.
</event>
<event>
 5   0  0.7510251E-06  0.3297885E+04  0.7818609E-02  0.8163434E-01
        2   -1    0    0  501    0  0.00000000000E+00  0.00000000000E+00  0.23762014048E+04  0.23762014048E+04  0.25500000920E-02 0.  1.
       -2   -1    0    0    0  501  0.00000000000E+00  0.00000000000E+00 -0.11442683963E+04  0.11442683963E+04  0.25500000920E-02 0. -1.
    10030    2    1    2    0    0  0.00000000000E+00  0.00000000000E+00  0.12319330085E+04  0.35204698012E+04  0.32978854867E+04 0.  0.
        3    1    3    3  502    0 -0.27518276986E+03 -0.16240527128E+04  0.69683845462E+03  0.17885347670E+04  0.10100000352E+00 0.  1.
       -3    1    3    3    0  502  0.27518276986E+03  0.16240527128E+04  0.53509455387E+03  0.17319350342E+04  0.10100000352E+00 0. -1.
</event>
<event>
 5   0  0.4142886E-06  0.3193706E+04  0.7818609E-02  0.8190481E-01
        1   -1    0    0  501    0  0.00000000000E+00  0.00000000000E+00  0.72452904464E+03  0.72452904466E+03  0.50400001928E-02 0.  1.
       -1   -1    0    0    0  501  0.00000000000E+00  0.00000000000E+00 -0.35194438415E+04  0.35194438415E+04  0.50400001928E-02 0. -1.
    10030    2    1    2    0    0  0.00000000000E+00  0.00000000000E+00 -0.27949147969E+04  0.42439728862E+04  0.31937058626E+04 0.  0.
        5    1    3    3  502    0  0.58820786164E+03  0.14130694976E+04 -0.20022884732E+04  0.25203045676E+04  0.46999998093E+01 0. -1.
       -5    1    3    3    0  502 -0.58820786164E+03 -0.14130694976E+04 -0.79262632371E+03  0.17236683186E+04  0.46999998093E+01 0.  1.
</event>
<event>
 5   0  0.7971763E-06  0.3392535E+04  0.7818609E-02  0.8139741E-01
       -2   -1    0    0    0  501  0.00000000000E+00  0.00000000000E+00  0.22352998396E+04  0.22352998396E+04  0.25500000920E-02 0.  1.
        2   -1    0    0  501    0  0.00000000000E+00  0.00000000000E+00 -0.12872199812E+04  0.12872199812E+04  0.25500000920E-02 0. -1.
    10030    2    1    2    0    0  0.00000000000E+00  0.00000000000E+00  0.94807985847E+03  0.35225198208E+04  0.33925345201E+04 0.  0.
        1    1    3    3  502    0  0.33905943482E+03 -0.25854353198E+03  0.21787486079E+04  0.22200791776E+04  0.50400001928E-02 0.  1.
       -1    1    3    3    0  502 -0.33905943482E+03  0.25854353198E+03 -0.12306687494E+04  0.13024406432E+04  0.50400001928E-02 0. -1.
</event>
<event>
 5   0  0.2635798E-06  0.3082905E+04  0.7818609E-02  0.8220445E-01
        1   -1    0    0  501    0  0.00000000000E+00  0.00000000000E+00  0.23919334394E+04  0.23919334394E+04  0.50400001928E-02 0. -1.
       -1   -1    0    0    0  501  0.00000000000E+00  0.00000000000E+00 -0.99337029238E+03  0.99337029240E+03  0.50400001928E-02 0.  1.
    10030    2    1    2    0    0  0.00000000000E+00  0.00000000000E+00  0.13985631470E+04  0.33853037318E+04  0.30829048770E+04 0.  0.
        1    1    3    3  502    0  0.22243413246E+03 -0.14968994182E+04  0.37746318110E+03  0.15596997354E+04  0.50400001928E-02 0.  1.
       -1    1    3    3    0  502 -0.22243413246E+03  0.14968994182E+04  0.10210999660E+04  0.18256039965E+04  0.50400001928E-02 0. -1.
</event>
<event>
 5   0  0.7952307E-06  0.3010698E+04  0.7818609E-02  0.8240683E-01
        2   -1    0    0  501    0  0.00000000000E+00  0.00000000000E+00  0.17280940843E+04  0.17280940843E+04  0.25500000920E-02 0.  1.
       -2   -1    0    0    0  501  0.00000000000E+00  0.00000000000E+00 -0.13113145308E+04  0.13113145308E+04  0.25500000920E-02 0. -1.
    10030    2    1    2    0    0  0.00000000000E+00  0.00000000000E+00  0.41677955350E+03  0.30394086152E+04  0.30106975161E+04 0.  0.
        2    1    3    3  502    0 -0.12533589429E+03  0.13655134925E+04  0.83539126472E+03  0.16056820201E+04  0.25500000920E-02 0.  1.
       -2    1    3    3    0  502  0.12533589429E+03 -0.13655134925E+04 -0.41861171121E+03  0.14337265950E+04  0.25500000920E-02 0. -1.
</event>
<event>
 5   0  0.2788054E-06  0.3271101E+04  0.7818609E-02  0.8170288E-01
        1   -1    0    0  501    0  0.00000000000E+00  0.00000000000E+00  0.13199305841E+04  0.13199305841E+04  0.50400001928E-02 0.  1.
       -1   -1    0    0    0  501  0.00000000000E+00  0.00000000000E+00 -0.20266408903E+04  0.20266408903E+04  0.50400001928E-02 0. -1.
    10030    2    1    2    0    0  0.00000000000E+00  0.00000000000E+00 -0.70671030620E+03  0.33465714744E+04  0.32711009120E+04 0.  0.
        3    1    3    3  502    0 -0.51230039395E+03  0.11116381924E+04 -0.14632038805E+04  0.19076574038E+04  0.10100000352E+00 0. -1.
       -3    1    3    3    0  502  0.51230039395E+03 -0.11116381924E+04  0.75649357429E+03  0.14389140706E+04  0.10100000352E+00 0.  1.
</event>
<event>
 5   0  0.7941434E-06  0.3175581E+04  0.7818609E-02  0.8195296E-01
       -2   -1    0    0    0  501  0.00000000000E+00  0.00000000000E+00  0.16694506574E+04  0.16694506574E+04  0.25500000920E-02 0.  1.
        2   -1    0    0  501    0  0.00000000000E+00  0.00000000000E+00 -0.15101246678E+04  0.15101246678E+04  0.25500000920E-02 0. -1.
    10030    2    1    2    0    0  0.00000000000E+00  0.00000000000E+00  0.15932598960E+03  0.31795753252E+04  0.31755809670E+04 0.  0.
        4    1    3    3  502    0 -0.12725273189E+04 -0.87521701780E+03 -0.28923822373E+03  0.15713023161E+04  0.12699999809E+01 0.  1.
       -4    1    3    3    0  502  0.12725273189E+04  0.87521701780E+03  0.44856421333E+03  0.16082730091E+04  0.12699999809E+01 0. -1.
</event>
<event>
 5   0  0.7971763E-06  0.3147459E+04  0.7818609E-02  0.8202833E-01
       -2   -1    0    0    0  501  0.00000000000E+00  0.00000000000E+00  0.10732311809E+04  0.10732311809E+04  0.25500000920E-02 0. -1.
        2   -1    0    0  501    0  0.00000000000E+00  0.00000000000E+00 -0.23076331652E+04  0.23076331652E+04  0.25500000920E-02 0.  1.
    10030    2    1    2    0    0  0.00000000000E+00  0.00000000000E+00 -0.12344019842E+04  0.33808643461E+04  0.31474585729E+04 0.  0.
        1    1    3    3  502    0  0.21687249768E+03  0.51987265064E+03 -0.21956352181E+04  0.22667411110E+04  0.50400001928E-02 0.  1.
       -1    1    3    3    0  502 -0.21687249768E+03 -0.51987265064E+03  0.96123323386E+03  0.11141232351E+04  0.50400001928E-02 0. -1.
</event>
<event>
 5   0  0.2788054E-06  0.3311254E+04  0.7818609E-02  0.8160038E-01
       -1   -1    0    0    0  501  0.00000000000E+00  0.00000000000E+00  0.14268916854E+04  0.14268916854E+04  0.50400001928E-02 0. -1.
        1   -1    0    0  501    0  0.00000000000E+00  0.00000000000E+00 -0.19210294509E+04  0.19210294509E+04  0.50400001928E-02 0.  1.
    10030    2    1    2    0    0  0.00000000000E+00  0.00000000000E+00 -0.49413776551E+03  0.33479211363E+04  0.33112541134E+04 0.  0.
        3    1    3    3  502    0  0.24402119401E+03  0.77973932495E+03  0.12088632647E+04  0.14590716778E+04  0.10100000352E+00 0. -1.
       -3    1    3    3    0  502 -0.24402119401E+03 -0.77973932495E+03 -0.17030010302E+04  0.18888494586E+04  0.10100000352E+00 0.  1.
</event>
<event>
 5   0  0.2580875E-06  0.2755512E+04  0.7818609E-02  0.8317215E-01
       -3   -1    0    0    0  501  0.00000000000E+00  0.00000000000E+00  0.96137927680E+03  0.96137928211E+03  0.10100000352E+00 0. -1.
        3   -1    0    0  501    0  0.00000000000E+00  0.00000000000E+00 -0.19744674786E+04  0.19744674812E+04  0.10100000352E+00 0.  1.
    10030    2    1    2    0    0  0.00000000000E+00  0.00000000000E+00 -0.10130882018E+04  0.29358467633E+04  0.27555123866E+04 0.  0.
        3    1    3    3  502    0  0.57680820822E+03  0.97788014265E+03  0.32508659043E+03  0.11809481716E+04  0.10100000352E+00 0. -1.
       -3    1    3    3    0  502 -0.57680820822E+03 -0.97788014265E+03 -0.13381747922E+04  0.17548985917E+04  0.10100000352E+00 0.  1.
</event>
<event>
 5   0  0.2788054E-06  0.3240644E+04  0.7818609E-02  0.8178165E-01
        1   -1    0    0  501    0  0.00000000000E+00  0.00000000000E+00  0.15211927285E+04  0.15211927285E+04  0.50400001928E-02 0.  1.
       -1   -1    0    0    0  501  0.00000000000E+00  0.00000000000E+00 -0.17259108467E+04  0.17259108467E+04  0.50400001928E-02 0. -1.
    10030    2    1    2    0    0  0.00000000000E+00  0.00000000000E+00 -0.20471811814E+03  0.32471035752E+04  0.32406437817E+04 0.  0.
        3    1    3    3  502    0  0.82125269297E+03 -0.10025251991E+04  0.87216912985E+03  0.15621113154E+04  0.10100000352E+00 0.  1.
       -3    1    3    3    0  502 -0.82125269297E+03  0.10025251991E+04 -0.10768872480E+04  0.16849922598E+04  0.10100000352E+00 0. -1.
</event>
<event>
 5   0  0.7952307E-06  0.3122258E+04  0.7818609E-02  0.8209656E-01
       -2   -1    0    0    0  501  0.00000000000E+00  0.00000000000E+00  0.93422024423E+03  0.93422024423E+03  0.25500000920E-02 0. -1.
        2   -1    0    0  501    0  0.00000000000E+00  0.00000000000E+00 -0.26087258074E+04  0.26087258074E+04  0.25500000920E-02 0.  1.
    10030    2    1    2    0    0  0.00000000000E+00  0.00000000000E+00 -0.16745055631E+04  0.35429460516E+04  0.31222584524E+04 0.  0.
        2    1    3    3  502    0  0.26584942903E+03 -0.14562545434E+04 -0.13998029070E+04  0.20373515633E+04  0.25500000920E-02 0. -1.
       -2    1    3    3    0  502 -0.26584942903E+03  0.14562545434E+04 -0.27470265613E+03  0.15055944883E+04  0.25500000920E-02 0.  1.
</event>
<event>
 5   0  0.2788054E-06  0.3269161E+04  0.7818609E-02  0.8170787E-01
       -1   -1    0    0    0  501  0.00000000000E+00  0.00000000000E+00  0.12483265335E+04  0.12483265335E+04  0.50400001928E-02 0. -1.
        1   -1    0    0  501    0  0.00000000000E+00  0.00000000000E+00 -0.21403484584E+04  0.21403484584E+04  0.50400001928E-02 0.  1.
    10030    2    1    2    0    0  0.00000000000E+00  0.00000000000E+00 -0.89202192485E+03  0.33886749919E+04  0.32691612206E+04 0.  0.
        3    1    3    3  502    0 -0.48211917371E+03  0.18133523257E+03  0.11620015926E+04  0.12710503829E+04  0.10100000352E+00 0. -1.
       -3    1    3    3    0  502  0.48211917371E+03 -0.18133523257E+03 -0.20540235175E+04  0.21176246091E+04  0.10100000352E+00 0.  1.
</event>
<event>
 5   0  0.7971763E-06  0.3137889E+04  0.7818609E-02  0.8205416E-01
        2   -1    0    0  501    0  0.00000000000E+00  0.00000000000E+00  0.13444497354E+04  0.13444497354E+04  0.25500000920E-02 0.  1.
       -2   -1    0    0    0  501  0.00000000000E+00  0.00000000000E+00 -0.18309250979E+04  0.18309250979E+04  0.25500000920E-02 0. -1.
    10030    2    1    2    0    0  0.00000000000E+00  0.00000000000E+00 -0.48647536254E+03  0.31753748333E+04  0.31378889486E+04 0.  0.
        1    1    3    3  502    0  0.14586553117E+04  0.45888821332E+03  0.11214574443E+03  0.15332417874E+04  0.50400001928E-02 0.  1.
       -1    1    3    3    0  502 -0.14586553117E+04 -0.45888821332E+03 -0.59862110696E+03  0.16421330459E+04  0.50400001928E-02 0. -1.
</event>
<event>
 5   0  0.7941434E-06  0.3103235E+04  0.7818609E-02  0.8214851E-01
        2   -1    0    0  501    0  0.00000000000E+00  0.00000000000E+00  0.16851764968E+04  0.16851764968E+04  0.25500000920E-02 0.  1.
       -2   -1    0    0    0  501  0.00000000000E+00  0.00000000000E+00 -0.14286441146E+04  0.14286441146E+04  0.25500000920E-02 0. -1.
    10030    2    1    2    0    0  0.00000000000E+00  0.00000000000E+00  0.25653238218E+03  0.31138206115E+04  0.31032353983E+04 0.  0.
        4    1    3    3  502    0  0.49192842540E+02  0.12089707471E+04 -0.84637895047E+03  0.14766140809E+04  0.12699999809E+01 0. -1.
       -4    1    3    3    0  502 -0.49192842540E+02 -0.12089707471E+04  0.11029113326E+04  0.16372065306E+04  0.12699999809E+01 0.  1.
</event>
<event>
 5   0  0.4142886E-06  0.3256401E+04  0.7818609E-02  0.8174079E-01
        1   -1    0    0  501    0  0.00000000000E+00  0.00000000000E+00  0.22023148007E+04  0.22023148007E+04  0.50400001928E-02 0.  1.
       -1   -1    0    0    0  501  0.00000000000E+00  0.00000000000E+00 -0.12037499002E+04  0.12037499002E+04  0.50400001928E-02 0. -1.
    10030    2    1    2    0    0  0.00000000000E+00  0.00000000000E+00  0.99856490052E+03  0.34060647009E+04  0.32564006028E+04 0.  0.
        5    1    3    3  502    0 -0.49423747863E+03 -0.49717451804E+03  0.20363671493E+04  0.21536634935E+04  0.46999998093E+01 0.  1.
       -5    1    3    3    0  502  0.49423747863E+03  0.49717451804E+03 -0.10378022488E+04  0.12524012074E+04  0.46999998093E+01 0. -1.
</event>
<event>
 5   0  0.7510251E-06  0.3210571E+04  0.7818609E-02  0.8186031E-01
        2   -1    0    0  501    0  0.00000000000E+00  0.00000000000E+00  0.18907622146E+04  0.18907622146E+04  0.25500000920E-02 0.  1.
       -2   -1    0    0    0  501  0.00000000000E+00  0.00000000000E+00 -0.13629118601E+04  0.13629118601E+04  0.25500000920E-02 0. -1.
    10030    2    1    2    0    0  0.00000000000E+00  0.00000000000E+00  0.52785035449E+03  0.32536740747E+04  0.32105714425E+04 0.  0.
        3    1    3    3  502    0 -0.65459782943E+03 -0.81185199097E+03 -0.97284405831E+03  0.14261933759E+04  0.10100000352E+00 0. -1.
       -3    1    3    3    0  502  0.65459782943E+03  0.81185199097E+03  0.15006944128E+04  0.18274806988E+04  0.10100000352E+00 0.  1.
</event>
<event>
 5   0  0.7510251E-06  0.3223098E+04  0.7818609E-02  0.8182743E-01
        2   -1    0    0  501    0  0.00000000000E+00  0.00000000000E+00  0.14905635079E+04  0.14905635079E+04  0.25500000920E-02 0.  1.
       -2   -1    0    0    0  501  0.00000000000E+00  0.00000000000E+00 -0.17423548577E+04  0.17423548577E+04  0.25500000920E-02 0. -1.
    10030    2    1    2    0    0  0.00000000000E+00  0.00000000000E+00 -0.25179134983E+03  0.32329183656E+04  0.32230982416E+04 0.  0.
        3    1    3    3  502    0 -0.11472419883E+04  0.10429997834E+02  0.10092846035E+04  0.15280472459E+04  0.10100000352E+00 0.  1.
       -3    1    3    3    0  502  0.11472419883E+04 -0.10429997834E+02 -0.12610759534E+04  0.17048711197E+04  0.10100000352E+00 0. -1.
</event>
<event>
 5   0  0.2933646E-06  0.1941929E+04  0.7818609E-02  0.8634262E-01
       -1   -1    0    0    0  501  0.00000000000E+00  0.00000000000E+00  0.79767649137E+03  0.79767649139E+03  0.50400001928E-02 0.  1.
        1   -1    0    0  501    0  0.00000000000E+00  0.00000000000E+00 -0.11818983306E+04  0.11818983306E+04  0.50400001928E-02 0. -1.
    10030    2    1    2    0    0  0.00000000000E+00  0.00000000000E+00 -0.38422183923E+03  0.19795748220E+04  0.19419294668E+04 0.  0.
        2    1    3    3  502    0 -0.69297195425E+03 -0.63275428351E+03  0.62091217130E+02  0.94044852700E+03  0.25500000920E-02 0.  1.
       -2    1    3    3    0  502  0.69297195425E+03  0.63275428351E+03 -0.44631305636E+03  0.10391262950E+04  0.25500000920E-02 0. -1.
</event>
<event>
 5   0  0.4142886E-06  0.3246220E+04  0.7818609E-02  0.8176716E-01
       -1   -1    0    0    0  501  0.00000000000E+00  0.00000000000E+00  0.12611608259E+04  0.12611608259E+04  0.50400001928E-02 0. -1.
        1   -1    0    0  501    0  0.00000000000E+00  0.00000000000E+00 -0.20889377117E+04  0.20889377117E+04  0.50400001928E-02 0.  1.
    10030    2    1    2    0    0  0.00000000000E+00  0.00000000000E+00 -0.82777688584E+03  0.33500985376E+04  0.32462202081E+04 0.  0.
        5    1    3    3  502    0  0.86014766090E+03  0.10691351798E+04  0.48077875894E+03  0.14539856727E+04  0.46999998093E+01 0. -1.
       -5    1    3    3    0  502 -0.86014766090E+03 -0.10691351798E+04 -0.13085556448E+04  0.18961128650E+04  0.46999998093E+01 0.  1.
</event>
<event>
 5   0  0.2635798E-06  0.3272221E+04  0.7818609E-02  0.8170000E-01
        1   -1    0    0  501    0  0.00000000000E+00  0.00000000000E+00  0.15913241319E+04  0.15913241319E+04  0.50400001928E-02 0. -1.
       -1   -1    0    0    0  501  0.00000000000E+00  0.00000000000E+00 -0.16821573993E+04  0.16821573993E+04  0.50400001928E-02 0.  1.
    10030    2    1    2    0    0  0.00000000000E+00  0.00000000000E+00 -0.90833267384E+02  0.32734815312E+04  0.32722210580E+04 0.  0.
        1    1    3    3  502    0 -0.75810029639E+03 -0.12520759156E+04 -0.77675740752E+03  0.16570341662E+04  0.50400001928E-02 0.  1.
       -1    1    3    3    0  502  0.75810029639E+03  0.12520759156E+04  0.68592414014E+03  0.16164473650E+04  0.50400001928E-02 0. -1.
</event>
<event>
 5   0  0.8237664E-06  0.3222359E+04  0.7818609E-02  0.8182937E-01
        2   -1    0    0  501    0  0.00000000000E+00  0.00000000000E+00  0.27738115977E+04  0.27738115977E+04  0.25500000920E-02 0.  1.
       -2   -1    0    0    0  501  0.00000000000E+00  0.00000000000E+00 -0.93586010181E+03  0.93586010181E+03  0.25500000920E-02 0. -1.
    10030    2    1    2    0    0  0.00000000000E+00  0.00000000000E+00  0.18379514959E+04  0.37096716995E+04  0.32223591384E+04 0.  0.
        5    1    3    3  502    0  0.13257457250E+04 -0.91041513102E+03  0.10307106219E+04  0.19101947320E+04  0.46999998093E+01 0. -1.
       -5    1    3    3    0  502 -0.13257457250E+04  0.91041513102E+03  0.80724087403E+03  0.17994769675E+04  0.46999998093E+01 0.  1.
</event>
<event>
 5   0  0.7510251E-06  0.3072066E+04  0.7818609E-02  0.8223446E-01
       -2   -1    0    0    0  501  0.00000000000E+00  0.00000000000E+00  0.13731426490E+04  0.13731426490E+04  0.25500000920E-02 0. -1.
        2   -1    0    0  501    0  0.00000000000E+00  0.00000000000E+00 -0.17182467791E+04  0.17182467791E+04  0.25500000920E-02 0.  1.
    10030    2    1    2    0    0  0.00000000000E+00  0.00000000000E+00 -0.34510413007E+03  0.30913894281E+04  0.30720663625E+04 0.  0.
        3    1    3    3  502    0 -0.14640893064E+04 -0.46405347586E+03 -0.15016809505E+03  0.15431959022E+04  0.10100000352E+00 0. -1.
       -3    1    3    3    0  502  0.14640893064E+04  0.46405347586E+03 -0.19493603502E+03  0.15481935259E+04  0.10100000352E+00 0.  1.
</event>
<event>
 5   0  0.7941434E-06  0.3208502E+04  0.7818609E-02  0.8186575E-01
        2   -1    0    0  501    0  0.00000000000E+00  0.00000000000E+00  0.17701552992E+04  0.17701552992E+04  0.25500000920E-02 0.  1.
       -2   -1    0    0    0  501  0.00000000000E+00  0.00000000000E+00 -0.14538960026E+04  0.14538960026E+04  0.25500000920E-02 0. -1.
    10030    2    1    2    0    0  0.00000000000E+00  0.00000000000E+00  0.31625929657E+03  0.32240513018E+04  0.32085022758E+04 0.  0.
        4    1    3    3  502    0  0.22649588655E+03 -0.99343176715E+03  0.14032525010E+04  0.17341644262E+04  0.12699999809E+01 0.  1.
       -4    1    3    3    0  502 -0.22649588655E+03  0.99343176715E+03 -0.10869932044E+04  0.14898868756E+04  0.12699999809E+01 0. -1.
</event>
<event>
 5   0  0.7510251E-06  0.2239681E+04  0.7818609E-02  0.8502091E-01
        2   -1    0    0  501    0  0.00000000000E+00  0.00000000000E+00  0.16286847680E+04  0.16286847680E+04  0.25500000920E-02 0. -1.
       -2   -1    0    0    0  501  0.00000000000E+00  0.00000000000E+00 -0.76997248211E+03  0.76997248211E+03  0.25500000920E-02 0.  1.
    10030    2    1    2    0    0  0.00000000000E+00  0.00000000000E+00  0.85871228592E+03  0.23986572501E+04  0.22396807392E+04 0.  0.
        3    1    3    3  502    0 -0.30727917161E+03  0.99100826739E+03  0.88060000957E+03  0.13608726106E+04  0.10100000352E+00 0. -1.
       -3    1    3    3    0  502  0.30727917161E+03 -0.99100826739E+03 -0.21887723656E+02  0.10377846395E+04  0.10100000352E+00 0.  1.
</event>
<event>
 5   0  0.2580875E-06  0.3172545E+04  0.7818609E-02  0.8196106E-01
        3   -1    0    0  501    0  0.00000000000E+00  0.00000000000E+00  0.13611898118E+04  0.13611898156E+04  0.10100000352E+00 0. -1.
       -3   -1    0    0    0  501  0.00000000000E+00  0.00000000000E+00 -0.18485744965E+04  0.18485744992E+04  0.10100000352E+00 0.  1.
    10030    2    1    2    0    0  0.00000000000E+00  0.00000000000E+00 -0.48738468465E+03  0.32097643148E+04  0.31725452126E+04 0.  0.
        2    1    3    3  502    0 -0.15342530719E+04 -0.21472470418E+03 -0.58860468720E+03  0.16572551599E+04  0.25500000920E-02 0.  1.
       -2    1    3    3    0  502  0.15342530719E+04  0.21472470418E+03  0.10122000255E+03  0.15525091549E+04  0.25500000920E-02 0. -1.
</event>
<event>
 5   0  0.2635798E-06  0.2837780E+04  0.7818609E-02  0.8291634E-01
       -1   -1    0    0    0  501  0.00000000000E+00  0.00000000000E+00  0.97661344909E+03  0.97661344911E+03  0.50400001928E-02 0.  1.
        1   -1    0    0  501    0  0.00000000000E+00  0.00000000000E+00 -0.20614598397E+04  0.20614598397E+04  0.50400001928E-02 0. -1.
    10030    2    1    2    0    0  0.00000000000E+00  0.00000000000E+00 -0.10848463906E+04  0.30380732888E+04  0.28377804032E+04 0.  0.
        1    1    3    3  502    0 -0.49893368127E+03  0.77883483452E+03 -0.16943457210E+04  0.19303693791E+04  0.50400001928E-02 0. -1.
       -1    1    3    3    0  502  0.49893368127E+03 -0.77883483452E+03  0.60949933035E+03  0.11077039097E+04  0.50400001928E-02 0.  1.
</event>
<event>
 5   0  0.3938696E-06  0.2607099E+04  0.7818609E-02  0.8365794E-01
        1   -1    0    0  501    0  0.00000000000E+00  0.00000000000E+00  0.17155627420E+04  0.17155627420E+04  0.50400001928E-02 0. -1.
       -1   -1    0    0    0  501  0.00000000000E+00  0.00000000000E+00 -0.99048630679E+03  0.99048630681E+03  0.50400001928E-02 0.  1.
    10030    2    1    2    0    0  0.00000000000E+00  0.00000000000E+00  0.72507643524E+03  0.27060490488E+04  0.26070990809E+04 0.  0.
        4    1    3    3  502    0  0.40754491949E+03  0.35048293898E+03  0.15951752491E+04  0.16833053318E+04  0.12699999809E+01 0. -1.
       -4    1    3    3    0  502 -0.40754491949E+03 -0.35048293898E+03 -0.87009881386E+03  0.10227437170E+04  0.12699999809E+01 0.  1.
</event>
<event>
 5   0  0.7510251E-06  0.1956606E+04  0.7818609E-02  0.8627182E-01
        2   -1    0    0  501    0  0.00000000000E+00  0.00000000000E+00  0.11787940237E+04  0.11787940237E+04  0.25500000920E-02 0.  1.
       -2   -1    0    0    0  501  0.00000000000E+00  0.00000000000E+00 -0.81191138310E+03  0.81191138310E+03  0.25500000920E-02 0. -1.
    10030    2    1    2    0    0  0.00000000000E+00  0.00000000000E+00  0.36688264062E+03  0.19907054068E+04  0.19566055159E+04 0.  0.
        3    1    3    3  502    0 -0.72811614951E+03 -0.36131543041E+03 -0.37044928547E+03  0.89327187952E+03  0.10100000352E+00 0. -1.
       -3    1    3    3    0  502  0.72811614951E+03  0.36131543041E+03  0.73733192609E+03  0.10974335273E+04  0.10100000352E+00 0.  1.
</event>
<event>
 5   0  0.2788054E-06  0.3141353E+04  0.7818609E-02  0.8204480E-01
        1   -1    0    0  501    0  0.00000000000E+00  0.00000000000E+00  0.19650921487E+04  0.19650921487E+04  0.50400001928E-02 0. -1.
       -1   -1    0    0    0  501  0.00000000000E+00  0.00000000000E+00 -0.12554240475E+04  0.12554240475E+04  0.50400001928E-02 0.  1.
    10030    2    1    2    0    0  0.00000000000E+00  0.00000000000E+00  0.70966810122E+03  0.32205161962E+04  0.31413525361E+04 0.  0.
        3    1    3    3  502    0  0.10506191273E+04  0.79509792275E+03 -0.52172297287E+03  0.14171013119E+04  0.10100000352E+00 0.  1.
       -3    1    3    3    0  502 -0.10506191273E+04 -0.79509792275E+03  0.12313910741E+04  0.18034148843E+04  0.10100000352E+00 0. -1.
</event>
<event>
 5   0  0.2580875E-06  0.2189517E+04  0.7818609E-02  0.8522804E-01
       -4   -1    0    0    0  501  0.00000000000E+00  0.00000000000E+00  0.79138998250E+03  0.79139100153E+03  0.12699999809E+01 0.  1.
        4   -1    0    0  501    0  0.00000000000E+00  0.00000000000E+00 -0.15144167754E+04  0.15144173079E+04  0.12699999809E+01 0. -1.
    10030    2    1    2    0    0  0.00000000000E+00  0.00000000000E+00 -0.72302679293E+03  0.23058083095E+04  0.21895168912E+04 0.  0.
        3    1    3    3  502    0  0.46107487442E+03  0.73754277418E+03 -0.10616050737E+04  0.13724302264E+04  0.10100000352E+00 0. -1.
       -3    1    3    3    0  502 -0.46107487442E+03 -0.73754277418E+03  0.33857828079E+03  0.93337808309E+03  0.10100000352E+00 0.  1.
</event>
<event>
 5   0  0.7510251E-06  0.3214747E+04  0.7818609E-02  0.8184933E-01
        2   -1    0    0  501    0  0.00000000000E+00  0.00000000000E+00  0.20443392133E+04  0.20443392133E+04  0.25500000920E-02 0.  1.
       -2   -1    0    0    0  501  0.00000000000E+00  0.00000000000E+00 -0.12638069604E+04  0.12638069604E+04  0.25500000920E-02 0. -1.
    10030    2    1    2    0    0  0.00000000000E+00  0.00000000000E+00  0.78053225287E+03  0.33081461737E+04  0.32147473476E+04 0.  0.
        3    1    3    3  502    0 -0.65875686154E+03 -0.13634549869E+04  0.94507759497E+03  0.17849766875E+04  0.10100000352E+00 0.  1.
       -3    1    3    3    0  502  0.65875686154E+03  0.13634549869E+04 -0.16454534210E+03  0.15231694863E+04  0.10100000352E+00 0. -1.
</event>
<event>
 5   0  0.2788054E-06  0.3185291E+04  0.7818609E-02  0.8192713E-01
       -1   -1    0    0    0  501  0.00000000000E+00  0.00000000000E+00  0.20342640197E+04  0.20342640197E+04  0.50400001928E-02 0. -1.
        1   -1    0    0  501    0  0.00000000000E+00  0.00000000000E+00 -0.12468977477E+04  0.12468977477E+04  0.50400001928E-02 0.  1.
    10030    2    1    2    0    0  0.00000000000E+00  0.00000000000E+00  0.78736627195E+03  0.32811617674E+04  0.31852907085E+04 0.  0.
        3    1    3    3  502    0 -0.17069050399E+03 -0.46814585725E+03 -0.11645333004E+04  0.12666623898E+04  0.10100000352E+00 0.  1.
       -3    1    3    3    0  502  0.17069050399E+03  0.46814585725E+03  0.19518995723E+04  0.20144993776E+04  0.10100000352E+00 0. -1.
</event>
<event>
 5   0  0.7941434E-06  0.2748006E+04  0.7818609E-02  0.8319595E-01
        2   -1    0    0  501    0  0.00000000000E+00  0.00000000000E+00  0.64809344357E+03  0.64809344358E+03  0.25500000920E-02 0.  1.
       -2   -1    0    0    0  501  0.00000000000E+00  0.00000000000E+00 -0.29129817816E+04  0.29129817816E+04  0.25500000920E-02 0. -1.
    10030    2    1    2    0    0  0.00000000000E+00  0.00000000000E+00 -0.22648883380E+04  0.35610752251E+04  0.27480061091E+04 0.  0.
        4    1    3    3  502    0 -0.51308942500E+02 -0.11841273802E+04 -0.23174738712E+03  0.12076832053E+04  0.12699999809E+01 0.  1.
       -4    1    3    3    0  502  0.51308942500E+02  0.11841273802E+04 -0.20331409509E+04  0.23533920198E+04  0.12699999809E+01 0. -1.
</event>
<event>
 5   0  0.2933646E-06  0.3120343E+04  0.7818609E-02  0.8210177E-01
       -1   -1    0    0    0  501  0.00000000000E+00  0.00000000000E+00  0.14233604580E+04  0.14233604580E+04  0.50400001928E-02 0. -1.
        1   -1    0    0  501    0  0.00000000000E+00  0.00000000000E+00 -0.17101323608E+04  0.17101323608E+04  0.50400001928E-02 0.  1.
    10030    2    1    2    0    0  0.00000000000E+00  0.00000000000E+00 -0.28677190281E+03  0.31334928187E+04  0.31203427890E+04 0.  0.
        2    1    3    3  502    0  0.41395438120E+03 -0.14968212081E+04 -0.29335661071E+03  0.15804714676E+04  0.25500000920E-02 0.  1.
       -2    1    3    3    0  502 -0.41395438120E+03  0.14968212081E+04  0.65847079027E+01  0.15530213512E+04  0.25500000920E-02 0. -1.
</event>
<event>
 5   0  0.2933646E-06  0.3182868E+04  0.7818609E-02  0.8193356E-01
        1   -1    0    0  501    0  0.00000000000E+00  0.00000000000E+00  0.12468166399E+04  0.12468166399E+04  0.50400001928E-02 0. -1.
       -1   -1    0    0    0  501  0.00000000000E+00  0.00000000000E+00 -0.20313026120E+04  0.20313026121E+04  0.50400001928E-02 0.  1.
    10030    2    1    2    0    0  0.00000000000E+00  0.00000000000E+00 -0.78448597215E+03  0.32781192520E+04  0.31828678247E+04 0.  0.
        2    1    3    3  502    0  0.95511412185E+03  0.99222276304E+03  0.42906295037E+03  0.14425130892E+04  0.25500000920E-02 0.  1.
       -2    1    3    3    0  502 -0.95511412185E+03 -0.99222276304E+03 -0.12135489225E+04  0.18356061627E+04  0.25500000920E-02 0. -1.
</event>
<event>
 5   0  0.2635798E-06  0.3320647E+04  0.7818609E-02  0.8157662E-01
       -1   -1    0    0    0  501  0.00000000000E+00  0.00000000000E+00  0.12933984746E+04  0.12933984746E+04  0.50400001928E-02 0. -1.
        1   -1    0    0  501    0  0.00000000000E+00  0.00000000000E+00 -0.21313417229E+04  0.21313417230E+04  0.50400001928E-02 0.  1.
    10030    2    1    2    0    0  0.00000000000E+00  0.00000000000E+00 -0.83794324839E+03  0.34247401975E+04  0.33206470052E+04 0.  0.
        1    1    3    3  502    0 -0.41448298108E+03 -0.14444974557E+04 -0.11470071678E+04  0.18905011198E+04  0.50400001928E-02 0.  1.
       -1    1    3    3    0  502  0.41448298108E+03  0.14444974557E+04  0.30906391938E+03  0.15342390777E+04  0.50400001928E-02 0. -1.
</event>
<event>
 5   0  0.2788054E-06  0.3220031E+04  0.7818609E-02  0.8183547E-01
       -1   -1    0    0    0  501  0.00000000000E+00  0.00000000000E+00  0.21203066219E+04  0.21203066219E+04  0.50400001928E-02 0.  1.
        1   -1    0    0  501    0  0.00000000000E+00  0.00000000000E+00 -0.12225351797E+04  0.12225351797E+04  0.50400001928E-02 0. -1.
    10030    2    1    2    0    0  0.00000000000E+00  0.00000000000E+00  0.89777144213E+03  0.33428418016E+04  0.32200307061E+04 0.  0.
        3    1    3    3  502    0  0.73119494263E+03 -0.23089933026E+03  0.19185736781E+04  0.20661281454E+04  0.10100000352E+00 0.  1.
       -3    1    3    3    0  502 -0.73119494263E+03  0.23089933026E+03 -0.10208022359E+04  0.12767136562E+04  0.10100000352E+00 0. -1.
</event>
<event>
 5   0  0.2580875E-06  0.1749891E+04  0.7818609E-02  0.8733411E-01
        3   -1    0    0  501    0  0.00000000000E+00  0.00000000000E+00  0.63872522603E+03  0.63872523401E+03  0.10100000352E+00 0.  1.
       -3   -1    0    0    0  501  0.00000000000E+00  0.00000000000E+00 -0.11985266295E+04  0.11985266337E+04  0.10100000352E+00 0. -1.
    10030    2    1    2    0    0  0.00000000000E+00  0.00000000000E+00 -0.55980140345E+03  0.18372518677E+04  0.17498905149E+04 0.  0.
        2    1    3    3  502    0  0.33483272655E+03  0.68785832906E+02  0.56571817120E+03  0.66097011642E+03  0.25500000920E-02 0.  1.
       -2    1    3    3    0  502 -0.33483272655E+03 -0.68785832906E+02 -0.11255195746E+04  0.11762817513E+04  0.25500000920E-02 0. -1.
</event>
<event>
 5   0  0.7510251E-06  0.3172456E+04  0.7818609E-02  0.8196130E-01
       -2   -1    0    0    0  501  0.00000000000E+00  0.00000000000E+00  0.15941203944E+04  0.15941203944E+04  0.25500000920E-02 0.  1.
        2   -1    0    0  501    0  0.00000000000E+00  0.00000000000E+00 -0.15783745279E+04  0.15783745279E+04  0.25500000920E-02 0. -1.
    10030    2    1    2    0    0  0.00000000000E+00  0.00000000000E+00  0.15745866498E+02  0.31724949222E+04  0.31724558467E+04 0.  0.
        3    1    3    3  502    0  0.84495865757E+03  0.24302983564E+03  0.13281544642E+04  0.15928003405E+04  0.10100000352E+00 0.  1.
       -3    1    3    3    0  502 -0.84495865757E+03 -0.24302983564E+03 -0.13124085977E+04  0.15796945817E+04  0.10100000352E+00 0. -1.
</event>
<event>
 5   0  0.2635798E-06  0.2405057E+04  0.7818609E-02  0.8437613E-01
        1   -1    0    0  501    0  0.00000000000E+00  0.00000000000E+00  0.14882030166E+04  0.14882030166E+04  0.50400001928E-02 0. -1.
       -1   -1    0    0    0  501  0.00000000000E+00  0.00000000000E+00 -0.97169212142E+03  0.97169212144E+03  0.50400001928E-02 0.  1.
    10030    2    1    2    0    0  0.00000000000E+00  0.00000000000E+00  0.51651089513E+03  0.24598951380E+04  0.24050572935E+04 0.  0.
        1    1    3    3  502    0 -0.53972983334E+03  0.18518704433E+03  0.13409146961E+04  0.14572764860E+04  0.50400001928E-02 0. -1.
       -1    1    3    3    0  502  0.53972983334E+03 -0.18518704433E+03 -0.82440380094E+03  0.10026186520E+04  0.50400001928E-02 0.  1.
</event>
<event>
 5   0  0.7971763E-06  0.3198279E+04  0.7818609E-02  0.8189272E-01
        2   -1    0    0  501    0  0.00000000000E+00  0.00000000000E+00  0.19973177926E+04  0.19973177926E+04  0.25500000920E-02 0. -1.
       -2   -1    0    0    0  501  0.00000000000E+00  0.00000000000E+00 -0.12803408418E+04  0.12803408418E+04  0.25500000920E-02 0.  1.
    10030    2    1    2    0    0  0.00000000000E+00  0.00000000000E+00  0.71697695075E+03  0.32776586344E+04  0.31982792524E+04 0.  0.
        1    1    3    3  502    0 -0.15819528148E+03  0.49843856979E+03 -0.11902373740E+04  0.13000506765E+04  0.50400001928E-02 0.  1.
       -1    1    3    3    0  502  0.15819528148E+03 -0.49843856979E+03  0.19072143247E+04  0.19776079580E+04  0.50400001928E-02 0. -1.
</event>
<event>
 5   0  0.2788054E-06  0.2602173E+04  0.7818609E-02  0.8367464E-01
        1   -1    0    0  501    0  0.00000000000E+00  0.00000000000E+00  0.16561259981E+04  0.16561259981E+04  0.50400001928E-02 0.  1.
       -1   -1    0    0    0  501  0.00000000000E+00  0.00000000000E+00 -0.10221600463E+04  0.10221600463E+04  0.50400001928E-02 0. -1.
    10030    2    1    2    0    0  0.00000000000E+00  0.00000000000E+00  0.63396595184E+03  0.26782860444E+04  0.26021728051E+04 0.  0.
        3    1    3    3  502    0  0.80862804318E+02 -0.52214064694E+03  0.15407330210E+04  0.16288118064E+04  0.10100000352E+00 0.  1.
       -3    1    3    3    0  502 -0.80862804318E+02  0.52214064694E+03 -0.90676706920E+03  0.10494742380E+04  0.10100000352E+00 0. -1.
</event>
<event>
 5   0  0.2933646E-06  0.3226415E+04  0.7818609E-02  0.8181876E-01
       -1   -1    0    0    0  501  0.00000000000E+00  0.00000000000E+00  0.16017597479E+04  0.16017597479E+04  0.50400001928E-02 0. -1.
        1   -1    0    0  501    0  0.00000000000E+00  0.00000000000E+00 -0.16247367668E+04  0.16247367668E+04  0.50400001928E-02 0.  1.
    10030    2    1    2    0    0  0.00000000000E+00  0.00000000000E+00 -0.22977018896E+02  0.32264965147E+04  0.32264146999E+04 0.  0.
        2    1    3    3  502    0  0.50461240750E+03 -0.83273825752E+03 -0.12977369960E+04  0.16224080862E+04  0.25500000920E-02 0.  1.
       -2    1    3    3    0  502 -0.50461240750E+03  0.83273825752E+03  0.12747599771E+04  0.16040884285E+04  0.25500000920E-02 0. -1.
</event>
<event>
 5   0  0.8237664E-06  0.1683702E+04  0.7818609E-02  0.8770715E-01
       -2   -1    0    0    0  501  0.00000000000E+00  0.00000000000E+00  0.78616854595E+03  0.78616854595E+03  0.25500000920E-02 0. -1.
        2   -1    0    0  501    0  0.00000000000E+00  0.00000000000E+00 -0.90147689506E+03  0.90147689507E+03  0.25500000920E-02 0.  1.
    10030    2    1    2    0    0  0.00000000000E+00  0.00000000000E+00 -0.11530834911E+03  0.16876454410E+04  0.16837016123E+04 0.  0.
        5    1    3    3  502    0 -0.67738584735E+03 -0.47034061521E+03 -0.22722138013E+03  0.85540839725E+03  0.46999998093E+01 0.  1.
       -5    1    3    3    0  502  0.67738584735E+03  0.47034061521E+03  0.11191303102E+03  0.83223704377E+03  0.46999998093E+01 0. -1.
</event>
<event>
 5   0  0.8237664E-06  0.3121928E+04  0.7818609E-02  0.8209746E-01
       -2   -1    0    0    0  501  0.00000000000E+00  0.00000000000E+00  0.10964914669E+04  0.10964914669E+04  0.25500000920E-02 0. -1.
        2   -1    0    0  501    0  0.00000000000E+00  0.00000000000E+00 -0.22221863008E+04  0.22221863008E+04  0.25500000920E-02 0.  1.
    10030    2    1    2    0    0  0.00000000000E+00  0.00000000000E+00 -0.11256948339E+04  0.33186777677E+04  0.31219278126E+04 0.  0.
        5    1    3    3  502    0 -0.83307411438E+03  0.66972383433E+03 -0.17720991152E+04  0.20695168176E+04  0.46999998093E+01 0.  1.
       -5    1    3    3    0  502  0.83307411438E+03 -0.66972383433E+03  0.64640428130E+03  0.12491609501E+04  0.46999998093E+01 0. -1.
</event>
<event>
 5   0  0.8237664E-06  0.3219737E+04  0.7818609E-02  0.8183624E-01
        2   -1    0    0  501    0  0.00000000000E+00  0.00000000000E+00  0.16697669704E+04  0.16697669704E+04  0.25500000920E-02 0. -1.
       -2   -1    0    0    0  501  0.00000000000E+00  0.00000000000E+00 -0.15521185638E+04  0.15521185638E+04  0.25500000920E-02 0.  1.
    10030    2    1    2    0    0  0.00000000000E+00  0.00000000000E+00  0.11764840665E+03  0.32218855342E+04  0.32197368289E+04 0.  0.
        5    1    3    3  502    0 -0.15452491272E+04  0.43334205589E+02  0.50854765155E+03  0.16273645942E+04  0.46999998093E+01 0. -1.
       -5    1    3    3    0  502  0.15452491272E+04 -0.43334205589E+02 -0.39089924490E+03  0.15945209400E+04  0.46999998093E+01 0.  1.
</event>
<event>
 5   0  0.3938696E-06  0.3134008E+04  0.7818609E-02  0.8206466E-01
       -1   -1    0    0    0  501  0.00000000000E+00  0.00000000000E+00  0.13991312110E+04  0.13991312110E+04  0.50400001928E-02 0. -1.
        1   -1    0    0  501    0  0.00000000000E+00  0.00000000000E+00 -0.17550189085E+04  0.17550189085E+04  0.50400001928E-02 0.  1.
    10030    2    1    2    0    0  0.00000000000E+00  0.00000000000E+00 -0.35588769752E+03  0.31541501196E+04  0.31340081243E+04 0.  0.
        4    1    3    3  502    0 -0.20440496055E+03 -0.66337274472E+03  0.12359535567E+04  0.14175428013E+04  0.12699999809E+01 0. -1.
       -4    1    3    3    0  502  0.20440496055E+03  0.66337274472E+03 -0.15918412542E+04  0.17366073183E+04  0.12699999809E+01 0.  1.
</event>
<event>
 5   0  0.7952307E-06  0.2968942E+04  0.7818609E-02  0.8252656E-01
        2   -1    0    0  501    0  0.00000000000E+00  0.00000000000E+00  0.15147682577E+04  0.15147682577E+04  0.25500000920E-02 0. -1.
       -2   -1    0    0    0  501  0.00000000000E+00  0.00000000000E+00 -0.14547796918E+04  0.14547796918E+04  0.25500000920E-02 0.  1.
    10030    2    1    2    0    0  0.00000000000E+00  0.00000000000E+00  0.59988565910E+02  0.29695479495E+04  0.29689419658E+04 0.  0.
        2    1    3    3  502    0 -0.13033145255E+04 -0.21415184401E+03 -0.64776068115E+03  0.14710824806E+04  0.25500000920E-02 0. -1.
       -2    1    3    3    0  502  0.13033145255E+04  0.21415184401E+03  0.70774924706E+03  0.14984654689E+04  0.25500000920E-02 0.  1.
</event>
<event>
 5   0  0.7510251E-06  0.3272641E+04  0.7818609E-02  0.8169892E-01
        2   -1    0    0  501    0  0.00000000000E+00  0.00000000000E+00  0.14955177870E+04  0.14955177870E+04  0.25500000920E-02 0. -1.
       -2   -1    0    0    0  501  0.00000000000E+00  0.00000000000E+00 -0.17903798959E+04  0.17903798959E+04  0.25500000920E-02 0.  1.
    10030    2    1    2    0    0  0.00000000000E+00  0.00000000000E+00 -0.29486210894E+03  0.32858976829E+04  0.32726411229E+04 0.  0.
        3    1    3    3  502    0 -0.32293932085E+03  0.52219803811E+03  0.13754740695E+04  0.15062899860E+04  0.10100000352E+00 0. -1.
       -3    1    3    3    0  502  0.32293932085E+03 -0.52219803811E+03 -0.16703361784E+04  0.17796076969E+04  0.10100000352E+00 0.  1.
</event>
<event>
 5   0  0.2788054E-06  0.3174349E+04  0.7818609E-02  0.8195625E-01
        1   -1    0    0  501    0  0.00000000000E+00  0.00000000000E+00  0.20545097125E+04  0.20545097125E+04  0.50400001928E-02 0. -1.
       -1   -1    0    0    0  501  0.00000000000E+00  0.00000000000E+00 -0.12261430611E+04  0.12261430611E+04  0.50400001928E-02 0.  1.
    10030    2    1    2    0    0  0.00000000000E+00  0.00000000000E+00  0.82836665141E+03  0.32806527737E+04  0.31743489588E+04 0.  0.
        3    1    3    3  502    0  0.20315899845E+03 -0.15460672405E+04  0.10842909825E+03  0.15631232742E+04  0.10100000352E+00 0.  1.
       -3    1    3    3    0  502 -0.20315899845E+03  0.15460672405E+04  0.71993755316E+03  0.17175294995E+04  0.10100000352E+00 0. -1.
</event>
<event>
 5   0  0.7510251E-06  0.2559932E+04  0.7818609E-02  0.8381940E-01
        2   -1    0    0  501    0  0.00000000000E+00  0.00000000000E+00  0.19839443227E+04  0.19839443227E+04  0.25500000920E-02 0. -1.
       -2   -1    0    0    0  501  0.00000000000E+00  0.00000000000E+00 -0.82578560916E+03  0.82578560917E+03  0.25500000920E-02 0.  1.
    10030    2    1    2    0    0  0.00000000000E+00  0.00000000000E+00  0.11581587135E+04  0.28097299318E+04  0.25599317733E+04 0.  0.
        3    1    3    3  502    0 -0.53181090252E+03  0.10555563141E+04  0.39933251554E+02  0.11826312371E+04  0.10100000352E+00 0.  1.
       -3    1    3    3    0  502  0.53181090252E+03 -0.10555563141E+04  0.11182254620E+04  0.16270986947E+04  0.10100000352E+00 0. -1.
</event>
<event>
 5   0  0.2635798E-06  0.3166279E+04  0.7818609E-02  0.8197780E-01
       -1   -1    0    0    0  501  0.00000000000E+00  0.00000000000E+00  0.13511172192E+04  0.13511172192E+04  0.50400001928E-02 0. -1.
        1   -1    0    0  501    0  0.00000000000E+00  0.00000000000E+00 -0.18550058273E+04  0.18550058273E+04  0.50400001928E-02 0.  1.
    10030    2    1    2    0    0  0.00000000000E+00  0.00000000000E+00 -0.50388860815E+03  0.32061230465E+04  0.31662787717E+04 0.  0.
        1    1    3    3  502    0  0.58454364076E+03  0.14206360960E+04  0.13553563793E+03  0.15421634461E+04  0.50400001928E-02 0. -1.
       -1    1    3    3    0  502 -0.58454364076E+03 -0.14206360960E+04 -0.63942424608E+03  0.16639596004E+04  0.50400001928E-02 0.  1.
</event>
<event>
 5   0  0.8237664E-06  0.3289616E+04  0.7818609E-02  0.8165543E-01
       -2   -1    0    0    0  501  0.00000000000E+00  0.00000000000E+00  0.14604768235E+04  0.14604768235E+04  0.25500000920E-02 0. -1.
        2   -1    0    0  501    0  0.00000000000E+00  0.00000000000E+00 -0.18524042094E+04  0.18524042095E+04  0.25500000920E-02 0.  1.
    10030    2    1    2    0    0  0.00000000000E+00  0.00000000000E+00 -0.39192738598E+03  0.33128810329E+04  0.32896160357E+04 0.  0.
        5    1    3    3  502    0 -0.25229160123E+03  0.15998765341E+04 -0.48454806105E+03  0.16905812284E+04  0.46999998093E+01 0. -1.
       -5    1    3    3    0  502  0.25229160123E+03 -0.15998765341E+04  0.92620675067E+02  0.16222998045E+04  0.46999998093E+01 0.  1.
</event>
<event>
 5   0  0.2788054E-06  0.2899757E+04  0.7818609E-02  0.8272950E-01
        1   -1    0    0  501    0  0.00000000000E+00  0.00000000000E+00  0.23026226465E+04  0.23026226465E+04  0.50400001928E-02 0. -1.
       -1   -1    0    0    0  501  0.00000000000E+00  0.00000000000E+00 -0.91293593404E+03  0.91293593405E+03  0.50400001928E-02 0.  1.
    10030    2    1    2    0    0  0.00000000000E+00  0.00000000000E+00  0.13896867125E+04  0.32155585806E+04  0.28997565115E+04 0.  0.
        3    1    3    3  502    0  0.13533253091E+04 -0.13979440407E+03  0.12505317030E+04  0.18479343652E+04  0.10100000352E+00 0. -1.
       -3    1    3    3    0  502 -0.13533253091E+04  0.13979440407E+03  0.13915500949E+03  0.13676242154E+04  0.10100000352E+00 0.  1.
</event>
<event>
 5   0  0.7952307E-06  0.2858442E+04  0.7818609E-02  0.8285351E-01
       -2   -1    0    0    0  501  0.00000000000E+00  0.00000000000E+00  0.11358908247E+04  0.11358908247E+04  0.25500000920E-02 0.  1.
        2   -1    0    0  501    0  0.00000000000E+00  0.00000000000E+00 -0.17983002352E+04  0.17983002352E+04  0.25500000920E-02 0. -1.
    10030    2    1    2    0    0  0.00000000000E+00  0.00000000000E+00 -0.66240941042E+03  0.29341910599E+04  0.28584420493E+04 0.  0.
        2    1    3    3  502    0 -0.13605617676E+03  0.41959121463E+03 -0.17266804086E+04  0.17821316742E+04  0.25500000920E-02 0. -1.
       -2    1    3    3    0  502  0.13605617676E+03 -0.41959121463E+03  0.10642709982E+04  0.11520593857E+04  0.25500000920E-02 0.  1.
</event>
<event>
 5   0  0.2580875E-06  0.3113186E+04  0.7818609E-02  0.8212129E-01
        3   -1    0    0  501    0  0.00000000000E+00  0.00000000000E+00  0.23150837598E+04  0.23150837620E+04  0.10100000352E+00 0. -1.
       -3   -1    0    0    0  501  0.00000000000E+00  0.00000000000E+00 -0.10466063415E+04  0.10466063463E+04  0.10100000352E+00 0.  1.
    10030    2    1    2    0    0  0.00000000000E+00  0.00000000000E+00  0.12684774183E+04  0.33616901083E+04  0.31131857355E+04 0.  0.
        1    1    3    3  502    0 -0.10387040324E+04  0.93364389557E+03  0.13764035937E+04  0.19608885342E+04  0.50400001928E-02 0. -1.
       -1    1    3    3    0  502  0.10387040324E+04 -0.93364389557E+03 -0.10792617541E+03  0.14008015741E+04  0.50400001928E-02 0.  1.
</event>
<event>
 5   0  0.2933646E-06  0.3209505E+04  0.7818609E-02  0.8186311E-01
       -1   -1    0    0    0  501  0.00000000000E+00  0.00000000000E+00  0.23035506000E+04  0.23035506000E+04  0.50400001928E-02 0. -1.
        1   -1    0    0  501    0  0.00000000000E+00  0.00000000000E+00 -0.11179396929E+04  0.11179396929E+04  0.50400001928E-02 0.  1.
    10030    2    1    2    0    0  0.00000000000E+00  0.00000000000E+00  0.11856109071E+04  0.34214902929E+04  0.32095050399E+04 0.  0.
        2    1    3    3  502    0  0.50969641883E+03 -0.57967142972E+03  0.20926503987E+04  0.22304697032E+04  0.25500000920E-02 0. -1.
       -2    1    3    3    0  502 -0.50969641883E+03  0.57967142972E+03 -0.90703949158E+03  0.11910205897E+04  0.25500000920E-02 0.  1.
</event>
<event>
 5   0  0.8237664E-06  0.2174805E+04  0.7818609E-02  0.8528989E-01
        2   -1    0    0  501    0  0.00000000000E+00  0.00000000000E+00  0.17649200854E+04  0.17649200854E+04  0.25500000920E-02 0. -1.
       -2   -1    0    0    0  501  0.00000000000E+00  0.00000000000E+00 -0.66997040679E+03  0.66997040679E+03  0.25500000920E-02 0.  1.
    10030    2    1    2    0    0  0.00000000000E+00  0.00000000000E+00  0.10949496786E+04  0.24348904922E+04  0.21748050281E+04 0.  0.
        5    1    3    3  502    0 -0.61409204398E+03  0.61560575861E+03 -0.18356070740E+03  0.88870473826E+03  0.46999998093E+01 0.  1.
       -5    1    3    3    0  502  0.61409204398E+03 -0.61560575861E+03  0.12785103860E+04  0.15461857539E+04  0.46999998093E+01 0. -1.
</event>
<event>
 5   0  0.7971763E-06  0.2892456E+04  0.7818609E-02  0.8275125E-01
        2   -1    0    0  501    0  0.00000000000E+00  0.00000000000E+00  0.25029631991E+04  0.25029631991E+04  0.25500000920E-02 0.  1.
       -2   -1    0    0    0  501  0.00000000000E+00  0.00000000000E+00 -0.83563983923E+03  0.83563983923E+03  0.25500000920E-02 0. -1.
    10030    2    1    2    0    0  0.00000000000E+00  0.00000000000E+00  0.16673233599E+04  0.33386030383E+04  0.28924562332E+04 0.  0.
        1    1    3    3  502    0  0.44427476337E+03 -0.11640896083E+04  0.16811409084E+04  0.20925389926E+04  0.50400001928E-02 0.  1.
       -1    1    3    3    0  502 -0.44427476337E+03  0.11640896083E+04 -0.13817548527E+02  0.12460640458E+04  0.50400001928E-02 0. -1.
</event>
<event>
 5   0  0.8237664E-06  0.3482283E+04  0.7818609E-02  0.8118001E-01
        2   -1    0    0  501    0  0.00000000000E+00  0.00000000000E+00  0.11080300399E+04  0.11080300399E+04  0.25500000920E-02 0. -1.
       -2   -1    0    0    0  501  0.00000000000E+00  0.00000000000E+00 -0.27360035634E+04  0.27360035634E+04  0.25500000920E-02 0.  1.
    10030    2    1    2    0    0  0.00000000000E+00  0.00000000000E+00 -0.16279735235E+04  0.38440336033E+04  0.34822832380E+04 0.  0.
        5    1    3    3  502    0 -0.76966519484E+03 -0.14174733445E+04 -0.15377981630E+04  0.22285556925E+04  0.46999998093E+01 0. -1.
       -5    1    3    3    0  502  0.76966519484E+03  0.14174733445E+04 -0.90175360499E+02  0.16154779108E+04  0.46999998093E+01 0.  1.
</event>
<event>
 5   0  0.8237664E-06  0.3181230E+04  0.7818609E-02  0.8193792E-01
        2   -1    0    0  501    0  0.00000000000E+00  0.00000000000E+00  0.18949392057E+04  0.18949392057E+04  0.25500000920E-02 0.  1.
       -2   -1    0    0    0  501  0.00000000000E+00  0.00000000000E+00 -0.13351645262E+04  0.13351645262E+04  0.25500000920E-02 0. -1.
    10030    2    1    2    0    0  0.00000000000E+00  0.00000000000E+00  0.55977467945E+03  0.32301037319E+04  0.31812297036E+04 0.  0.
        5    1    3    3  502    0 -0.40787570086E+03 -0.56613960473E+03 -0.11714631292E+04  0.13635338619E+04  0.46999998093E+01 0. -1.
       -5    1    3    3    0  502  0.40787570086E+03  0.56613960473E+03  0.17312378087E+04  0.18665698700E+04  0.46999998093E+01 0.  1.
</event>
<event>
 5   0  0.4142886E-06  0.3259859E+04  0.7818609E-02  0.8173185E-01
       -1   -1    0    0    0  501  0.00000000000E+00  0.00000000000E+00  0.20403877509E+04  0.20403877509E+04  0.50400001928E-02 0. -1.
        1   -1    0    0  501    0  0.00000000000E+00  0.00000000000E+00 -0.13020420634E+04  0.13020420634E+04  0.50400001928E-02 0.  1.
    10030    2    1    2    0    0  0.00000000000E+00  0.00000000000E+00  0.73834568753E+03  0.33424298143E+04  0.32598593082E+04 0.  0.
        5    1    3    3  502    0 -0.13297122751E+04  0.66098919902E+03  0.10582118938E+04  0.18234242397E+04  0.46999998093E+01 0. -1.
       -5    1    3    3    0  502  0.13297122751E+04 -0.66098919902E+03 -0.31986620624E+03  0.15190055746E+04  0.46999998093E+01 0.  1.
</event>
<event>
 5   0  0.8237664E-06  0.3194577E+04  0.7818609E-02  0.8190251E-01
       -2   -1    0    0    0  501  0.00000000000E+00  0.00000000000E+00  0.22138177520E+04  0.22138177520E+04  0.25500000920E-02 0. -1.
        2   -1    0    0  501    0  0.00000000000E+00  0.00000000000E+00 -0.11524576147E+04  0.11524576147E+04  0.25500000920E-02 0.  1.
    10030    2    1    2    0    0  0.00000000000E+00  0.00000000000E+00  0.10613601373E+04  0.33662753667E+04  0.31945773591E+04 0.  0.
        5    1    3    3  502    0  0.20317010654E+01 -0.10712955600E+04  0.17791056632E+04  0.20767564507E+04  0.46999998093E+01 0. -1.
       -5    1    3    3    0  502 -0.20317010654E+01  0.10712955600E+04 -0.71774552594E+03  0.12895189160E+04  0.46999998093E+01 0.  1.
</event>
<event>
 5   0  0.3938696E-06  0.3200249E+04  0.7818609E-02  0.8188751E-01
        1   -1    0    0  501    0  0.00000000000E+00  0.00000000000E+00  0.21103693994E+04  0.21103693994E+04  0.50400001928E-02 0.  1.
       -1   -1    0    0    0  501  0.00000000000E+00  0.00000000000E+00 -0.12132464023E+04  0.12132464023E+04  0.50400001928E-02 0. -1.
    10030    2    1    2    0    0  0.00000000000E+00  0.00000000000E+00  0.89712299713E+03  0.33236158017E+04  0.32002487911E+04 0.  0.
        4    1    3    3  502    0  0.11742736536E+04 -0.87348878848E+03  0.11204114792E+04  0.18431561986E+04  0.12699999809E+01 0.  1.
       -4    1    3    3    0  502 -0.11742736536E+04  0.87348878848E+03 -0.22328848204E+03  0.14804596030E+04  0.12699999809E+01 0. -1.
</event>
<event>
 5   0  0.7971763E-06  0.1796290E+04  0.7818609E-02  0.8708275E-01
       -2   -1    0    0    0  501  0.00000000000E+00  0.00000000000E+00  0.76028032400E+03  0.76028032400E+03  0.25500000920E-02 0.  1.
        2   -1    0    0  501    0  0.00000000000E+00  0.00000000000E+00 -0.10610089135E+04  0.10610089135E+04  0.25500000920E-02 0. -1.
    10030    2    1    2    0    0  0.00000000000E+00  0.00000000000E+00 -0.30072858955E+03  0.18212892375E+04  0.17962897323E+04 0.  0.
        1    1    3    3  502    0 -0.66089909147E+03  0.15121001509E+03 -0.74764001039E+03  0.10092659030E+04  0.50400001928E-02 0. -1.
       -1    1    3    3    0  502  0.66089909147E+03 -0.15121001509E+03  0.44691142084E+03  0.81202333456E+03  0.50400001928E-02 0.  1.
</event>
<event>
 5   0  0.2580875E-06  0.3198895E+04  0.7818609E-02  0.8189109E-01
        3   -1    0    0  501    0  0.00000000000E+00  0.00000000000E+00  0.22195722302E+04  0.22195722325E+04  0.10100000352E+00 0.  1.
       -3   -1    0    0    0  501  0.00000000000E+00  0.00000000000E+00 -0.11525789711E+04  0.11525789755E+04  0.10100000352E+00 0. -1.
    10030    2    1    2    0    0  0.00000000000E+00  0.00000000000E+00  0.10669932591E+04  0.33721512080E+04  0.31988949896E+04 0.  0.
        4    1    3    3  502    0 -0.54251438173E+03  0.14511090664E+04  0.95277103549E+03  0.18187395735E+04  0.12699999809E+01 0.  1.
       -4    1    3    3    0  502  0.54251438173E+03 -0.14511090664E+04  0.11422222363E+03  0.15534116345E+04  0.12699999809E+01 0. -1.
</event>
<event>
 5   0  0.2635798E-06  0.1892430E+04  0.7818609E-02  0.8658634E-01
       -1   -1    0    0    0  501  0.00000000000E+00  0.00000000000E+00  0.69099667412E+03  0.69099667414E+03  0.50400001928E-02 0.  1.
        1   -1    0    0  501    0  0.00000000000E+00  0.00000000000E+00 -0.12956971508E+04  0.12956971508E+04  0.50400001928E-02 0. -1.
    10030    2    1    2    0    0  0.00000000000E+00  0.00000000000E+00 -0.60470047668E+03  0.19866938250E+04  0.18924295727E+04 0.  0.
        1    1    3    3  502    0  0.56074672110E+03 -0.44761745103E+03  0.34524303718E+03  0.79623553201E+03  0.50400001928E-02 0.  1.
       -1    1    3    3    0  502 -0.56074672110E+03  0.44761745103E+03 -0.94994351385E+03  0.11904582929E+04  0.50400001928E-02 0. -1.
</event>
<event>
 5   0  0.2788054E-06  0.1739454E+04  0.7818609E-02  0.8739177E-01
       -1   -1    0    0    0  501  0.00000000000E+00  0.00000000000E+00  0.64728451028E+03  0.64728451030E+03  0.50400001928E-02 0.  1.
        1   -1    0    0  501    0  0.00000000000E+00  0.00000000000E+00 -0.11686127616E+04  0.11686127616E+04  0.50400001928E-02 0. -1.
    10030    2    1    2    0    0  0.00000000000E+00  0.00000000000E+00 -0.52132825129E+03  0.18158972719E+04  0.17394538673E+04 0.  0.
        3    1    3    3  502    0  0.19755850253E+03 -0.41155602048E+03 -0.10334789768E+04  0.11298170319E+04  0.10100000352E+00 0. -1.
       -3    1    3    3    0  502 -0.19755850253E+03  0.41155602048E+03  0.51215072547E+03  0.68608024000E+03  0.10100000352E+00 0.  1.
</event>
<event>
 5   0  0.3938696E-06  0.2897865E+04  0.7818609E-02  0.8273513E-01
       -1   -1    0    0    0  501  0.00000000000E+00  0.00000000000E+00  0.12258700014E+04  0.12258700014E+04  0.50400001928E-02 0.  1.
        1   -1    0    0  501    0  0.00000000000E+00  0.00000000000E+00 -0.17125840346E+04  0.17125840346E+04  0.50400001928E-02 0. -1.
    10030    2    1    2    0    0  0.00000000000E+00  0.00000000000E+00 -0.48671403318E+03  0.29384540360E+04  0.28978650024E+04 0.  0.
        4    1    3    3  502    0 -0.22057058515E+02 -0.31970256197E+03 -0.16761979522E+04  0.17065571862E+04  0.12699999809E+01 0. -1.
       -4    1    3    3    0  502  0.22057058515E+02  0.31970256197E+03  0.11894839191E+04  0.12318968498E+04  0.12699999809E+01 0.  1.
</event>
<event>
 5   0  0.7941434E-06  0.3196614E+04  0.7818609E-02  0.8189712E-01
       -2   -1    0    0    0  501  0.00000000000E+00  0.00000000000E+00  0.10169913029E+04  0.10169913029E+04  0.25500000920E-02 0. -1.
        2   -1    0    0  501    0  0.00000000000E+00  0.00000000000E+00 -0.25119045066E+04  0.25119045066E+04  0.25500000920E-02 0.  1.
    10030    2    1    2    0    0  0.00000000000E+00  0.00000000000E+00 -0.14949132037E+04  0.35288958095E+04  0.31966138565E+04 0.  0.
        4    1    3    3  502    0  0.58960985074E+03 -0.93874553876E+03  0.52361893995E+03  0.12259940333E+04  0.12699999809E+01 0. -1.
       -4    1    3    3    0  502 -0.58960985074E+03  0.93874553876E+03 -0.20185321437E+04  0.23029017762E+04  0.12699999809E+01 0.  1.
</event>
<event>
 5   0  0.7510251E-06  0.3247165E+04  0.7818609E-02  0.8176471E-01
        2   -1    0    0  501    0  0.00000000000E+00  0.00000000000E+00  0.12988947293E+04  0.12988947293E+04  0.25500000920E-02 0.  1.
       -2   -1    0    0    0  501  0.00000000000E+00  0.00000000000E+00 -0.20294333107E+04  0.20294333107E+04  0.25500000920E-02 0. -1.
    10030    2    1    2    0    0  0.00000000000E+00  0.00000000000E+00 -0.73053858136E+03  0.33283280400E+04  0.32471650594E+04 0.  0.
        3    1    3    3  502    0  0.45014518310E+03  0.15564158648E+04 -0.25796650427E+03  0.16406120070E+04  0.10100000352E+00 0. -1.
       -3    1    3    3    0  502 -0.45014518310E+03 -0.15564158648E+04 -0.47257207709E+03  0.16877160330E+04  0.10100000352E+00 0.  1.
</event>
<event>
 5   0  0.2635798E-06  0.3188932E+04  0.7818609E-02  0.8191746E-01
       -1   -1    0    0    0  501  0.00000000000E+00  0.00000000000E+00  0.14547094200E+04  0.14547094200E+04  0.50400001928E-02 0.  1.
        1   -1    0    0  501    0  0.00000000000E+00  0.00000000000E+00 -0.17476487966E+04  0.17476487966E+04  0.50400001928E-02 0. -1.
    10030    2    1    2    0    0  0.00000000000E+00  0.00000000000E+00 -0.29293937661E+03  0.32023582167E+04  0.31889315875E+04 0.  0.
        1    1    3    3  502    0  0.73363715153E+03  0.40162477270E+03  0.12167418365E+04  0.14764777766E+04  0.50400001928E-02 0.  1.
       -1    1    3    3    0  502 -0.73363715153E+03 -0.40162477270E+03 -0.15096812131E+04  0.17258804401E+04  0.50400001928E-02 0. -1.
</event>
<event>
 5   0  0.8237664E-06  0.2003589E+04  0.7818609E-02  0.8604945E-01
        2   -1    0    0  501    0  0.00000000000E+00  0.00000000000E+00  0.11004728274E+04  0.11004728274E+04  0.25500000920E-02 0.  1.
       -2   -1    0    0    0  501  0.00000000000E+00  0.00000000000E+00 -0.91196444784E+03  0.91196444785E+03  0.25500000920E-02 0. -1.
    10030    2    1    2    0    0  0.00000000000E+00  0.00000000000E+00  0.18850837957E+03  0.20124372753E+04  0.20035888744E+04 0.  0.
        5    1    3    3  502    0 -0.35209922370E+03  0.10119429961E+03 -0.84225605605E+03  0.91849414998E+03  0.46999998093E+01 0. -1.
       -5    1    3    3    0  502  0.35209922370E+03 -0.10119429961E+03  0.10307644356E+04  0.10939431253E+04  0.46999998093E+01 0.  1.
</event>
<event>
 5   0  0.7510251E-06  0.1736528E+04  0.7818609E-02  0.8740801E-01
        2   -1    0    0  501    0  0.00000000000E+00  0.00000000000E+00  0.12400445707E+04  0.12400445707E+04  0.25500000920E-02 0. -1.
       -2   -1    0    0    0  501  0.00000000000E+00  0.00000000000E+00 -0.60794763284E+03  0.60794763284E+03  0.25500000920E-02 0.  1.
    10030    2    1    2    0    0  0.00000000000E+00  0.00000000000E+00  0.63209693786E+03  0.18479922035E+04  0.17365277555E+04 0.  0.
        3    1    3    3  502    0 -0.66456940727E+03  0.55711190956E+03  0.36189477898E+03  0.93967761392E+03  0.10100000352E+00 0. -1.
       -3    1    3    3    0  502  0.66456940727E+03 -0.55711190956E+03  0.27020215888E+03  0.90831458962E+03  0.10100000352E+00 0.  1.
</event>
<event>
 5   0  0.7941434E-06  0.3213539E+04  0.7818609E-02  0.8185251E-01
       -2   -1    0    0    0  501  0.00000000000E+00  0.00000000000E+00  0.15085915680E+04  0.15085915680E+04  0.25500000920E-02 0.  1.
        2   -1    0    0  501    0  0.00000000000E+00  0.00000000000E+00 -0.17113370384E+04  0.17113370384E+04  0.25500000920E-02 0. -1.
    10030    2    1    2    0    0  0.00000000000E+00  0.00000000000E+00 -0.20274547037E+03  0.32199286064E+04  0.32135392490E+04 0.  0.
        4    1    3    3  502    0  0.15279473794E+04  0.12086291101E+03  0.38174354603E+03  0.15795444866E+04  0.12699999809E+01 0. -1.
       -4    1    3    3    0  502 -0.15279473794E+04 -0.12086291101E+03 -0.58448901640E+03  0.16403841198E+04  0.12699999809E+01 0.  1.
</event>
<event>
 5   0  0.7952307E-06  0.3208316E+04  0.7818609E-02  0.8186624E-01
       -2   -1    0    0    0  501  0.00000000000E+00  0.00000000000E+00  0.12019328712E+04  0.12019328712E+04  0.25500000920E-02 0.  1.
        2   -1    0    0  501    0  0.00000000000E+00  0.00000000000E+00 -0.21409866613E+04  0.21409866613E+04  0.25500000920E-02 0. -1.
    10030    2    1    2    0    0  0.00000000000E+00  0.00000000000E+00 -0.93905379014E+03  0.33429195325E+04  0.32083155985E+04 0.  0.
        2    1    3    3  502    0  0.66600981808E+03  0.90637464790E+03  0.72224255165E+03  0.13366818558E+04  0.25500000920E-02 0.  1.
       -2    1    3    3    0  502 -0.66600981808E+03 -0.90637464790E+03 -0.16612963418E+04  0.20062376767E+04  0.25500000920E-02 0. -1.
</event>
<event>
 5   0  0.7952307E-06  0.1645913E+04  0.7818609E-02  0.8792828E-01
        2   -1    0    0  501    0  0.00000000000E+00  0.00000000000E+00  0.17088776337E+04  0.17088776337E+04  0.25500000920E-02 0.  1.
       -2   -1    0    0    0  501  0.00000000000E+00  0.00000000000E+00 -0.39631686134E+03  0.39631686135E+03  0.25500000920E-02 0. -1.
    10030    2    1    2    0    0  0.00000000000E+00  0.00000000000E+00  0.13125607724E+04  0.21051944951E+04  0.16459125374E+04 0.  0.
        2    1    3    3  502    0 -0.72632838002E+02  0.58588519253E+03  0.13896088761E+04  0.15098178090E+04  0.25500000920E-02 0.  1.
       -2    1    3    3    0  502  0.72632838002E+02 -0.58588519253E+03 -0.77048103715E+02  0.59537668603E+03  0.25500000920E-02 0. -1.
</event>
<event>
 5   0  0.7952307E-06  0.3187354E+04  0.7818609E-02  0.8192165E-01
       -2   -1    0    0    0  501  0.00000000000E+00  0.00000000000E+00  0.99140596162E+03  0.99140596162E+03  0.25500000920E-02 0.  1.
        2   -1    0    0  501    0  0.00000000000E+00  0.00000000000E+00 -0.25618227921E+04  0.25618227921E+04  0.25500000920E-02 0. -1.
    10030    2    1    2    0    0  0.00000000000E+00  0.00000000000E+00 -0.15704168304E+04  0.35532287537E+04  0.31873540052E+04 0.  0.
        2    1    3    3  502    0 -0.89528924806E+03 -0.11078652015E+04  0.11611302683E+02  0.14244447918E+04  0.25500000920E-02 0.  1.
       -2    1    3    3    0  502  0.89528924806E+03  0.11078652015E+04 -0.15820281331E+04  0.21287839619E+04  0.25500000920E-02 0. -1.
</event>
<event>
 5   0  0.7510251E-06  0.3105405E+04  0.7818609E-02  0.8214256E-01
       -2   -1    0    0    0  501  0.00000000000E+00  0.00000000000E+00  0.26823027191E+04  0.26823027191E+04  0.25500000920E-02 0.  1.
        2   -1    0    0  501    0  0.00000000000E+00  0.00000000000E+00 -0.89881179612E+03  0.89881179612E+03  0.25500000920E-02 0. -1.
    10030    2    1    2    0    0  0.00000000000E+00  0.00000000000E+00  0.17834909230E+04  0.35811145153E+04  0.31054051747E+04 0.  0.
        3    1    3    3  502    0 -0.15015265155E+04  0.38927161887E+03  0.97139929280E+03  0.18302269986E+04  0.10100000352E+00 0. -1.
       -3    1    3    3    0  502  0.15015265155E+04 -0.38927161887E+03  0.81209163022E+03  0.17508875167E+04  0.10100000352E+00 0.  1.
</event>
<event>
 5   0  0.7941434E-06  0.2147888E+04  0.7818609E-02  0.8540437E-01
       -2   -1    0    0    0  501  0.00000000000E+00  0.00000000000E+00  0.45226640518E+03  0.45226640519E+03  0.25500000920E-02 0. -1.
        2   -1    0    0  501    0  0.00000000000E+00  0.00000000000E+00 -0.25501680605E+04  0.25501680605E+04  0.25500000920E-02 0.  1.
    10030    2    1    2    0    0  0.00000000000E+00  0.00000000000E+00 -0.20979016553E+04  0.30024344657E+04  0.21478876519E+04 0.  0.
        4    1    3    3  502    0  0.42225000699E+03  0.19697734684E+03  0.30361958169E+03  0.55613092600E+03  0.12699999809E+01 0. -1.
       -4    1    3    3    0  502 -0.42225000699E+03 -0.19697734684E+03 -0.24015212370E+04  0.24463035396E+04  0.12699999809E+01 0.  1.
</event>
<event>
 5   0  0.7971763E-06  0.3260626E+04  0.7818609E-02  0.8172987E-01
       -2   -1    0    0    0  501  0.00000000000E+00  0.00000000000E+00  0.19239047217E+04  0.19239047217E+04  0.25500000920E-02 0.  1.
        2   -1    0    0  501    0  0.00000000000E+00  0.00000000000E+00 -0.13815243042E+04  0.13815243042E+04  0.25500000920E-02 0. -1.
    10030    2    1    2    0    0  0.00000000000E+00  0.00000000000E+00  0.54238041751E+03  0.33054290259E+04  0.32606264012E+04 0.  0.
        1    1    3    3  502    0  0.10402857927E+04  0.12497449061E+04  0.15182567168E+03  0.16331282544E+04  0.50400001928E-02 0.  1.
       -1    1    3    3    0  502 -0.10402857927E+04 -0.12497449061E+04  0.39055474582E+03  0.16723007715E+04  0.50400001928E-02 0. -1.
</event>
<event>
 5   0  0.2635798E-06  0.2565447E+04  0.7818609E-02  0.8380034E-01
       -1   -1    0    0    0  501  0.00000000000E+00  0.00000000000E+00  0.96530901843E+03  0.96530901844E+03  0.50400001928E-02 0.  1.
        1   -1    0    0  501    0  0.00000000000E+00  0.00000000000E+00 -0.17045107179E+04  0.17045107179E+04  0.50400001928E-02 0. -1.
    10030    2    1    2    0    0  0.00000000000E+00  0.00000000000E+00 -0.73920169946E+03  0.26698197363E+04  0.25654469926E+04 0.  0.
        1    1    3    3  502    0  0.70283034871E+03 -0.26332409576E+03 -0.14521471232E+04  0.16346379862E+04  0.50400001928E-02 0. -1.
       -1    1    3    3    0  502 -0.70283034871E+03  0.26332409576E+03  0.71294542376E+03  0.10351817501E+04  0.50400001928E-02 0.  1.
</event>
<event>
 5   0  0.2788054E-06  0.3217675E+04  0.7818609E-02  0.8184165E-01
       -1   -1    0    0    0  501  0.00000000000E+00  0.00000000000E+00  0.10677275196E+04  0.10677275196E+04  0.50400001928E-02 0. -1.
        1   -1    0    0  501    0  0.00000000000E+00  0.00000000000E+00 -0.24241749036E+04  0.24241749036E+04  0.50400001928E-02 0.  1.
    10030    2    1    2    0    0  0.00000000000E+00  0.00000000000E+00 -0.13564473840E+04  0.34919024232E+04  0.32176750966E+04 0.  0.
        3    1    3    3  502    0  0.65072999717E+03  0.52197837486E+02 -0.22739788068E+04  0.23658304604E+04  0.10100000352E+00 0.  1.
       -3    1    3    3    0  502 -0.65072999717E+03 -0.52197837486E+02  0.91753142277E+03  0.11260719628E+04  0.10100000352E+00 0. -1.
</event>
<event>
 5   0  0.2635798E-06  0.2774984E+04  0.7818609E-02  0.8311077E-01
       -1   -1    0    0    0  501  0.00000000000E+00  0.00000000000E+00  0.11579868047E+04  0.11579868047E+04  0.50400001928E-02 0. -1.
        1   -1    0    0  501    0  0.00000000000E+00  0.00000000000E+00 -0.16624839893E+04  0.16624839893E+04  0.50400001928E-02 0.  1.
    10030    2    1    2    0    0  0.00000000000E+00  0.00000000000E+00 -0.50449718454E+03  0.28204707940E+04  0.27749843406E+04 0.  0.
        1    1    3    3  502    0  0.98088686314E+03  0.19338756300E+03 -0.12300980004E+04  0.15851431728E+04  0.50400001928E-02 0.  1.
       -1    1    3    3    0  502 -0.98088686314E+03 -0.19338756300E+03  0.72560081582E+03  0.12353276212E+04  0.50400001928E-02 0. -1.
</event>
<event>
 5   0  0.7941434E-06  0.3158803E+04  0.7818609E-02  0.8199783E-01
       -2   -1    0    0    0  501  0.00000000000E+00  0.00000000000E+00  0.18632564322E+04  0.18632564322E+04  0.25500000920E-02 0. -1.
        2   -1    0    0  501    0  0.00000000000E+00  0.00000000000E+00 -0.13387899924E+04  0.13387899924E+04  0.25500000920E-02 0.  1.
    10030    2    1    2    0    0  0.00000000000E+00  0.00000000000E+00  0.52446643976E+03  0.32020464245E+04  0.31588029787E+04 0.  0.
        4    1    3    3  502    0  0.97266518399E+03  0.57124963676E+03 -0.85838872431E+03  0.14174754046E+04  0.12699999809E+01 0.  1.
       -4    1    3    3    0  502 -0.97266518399E+03 -0.57124963676E+03  0.13828551641E+04  0.17845710200E+04  0.12699999809E+01 0. -1.
</event>
<event>
 5   0  0.7952307E-06  0.2731403E+04  0.7818609E-02  0.8324887E-01
       -2   -1    0    0    0  501  0.00000000000E+00  0.00000000000E+00  0.29874640694E+04  0.29874640694E+04  0.25500000920E-02 0.  1.
        2   -1    0    0  501    0  0.00000000000E+00  0.00000000000E+00 -0.62432217787E+03  0.62432217787E+03  0.25500000920E-02 0. -1.
    10030    2    1    2    0    0  0.00000000000E+00  0.00000000000E+00  0.23631418915E+04  0.36117862472E+04  0.27314026244E+04 0.  0.
        2    1    3    3  502    0  0.13542869025E+04 -0.79345547637E+02  0.97353627936E+03  0.16697789127E+04  0.25500000920E-02 0.  1.
       -2    1    3    3    0  502 -0.13542869025E+04  0.79345547637E+02  0.13896056121E+04  0.19420073345E+04  0.25500000920E-02 0. -1.
</event>
<event>
 5   0  0.7952307E-06  0.2688521E+04  0.7818609E-02  0.8338739E-01
       -2   -1    0    0    0  501  0.00000000000E+00  0.00000000000E+00  0.13869521710E+04  0.13869521710E+04  0.25500000920E-02 0.  1.
        2   -1    0    0  501    0  0.00000000000E+00  0.00000000000E+00 -0.13028831283E+04  0.13028831283E+04  0.25500000920E-02 0. -1.
    10030    2    1    2    0    0  0.00000000000E+00  0.00000000000E+00  0.84069042708E+02  0.26898352992E+04  0.26885212168E+04 0.  0.
        2    1    3    3  502    0  0.11896245075E+04  0.58126090938E+03  0.27445361888E+03  0.13521817565E+04  0.25500000920E-02 0.  1.
       -2    1    3    3    0  502 -0.11896245075E+04 -0.58126090938E+03 -0.19038457618E+03  0.13376535428E+04  0.25500000920E-02 0. -1.
</event>
<event>
 5   0  0.7971763E-06  0.3204184E+04  0.7818609E-02  0.8187713E-01
        2   -1    0    0  501    0  0.00000000000E+00  0.00000000000E+00  0.19152942716E+04  0.19152942716E+04  0.25500000920E-02 0.  1.
       -2   -1    0    0    0  501  0.00000000000E+00  0.00000000000E+00 -0.13401067990E+04  0.13401067990E+04  0.25500000920E-02 0. -1.
    10030    2    1    2    0    0  0.00000000000E+00  0.00000000000E+00  0.57518747259E+03  0.32554010706E+04  0.32041840617E+04 0.  0.
        1    1    3    3  502    0  0.51750778433E+03 -0.12708255274E+04 -0.55259960512E+03  0.14792491850E+04  0.50400001928E-02 0. -1.
       -1    1    3    3    0  502 -0.51750778433E+03  0.12708255274E+04  0.11277870777E+04  0.17761518855E+04  0.50400001928E-02 0.  1.
</event>
<event>
 5   0  0.8237664E-06  0.2857763E+04  0.7818609E-02  0.8285556E-01
        2   -1    0    0  501    0  0.00000000000E+00  0.00000000000E+00  0.13044875796E+04  0.13044875796E+04  0.25500000920E-02 0. -1.
       -2   -1    0    0    0  501  0.00000000000E+00  0.00000000000E+00 -0.15651374407E+04  0.15651374407E+04  0.25500000920E-02 0.  1.
    10030    2    1    2    0    0  0.00000000000E+00  0.00000000000E+00 -0.26064986105E+03  0.28696250203E+04  0.28577630075E+04 0.  0.
        5    1    3    3  502    0 -0.13935413089E+04  0.18465925437E+03 -0.38755975691E+03  0.14581773126E+04  0.46999998093E+01 0.  1.
       -5    1    3    3    0  502  0.13935413089E+04 -0.18465925437E+03  0.12690989586E+03  0.14114477077E+04  0.46999998093E+01 0. -1.
</event>
<event>
 5   0  0.2933646E-06  0.2789772E+04  0.7818609E-02  0.8306451E-01
       -1   -1    0    0    0  501  0.00000000000E+00  0.00000000000E+00  0.11237065461E+04  0.11237065461E+04  0.50400001928E-02 0. -1.
        1   -1    0    0  501    0  0.00000000000E+00  0.00000000000E+00 -0.17315077507E+04  0.17315077507E+04  0.50400001928E-02 0.  1.
    10030    2    1    2    0    0  0.00000000000E+00  0.00000000000E+00 -0.60780120461E+03  0.28552142968E+04  0.27897717427E+04 0.  0.
        2    1    3    3  502    0  0.28939409513E+03 -0.69783947492E+03 -0.15040017992E+04  0.16830776236E+04  0.25500000920E-02 0.  1.
       -2    1    3    3    0  502 -0.28939409513E+03  0.69783947492E+03  0.89620059454E+03  0.11721366732E+04  0.25500000920E-02 0. -1.
</event>
<event>
 5   0  0.2788054E-06  0.2322370E+04  0.7818609E-02  0.8469153E-01
        1   -1    0    0  501    0  0.00000000000E+00  0.00000000000E+00  0.17726643180E+04  0.17726643180E+04  0.50400001928E-02 0. -1.
       -1   -1    0    0    0  501  0.00000000000E+00  0.00000000000E+00 -0.76063506242E+03  0.76063506244E+03  0.50400001928E-02 0.  1.
    10030    2    1    2    0    0  0.00000000000E+00  0.00000000000E+00  0.10120292556E+04  0.25332993804E+04  0.23223700258E+04 0.  0.
        3    1    3    3  502    0  0.18634505052E+03 -0.42013931765E+03  0.16692193775E+04  0.17313390381E+04  0.10100000352E+00 0. -1.
       -3    1    3    3    0  502 -0.18634505052E+03  0.42013931765E+03 -0.65719012199E+03  0.80196034237E+03  0.10100000352E+00 0.  1.
</event>
<event>
 5   0  0.2635798E-06  0.3187044E+04  0.7818609E-02  0.8192247E-01
       -1   -1    0    0    0  501  0.00000000000E+00  0.00000000000E+00  0.99935337154E+03  0.99935337156E+03  0.50400001928E-02 0. -1.
        1   -1    0    0  501    0  0.00000000000E+00  0.00000000000E+00 -0.25409547902E+04  0.25409547902E+04  0.50400001928E-02 0.  1.
    10030    2    1    2    0    0  0.00000000000E+00  0.00000000000E+00 -0.15416014187E+04  0.35403081618E+04  0.31870436059E+04 0.  0.
        1    1    3    3  502    0 -0.22451328258E+03 -0.14333324706E+02 -0.25232253107E+04  0.25332346174E+04  0.50400001928E-02 0.  1.
       -1    1    3    3    0  502  0.22451328258E+03  0.14333324706E+02  0.98162389205E+03  0.10070735443E+04  0.50400001928E-02 0. -1.
</event>
<event>
 5   0  0.2933646E-06  0.1937041E+04  0.7818609E-02  0.8636635E-01
       -1   -1    0    0    0  501  0.00000000000E+00  0.00000000000E+00  0.13474226877E+04  0.13474226877E+04  0.50400001928E-02 0.  1.
        1   -1    0    0  501    0  0.00000000000E+00  0.00000000000E+00 -0.69616764491E+03  0.69616764493E+03  0.50400001928E-02 0. -1.
    10030    2    1    2    0    0  0.00000000000E+00  0.00000000000E+00  0.65125504279E+03  0.20435903326E+04  0.19370411242E+04 0.  0.
        2    1    3    3  502    0  0.36238807454E+03 -0.53882596224E+03  0.10837458398E+04  0.12633936756E+04  0.25500000920E-02 0.  1.
       -2    1    3    3    0  502 -0.36238807454E+03  0.53882596224E+03 -0.43249079704E+03  0.78019665705E+03  0.25500000920E-02 0. -1.
</event>
<event>
 5   0  0.7510251E-06  0.1802670E+04  0.7818609E-02  0.8704881E-01
        2   -1    0    0  501    0  0.00000000000E+00  0.00000000000E+00  0.16858405807E+04  0.16858405807E+04  0.25500000920E-02 0.  1.
       -2   -1    0    0    0  501  0.00000000000E+00  0.00000000000E+00 -0.48189888850E+03  0.48189888850E+03  0.25500000920E-02 0. -1.
    10030    2    1    2    0    0  0.00000000000E+00  0.00000000000E+00  0.12039416922E+04  0.21677394692E+04  0.18026699110E+04 0.  0.
        3    1    3    3  502    0 -0.37299905221E+03  0.31581445104E+02 -0.38400358250E+03  0.53626900172E+03  0.10100000352E+00 0. -1.
       -3    1    3    3    0  502  0.37299905221E+03 -0.31581445104E+02  0.15879452747E+04  0.16314704675E+04  0.10100000352E+00 0.  1.
</event>
<event>
 5   0  0.2933646E-06  0.3085876E+04  0.7818609E-02  0.8219625E-01
       -1   -1    0    0    0  501  0.00000000000E+00  0.00000000000E+00  0.14327424280E+04  0.14327424280E+04  0.50400001928E-02 0. -1.
        1   -1    0    0  501    0  0.00000000000E+00  0.00000000000E+00 -0.16616090322E+04  0.16616090322E+04  0.50400001928E-02 0.  1.
    10030    2    1    2    0    0  0.00000000000E+00  0.00000000000E+00 -0.22886660419E+03  0.30943514603E+04  0.30858760567E+04 0.  0.
        2    1    3    3  502    0  0.98932856531E+02 -0.11156992243E+04 -0.11785194846E+04  0.16258784225E+04  0.25500000920E-02 0.  1.
       -2    1    3    3    0  502 -0.98932856531E+02  0.11156992243E+04  0.94965288039E+03  0.14684730377E+04  0.25500000920E-02 0. -1.
</event>
<event>
 5   0  0.8237664E-06  0.2021502E+04  0.7818609E-02  0.8596633E-01
        2   -1    0    0  501    0  0.00000000000E+00  0.00000000000E+00  0.72018370371E+03  0.72018370371E+03  0.25500000920E-02 0.  1.
       -2   -1    0    0    0  501  0.00000000000E+00  0.00000000000E+00 -0.14185520211E+04  0.14185520211E+04  0.25500000920E-02 0. -1.
    10030    2    1    2    0    0  0.00000000000E+00  0.00000000000E+00 -0.69836831738E+03  0.21387357248E+04  0.20215024595E+04 0.  0.
        5    1    3    3  502    0  0.82661271922E+03 -0.57207610908E+03 -0.46033033472E+03  0.11056607840E+04  0.46999998093E+01 0.  1.
       -5    1    3    3    0  502 -0.82661271922E+03  0.57207610908E+03 -0.23803798266E+03  0.10330749408E+04  0.46999998093E+01 0. -1.
</event>
<event>
 5   0  0.7971763E-06  0.3145164E+04  0.7818609E-02  0.8203451E-01
        2   -1    0    0  501    0  0.00000000000E+00  0.00000000000E+00  0.17731845757E+04  0.17731845757E+04  0.25500000920E-02 0.  1.
       -2   -1    0    0    0  501  0.00000000000E+00  0.00000000000E+00 -0.13946739709E+04  0.13946739709E+04  0.25500000920E-02 0. -1.
    10030    2    1    2    0    0  0.00000000000E+00  0.00000000000E+00  0.37851060475E+03  0.31678585466E+04  0.31451641441E+04 0.  0.
        1    1    3    3  502    0  0.11119700491E+04 -0.35455526557E+03  0.12508183328E+04  0.17107698057E+04  0.50400001928E-02 0.  1.
       -1    1    3    3    0  502 -0.11119700491E+04  0.35455526557E+03 -0.87230772804E+03  0.14570887409E+04  0.50400001928E-02 0. -1.
</event>
<event>
 5   0  0.2580875E-06  0.1729128E+04  0.7818609E-02  0.8744924E-01
        3   -1    0    0  501    0  0.00000000000E+00  0.00000000000E+00  0.11344950258E+04  0.11344950303E+04  0.10100000352E+00 0. -1.
       -3   -1    0    0    0  501  0.00000000000E+00  0.00000000000E+00 -0.65885772759E+03  0.65885773533E+03  0.10100000352E+00 0.  1.
    10030    2    1    2    0    0  0.00000000000E+00  0.00000000000E+00  0.47563729819E+03  0.17933527656E+04  0.17291279023E+04 0.  0.
        1    1    3    3  502    0  0.52370560624E+03 -0.41726173346E+03 -0.32939130616E+03  0.74623960550E+03  0.50400001928E-02 0.  1.
       -1    1    3    3    0  502 -0.52370560624E+03  0.41726173346E+03  0.80502860435E+03  0.10471131601E+04  0.50400001928E-02 0. -1.
</event>
<event>
 5   0  0.2788054E-06  0.3304302E+04  0.7818609E-02  0.8161802E-01
        1   -1    0    0  501    0  0.00000000000E+00  0.00000000000E+00  0.15530651155E+04  0.15530651155E+04  0.50400001928E-02 0. -1.
       -1   -1    0    0    0  501  0.00000000000E+00  0.00000000000E+00 -0.17575580905E+04  0.17575580905E+04  0.50400001928E-02 0.  1.
    10030    2    1    2    0    0  0.00000000000E+00  0.00000000000E+00 -0.20449297500E+03  0.33106232060E+04  0.33043015352E+04 0.  0.
        3    1    3    3  502    0  0.14204158922E+04  0.71913740119E+03  0.34003007758E+03  0.16279927434E+04  0.10100000352E+00 0. -1.
       -3    1    3    3    0  502 -0.14204158922E+04 -0.71913740119E+03 -0.54452305258E+03  0.16826304626E+04  0.10100000352E+00 0.  1.
</event>
<event>
 5   0  0.2635798E-06  0.2345644E+04  0.7818609E-02  0.8460139E-01
        1   -1    0    0  501    0  0.00000000000E+00  0.00000000000E+00  0.16900096877E+04  0.16900096877E+04  0.50400001928E-02 0. -1.
       -1   -1    0    0    0  501  0.00000000000E+00  0.00000000000E+00 -0.81390713580E+03  0.81390713582E+03  0.50400001928E-02 0.  1.
    10030    2    1    2    0    0  0.00000000000E+00  0.00000000000E+00  0.87610255187E+03  0.25039168235E+04  0.23456435743E+04 0.  0.
        1    1    3    3  502    0  0.22038318554E+03 -0.62232935294E+03 -0.59671093542E+03  0.88990252976E+03  0.50400001928E-02 0.  1.
       -1    1    3    3    0  502 -0.22038318554E+03  0.62232935294E+03  0.14728134873E+04  0.16140142937E+04  0.50400001928E-02 0. -1.
</event>
<event>
 5   0  0.7952307E-06  0.3219366E+04  0.7818609E-02  0.8183721E-01
        2   -1    0    0  501    0  0.00000000000E+00  0.00000000000E+00  0.13525566587E+04  0.13525566587E+04  0.25500000920E-02 0.  1.
       -2   -1    0    0    0  501  0.00000000000E+00  0.00000000000E+00 -0.19156902049E+04  0.19156902050E+04  0.25500000920E-02 0. -1.
    10030    2    1    2    0    0  0.00000000000E+00  0.00000000000E+00 -0.56313354628E+03  0.32682468636E+04  0.32193661132E+04 0.  0.
        2    1    3    3  502    0 -0.34209781196E+03  0.13337477342E+04  0.56485850462E+03  0.14882805723E+04  0.25500000920E-02 0.  1.
       -2    1    3    3    0  502  0.34209781196E+03 -0.13337477342E+04 -0.11279920509E+04  0.17799662914E+04  0.25500000920E-02 0. -1.
</event>
<event>
 5   0  0.2933646E-06  0.3108221E+04  0.7818609E-02  0.8213485E-01
       -1   -1    0    0    0  501  0.00000000000E+00  0.00000000000E+00  0.23556213834E+04  0.23556213834E+04  0.50400001928E-02 0. -1.
        1   -1    0    0  501    0  0.00000000000E+00  0.00000000000E+00 -0.10253172498E+04  0.10253172498E+04  0.50400001928E-02 0.  1.
    10030    2    1    2    0    0  0.00000000000E+00  0.00000000000E+00  0.13303041336E+04  0.33809386332E+04  0.31082208662E+04 0.  0.
        2    1    3    3  502    0 -0.33984558241E+03 -0.14040257029E+04  0.12885670949E+04  0.19357655727E+04  0.25500000920E-02 0. -1.
       -2    1    3    3    0  502  0.33984558241E+03  0.14040257029E+04  0.41737038764E+02  0.14451730605E+04  0.25500000920E-02 0.  1.
</event>
<event>
 5   0  0.8237664E-06  0.2870504E+04  0.7818609E-02  0.8281708E-01
        2   -1    0    0  501    0  0.00000000000E+00  0.00000000000E+00  0.16047035470E+04  0.16047035470E+04  0.25500000920E-02 0.  1.
       -2   -1    0    0    0  501  0.00000000000E+00  0.00000000000E+00 -0.12836937836E+04  0.12836937836E+04  0.25500000920E-02 0. -1.
    10030    2    1    2    0    0  0.00000000000E+00  0.00000000000E+00  0.32100976337E+03  0.28883973307E+04  0.28705037662E+04 0.  0.
        5    1    3    3  502    0  0.10884038320E+04  0.47193789602E+03  0.97336327547E+03  0.15345378572E+04  0.46999998093E+01 0.  1.
       -5    1    3    3    0  502 -0.10884038320E+04 -0.47193789602E+03 -0.65235351210E+03  0.13538594735E+04  0.46999998093E+01 0. -1.
</event>
<event>
 5   0  0.2788054E-06  0.2138381E+04  0.7818609E-02  0.8544522E-01
       -1   -1    0    0    0  501  0.00000000000E+00  0.00000000000E+00  0.10547699887E+04  0.10547699888E+04  0.50400001928E-02 0. -1.
        1   -1    0    0  501    0  0.00000000000E+00  0.00000000000E+00 -0.10838084089E+04  0.10838084089E+04  0.50400001928E-02 0.  1.
    10030    2    1    2    0    0  0.00000000000E+00  0.00000000000E+00 -0.29038420159E+02  0.21385783977E+04  0.21383812413E+04 0.  0.
        3    1    3    3  502    0 -0.16495725665E+03 -0.66188501085E+03  0.80888282519E+03  0.10581087369E+04  0.10100000352E+00 0. -1.
       -3    1    3    3    0  502  0.16495725665E+03  0.66188501085E+03 -0.83792124535E+03  0.10804696607E+04  0.10100000352E+00 0.  1.
</event>
<event>
 5   0  0.7510251E-06  0.3212352E+04  0.7818609E-02  0.8185563E-01
       -2   -1    0    0    0  501  0.00000000000E+00  0.00000000000E+00  0.87780717899E+03  0.87780717899E+03  0.25500000920E-02 0.  1.
        2   -1    0    0  501    0  0.00000000000E+00  0.00000000000E+00 -0.29389150526E+04  0.29389150526E+04  0.25500000920E-02 0. -1.
    10030    2    1    2    0    0  0.00000000000E+00  0.00000000000E+00 -0.20611078736E+04  0.38167222316E+04  0.32123516194E+04 0.  0.
        3    1    3    3  502    0  0.13650120045E+04 -0.52608309179E+01 -0.20362811559E+04  0.24514743329E+04  0.10100000352E+00 0. -1.
       -3    1    3    3    0  502 -0.13650120045E+04  0.52608309179E+01 -0.24826717719E+02  0.13652478987E+04  0.10100000352E+00 0.  1.
</event>
<event>
 5   0  0.8237664E-06  0.3251211E+04  0.7818609E-02  0.8175422E-01
       -2   -1    0    0    0  501  0.00000000000E+00  0.00000000000E+00  0.17167526669E+04  0.17167526669E+04  0.25500000920E-02 0.  1.
        2   -1    0    0  501    0  0.00000000000E+00  0.00000000000E+00 -0.15392971550E+04  0.15392971550E+04  0.25500000920E-02 0. -1.
    10030    2    1    2    0    0  0.00000000000E+00  0.00000000000E+00  0.17745551187E+03  0.32560498218E+04  0.32512105413E+04 0.  0.
        5    1    3    3  502    0  0.12411625422E+04  0.82934321426E+03  0.73332837830E+03  0.16631558025E+04  0.46999998093E+01 0.  1.
       -5    1    3    3    0  502 -0.12411625422E+04 -0.82934321426E+03 -0.55587286643E+03  0.15928940193E+04  0.46999998093E+01 0. -1.
</event>
<event>
 5   0  0.8237664E-06  0.3169137E+04  0.7818609E-02  0.8197016E-01
       -2   -1    0    0    0  501  0.00000000000E+00  0.00000000000E+00  0.94922801489E+03  0.94922801489E+03  0.25500000920E-02 0. -1.
        2   -1    0    0  501    0  0.00000000000E+00  0.00000000000E+00 -0.26451578278E+04  0.26451578278E+04  0.25500000920E-02 0.  1.
    10030    2    1    2    0    0  0.00000000000E+00  0.00000000000E+00 -0.16959298129E+04  0.35943858427E+04  0.31691373678E+04 0.  0.
        5    1    3    3  502    0 -0.13787325194E+04  0.46061798881E+02 -0.17322001644E+04  0.22143993653E+04  0.46999998093E+01 0.  1.
       -5    1    3    3    0  502  0.13787325194E+04 -0.46061798881E+02  0.36270351503E+02  0.13799864774E+04  0.46999998093E+01 0. -1.
</event>
<event>
 5   0  0.7510251E-06  0.3050199E+04  0.7818609E-02  0.8229540E-01
       -2   -1    0    0    0  501  0.00000000000E+00  0.00000000000E+00  0.13183404758E+04  0.13183404758E+04  0.25500000920E-02 0. -1.
        2   -1    0    0  501    0  0.00000000000E+00  0.00000000000E+00 -0.17642847985E+04  0.17642847985E+04  0.25500000920E-02 0.  1.
    10030    2    1    2    0    0  0.00000000000E+00  0.00000000000E+00 -0.44594432270E+03  0.30826252743E+04  0.30501987218E+04 0.  0.
        3    1    3    3  502    0 -0.68552776916E+03  0.12858077628E+04 -0.67795607221E+03  0.16071323440E+04  0.10100000352E+00 0.  1.
       -3    1    3    3    0  502  0.68552776916E+03 -0.12858077628E+04  0.23201174951E+03  0.14754929303E+04  0.10100000352E+00 0. -1.
</event>
<event>
 5   0  0.2635798E-06  0.1711027E+04  0.7818609E-02  0.8755100E-01
       -1   -1    0    0    0  501  0.00000000000E+00  0.00000000000E+00  0.58068814604E+03  0.58068814606E+03  0.50400001928E-02 0. -1.
        1   -1    0    0  501    0  0.00000000000E+00  0.00000000000E+00 -0.12604063400E+04  0.12604063400E+04  0.50400001928E-02 0.  1.
    10030    2    1    2    0    0  0.00000000000E+00  0.00000000000E+00 -0.67971819395E+03  0.18410944861E+04  0.17110266168E+04 0.  0.
        1    1    3    3  502    0 -0.40857770876E+02  0.79795504429E+03 -0.10834479074E+02  0.79907383645E+03  0.50400001928E-02 0.  1.
       -1    1    3    3    0  502  0.40857770876E+02 -0.79795504429E+03 -0.66888371487E+03  0.10420206496E+04  0.50400001928E-02 0. -1.
</event>
<event>
 5   0  0.3938696E-06  0.3176478E+04  0.7818609E-02  0.8195057E-01
        1   -1    0    0  501    0  0.00000000000E+00  0.00000000000E+00  0.18063771398E+04  0.18063771398E+04  0.50400001928E-02 0. -1.
       -1   -1    0    0    0  501  0.00000000000E+00  0.00000000000E+00 -0.13964429865E+04  0.13964429865E+04  0.50400001928E-02 0.  1.
    10030    2    1    2    0    0  0.00000000000E+00  0.00000000000E+00  0.40993415336E+03  0.32028201263E+04  0.31764777272E+04 0.  0.
        4    1    3    3  502    0 -0.49700324724E+03 -0.16816874755E+03 -0.13065337259E+04  0.14079506189E+04  0.12699999809E+01 0.  1.
       -4    1    3    3    0  502  0.49700324724E+03  0.16816874755E+03  0.17164678792E+04  0.17948695075E+04  0.12699999809E+01 0. -1.
</event>
<event>
 5   0  0.7952307E-06  0.3202197E+04  0.7818609E-02  0.8188237E-01
       -2   -1    0    0    0  501  0.00000000000E+00  0.00000000000E+00  0.15624526014E+04  0.15624526014E+04  0.25500000920E-02 0. -1.
        2   -1    0    0  501    0  0.00000000000E+00  0.00000000000E+00 -0.16407003008E+04  0.16407003008E+04  0.25500000920E-02 0.  1.
    10030    2    1    2    0    0  0.00000000000E+00  0.00000000000E+00 -0.78247699368E+02  0.32031529023E+04  0.32021970290E+04 0.  0.
        2    1    3    3  502    0  0.14992014291E+04  0.56048922966E+03  0.28809670621E+01  0.16005503433E+04  0.25500000920E-02 0.  1.
       -2    1    3    3    0  502 -0.14992014291E+04 -0.56048922966E+03 -0.81128666430E+02  0.16026025590E+04  0.25500000920E-02 0. -1.
</event>
<event>
 5   0  0.2788054E-06  0.3147663E+04  0.7818609E-02  0.8202778E-01
        1   -1    0    0  501    0  0.00000000000E+00  0.00000000000E+00  0.14117770637E+04  0.14117770637E+04  0.50400001928E-02 0.  1.
       -1   -1    0    0    0  501  0.00000000000E+00  0.00000000000E+00 -0.17544874280E+04  0.17544874280E+04  0.50400001928E-02 0. -1.
    10030    2    1    2    0    0  0.00000000000E+00  0.00000000000E+00 -0.34271036428E+03  0.31662644917E+04  0.31476626943E+04 0.  0.
        3    1    3    3  502    0  0.88925427076E+03 -0.68949060889E+03 -0.12782100053E+04  0.17029360780E+04  0.10100000352E+00 0. -1.
       -3    1    3    3    0  502 -0.88925427076E+03  0.68949060889E+03  0.93549964100E+03  0.14633284137E+04  0.10100000352E+00 0.  1.
</event>
<event>
 5   0  0.2635798E-06  0.2251209E+04  0.7818609E-02  0.8497411E-01
       -1   -1    0    0    0  501  0.00000000000E+00  0.00000000000E+00  0.10089620890E+04  0.10089620890E+04  0.50400001928E-02 0. -1.
        1   -1    0    0  501    0  0.00000000000E+00  0.00000000000E+00 -0.12557315202E+04  0.12557315202E+04  0.50400001928E-02 0.  1.
    10030    2    1    2    0    0  0.00000000000E+00  0.00000000000E+00 -0.24676943123E+03  0.22646936093E+04  0.22512090067E+04 0.  0.
        1    1    3    3  502    0  0.79129174377E+03 -0.33252895889E+03 -0.85594114941E+03  0.12121688758E+04  0.50400001928E-02 0.  1.
       -1    1    3    3    0  502 -0.79129174377E+03  0.33252895889E+03  0.60917171818E+03  0.10525247334E+04  0.50400001928E-02 0. -1.
</event>
<event>
 5   0  0.7941434E-06  0.3467879E+04  0.7818609E-02  0.8121445E-01
        2   -1    0    0  501    0  0.00000000000E+00  0.00000000000E+00  0.26309012545E+04  0.26309012545E+04  0.25500000920E-02 0. -1.
       -2   -1    0    0    0  501  0.00000000000E+00  0.00000000000E+00 -0.11427818111E+04  0.11427818111E+04  0.25500000920E-02 0.  1.
    10030    2    1    2    0    0  0.00000000000E+00  0.00000000000E+00  0.14881194434E+04  0.37736830655E+04  0.34678789485E+04 0.  0.
        4    1    3    3  502    0 -0.13994836240E+04  0.74312798305E+03 -0.22124559699E+02  0.15847033546E+04  0.12699999809E+01 0.  1.
       -4    1    3    3    0  502  0.13994836240E+04 -0.74312798305E+03  0.15102440031E+04  0.21889797109E+04  0.12699999809E+01 0. -1.
</event>
<event>
 5   0  0.2635798E-06  0.3192067E+04  0.7818609E-02  0.8190915E-01
       -1   -1    0    0    0  501  0.00000000000E+00  0.00000000000E+00  0.31164695116E+04  0.31164695116E+04  0.50400001928E-02 0.  1.
        1   -1    0    0  501    0  0.00000000000E+00  0.00000000000E+00 -0.81737439266E+03  0.81737439268E+03  0.50400001928E-02 0. -1.
    10030    2    1    2    0    0  0.00000000000E+00  0.00000000000E+00  0.22990951189E+04  0.39338439042E+04  0.31920666499E+04 0.  0.
        1    1    3    3  502    0 -0.15791139376E+04 -0.22703889794E+03  0.10920746273E+04  0.19333324806E+04  0.50400001928E-02 0. -1.
       -1    1    3    3    0  502  0.15791139376E+04  0.22703889794E+03  0.12070204916E+04  0.20005114236E+04  0.50400001928E-02 0.  1.
</event>
<event>
 5   0  0.2635798E-06  0.3268850E+04  0.7818609E-02  0.8170867E-01
        1   -1    0    0  501    0  0.00000000000E+00  0.00000000000E+00  0.20779288695E+04  0.20779288695E+04  0.50400001928E-02 0. -1.
       -1   -1    0    0    0  501  0.00000000000E+00  0.00000000000E+00 -0.12855810114E+04  0.12855810115E+04  0.50400001928E-02 0.  1.
    10030    2    1    2    0    0  0.00000000000E+00  0.00000000000E+00  0.79234785805E+03  0.33635098810E+04  0.32688505000E+04 0.  0.
        1    1    3    3  502    0 -0.16339393206E+04  0.30616113555E+02  0.36992343898E+03  0.16755710670E+04  0.50400001928E-02 0.  1.
       -1    1    3    3    0  502  0.16339393206E+04 -0.30616113555E+02  0.42242441907E+03  0.16879388140E+04  0.50400001928E-02 0. -1.
</event>
<event>
 5   0  0.2788054E-06  0.3209686E+04  0.7818609E-02  0.8186264E-01
        1   -1    0    0  501    0  0.00000000000E+00  0.00000000000E+00  0.14077375091E+04  0.14077375091E+04  0.50400001928E-02 0. -1.
       -1   -1    0    0    0  501  0.00000000000E+00  0.00000000000E+00 -0.18295462406E+04  0.18295462406E+04  0.50400001928E-02 0.  1.
    10030    2    1    2    0    0  0.00000000000E+00  0.00000000000E+00 -0.42180873145E+03  0.32372837497E+04  0.32096858835E+04 0.  0.
        3    1    3    3  502    0  0.90234753991E+03  0.85027151547E+03 -0.12386497711E+04  0.17525541356E+04  0.10100000352E+00 0.  1.
       -3    1    3    3    0  502 -0.90234753991E+03 -0.85027151547E+03  0.81684103961E+03  0.14847296141E+04  0.10100000352E+00 0. -1.
</event>
<event>
 5   0  0.7971763E-06  0.3339990E+04  0.7818609E-02  0.8152794E-01
       -2   -1    0    0    0  501  0.00000000000E+00  0.00000000000E+00  0.14005061889E+04  0.14005061889E+04  0.25500000920E-02 0.  1.
        2   -1    0    0  501    0  0.00000000000E+00  0.00000000000E+00 -0.19913391393E+04  0.19913391393E+04  0.25500000920E-02 0. -1.
    10030    2    1    2    0    0  0.00000000000E+00  0.00000000000E+00 -0.59083295043E+03  0.33918453282E+04  0.33399896938E+04 0.  0.
        1    1    3    3  502    0 -0.83781830170E+03  0.68909465009E+03 -0.15848109461E+04  0.19205251049E+04  0.50400001928E-02 0. -1.
       -1    1    3    3    0  502  0.83781830170E+03 -0.68909465009E+03  0.99397799570E+03  0.14713202233E+04  0.50400001928E-02 0.  1.
</event>
<event>
 5   0  0.2788054E-06  0.3212255E+04  0.7818609E-02  0.8185588E-01
       -1   -1    0    0    0  501  0.00000000000E+00  0.00000000000E+00  0.21664953990E+04  0.21664953990E+04  0.50400001928E-02 0. -1.
        1   -1    0    0  501    0  0.00000000000E+00  0.00000000000E+00 -0.11906999641E+04  0.11906999641E+04  0.50400001928E-02 0.  1.
    10030    2    1    2    0    0  0.00000000000E+00  0.00000000000E+00  0.97579543491E+03  0.33571953631E+04  0.32122552787E+04 0.  0.
        3    1    3    3  502    0  0.13447217799E+04  0.51588683467E+03  0.12307648914E+04  0.18945179122E+04  0.10100000352E+00 0. -1.
       -3    1    3    3    0  502 -0.13447217799E+04 -0.51588683467E+03 -0.25496945649E+03  0.14626774509E+04  0.10100000352E+00 0.  1.
</event>
<event>
 5   0  0.7952307E-06  0.3423574E+04  0.7818609E-02  0.8132145E-01
       -2   -1    0    0    0  501  0.00000000000E+00  0.00000000000E+00  0.17301882989E+04  0.17301882989E+04  0.25500000920E-02 0. -1.
        2   -1    0    0  501    0  0.00000000000E+00  0.00000000000E+00 -0.16935810199E+04  0.16935810199E+04  0.25500000920E-02 0.  1.
    10030    2    1    2    0    0  0.00000000000E+00  0.00000000000E+00  0.36607278930E+02  0.34237693188E+04  0.34235736089E+04 0.  0.
        2    1    3    3  502    0  0.56529331913E+03 -0.22536618919E+03  0.16183537287E+04  0.17289925526E+04  0.25500000920E-02 0. -1.
       -2    1    3    3    0  502 -0.56529331913E+03  0.22536618919E+03 -0.15817464498E+04  0.16947767662E+04  0.25500000920E-02 0.  1.
</event>
<event>
 5   0  0.7510251E-06  0.3038267E+04  0.7818609E-02  0.8232887E-01
        2   -1    0    0  501    0  0.00000000000E+00  0.00000000000E+00  0.19623245016E+04  0.19623245016E+04  0.25500000920E-02 0. -1.
       -2   -1    0    0    0  501  0.00000000000E+00  0.00000000000E+00 -0.11760375659E+04  0.11760375659E+04  0.25500000920E-02 0.  1.
    10030    2    1    2    0    0  0.00000000000E+00  0.00000000000E+00  0.78628693572E+03  0.31383620675E+04  0.30382674868E+04 0.  0.
        3    1    3    3  502    0  0.13374694463E+04  0.94855236532E+02 -0.34448697095E+03  0.13843747033E+04  0.10100000352E+00 0. -1.
       -3    1    3    3    0  502 -0.13374694463E+04 -0.94855236532E+02  0.11307739067E+04  0.17539873642E+04  0.10100000352E+00 0.  1.
</event>
<event>
 5   0  0.2580875E-06  0.3193977E+04  0.7818609E-02  0.8190410E-01
       -3   -1    0    0    0  501  0.00000000000E+00  0.00000000000E+00  0.14183778594E+04  0.14183778630E+04  0.10100000352E+00 0.  1.
        3   -1    0    0  501    0  0.00000000000E+00  0.00000000000E+00 -0.17980908177E+04  0.17980908206E+04  0.10100000352E+00 0. -1.
    10030    2    1    2    0    0  0.00000000000E+00  0.00000000000E+00 -0.37971295830E+03  0.32164686836E+04  0.31939769664E+04 0.  0.
        5    1    3    3  502    0  0.10598590893E+04  0.77489893411E+03  0.72571049687E+03  0.15001491468E+04  0.46999998093E+01 0.  1.
       -5    1    3    3    0  502 -0.10598590893E+04 -0.77489893411E+03 -0.11054234552E+04  0.17163195368E+04  0.46999998093E+01 0. -1.
</event>
<event>
 5   0  0.7941434E-06  0.3104165E+04  0.7818609E-02  0.8214596E-01
       -2   -1    0    0    0  501  0.00000000000E+00  0.00000000000E+00  0.76039939950E+03  0.76039939951E+03  0.25500000920E-02 0.  1.
        2   -1    0    0  501    0  0.00000000000E+00  0.00000000000E+00 -0.31680191761E+04  0.31680191761E+04  0.25500000920E-02 0. -1.
    10030    2    1    2    0    0  0.00000000000E+00  0.00000000000E+00 -0.24076197766E+04  0.39284185756E+04  0.31041648662E+04 0.  0.
        4    1    3    3  502    0  0.14077557522E+04  0.13957251291E+03 -0.20118708820E+04  0.24594476621E+04  0.12699999809E+01 0. -1.
       -4    1    3    3    0  502 -0.14077557522E+04 -0.13957251291E+03 -0.39574889457E+03  0.14689709134E+04  0.12699999809E+01 0.  1.
</event>
<event>
 5   0  0.7941434E-06  0.3177652E+04  0.7818609E-02  0.8194744E-01
        2   -1    0    0  501    0  0.00000000000E+00  0.00000000000E+00  0.20695877724E+04  0.20695877724E+04  0.25500000920E-02 0. -1.
       -2   -1    0    0    0  501  0.00000000000E+00  0.00000000000E+00 -0.12197443743E+04  0.12197443743E+04  0.25500000920E-02 0.  1.
    10030    2    1    2    0    0  0.00000000000E+00  0.00000000000E+00  0.84984339807E+03  0.32893321467E+04  0.31776519901E+04 0.  0.
        4    1    3    3  502    0 -0.98997720503E+03  0.90278663877E+02 -0.85805807722E+03  0.13131909155E+04  0.12699999809E+01 0.  1.
       -4    1    3    3    0  502  0.98997720503E+03 -0.90278663877E+02  0.17079014753E+04  0.19761412312E+04  0.12699999809E+01 0. -1.
</event>
<event>
 5   0  0.7952307E-06  0.3061742E+04  0.7818609E-02  0.8226317E-01
        2   -1    0    0  501    0  0.00000000000E+00  0.00000000000E+00  0.16833988330E+04  0.16833988330E+04  0.25500000920E-02 0.  1.
       -2   -1    0    0    0  501  0.00000000000E+00  0.00000000000E+00 -0.13921629537E+04  0.13921629537E+04  0.25500000920E-02 0. -1.
    10030    2    1    2    0    0  0.00000000000E+00  0.00000000000E+00  0.29123587924E+03  0.30755617867E+04  0.30617416557E+04 0.  0.
        2    1    3    3  502    0  0.61536375964E+03  0.11313186610E+03  0.15490981377E+04  0.16706814227E+04  0.25500000920E-02 0.  1.
       -2    1    3    3    0  502 -0.61536375964E+03 -0.11313186610E+03 -0.12578622585E+04  0.14048803640E+04  0.25500000920E-02 0. -1.
</event>
<event>
 5   0  0.4597518E-06  0.1578756E+04  0.7818609E-02  0.8833706E-01
        1   -1    0    0  501    0  0.00000000000E+00  0.00000000000E+00  0.49572472195E+03  0.49572472198E+03  0.50400001928E-02 0.  1.
       -1   -1    0    0    0  501  0.00000000000E+00  0.00000000000E+00 -0.12569830998E+04  0.12569830998E+04  0.50400001928E-02 0. -1.
    10030    2    1    2    0    0  0.00000000000E+00  0.00000000000E+00 -0.76125837784E+03  0.17527078218E+04  0.15787559630E+04 0.  0.
        5    1    3    3  502    0  0.14611465007E+03  0.13624392519E+03 -0.12284365357E+04  0.12445843926E+04  0.46999998093E+01 0. -1.
       -5    1    3    3    0  502 -0.14611465007E+03 -0.13624392519E+03  0.46717815784E+03  0.50812342918E+03  0.46999998093E+01 0.  1.
</event>
<event>
 5   0  0.7510251E-06  0.3224357E+04  0.7818609E-02  0.8182414E-01
        2   -1    0    0  501    0  0.00000000000E+00  0.00000000000E+00  0.19116542469E+04  0.19116542469E+04  0.25500000920E-02 0. -1.
       -2   -1    0    0    0  501  0.00000000000E+00  0.00000000000E+00 -0.13596180766E+04  0.13596180766E+04  0.25500000920E-02 0.  1.
    10030    2    1    2    0    0  0.00000000000E+00  0.00000000000E+00  0.55203617030E+03  0.32712723234E+04  0.32243570957E+04 0.  0.
        3    1    3    3  502    0 -0.14337503237E+04  0.10117777536E+03 -0.46484172514E+03  0.15106140382E+04  0.10100000352E+00 0.  1.
       -3    1    3    3    0  502  0.14337503237E+04 -0.10117777536E+03  0.10168778954E+04  0.17606582852E+04  0.10100000352E+00 0. -1.
</event>
<event>
 5   0  0.4142886E-06  0.2793789E+04  0.7818609E-02  0.8305199E-01
       -1   -1    0    0    0  501  0.00000000000E+00  0.00000000000E+00  0.26133258879E+04  0.26133258879E+04  0.50400001928E-02 0. -1.
        1   -1    0    0  501    0  0.00000000000E+00  0.00000000000E+00 -0.74667835504E+03  0.74667835506E+03  0.50400001928E-02 0.  1.
    10030    2    1    2    0    0  0.00000000000E+00  0.00000000000E+00  0.18666475329E+04  0.33600042430E+04  0.27937887359E+04 0.  0.
        5    1    3    3  502    0  0.49026424014E+03 -0.33355427938E+03  0.24544387628E+04  0.25250562791E+04  0.46999998093E+01 0. -1.
       -5    1    3    3    0  502 -0.49026424014E+03  0.33355427938E+03 -0.58779122989E+03  0.83494796388E+03  0.46999998093E+01 0.  1.
</event>
<event>
 5   0  0.7941434E-06  0.3129388E+04  0.7818609E-02  0.8207718E-01
       -2   -1    0    0    0  501  0.00000000000E+00  0.00000000000E+00  0.10135505027E+04  0.10135505028E+04  0.25500000920E-02 0. -1.
        2   -1    0    0  501    0  0.00000000000E+00  0.00000000000E+00 -0.24155362634E+04  0.24155362634E+04  0.25500000920E-02 0.  1.
    10030    2    1    2    0    0  0.00000000000E+00  0.00000000000E+00 -0.14019857607E+04  0.34290867661E+04  0.31293884349E+04 0.  0.
        4    1    3    3  502    0 -0.11897849026E+04 -0.87599122365E+03 -0.12654124537E+04  0.19453069242E+04  0.12699999809E+01 0.  1.
       -4    1    3    3    0  502  0.11897849026E+04  0.87599122365E+03 -0.13657330698E+03  0.14837798420E+04  0.12699999809E+01 0. -1.
</event>
<event>
 5   0  0.3938696E-06  0.3181274E+04  0.7818609E-02  0.8193780E-01
        1   -1    0    0  501    0  0.00000000000E+00  0.00000000000E+00  0.20562211778E+04  0.20562211778E+04  0.50400001928E-02 0. -1.
       -1   -1    0    0    0  501  0.00000000000E+00  0.00000000000E+00 -0.12304736494E+04  0.12304736494E+04  0.50400001928E-02 0.  1.
    10030    2    1    2    0    0  0.00000000000E+00  0.00000000000E+00  0.82574752839E+03  0.32866948273E+04  0.31812739440E+04 0.  0.
        4    1    3    3  502    0  0.71680904707E+03  0.12291242465E+04  0.11474651690E+04  0.18279057827E+04  0.12699999809E+01 0. -1.
       -4    1    3    3    0  502 -0.71680904707E+03 -0.12291242465E+04 -0.32171764063E+03  0.14587890446E+04  0.12699999809E+01 0.  1.
</event>
<event>
 5   0  0.2788054E-06  0.3182660E+04  0.7818609E-02  0.8193412E-01
       -1   -1    0    0    0  501  0.00000000000E+00  0.00000000000E+00  0.13218651880E+04  0.13218651880E+04  0.50400001928E-02 0. -1.
        1   -1    0    0  501    0  0.00000000000E+00  0.00000000000E+00 -0.19157259614E+04  0.19157259615E+04  0.50400001928E-02 0.  1.
    10030    2    1    2    0    0  0.00000000000E+00  0.00000000000E+00 -0.59386077344E+03  0.32375911495E+04  0.31826601818E+04 0.  0.
        3    1    3    3  502    0 -0.12281563396E+04 -0.66095159956E+03  0.48252301060E+03  0.14758229831E+04  0.10100000352E+00 0.  1.
       -3    1    3    3    0  502  0.12281563396E+04  0.66095159956E+03 -0.10763837840E+04  0.17617681664E+04  0.10100000352E+00 0. -1.
</event>
<event>
 5   0  0.7952307E-06  0.3178754E+04  0.7818609E-02  0.8194451E-01
        2   -1    0    0  501    0  0.00000000000E+00  0.00000000000E+00  0.13475211680E+04  0.13475211680E+04  0.25500000920E-02 0. -1.
       -2   -1    0    0    0  501  0.00000000000E+00  0.00000000000E+00 -0.18746421593E+04  0.18746421593E+04  0.25500000920E-02 0.  1.
    10030    2    1    2    0    0  0.00000000000E+00  0.00000000000E+00 -0.52712099131E+03  0.32221633274E+04  0.31787544681E+04 0.  0.
        2    1    3    3  502    0 -0.14485533098E+04 -0.41076627579E+03 -0.77951471887E+03  0.16954877828E+04  0.25500000920E-02 0.  1.
       -2    1    3    3    0  502  0.14485533098E+04  0.41076627579E+03  0.25239372756E+03  0.15266755446E+04  0.25500000920E-02 0. -1.
</event>
<event>
 5   0  0.2788054E-06  0.3118727E+04  0.7818609E-02  0.8210617E-01
       -1   -1    0    0    0  501  0.00000000000E+00  0.00000000000E+00  0.19356916353E+04  0.19356916353E+04  0.50400001928E-02 0. -1.
        1   -1    0    0  501    0  0.00000000000E+00  0.00000000000E+00 -0.12561991659E+04  0.12561991659E+04  0.50400001928E-02 0.  1.
    10030    2    1    2    0    0  0.00000000000E+00  0.00000000000E+00  0.67949246933E+03  0.31918908012E+04  0.31187268029E+04 0.  0.
        3    1    3    3  502    0 -0.18815170671E+01  0.13540083078E+04  0.11313723135E+04  0.17644674437E+04  0.10100000352E+00 0. -1.
       -3    1    3    3    0  502  0.18815170671E+01 -0.13540083078E+04 -0.45187984421E+03  0.14274233575E+04  0.10100000352E+00 0.  1.
</event>
<event>
 5   0  0.7941434E-06  0.3205286E+04  0.7818609E-02  0.8187423E-01
       -2   -1    0    0    0  501  0.00000000000E+00  0.00000000000E+00  0.24867881372E+04  0.24867881372E+04  0.25500000920E-02 0. -1.
        2   -1    0    0  501    0  0.00000000000E+00  0.00000000000E+00 -0.10328440827E+04  0.10328440827E+04  0.25500000920E-02 0.  1.
    10030    2    1    2    0    0  0.00000000000E+00  0.00000000000E+00  0.14539440545E+04  0.35196322199E+04  0.32052858921E+04 0.  0.
        4    1    3    3  502    0 -0.13985529145E+04  0.74524727284E+03  0.46453748929E+03  0.16514055965E+04  0.12699999809E+01 0.  1.
       -4    1    3    3    0  502  0.13985529145E+04 -0.74524727284E+03  0.98940656524E+03  0.18682266234E+04  0.12699999809E+01 0. -1.
</event>
<event>
 5   0  0.7971763E-06  0.3284434E+04  0.7818609E-02  0.8166868E-01
        2   -1    0    0  501    0  0.00000000000E+00  0.00000000000E+00  0.21285375780E+04  0.21285375780E+04  0.25500000920E-02 0.  1.
       -2   -1    0    0    0  501  0.00000000000E+00  0.00000000000E+00 -0.12670090005E+04  0.12670090005E+04  0.25500000920E-02 0. -1.
    10030    2    1    2    0    0  0.00000000000E+00  0.00000000000E+00  0.86152857752E+03  0.33955465785E+04  0.32844337529E+04 0.  0.
        1    1    3    3  502    0  0.84471735606E+03 -0.88055290204E+03  0.15670162439E+04  0.19860666488E+04  0.50400001928E-02 0.  1.
       -1    1    3    3    0  502 -0.84471735606E+03  0.88055290204E+03 -0.70548766634E+03  0.14094799297E+04  0.50400001928E-02 0. -1.
</event>
<event>
 5   0  0.7510251E-06  0.3295808E+04  0.7818609E-02  0.8163963E-01
       -2   -1    0    0    0  501  0.00000000000E+00  0.00000000000E+00  0.26894964451E+04  0.26894964451E+04  0.25500000920E-02 0. -1.
        2   -1    0    0  501    0  0.00000000000E+00  0.00000000000E+00 -0.10097012396E+04  0.10097012396E+04  0.25500000920E-02 0.  1.
    10030    2    1    2    0    0  0.00000000000E+00  0.00000000000E+00  0.16797952055E+04  0.36991976847E+04  0.32958081828E+04 0.  0.
        3    1    3    3  502    0 -0.16311275650E+04 -0.23439477125E+03  0.83051757311E+03  0.18453393974E+04  0.10100000352E+00 0.  1.
       -3    1    3    3    0  502  0.16311275650E+04  0.23439477125E+03  0.84927763243E+03  0.18538582873E+04  0.10100000352E+00 0. -1.
</event>
<event>
 5   0  0.7510251E-06  0.3223048E+04  0.7818609E-02  0.8182757E-01
        2   -1    0    0  501    0  0.00000000000E+00  0.00000000000E+00  0.16254698676E+04  0.16254698676E+04  0.25500000920E-02 0.  1.
       -2   -1    0    0    0  501  0.00000000000E+00  0.00000000000E+00 -0.15976978403E+04  0.15976978403E+04  0.25500000920E-02 0. -1.
    10030    2    1    2    0    0  0.00000000000E+00  0.00000000000E+00  0.27772027307E+02  0.32231677080E+04  0.32230480586E+04 0.  0.
        3    1    3    3  502    0  0.13657593150E+04  0.38594157745E+03  0.77730172452E+03  0.16181617314E+04  0.10100000352E+00 0.  1.
       -3    1    3    3    0  502 -0.13657593150E+04 -0.38594157745E+03 -0.74952969721E+03  0.16050059766E+04  0.10100000352E+00 0. -1.
</event>
<event>
 5   0  0.8237664E-06  0.3138748E+04  0.7818609E-02  0.8205183E-01
        2   -1    0    0  501    0  0.00000000000E+00  0.00000000000E+00  0.18225561414E+04  0.18225561414E+04  0.25500000920E-02 0.  1.
       -2   -1    0    0    0  501  0.00000000000E+00  0.00000000000E+00 -0.13513633228E+04  0.13513633228E+04  0.25500000920E-02 0. -1.
    10030    2    1    2    0    0  0.00000000000E+00  0.00000000000E+00  0.47119281867E+03  0.31739194642E+04  0.31387484915E+04 0.  0.
        5    1    3    3  502    0 -0.92354424929E+03 -0.31175464632E+03  0.14793332305E+04  0.17716020537E+04  0.46999998093E+01 0.  1.
       -5    1    3    3    0  502  0.92354424929E+03  0.31175464632E+03 -0.10081404118E+04  0.14023174105E+04  0.46999998093E+01 0. -1.
</event>
<event>
 5   0  0.2788054E-06  0.3192404E+04  0.7818609E-02  0.8190826E-01
        1   -1    0    0  501    0  0.00000000000E+00  0.00000000000E+00  0.18288430106E+04  0.18288430106E+04  0.50400001928E-02 0. -1.
       -1   -1    0    0    0  501  0.00000000000E+00  0.00000000000E+00 -0.13931541574E+04  0.13931541574E+04  0.50400001928E-02 0.  1.
    10030    2    1    2    0    0  0.00000000000E+00  0.00000000000E+00  0.43568885321E+03  0.32219971679E+04  0.31924036357E+04 0.  0.
        3    1    3    3  502    0 -0.72265451259E+03  0.14230849601E+04  0.23948814652E+03  0.16139253176E+04  0.10100000352E+00 0.  1.
       -3    1    3    3    0  502  0.72265451259E+03 -0.14230849601E+04  0.19620070668E+03  0.16080718503E+04  0.10100000352E+00 0. -1.
</event>
<event>
 5   0  0.2635798E-06  0.2450715E+04  0.7818609E-02  0.8420757E-01
       -1   -1    0    0    0  501  0.00000000000E+00  0.00000000000E+00  0.64210823448E+03  0.64210823450E+03  0.50400001928E-02 0.  1.
        1   -1    0    0  501    0  0.00000000000E+00  0.00000000000E+00 -0.23383930555E+04  0.23383930555E+04  0.50400001928E-02 0. -1.
    10030    2    1    2    0    0  0.00000000000E+00  0.00000000000E+00 -0.16962848210E+04  0.29805012900E+04  0.24507153539E+04 0.  0.
        1    1    3    3  502    0 -0.54182253877E+03 -0.76252891234E+03 -0.18107512615E+04  0.20380976759E+04  0.50400001928E-02 0. -1.
       -1    1    3    3    0  502  0.54182253877E+03  0.76252891234E+03  0.11446644052E+03  0.94240361402E+03  0.50400001928E-02 0.  1.
</event>
<event>
 5   0  0.7941434E-06  0.2763195E+04  0.7818609E-02  0.8314787E-01
       -2   -1    0    0    0  501  0.00000000000E+00  0.00000000000E+00  0.11926000868E+04  0.11926000868E+04  0.25500000920E-02 0. -1.
        2   -1    0    0  501    0  0.00000000000E+00  0.00000000000E+00 -0.16005468211E+04  0.16005468211E+04  0.25500000920E-02 0.  1.
    10030    2    1    2    0    0  0.00000000000E+00  0.00000000000E+00 -0.40794673427E+03  0.27931469079E+04  0.27631954529E+04 0.  0.
        4    1    3    3  502    0  0.96231273582E+03 -0.89815022716E+03 -0.62815395839E+03  0.14585261878E+04  0.12699999809E+01 0.  1.
       -4    1    3    3    0  502 -0.96231273582E+03  0.89815022716E+03  0.22020722412E+03  0.13346207201E+04  0.12699999809E+01 0. -1.
</event>
<event>
 5   0  0.2788054E-06  0.1890236E+04  0.7818609E-02  0.8659732E-01
       -1   -1    0    0    0  501  0.00000000000E+00  0.00000000000E+00  0.36875200613E+03  0.36875200616E+03  0.50400001928E-02 0.  1.
        1   -1    0    0  501    0  0.00000000000E+00  0.00000000000E+00 -0.24223554024E+04  0.24223554024E+04  0.50400001928E-02 0. -1.
    10030    2    1    2    0    0  0.00000000000E+00  0.00000000000E+00 -0.20536033963E+04  0.27911074086E+04  0.18902364024E+04 0.  0.
        3    1    3    3  502    0 -0.90852934762E+03 -0.20898104986E+03 -0.79733654586E+03  0.12267209268E+04  0.10100000352E+00 0.  1.
       -3    1    3    3    0  502  0.90852934762E+03  0.20898104986E+03 -0.12562668504E+04  0.15643864818E+04  0.10100000352E+00 0. -1.
</event>
<event>
 5   0  0.3938696E-06  0.3115196E+04  0.7818609E-02  0.8211580E-01
        1   -1    0    0  501    0  0.00000000000E+00  0.00000000000E+00  0.29004829253E+04  0.29004829253E+04  0.50400001928E-02 0. -1.
       -1   -1    0    0    0  501  0.00000000000E+00  0.00000000000E+00 -0.83645115979E+03  0.83645115980E+03  0.50400001928E-02 0.  1.
    10030    2    1    2    0    0  0.00000000000E+00  0.00000000000E+00  0.20640317655E+04  0.37369340851E+04  0.31151964990E+04 0.  0.
        4    1    3    3  502    0  0.98697843239E+03 -0.11723584512E+04  0.13660945122E+04  0.20529896720E+04  0.12699999809E+01 0.  1.
       -4    1    3    3    0  502 -0.98697843239E+03  0.11723584512E+04  0.69793725330E+03  0.16839444131E+04  0.12699999809E+01 0. -1.
</event>
<event>
 5   0  0.4142886E-06  0.3182591E+04  0.7818609E-02  0.8193430E-01
       -1   -1    0    0    0  501  0.00000000000E+00  0.00000000000E+00  0.14711756799E+04  0.14711756799E+04  0.50400001928E-02 0. -1.
        1   -1    0    0  501    0  0.00000000000E+00  0.00000000000E+00 -0.17212228902E+04  0.17212228902E+04  0.50400001928E-02 0.  1.
    10030    2    1    2    0    0  0.00000000000E+00  0.00000000000E+00 -0.25004721035E+03  0.31923985701E+04  0.31825909293E+04 0.  0.
        5    1    3    3  502    0 -0.11266309893E+03 -0.17906129817E+03 -0.17070469108E+04  0.17201125451E+04  0.46999998093E+01 0.  1.
       -5    1    3    3    0  502  0.11266309893E+03  0.17906129817E+03  0.14569997004E+04  0.14722860250E+04  0.46999998093E+01 0. -1.
</event>
<event>
 5   0  0.2788054E-06  0.3151079E+04  0.7818609E-02  0.8201858E-01
        1   -1    0    0  501    0  0.00000000000E+00  0.00000000000E+00  0.19750443319E+04  0.19750443320E+04  0.50400001928E-02 0. -1.
       -1   -1    0    0    0  501  0.00000000000E+00  0.00000000000E+00 -0.12568453922E+04  0.12568453922E+04  0.50400001928E-02 0.  1.
    10030    2    1    2    0    0  0.00000000000E+00  0.00000000000E+00  0.71819893975E+03  0.32318897242E+04  0.31510794138E+04 0.  0.
        3    1    3    3  502    0 -0.12009925348E+03 -0.85674983027E+03  0.17096376336E+04  0.19160649652E+04  0.10100000352E+00 0. -1.
       -3    1    3    3    0  502  0.12009925348E+03  0.85674983027E+03 -0.99143869388E+03  0.13158247590E+04  0.10100000352E+00 0.  1.
</event>
<event>
 5   0  0.2580875E-06  0.3213948E+04  0.7818609E-02  0.8185143E-01
        3   -1    0    0  501    0  0.00000000000E+00  0.00000000000E+00  0.29611272019E+04  0.29611272036E+04  0.10100000352E+00 0. -1.
       -3   -1    0    0    0  501  0.00000000000E+00  0.00000000000E+00 -0.87208886698E+03  0.87208887283E+03  0.10100000352E+00 0.  1.
    10030    2    1    2    0    0  0.00000000000E+00  0.00000000000E+00  0.20890383349E+04  0.38332160765E+04  0.32139484010E+04 0.  0.
        1    1    3    3  502    0  0.48038689105E+03 -0.90221750721E+03  0.25234430277E+04  0.27225966851E+04  0.50400001928E-02 0. -1.
       -1    1    3    3    0  502 -0.48038689105E+03  0.90221750721E+03 -0.43440469278E+03  0.11106193914E+04  0.50400001928E-02 0.  1.
</event>
<event>
 5   0  0.2933646E-06  0.3201721E+04  0.7818609E-02  0.8188363E-01
       -1   -1    0    0    0  501  0.00000000000E+00  0.00000000000E+00  0.12246307396E+04  0.12246307396E+04  0.50400001928E-02 0.  1.
        1   -1    0    0  501    0  0.00000000000E+00  0.00000000000E+00 -0.20926747827E+04  0.20926747827E+04  0.50400001928E-02 0. -1.
    10030    2    1    2    0    0  0.00000000000E+00  0.00000000000E+00 -0.86804404302E+03  0.33173055223E+04  0.32017207042E+04 0.  0.
        2    1    3    3  502    0  0.50042402039E+02  0.34202612117E+03  0.11855026159E+04  0.12348694513E+04  0.25500000920E-02 0.  1.
       -2    1    3    3    0  502 -0.50042402039E+02 -0.34202612117E+03 -0.20535466589E+04  0.20824360710E+04  0.25500000920E-02 0. -1.
</event>
<event>
 5   0  0.2933646E-06  0.3157229E+04  0.7818609E-02  0.8200205E-01
       -1   -1    0    0    0  501  0.00000000000E+00  0.00000000000E+00  0.14017086130E+04  0.14017086130E+04  0.50400001928E-02 0.  1.
        1   -1    0    0  501    0  0.00000000000E+00  0.00000000000E+00 -0.17778469004E+04  0.17778469004E+04  0.50400001928E-02 0. -1.
    10030    2    1    2    0    0  0.00000000000E+00  0.00000000000E+00 -0.37613828741E+03  0.31795555135E+04  0.31572287297E+04 0.  0.
        2    1    3    3  502    0 -0.26676616691E+03  0.10802226907E+04 -0.13157996676E+04  0.17231871676E+04  0.25500000920E-02 0. -1.
       -2    1    3    3    0  502  0.26676616691E+03 -0.10802226907E+04  0.93966138020E+03  0.14563683458E+04  0.25500000920E-02 0.  1.
</event>
<event>
 5   0  0.8237664E-06  0.3183428E+04  0.7818609E-02  0.8193207E-01
       -2   -1    0    0    0  501  0.00000000000E+00  0.00000000000E+00  0.15758825612E+04  0.15758825612E+04  0.25500000920E-02 0.  1.
        2   -1    0    0  501    0  0.00000000000E+00  0.00000000000E+00 -0.16077048484E+04  0.16077048484E+04  0.25500000920E-02 0. -1.
    10030    2    1    2    0    0  0.00000000000E+00  0.00000000000E+00 -0.31822287140E+02  0.31835874096E+04  0.31834283621E+04 0.  0.
        5    1    3    3  502    0  0.12709787879E+04  0.40357785718E+03  0.85319486152E+03  0.15831063539E+04  0.46999998093E+01 0. -1.
       -5    1    3    3    0  502 -0.12709787879E+04 -0.40357785718E+03 -0.88501714867E+03  0.16004810557E+04  0.46999998093E+01 0.  1.
</event>
<event>
 5   0  0.2788054E-06  0.3230822E+04  0.7818609E-02  0.8180724E-01
        1   -1    0    0  501    0  0.00000000000E+00  0.00000000000E+00  0.69523291073E+03  0.69523291075E+03  0.50400001928E-02 0. -1.
       -1   -1    0    0    0  501  0.00000000000E+00  0.00000000000E+00 -0.37534952388E+04  0.37534952388E+04  0.50400001928E-02 0.  1.
    10030    2    1    2    0    0  0.00000000000E+00  0.00000000000E+00 -0.30582623280E+04  0.44487281495E+04  0.32308224466E+04 0.  0.
        3    1    3    3  502    0 -0.91643315745E+03 -0.13302831619E+04 -0.15193569196E+04  0.22176448053E+04  0.10100000352E+00 0.  1.
       -3    1    3    3    0  502  0.91643315745E+03  0.13302831619E+04 -0.15389054084E+04  0.22310833443E+04  0.10100000352E+00 0. -1.
</event>
<event>
 5   0  0.8237664E-06  0.3186973E+04  0.7818609E-02  0.8192266E-01
        2   -1    0    0  501    0  0.00000000000E+00  0.00000000000E+00  0.16977116755E+04  0.16977116755E+04  0.25500000920E-02 0. -1.
       -2   -1    0    0    0  501  0.00000000000E+00  0.00000000000E+00 -0.14956595723E+04  0.14956595724E+04  0.25500000920E-02 0.  1.
    10030    2    1    2    0    0  0.00000000000E+00  0.00000000000E+00  0.20205210317E+03  0.31933712479E+04  0.31869726818E+04 0.  0.
        5    1    3    3  502    0  0.73883901983E+03  0.53266089036E+03  0.14111548530E+04  0.16795805520E+04  0.46999998093E+01 0. -1.
       -5    1    3    3    0  502 -0.73883901983E+03 -0.53266089036E+03 -0.12091027498E+04  0.15137906959E+04  0.46999998093E+01 0.  1.
</event>
<event>
 5   0  0.4142886E-06  0.2038208E+04  0.7818609E-02  0.8588963E-01
        1   -1    0    0  501    0  0.00000000000E+00  0.00000000000E+00  0.78895360883E+03  0.78895360884E+03  0.50400001928E-02 0.  1.
       -1   -1    0    0    0  501  0.00000000000E+00  0.00000000000E+00 -0.13163924300E+04  0.13163924301E+04  0.50400001928E-02 0. -1.
    10030    2    1    2    0    0  0.00000000000E+00  0.00000000000E+00 -0.52743882122E+03  0.21053460389E+04  0.20382076031E+04 0.  0.
        5    1    3    3  502    0 -0.95633650763E+03 -0.29778712288E+03 -0.69664708975E+02  0.10040577414E+04  0.46999998093E+01 0.  1.
       -5    1    3    3    0  502  0.95633650763E+03  0.29778712288E+03 -0.45777411225E+03  0.11012882975E+04  0.46999998093E+01 0. -1.
</event>
<event>
 5   0  0.7941434E-06  0.1593625E+04  0.7818609E-02  0.8824474E-01
       -2   -1    0    0    0  501  0.00000000000E+00  0.00000000000E+00  0.11553048659E+04  0.11553048659E+04  0.25500000920E-02 0.  1.
        2   -1    0    0  501    0  0.00000000000E+00  0.00000000000E+00 -0.54956100226E+03  0.54956100227E+03  0.25500000920E-02 0. -1.
    10030    2    1    2    0    0  0.00000000000E+00  0.00000000000E+00  0.60574386361E+03  0.17048658681E+04  0.15936254265E+04 0.  0.
        4    1    3    3  502    0 -0.66695367274E+03 -0.42079849459E+03  0.18084720905E+03  0.80907719072E+03  0.12699999809E+01 0. -1.
       -4    1    3    3    0  502  0.66695367274E+03  0.42079849459E+03  0.42489665456E+03  0.89578867742E+03  0.12699999809E+01 0.  1.
</event>
<event>
 5   0  0.3938696E-06  0.3128008E+04  0.7818609E-02  0.8208093E-01
        1   -1    0    0  501    0  0.00000000000E+00  0.00000000000E+00  0.14527792145E+04  0.14527792146E+04  0.50400001928E-02 0. -1.
       -1   -1    0    0    0  501  0.00000000000E+00  0.00000000000E+00 -0.16837439681E+04  0.16837439681E+04  0.50400001928E-02 0.  1.
    10030    2    1    2    0    0  0.00000000000E+00  0.00000000000E+00 -0.23096475355E+03  0.31365231827E+04  0.31280078258E+04 0.  0.
        4    1    3    3  502    0  0.79094186080E+03  0.13355227725E+04 -0.30808996580E+03  0.15824446730E+04  0.12699999809E+01 0. -1.
       -4    1    3    3    0  502 -0.79094186080E+03 -0.13355227725E+04  0.77125212248E+02  0.15540785097E+04  0.12699999809E+01 0.  1.
</event>
<event>
 5   0  0.7941434E-06  0.1827387E+04  0.7818609E-02  0.8691869E-01
        2   -1    0    0  501    0  0.00000000000E+00  0.00000000000E+00  0.91612640662E+03  0.91612640662E+03  0.25500000920E-02 0. -1.
       -2   -1    0    0    0  501  0.00000000000E+00  0.00000000000E+00 -0.91126708091E+03  0.91126708092E+03  0.25500000920E-02 0.  1.
    10030    2    1    2    0    0  0.00000000000E+00  0.00000000000E+00  0.48593257070E+01  0.18273934875E+04  0.18273870267E+04 0.  0.
        4    1    3    3  502    0 -0.80637698490E+03  0.15772525182E+03 -0.39721299745E+03  0.91263403130E+03  0.12699999809E+01 0.  1.
       -4    1    3    3    0  502  0.80637698490E+03 -0.15772525182E+03  0.40207232315E+03  0.91475945624E+03  0.12699999809E+01 0. -1.
</event>
<event>
 5   0  0.7952307E-06  0.3264462E+04  0.7818609E-02  0.8171997E-01
       -2   -1    0    0    0  501  0.00000000000E+00  0.00000000000E+00  0.13976676942E+04  0.13976676942E+04  0.25500000920E-02 0.  1.
        2   -1    0    0  501    0  0.00000000000E+00  0.00000000000E+00 -0.19061598512E+04  0.19061598512E+04  0.25500000920E-02 0. -1.
    10030    2    1    2    0    0  0.00000000000E+00  0.00000000000E+00 -0.50849215701E+03  0.33038275454E+04  0.32644620040E+04 0.  0.
        2    1    3    3  502    0 -0.11201238963E+04  0.11411694278E+04 -0.58565916354E+03  0.17029215666E+04  0.25500000920E-02 0.  1.
       -2    1    3    3    0  502  0.11201238963E+04 -0.11411694278E+04  0.77167006531E+02  0.16009059788E+04  0.25500000920E-02 0. -1.
</event>
<event>
 5   0  0.2635798E-06  0.2903597E+04  0.7818609E-02  0.8271808E-01
        1   -1    0    0  501    0  0.00000000000E+00  0.00000000000E+00  0.14718490834E+04  0.14718490834E+04  0.50400001928E-02 0.  1.
       -1   -1    0    0    0  501  0.00000000000E+00  0.00000000000E+00 -0.14320212147E+04  0.14320212147E+04  0.50400001928E-02 0. -1.
    10030    2    1    2    0    0  0.00000000000E+00  0.00000000000E+00  0.39827868688E+02  0.29038702981E+04  0.29035971568E+04 0.  0.
        1    1    3    3  502    0 -0.34781983421E+03  0.30138046627E+02 -0.13894142053E+04  0.14326055887E+04  0.50400001928E-02 0. -1.
       -1    1    3    3    0  502  0.34781983421E+03 -0.30138046627E+02  0.14292420740E+04  0.14712647094E+04  0.50400001928E-02 0.  1.
</event>
<event>
 5   0  0.2635798E-06  0.3185598E+04  0.7818609E-02  0.8192631E-01
       -1   -1    0    0    0  501  0.00000000000E+00  0.00000000000E+00  0.13529310334E+04  0.13529310334E+04  0.50400001928E-02 0.  1.
        1   -1    0    0  501    0  0.00000000000E+00  0.00000000000E+00 -0.18751945725E+04  0.18751945725E+04  0.50400001928E-02 0. -1.
    10030    2    1    2    0    0  0.00000000000E+00  0.00000000000E+00 -0.52226353907E+03  0.32281256059E+04  0.31855981736E+04 0.  0.
        1    1    3    3  502    0 -0.13232847356E+04  0.80870463167E+03 -0.62919303537E+03  0.16736097360E+04  0.50400001928E-02 0. -1.
       -1    1    3    3    0  502  0.13232847356E+04 -0.80870463167E+03  0.10692949630E+03  0.15545158699E+04  0.50400001928E-02 0.  1.
</event>
<event>
 5   0  0.8237664E-06  0.3172669E+04  0.7818609E-02  0.8196073E-01
       -2   -1    0    0    0  501  0.00000000000E+00  0.00000000000E+00  0.15483193374E+04  0.15483193374E+04  0.25500000920E-02 0. -1.
        2   -1    0    0  501    0  0.00000000000E+00  0.00000000000E+00 -0.16252831535E+04  0.16252831535E+04  0.25500000920E-02 0.  1.
    10030    2    1    2    0    0  0.00000000000E+00  0.00000000000E+00 -0.76963816062E+02  0.31736024909E+04  0.31726691194E+04 0.  0.
        5    1    3    3  502    0  0.13939768822E+04 -0.43397304111E+03  0.58212877247E+03  0.15717506629E+04  0.46999998093E+01 0. -1.
       -5    1    3    3    0  502 -0.13939768822E+04  0.43397304111E+03 -0.65909258853E+03  0.16018518280E+04  0.46999998093E+01 0.  1.
</event>
<event>
 5   0  0.7510251E-06  0.2995424E+04  0.7818609E-02  0.8245039E-01
        2   -1    0    0  501    0  0.00000000000E+00  0.00000000000E+00  0.12434290474E+04  0.12434290474E+04  0.25500000920E-02 0.  1.
       -2   -1    0    0    0  501  0.00000000000E+00  0.00000000000E+00 -0.18039964940E+04  0.18039964941E+04  0.25500000920E-02 0. -1.
    10030    2    1    2    0    0  0.00000000000E+00  0.00000000000E+00 -0.56056744661E+03  0.30474255415E+04  0.29954242719E+04 0.  0.
        3    1    3    3  502    0  0.69863464828E+03 -0.75984261679E+02  0.10652795744E+04  0.12761992641E+04  0.10100000352E+00 0.  1.
       -3    1    3    3    0  502 -0.69863464828E+03  0.75984261679E+02 -0.16258470210E+04  0.17712262774E+04  0.10100000352E+00 0. -1.
</event>
<event>
 5   0  0.8237664E-06  0.3227650E+04  0.7818609E-02  0.8181553E-01
        2   -1    0    0  501    0  0.00000000000E+00  0.00000000000E+00  0.12741678331E+04  0.12741678331E+04  0.25500000920E-02 0. -1.
       -2   -1    0    0    0  501  0.00000000000E+00  0.00000000000E+00 -0.20440246684E+04  0.20440246684E+04  0.25500000920E-02 0.  1.
    10030    2    1    2    0    0  0.00000000000E+00  0.00000000000E+00 -0.76985683534E+03  0.33181925015E+04  0.32276495984E+04 0.  0.
        5    1    3    3  502    0 -0.99082130082E+03 -0.48515765372E+03 -0.15958079899E+04  0.19400335125E+04  0.46999998093E+01 0.  1.
       -5    1    3    3    0  502  0.99082130082E+03  0.48515765372E+03  0.82595115455E+03  0.13781589889E+04  0.46999998093E+01 0. -1.
</event>
<event>
 5   0  0.2933646E-06  0.3144863E+04  0.7818609E-02  0.8203532E-01
        1   -1    0    0  501    0  0.00000000000E+00  0.00000000000E+00  0.13833987335E+04  0.13833987335E+04  0.50400001928E-02 0. -1.
       -1   -1    0    0    0  501  0.00000000000E+00  0.00000000000E+00 -0.17872943530E+04  0.17872943530E+04  0.50400001928E-02 0.  1.
    10030    2    1    2    0    0  0.00000000000E+00  0.00000000000E+00 -0.40389561952E+03  0.31706930865E+04  0.31448629504E+04 0.  0.
        2    1    3    3  502    0 -0.50395034239E+03 -0.13338380164E+03 -0.16976362872E+04  0.17758733485E+04  0.25500000920E-02 0.  1.
       -2    1    3    3    0  502  0.50395034239E+03  0.13338380164E+03  0.12937406677E+04  0.13948197380E+04  0.25500000920E-02 0. -1.
</event>
<event>
 5   0  0.7941434E-06  0.3197524E+04  0.7818609E-02  0.8189471E-01
        2   -1    0    0  501    0  0.00000000000E+00  0.00000000000E+00  0.91965561999E+03  0.91965561999E+03  0.25500000920E-02 0.  1.
       -2   -1    0    0    0  501  0.00000000000E+00  0.00000000000E+00 -0.27793450126E+04  0.27793450126E+04  0.25500000920E-02 0. -1.
    10030    2    1    2    0    0  0.00000000000E+00  0.00000000000E+00 -0.18596893926E+04  0.36990006326E+04  0.31975242052E+04 0.  0.
        4    1    3    3  502    0 -0.15466117282E+03  0.10338429705E+04 -0.23292237333E+04  0.25530444921E+04  0.12699999809E+01 0. -1.
       -4    1    3    3    0  502  0.15466117282E+03 -0.10338429705E+04  0.46953434070E+03  0.11459561405E+04  0.12699999809E+01 0.  1.
</event>
<event>
 5   0  0.2788054E-06  0.1663171E+04  0.7818609E-02  0.8782653E-01
        1   -1    0    0  501    0  0.00000000000E+00  0.00000000000E+00  0.89490350340E+03  0.89490350341E+03  0.50400001928E-02 0.  1.
       -1   -1    0    0    0  501  0.00000000000E+00  0.00000000000E+00 -0.77274732558E+03  0.77274732560E+03  0.50400001928E-02 0. -1.
    10030    2    1    2    0    0  0.00000000000E+00  0.00000000000E+00  0.12215617782E+03  0.16676508290E+04  0.16631708138E+04 0.  0.
        3    1    3    3  502    0  0.33127444030E+03  0.21893327266E+03  0.79370329459E+03  0.88749054233E+03  0.10100000352E+00 0.  1.
       -3    1    3    3    0  502 -0.33127444030E+03 -0.21893327266E+03 -0.67154711678E+03  0.78016028669E+03  0.10100000352E+00 0. -1.
</event>
<event>
 5   0  0.7510251E-06  0.3185546E+04  0.7818609E-02  0.8192645E-01
        2   -1    0    0  501    0  0.00000000000E+00  0.00000000000E+00  0.10896719801E+04  0.10896719801E+04  0.25500000920E-02 0.  1.
       -2   -1    0    0    0  501  0.00000000000E+00  0.00000000000E+00 -0.23281557763E+04  0.23281557763E+04  0.25500000920E-02 0. -1.
    10030    2    1    2    0    0  0.00000000000E+00  0.00000000000E+00 -0.12384837961E+04  0.34178277564E+04  0.31855461791E+04 0.  0.
        3    1    3    3  502    0 -0.99335924979E+03  0.99509347142E+03 -0.14221056613E+04  0.19998395281E+04  0.10100000352E+00 0.  1.
       -3    1    3    3    0  502  0.99335924979E+03 -0.99509347142E+03  0.18362186521E+03  0.14179882283E+04  0.10100000352E+00 0. -1.
</event>
<event>
 5   0  0.2635798E-06  0.3185802E+04  0.7818609E-02  0.8192577E-01
        1   -1    0    0  501    0  0.00000000000E+00  0.00000000000E+00  0.21219390958E+04  0.21219390958E+04  0.50400001928E-02 0. -1.
       -1   -1    0    0    0  501  0.00000000000E+00  0.00000000000E+00 -0.11957615614E+04  0.11957615614E+04  0.50400001928E-02 0.  1.
    10030    2    1    2    0    0  0.00000000000E+00  0.00000000000E+00  0.92617753441E+03  0.33177006572E+04  0.31858017555E+04 0.  0.
        1    1    3    3  502    0  0.28424478302E+03 -0.12653151616E+04 -0.50014662436E+03  0.13899511505E+04  0.50400001928E-02 0.  1.
       -1    1    3    3    0  502 -0.28424478302E+03  0.12653151616E+04  0.14263241588E+04  0.19277495067E+04  0.50400001928E-02 0. -1.
</event>
<event>
 5   0  0.8237664E-06  0.3225575E+04  0.7818609E-02  0.8182095E-01
       -2   -1    0    0    0  501  0.00000000000E+00  0.00000000000E+00  0.10436541358E+04  0.10436541358E+04  0.25500000920E-02 0. -1.
        2   -1    0    0  501    0  0.00000000000E+00  0.00000000000E+00 -0.24922852138E+04  0.24922852138E+04  0.25500000920E-02 0.  1.
    10030    2    1    2    0    0  0.00000000000E+00  0.00000000000E+00 -0.14486310779E+04  0.35359393496E+04  0.32255751555E+04 0.  0.
        5    1    3    3  502    0  0.20527732897E+03 -0.22315469668E+03  0.10121204576E+04  0.10565730979E+04  0.46999998093E+01 0. -1.
       -5    1    3    3    0  502 -0.20527732897E+03  0.22315469668E+03 -0.24607515355E+04  0.24793662517E+04  0.46999998093E+01 0.  1.
</event>
<event>
 5   0  0.3938696E-06  0.2487425E+04  0.7818609E-02  0.8407479E-01
       -1   -1    0    0    0  501  0.00000000000E+00  0.00000000000E+00  0.11418943910E+04  0.11418943910E+04  0.50400001928E-02 0. -1.
        1   -1    0    0  501    0  0.00000000000E+00  0.00000000000E+00 -0.13546089873E+04  0.13546089873E+04  0.50400001928E-02 0.  1.
    10030    2    1    2    0    0  0.00000000000E+00  0.00000000000E+00 -0.21271459634E+03  0.24965033783E+04  0.24874246961E+04 0.  0.
        4    1    3    3  502    0 -0.63514395453E+03 -0.10683493789E+04 -0.61019940590E+02  0.12443887191E+04  0.12699999809E+01 0. -1.
       -4    1    3    3    0  502  0.63514395453E+03  0.10683493789E+04 -0.15169465575E+03  0.12521146592E+04  0.12699999809E+01 0.  1.
</event>
<event>
 5   0  0.7952307E-06  0.3225726E+04  0.7818609E-02  0.8182056E-01
       -2   -1    0    0    0  501  0.00000000000E+00  0.00000000000E+00  0.18582958583E+04  0.18582958583E+04  0.25500000920E-02 0. -1.
        2   -1    0    0  501    0  0.00000000000E+00  0.00000000000E+00 -0.13998456051E+04  0.13998456051E+04  0.25500000920E-02 0.  1.
    10030    2    1    2    0    0  0.00000000000E+00  0.00000000000E+00  0.45845025316E+03  0.32581414634E+04  0.32257261447E+04 0.  0.
        2    1    3    3  502    0 -0.11118921578E+04  0.30521483869E+03  0.13683289141E+04  0.17893530355E+04  0.25500000920E-02 0. -1.
       -2    1    3    3    0  502  0.11118921578E+04 -0.30521483869E+03 -0.90987866093E+03  0.14687884279E+04  0.25500000920E-02 0.  1.
</event>
<event>
 5   0  0.7510251E-06  0.3129114E+04  0.7818609E-02  0.8207793E-01
       -2   -1    0    0    0  501  0.00000000000E+00  0.00000000000E+00  0.11578576174E+04  0.11578576174E+04  0.25500000920E-02 0. -1.
        2   -1    0    0  501    0  0.00000000000E+00  0.00000000000E+00 -0.21141095551E+04  0.21141095551E+04  0.25500000920E-02 0.  1.
    10030    2    1    2    0    0  0.00000000000E+00  0.00000000000E+00 -0.95625193763E+03  0.32719671725E+04  0.31291135182E+04 0.  0.
        3    1    3    3  502    0 -0.64738447520E+03 -0.35330599858E+03 -0.19209400643E+04  0.20576546183E+04  0.10100000352E+00 0.  1.
       -3    1    3    3    0  502  0.64738447520E+03  0.35330599858E+03  0.96468812667E+03  0.12143125542E+04  0.10100000352E+00 0. -1.
</event>
<event>
 5   0  0.4142886E-06  0.3231273E+04  0.7818609E-02  0.8180607E-01
       -1   -1    0    0    0  501  0.00000000000E+00  0.00000000000E+00  0.12125202933E+04  0.12125202933E+04  0.50400001928E-02 0. -1.
        1   -1    0    0  501    0  0.00000000000E+00  0.00000000000E+00 -0.21527731431E+04  0.21527731431E+04  0.50400001928E-02 0.  1.
    10030    2    1    2    0    0  0.00000000000E+00  0.00000000000E+00 -0.94025284983E+03  0.33652934364E+04  0.32312728902E+04 0.  0.
        5    1    3    3  502    0  0.95391625495E+03  0.12692617328E+04 -0.78131255122E+03  0.17695911846E+04  0.46999998093E+01 0.  1.
       -5    1    3    3    0  502 -0.95391625495E+03 -0.12692617328E+04 -0.15894029861E+03  0.15957022518E+04  0.46999998093E+01 0. -1.
</event>
<event>
 5   0  0.2933646E-06  0.2736790E+04  0.7818609E-02  0.8323166E-01
       -1   -1    0    0    0  501  0.00000000000E+00  0.00000000000E+00  0.92445886392E+03  0.92445886394E+03  0.50400001928E-02 0. -1.
        1   -1    0    0  501    0  0.00000000000E+00  0.00000000000E+00 -0.20255147552E+04  0.20255147552E+04  0.50400001928E-02 0.  1.
    10030    2    1    2    0    0  0.00000000000E+00  0.00000000000E+00 -0.11010558913E+04  0.29499736191E+04  0.27367901414E+04 0.  0.
        2    1    3    3  502    0  0.24667221850E+02 -0.50421850700E+02 -0.20242732642E+04  0.20250513778E+04  0.25500000920E-02 0.  1.
       -2    1    3    3    0  502 -0.24667221850E+02  0.50421850700E+02  0.92321737289E+03  0.92492224131E+03  0.25500000920E-02 0. -1.
</event>
<event>
 5   0  0.7941434E-06  0.3284162E+04  0.7818609E-02  0.8166937E-01
       -2   -1    0    0    0  501  0.00000000000E+00  0.00000000000E+00  0.14689615943E+04  0.14689615943E+04  0.25500000920E-02 0. -1.
        2   -1    0    0  501    0  0.00000000000E+00  0.00000000000E+00 -0.18356026001E+04  0.18356026002E+04  0.25500000920E-02 0.  1.
    10030    2    1    2    0    0  0.00000000000E+00  0.00000000000E+00 -0.36664100586E+03  0.33045641944E+04  0.32841618243E+04 0.  0.
        4    1    3    3  502    0 -0.38055498259E+03 -0.11278979221E+04  0.95483523622E+03  0.15260038528E+04  0.12699999809E+01 0. -1.
       -4    1    3    3    0  502  0.38055498259E+03  0.11278979221E+04 -0.13214762421E+04  0.17785603416E+04  0.12699999809E+01 0.  1.
</event>
<event>
 5   0  0.7952307E-06  0.3298267E+04  0.7818609E-02  0.8163336E-01
        2   -1    0    0  501    0  0.00000000000E+00  0.00000000000E+00  0.26058386859E+04  0.26058386859E+04  0.25500000920E-02 0. -1.
       -2   -1    0    0    0  501  0.00000000000E+00  0.00000000000E+00 -0.10436723900E+04  0.10436723900E+04  0.25500000920E-02 0.  1.
    10030    2    1    2    0    0  0.00000000000E+00  0.00000000000E+00  0.15621662958E+04  0.36495110759E+04  0.32982673569E+04 0.  0.
        2    1    3    3  502    0  0.92650915820E+03  0.98327066734E+03 -0.26535865445E+03  0.13768281087E+04  0.25500000920E-02 0.  1.
       -2    1    3    3    0  502 -0.92650915820E+03 -0.98327066734E+03  0.18275249503E+04  0.22726829672E+04  0.25500000920E-02 0. -1.
</event>
<event>
 5   0  0.2933646E-06  0.1753881E+04  0.7818609E-02  0.8731217E-01
        1   -1    0    0  501    0  0.00000000000E+00  0.00000000000E+00  0.15153549936E+04  0.15153549936E+04  0.50400001928E-02 0. -1.
       -1   -1    0    0    0  501  0.00000000000E+00  0.00000000000E+00 -0.50748807807E+03  0.50748807809E+03  0.50400001928E-02 0.  1.
    10030    2    1    2    0    0  0.00000000000E+00  0.00000000000E+00  0.10078669155E+04  0.20228430717E+04  0.17538809462E+04 0.  0.
        2    1    3    3  502    0  0.57516481332E+03 -0.58270821763E+03  0.14166109829E+03  0.83092195551E+03  0.25500000920E-02 0.  1.
       -2    1    3    3    0  502 -0.57516481332E+03  0.58270821763E+03  0.86620581724E+03  0.11919211162E+04  0.25500000920E-02 0. -1.
</event>
<event>
 5   0  0.7952307E-06  0.3163699E+04  0.7818609E-02  0.8198470E-01
        2   -1    0    0  501    0  0.00000000000E+00  0.00000000000E+00  0.20877212191E+04  0.20877212191E+04  0.25500000920E-02 0.  1.
       -2   -1    0    0    0  501  0.00000000000E+00  0.00000000000E+00 -0.11985548648E+04  0.11985548648E+04  0.25500000920E-02 0. -1.
    10030    2    1    2    0    0  0.00000000000E+00  0.00000000000E+00  0.88916635430E+03  0.32862760839E+04  0.31636993685E+04 0.  0.
        2    1    3    3  502    0 -0.11141303226E+04  0.11212903220E+04  0.38165494839E+03  0.16261115773E+04  0.25500000920E-02 0. -1.
       -2    1    3    3    0  502  0.11141303226E+04 -0.11212903220E+04  0.50751140591E+03  0.16601645067E+04  0.25500000920E-02 0.  1.
</event>
<event>
 5   0  0.8237664E-06  0.3152051E+04  0.7818609E-02  0.8201597E-01
        2   -1    0    0  501    0  0.00000000000E+00  0.00000000000E+00  0.11165453352E+04  0.11165453352E+04  0.25500000920E-02 0. -1.
       -2   -1    0    0    0  501  0.00000000000E+00  0.00000000000E+00 -0.22245901613E+04  0.22245901613E+04  0.25500000920E-02 0.  1.
    10030    2    1    2    0    0  0.00000000000E+00  0.00000000000E+00 -0.11080448261E+04  0.33411354965E+04  0.31520506134E+04 0.  0.
        5    1    3    3  502    0  0.11183245701E+04  0.11071897230E+04 -0.64467927238E+03  0.17006329354E+04  0.46999998093E+01 0. -1.
       -5    1    3    3    0  502 -0.11183245701E+04 -0.11071897230E+04 -0.46336555370E+03  0.16405025611E+04  0.46999998093E+01 0.  1.
</event>
<event>
 5   0  0.7941434E-06  0.3146408E+04  0.7818609E-02  0.8203116E-01
        2   -1    0    0  501    0  0.00000000000E+00  0.00000000000E+00  0.20932071567E+04  0.20932071567E+04  0.25500000920E-02 0.  1.
       -2   -1    0    0    0  501  0.00000000000E+00  0.00000000000E+00 -0.11823818016E+04  0.11823818016E+04  0.25500000920E-02 0. -1.
    10030    2    1    2    0    0  0.00000000000E+00  0.00000000000E+00  0.91082535509E+03  0.32755889583E+04  0.31464075064E+04 0.  0.
        4    1    3    3  502    0  0.98962520783E+03  0.10701494009E+04 -0.16082845013E+03  0.14664396324E+04  0.12699999809E+01 0. -1.
       -4    1    3    3    0  502 -0.98962520783E+03 -0.10701494009E+04  0.10716538052E+04  0.18091493259E+04  0.12699999809E+01 0.  1.
</event>
<event>
 5   0  0.7952307E-06  0.3165104E+04  0.7818609E-02  0.8198094E-01
       -2   -1    0    0    0  501  0.00000000000E+00  0.00000000000E+00  0.17915156151E+04  0.17915156151E+04  0.25500000920E-02 0.  1.
        2   -1    0    0  501    0  0.00000000000E+00  0.00000000000E+00 -0.13979622727E+04  0.13979622727E+04  0.25500000920E-02 0. -1.
    10030    2    1    2    0    0  0.00000000000E+00  0.00000000000E+00  0.39355334241E+03  0.31894778877E+04  0.31651042578E+04 0.  0.
        2    1    3    3  502    0 -0.26597720075E+03  0.97945299967E+03 -0.10268223400E+04  0.14437576555E+04  0.25500000920E-02 0. -1.
       -2    1    3    3    0  502  0.26597720075E+03 -0.97945299967E+03  0.14203756824E+04  0.17457202322E+04  0.25500000920E-02 0.  1.
</event>
<event>
 5   0  0.2580875E-06  0.1796241E+04  0.7818609E-02  0.8708301E-01
        4   -1    0    0  501    0  0.00000000000E+00  0.00000000000E+00  0.87712271982E+03  0.87712363925E+03  0.12699999809E+01 0.  1.
       -4   -1    0    0    0  501  0.00000000000E+00  0.00000000000E+00 -0.91961935547E+03  0.91962023241E+03  0.12699999809E+01 0. -1.
    10030    2    1    2    0    0  0.00000000000E+00  0.00000000000E+00 -0.42496635649E+02  0.17967438717E+04  0.17962412356E+04 0.  0.
        1    1    3    3  502    0  0.27334870983E+03  0.51955840274E+02  0.83292372266E+03  0.87816903515E+03  0.50400001928E-02 0.  1.
       -1    1    3    3    0  502 -0.27334870983E+03 -0.51955840274E+02 -0.87542035831E+03  0.91857483651E+03  0.50400001928E-02 0. -1.
</event>
<event>
 5   0  0.2635798E-06  0.3255197E+04  0.7818609E-02  0.8174390E-01
       -1   -1    0    0    0  501  0.00000000000E+00  0.00000000000E+00  0.93485821816E+03  0.93485821817E+03  0.50400001928E-02 0. -1.
        1   -1    0    0  501    0  0.00000000000E+00  0.00000000000E+00 -0.28336663690E+04  0.28336663690E+04  0.50400001928E-02 0.  1.
    10030    2    1    2    0    0  0.00000000000E+00  0.00000000000E+00 -0.18988081508E+04  0.37685245872E+04  0.32551966408E+04 0.  0.
        1    1    3    3  502    0  0.14833811182E+04 -0.52849965513E+03 -0.14258132770E+04  0.21243057520E+04  0.50400001928E-02 0.  1.
       -1    1    3    3    0  502 -0.14833811182E+04  0.52849965513E+03 -0.47299487385E+03  0.16442188352E+04  0.50400001928E-02 0. -1.
</event>
<event>
 5   0  0.7510251E-06  0.1644278E+04  0.7818609E-02  0.8793799E-01
       -2   -1    0    0    0  501  0.00000000000E+00  0.00000000000E+00  0.57795217895E+03  0.57795217896E+03  0.25500000920E-02 0.  1.
        2   -1    0    0  501    0  0.00000000000E+00  0.00000000000E+00 -0.11694958890E+04  0.11694958890E+04  0.25500000920E-02 0. -1.
    10030    2    1    2    0    0  0.00000000000E+00  0.00000000000E+00 -0.59154371007E+03  0.17474480680E+04  0.16442781971E+04 0.  0.
        3    1    3    3  502    0 -0.91576834952E+02 -0.46491236881E+03 -0.10097772802E+04  0.11154281658E+04  0.10100000352E+00 0. -1.
       -3    1    3    3    0  502  0.91576834952E+02  0.46491236881E+03  0.41823357009E+03  0.63201990216E+03  0.10100000352E+00 0.  1.
</event>
<event>
 5   0  0.2635798E-06  0.2815121E+04  0.7818609E-02  0.8298589E-01
        1   -1    0    0  501    0  0.00000000000E+00  0.00000000000E+00  0.22892956443E+04  0.22892956443E+04  0.50400001928E-02 0. -1.
       -1   -1    0    0    0  501  0.00000000000E+00  0.00000000000E+00 -0.86543091575E+03  0.86543091576E+03  0.50400001928E-02 0.  1.
    10030    2    1    2    0    0  0.00000000000E+00  0.00000000000E+00  0.14238647285E+04  0.31547265600E+04  0.28151214722E+04 0.  0.
        1    1    3    3  502    0 -0.10325152513E+04 -0.62728660881E+03  0.15213163394E+04  0.19426733226E+04  0.50400001928E-02 0. -1.
       -1    1    3    3    0  502  0.10325152513E+04  0.62728660881E+03 -0.97451610897E+02  0.12120532374E+04  0.50400001928E-02 0.  1.
</event>
<event>
 5   0  0.7952307E-06  0.3226131E+04  0.7818609E-02  0.8181950E-01
       -2   -1    0    0    0  501  0.00000000000E+00  0.00000000000E+00  0.30196407365E+04  0.30196407365E+04  0.25500000920E-02 0.  1.
        2   -1    0    0  501    0  0.00000000000E+00  0.00000000000E+00 -0.86168535706E+03  0.86168535706E+03  0.25500000920E-02 0. -1.
    10030    2    1    2    0    0  0.00000000000E+00  0.00000000000E+00  0.21579553795E+04  0.38813260936E+04  0.32261309374E+04 0.  0.
        2    1    3    3  502    0  0.34428518229E+03  0.11569279654E+04  0.23663209447E+04  0.26564053563E+04  0.25500000920E-02 0.  1.
       -2    1    3    3    0  502 -0.34428518229E+03 -0.11569279654E+04 -0.20836556521E+03  0.12249207373E+04  0.25500000920E-02 0. -1.
</event>
<event>
 5   0  0.8237664E-06  0.3194235E+04  0.7818609E-02  0.8190341E-01
        2   -1    0    0  501    0  0.00000000000E+00  0.00000000000E+00  0.24282819621E+04  0.24282819621E+04  0.25500000920E-02 0.  1.
       -2   -1    0    0    0  501  0.00000000000E+00  0.00000000000E+00 -0.10504484624E+04  0.10504484624E+04  0.25500000920E-02 0. -1.
    10030    2    1    2    0    0  0.00000000000E+00  0.00000000000E+00  0.13778334997E+04  0.34787304244E+04  0.31942354661E+04 0.  0.
        5    1    3    3  502    0  0.17033616852E+03  0.63779729805E+03 -0.89490116657E+03  0.11120566495E+04  0.46999998093E+01 0. -1.
       -5    1    3    3    0  502 -0.17033616852E+03 -0.63779729805E+03  0.22727346663E+04  0.23666737749E+04  0.46999998093E+01 0.  1.
</event>
<event>
 5   0  0.2788054E-06  0.3230542E+04  0.7818609E-02  0.8180797E-01
       -1   -1    0    0    0  501  0.00000000000E+00  0.00000000000E+00  0.90052505036E+03  0.90052505037E+03  0.50400001928E-02 0. -1.
        1   -1    0    0  501    0  0.00000000000E+00  0.00000000000E+00 -0.28973105513E+04  0.28973105513E+04  0.50400001928E-02 0.  1.
    10030    2    1    2    0    0  0.00000000000E+00  0.00000000000E+00 -0.19967855010E+04  0.37978356017E+04  0.32305422023E+04 0.  0.
        3    1    3    3  502    0 -0.13219346910E+04 -0.58442598081E+03 -0.18461613124E+04  0.23446485144E+04  0.10100000352E+00 0.  1.
       -3    1    3    3    0  502  0.13219346910E+04  0.58442598081E+03 -0.15062418852E+03  0.14531870873E+04  0.10100000352E+00 0. -1.
</event>
<event>
 5   0  0.2635798E-06  0.2361285E+04  0.7818609E-02  0.8454142E-01
        1   -1    0    0  501    0  0.00000000000E+00  0.00000000000E+00  0.15322414622E+04  0.15322414622E+04  0.50400001928E-02 0. -1.
       -1   -1    0    0    0  501  0.00000000000E+00  0.00000000000E+00 -0.90972371854E+03  0.90972371855E+03  0.50400001928E-02 0.  1.
    10030    2    1    2    0    0  0.00000000000E+00  0.00000000000E+00  0.62251774364E+03  0.24419651807E+04  0.23612847357E+04 0.  0.
        1    1    3    3  502    0 -0.17283671534E+03  0.88290371137E+03  0.11019240607E+04  0.14225428391E+04  0.50400001928E-02 0. -1.
       -1    1    3    3    0  502  0.17283671534E+03 -0.88290371137E+03 -0.47940631703E+03  0.10194223416E+04  0.50400001928E-02 0.  1.
</event>
<event>
 5   0  0.4142886E-06  0.3213684E+04  0.7818609E-02  0.8185213E-01
       -1   -1    0    0    0  501  0.00000000000E+00  0.00000000000E+00  0.97074238199E+03  0.97074238200E+03  0.50400001928E-02 0.  1.
        1   -1    0    0  501    0  0.00000000000E+00  0.00000000000E+00 -0.26597591902E+04  0.26597591902E+04  0.50400001928E-02 0. -1.
    10030    2    1    2    0    0  0.00000000000E+00  0.00000000000E+00 -0.16890168082E+04  0.36305015722E+04  0.32136838499E+04 0.  0.
        5    1    3    3  502    0  0.13020468061E+04  0.45741005643E+03 -0.17742797318E+04  0.22478079325E+04  0.46999998093E+01 0. -1.
       -5    1    3    3    0  502 -0.13020468061E+04 -0.45741005643E+03  0.85262923607E+02  0.13826936396E+04  0.46999998093E+01 0.  1.
</event>
<event>
 5   0  0.2788054E-06  0.1755170E+04  0.7818609E-02  0.8730510E-01
       -1   -1    0    0    0  501  0.00000000000E+00  0.00000000000E+00  0.66025672484E+03  0.66025672486E+03  0.50400001928E-02 0.  1.
        1   -1    0    0  501    0  0.00000000000E+00  0.00000000000E+00 -0.11664484731E+04  0.11664484731E+04  0.50400001928E-02 0. -1.
    10030    2    1    2    0    0  0.00000000000E+00  0.00000000000E+00 -0.50619174825E+03  0.18267051980E+04  0.17551700186E+04 0.  0.
        3    1    3    3  502    0 -0.82068115397E+03 -0.84947046264E+02 -0.56431850801E+03  0.99959439066E+03  0.10100000352E+00 0. -1.
       -3    1    3    3    0  502  0.82068115397E+03  0.84947046264E+02  0.58126759759E+02  0.82711080730E+03  0.10100000352E+00 0.  1.
</event>
<event>
 5   0  0.8237664E-06  0.2878856E+04  0.7818609E-02  0.8279196E-01
       -2   -1    0    0    0  501  0.00000000000E+00  0.00000000000E+00  0.20646443732E+04  0.20646443732E+04  0.25500000920E-02 0.  1.
        2   -1    0    0  501    0  0.00000000000E+00  0.00000000000E+00 -0.10035400638E+04  0.10035400638E+04  0.25500000920E-02 0. -1.
    10030    2    1    2    0    0  0.00000000000E+00  0.00000000000E+00  0.10611043094E+04  0.30681844370E+04  0.28788562631E+04 0.  0.
        5    1    3    3  502    0  0.24193205042E+03 -0.14105114055E+04  0.36593469605E+03  0.14771607340E+04  0.46999998093E+01 0. -1.
       -5    1    3    3    0  502 -0.24193205042E+03  0.14105114055E+04  0.69516961338E+03  0.15910237030E+04  0.46999998093E+01 0.  1.
</event>
<event>
 5   0  0.8237664E-06  0.3145487E+04  0.7818609E-02  0.8203364E-01
       -2   -1    0    0    0  501  0.00000000000E+00  0.00000000000E+00  0.15493545736E+04  0.15493545736E+04  0.25500000920E-02 0.  1.
        2   -1    0    0  501    0  0.00000000000E+00  0.00000000000E+00 -0.15964859289E+04  0.15964859289E+04  0.25500000920E-02 0. -1.
    10030    2    1    2    0    0  0.00000000000E+00  0.00000000000E+00 -0.47131355308E+02  0.31458405024E+04  0.31454874188E+04 0.  0.
        5    1    3    3  502    0  0.14167381832E+04 -0.50320287852E+03 -0.48528888698E+03  0.15798378431E+04  0.46999998093E+01 0. -1.
       -5    1    3    3    0  502 -0.14167381832E+04  0.50320287852E+03  0.43815753168E+03  0.15660026594E+04  0.46999998093E+01 0.  1.
</event>
<event>
 5   0  0.2635798E-06  0.3140843E+04  0.7818609E-02  0.8204618E-01
        1   -1    0    0  501    0  0.00000000000E+00  0.00000000000E+00  0.21393857934E+04  0.21393857934E+04  0.50400001928E-02 0. -1.
       -1   -1    0    0    0  501  0.00000000000E+00  0.00000000000E+00 -0.11527715261E+04  0.11527715261E+04  0.50400001928E-02 0.  1.
    10030    2    1    2    0    0  0.00000000000E+00  0.00000000000E+00  0.98661426729E+03  0.32921573194E+04  0.31408425786E+04 0.  0.
        1    1    3    3  502    0  0.28564225129E+03 -0.42198299746E+03 -0.10637066817E+04  0.11794630349E+04  0.50400001928E-02 0.  1.
       -1    1    3    3    0  502 -0.28564225129E+03  0.42198299746E+03  0.20503209490E+04  0.21126942845E+04  0.50400001928E-02 0. -1.
</event>
<event>
 5   0  0.7510251E-06  0.2146855E+04  0.7818609E-02  0.8540880E-01
        2   -1    0    0  501    0  0.00000000000E+00  0.00000000000E+00  0.24421939735E+04  0.24421939735E+04  0.25500000920E-02 0.  1.
       -2   -1    0    0    0  501  0.00000000000E+00  0.00000000000E+00 -0.47180788637E+03  0.47180788638E+03  0.25500000920E-02 0. -1.
    10030    2    1    2    0    0  0.00000000000E+00  0.00000000000E+00  0.19703860872E+04  0.29140018599E+04  0.21468547941E+04 0.  0.
        3    1    3    3  502    0  0.21561106615E+03 -0.15598925271E+03 -0.42632187943E+03  0.50256455694E+03  0.10100000352E+00 0. -1.
       -3    1    3    3    0  502 -0.21561106615E+03  0.15598925271E+03  0.23967079666E+04  0.24114373030E+04  0.10100000352E+00 0.  1.
</event>
<event>
 5   0  0.8237664E-06  0.3066261E+04  0.7818609E-02  0.8225059E-01
        2   -1    0    0  501    0  0.00000000000E+00  0.00000000000E+00  0.21658506797E+04  0.21658506797E+04  0.25500000920E-02 0.  1.
       -2   -1    0    0    0  501  0.00000000000E+00  0.00000000000E+00 -0.10852500924E+04  0.10852500924E+04  0.25500000920E-02 0. -1.
    10030    2    1    2    0    0  0.00000000000E+00  0.00000000000E+00  0.10806005873E+04  0.32511007721E+04  0.30662613393E+04 0.  0.
        5    1    3    3  502    0 -0.12745313475E+04  0.40214398927E+03 -0.25619473215E+03  0.13608114398E+04  0.46999998093E+01 0. -1.
       -5    1    3    3    0  502  0.12745313475E+04 -0.40214398927E+03  0.13367953195E+04  0.18902893323E+04  0.46999998093E+01 0.  1.
</event>
<event>
 5   0  0.7941434E-06  0.2733448E+04  0.7818609E-02  0.8324233E-01
       -2   -1    0    0    0  501  0.00000000000E+00  0.00000000000E+00  0.95751923032E+03  0.95751923033E+03  0.25500000920E-02 0.  1.
        2   -1    0    0  501    0  0.00000000000E+00  0.00000000000E+00 -0.19508056851E+04  0.19508056851E+04  0.25500000920E-02 0. -1.
    10030    2    1    2    0    0  0.00000000000E+00  0.00000000000E+00 -0.99328645482E+03  0.29083249155E+04  0.27334476093E+04 0.  0.
        4    1    3    3  502    0  0.70566629378E+01 -0.91246348178E+03 -0.15792326921E+04  0.18239015628E+04  0.12699999809E+01 0. -1.
       -4    1    3    3    0  502 -0.70566629378E+01  0.91246348178E+03  0.58594623723E+03  0.10844233527E+04  0.12699999809E+01 0.  1.
</event>
<event>
 5   0  0.2788054E-06  0.1935554E+04  0.7818609E-02  0.8637358E-01
       -1   -1    0    0    0  501  0.00000000000E+00  0.00000000000E+00  0.58618593114E+03  0.58618593116E+03  0.50400001928E-02 0.  1.
        1   -1    0    0  501    0  0.00000000000E+00  0.00000000000E+00 -0.15977737973E+04  0.15977737973E+04  0.50400001928E-02 0. -1.
    10030    2    1    2    0    0  0.00000000000E+00  0.00000000000E+00 -0.10115878662E+04  0.21839597285E+04  0.19355542061E+04 0.  0.
        3    1    3    3  502    0 -0.29849604111E+03 -0.74852226669E+03  0.98901694701E+02  0.81189101837E+03  0.10100000352E+00 0.  1.
       -3    1    3    3    0  502  0.29849604111E+03  0.74852226669E+03 -0.11104895609E+04  0.13720687101E+04  0.10100000352E+00 0. -1.
</event>
<event>
 5   0  0.3938696E-06  0.3170097E+04  0.7818609E-02  0.8196759E-01
       -1   -1    0    0    0  501  0.00000000000E+00  0.00000000000E+00  0.18671895507E+04  0.18671895507E+04  0.50400001928E-02 0. -1.
        1   -1    0    0  501    0  0.00000000000E+00  0.00000000000E+00 -0.13455404392E+04  0.13455404392E+04  0.50400001928E-02 0.  1.
    10030    2    1    2    0    0  0.00000000000E+00  0.00000000000E+00  0.52164911150E+03  0.32127299900E+04  0.31700971898E+04 0.  0.
        4    1    3    3  502    0  0.84145286997E+03 -0.13222989170E+04  0.50035041990E+03  0.16452566711E+04  0.12699999809E+01 0. -1.
       -4    1    3    3    0  502 -0.84145286997E+03  0.13222989170E+04  0.21298691599E+02  0.15674733189E+04  0.12699999809E+01 0.  1.
</event>
<event>
 5   0  0.3938696E-06  0.3163238E+04  0.7818609E-02  0.8198594E-01
       -1   -1    0    0    0  501  0.00000000000E+00  0.00000000000E+00  0.13615493527E+04  0.13615493527E+04  0.50400001928E-02 0. -1.
        1   -1    0    0  501    0  0.00000000000E+00  0.00000000000E+00 -0.18372593615E+04  0.18372593615E+04  0.50400001928E-02 0.  1.
    10030    2    1    2    0    0  0.00000000000E+00  0.00000000000E+00 -0.47571000882E+03  0.31988087142E+04  0.31632384003E+04 0.  0.
        4    1    3    3  502    0  0.24573402139E+03  0.87344257771E+03 -0.15478877630E+04  0.17942255392E+04  0.12699999809E+01 0.  1.
       -4    1    3    3    0  502 -0.24573402139E+03 -0.87344257771E+03  0.10721777542E+04  0.14045831749E+04  0.12699999809E+01 0. -1.
</event>
<event>
 5   0  0.2635798E-06  0.3172863E+04  0.7818609E-02  0.8196021E-01
        1   -1    0    0  501    0  0.00000000000E+00  0.00000000000E+00  0.18832145465E+04  0.18832145465E+04  0.50400001928E-02 0. -1.
       -1   -1    0    0    0  501  0.00000000000E+00  0.00000000000E+00 -0.13364196226E+04  0.13364196226E+04  0.50400001928E-02 0.  1.
    10030    2    1    2    0    0  0.00000000000E+00  0.00000000000E+00  0.54679492387E+03  0.32196341691E+04  0.31728629806E+04 0.  0.
        1    1    3    3  502    0  0.94988749748E+03 -0.10373386442E+04  0.10179761831E+04  0.17362699186E+04  0.50400001928E-02 0. -1.
       -1    1    3    3    0  502 -0.94988749748E+03  0.10373386442E+04 -0.47118125927E+03  0.14833642505E+04  0.50400001928E-02 0.  1.
</event>
<event>
 5   0  0.2635798E-06  0.3348327E+04  0.7818609E-02  0.8150706E-01
        1   -1    0    0  501    0  0.00000000000E+00  0.00000000000E+00  0.19529127493E+04  0.19529127493E+04  0.50400001928E-02 0. -1.
       -1   -1    0    0    0  501  0.00000000000E+00  0.00000000000E+00 -0.14352011639E+04  0.14352011639E+04  0.50400001928E-02 0.  1.
    10030    2    1    2    0    0  0.00000000000E+00  0.00000000000E+00  0.51771158537E+03  0.33881139132E+04  0.33483265377E+04 0.  0.
        1    1    3    3  502    0 -0.29675895151E+03 -0.14753810692E+04 -0.48335002447E+03  0.15806462035E+04  0.50400001928E-02 0.  1.
       -1    1    3    3    0  502  0.29675895151E+03  0.14753810692E+04  0.10010616098E+04  0.18074677096E+04  0.50400001928E-02 0. -1.
</event>
<event>
 5   0  0.2580875E-06  0.3135514E+04  0.7818609E-02  0.8206059E-01
        3   -1    0    0  501    0  0.00000000000E+00  0.00000000000E+00  0.17238684734E+04  0.17238684764E+04  0.10100000352E+00 0. -1.
       -3   -1    0    0    0  501  0.00000000000E+00  0.00000000000E+00 -0.14257825514E+04  0.14257825550E+04  0.10100000352E+00 0.  1.
    10030    2    1    2    0    0  0.00000000000E+00  0.00000000000E+00  0.29808592202E+03  0.31496510314E+04  0.31355137382E+04 0.  0.
        4    1    3    3  502    0  0.80500699438E+03  0.13053516437E+04 -0.17781748129E+03  0.15438911374E+04  0.12699999809E+01 0.  1.
       -4    1    3    3    0  502 -0.80500699438E+03 -0.13053516437E+04  0.47590340331E+03  0.16057598939E+04  0.12699999809E+01 0. -1.
</event>
<event>
 5   0  0.7941434E-06  0.2226960E+04  0.7818609E-02  0.8507290E-01
        2   -1    0    0  501    0  0.00000000000E+00  0.00000000000E+00  0.14952900143E+04  0.14952900143E+04  0.25500000920E-02 0. -1.
       -2   -1    0    0    0  501  0.00000000000E+00  0.00000000000E+00 -0.82916199034E+03  0.82916199035E+03  0.25500000920E-02 0.  1.
    10030    2    1    2    0    0  0.00000000000E+00  0.00000000000E+00  0.66612802393E+03  0.23244520046E+04  0.22269599407E+04 0.  0.
        4    1    3    3  502    0 -0.75567551972E+03 -0.81496555578E+03  0.26210488422E+03  0.11418909455E+04  0.12699999809E+01 0.  1.
       -4    1    3    3    0  502  0.75567551972E+03  0.81496555578E+03  0.40402313971E+03  0.11825610591E+04  0.12699999809E+01 0. -1.
</event>
<event>
 5   0  0.7941434E-06  0.3253341E+04  0.7818609E-02  0.8174870E-01
        2   -1    0    0  501    0  0.00000000000E+00  0.00000000000E+00  0.21916787533E+04  0.21916787533E+04  0.25500000920E-02 0.  1.
       -2   -1    0    0    0  501  0.00000000000E+00  0.00000000000E+00 -0.12073198356E+04  0.12073198356E+04  0.25500000920E-02 0. -1.
    10030    2    1    2    0    0  0.00000000000E+00  0.00000000000E+00  0.98435891775E+03  0.33989985889E+04  0.32533411946E+04 0.  0.
        4    1    3    3  502    0 -0.13615290883E+04 -0.74934070688E+03 -0.97272083387E+01  0.15541458055E+04  0.12699999809E+01 0. -1.
       -4    1    3    3    0  502  0.13615290883E+04  0.74934070688E+03  0.99408612609E+03  0.18448527834E+04  0.12699999809E+01 0.  1.
</event>
<event>
 5   0  0.2635798E-06  0.3226479E+04  0.7818609E-02  0.8181859E-01
       -1   -1    0    0    0  501  0.00000000000E+00  0.00000000000E+00  0.17668250944E+04  0.17668250944E+04  0.50400001928E-02 0. -1.
        1   -1    0    0  501    0  0.00000000000E+00  0.00000000000E+00 -0.14730046009E+04  0.14730046009E+04  0.50400001928E-02 0.  1.
    10030    2    1    2    0    0  0.00000000000E+00  0.00000000000E+00  0.29382049347E+03  0.32398296953E+04  0.32264788814E+04 0.  0.
        1    1    3    3  502    0  0.27995151311E+03 -0.96237454284E+03 -0.11224423329E+04  0.15047971296E+04  0.50400001928E-02 0.  1.
       -1    1    3    3    0  502 -0.27995151311E+03  0.96237454284E+03  0.14162628264E+04  0.17350325657E+04  0.50400001928E-02 0. -1.
</event>
<event>
 5   0  0.7971763E-06  0.1988011E+04  0.7818609E-02  0.8612246E-01
        2   -1    0    0  501    0  0.00000000000E+00  0.00000000000E+00  0.22187747757E+04  0.22187747757E+04  0.25500000920E-02 0. -1.
       -2   -1    0    0    0  501  0.00000000000E+00  0.00000000000E+00 -0.44531212073E+03  0.44531212073E+03  0.25500000920E-02 0.  1.
    10030    2    1    2    0    0  0.00000000000E+00  0.00000000000E+00  0.17734626550E+04  0.26640868965E+04  0.19880113690E+04 0.  0.
        1    1    3    3  502    0 -0.71331467570E+03 -0.37285251060E+03  0.16683651907E+04  0.18523712454E+04  0.50400001928E-02 0. -1.
       -1    1    3    3    0  502  0.71331467570E+03  0.37285251060E+03  0.10509746436E+03  0.81171565112E+03  0.50400001928E-02 0.  1.
</event>
<event>
 5   0  0.3406863E-06  0.1700348E+04  0.7818609E-02  0.8761166E-01
        1   -1    0    0  501    0  0.00000000000E+00  0.00000000000E+00  0.14005839672E+04  0.14005839672E+04  0.50400001928E-02 0. -1.
       -1   -1    0    0    0  501  0.00000000000E+00  0.00000000000E+00 -0.51606732693E+03  0.51606732695E+03  0.50400001928E-02 0.  1.
    10030    2    1    2    0    0  0.00000000000E+00  0.00000000000E+00  0.88451664028E+03  0.19166512942E+04  0.17003477575E+04 0.  0.
        3    1    3    3  502    0 -0.75990065588E+03  0.24739214580E+03  0.76923459537E+03  0.11092221390E+04  0.10100000352E+00 0. -1.
       -3    1    3    3    0  502  0.75990065588E+03 -0.24739214580E+03  0.11528204491E+03  0.80742915522E+03  0.10100000352E+00 0.  1.
</event>
<event>
 5   0  0.7952307E-06  0.3223334E+04  0.7818609E-02  0.8182682E-01
       -2   -1    0    0    0  501  0.00000000000E+00  0.00000000000E+00  0.18026935185E+04  0.18026935185E+04  0.25500000920E-02 0. -1.
        2   -1    0    0  501    0  0.00000000000E+00  0.00000000000E+00 -0.14408830560E+04  0.14408830560E+04  0.25500000920E-02 0.  1.
    10030    2    1    2    0    0  0.00000000000E+00  0.00000000000E+00  0.36181046255E+03  0.32435765745E+04  0.32233340168E+04 0.  0.
        2    1    3    3  502    0 -0.15532881844E+04  0.39695713034E+03  0.14971523363E+02  0.16032789195E+04  0.25500000920E-02 0.  1.
       -2    1    3    3    0  502  0.15532881844E+04 -0.39695713034E+03  0.34683893919E+03  0.16402976550E+04  0.25500000920E-02 0. -1.
</event>
<event>
 5   0  0.2635798E-06  0.1836459E+04  0.7818609E-02  0.8687148E-01
       -1   -1    0    0    0  501  0.00000000000E+00  0.00000000000E+00  0.72933421943E+03  0.72933421944E+03  0.50400001928E-02 0. -1.
        1   -1    0    0  501    0  0.00000000000E+00  0.00000000000E+00 -0.11560485027E+04  0.11560485027E+04  0.50400001928E-02 0.  1.
    10030    2    1    2    0    0  0.00000000000E+00  0.00000000000E+00 -0.42671428329E+03  0.18853827222E+04  0.18364593460E+04 0.  0.
        1    1    3    3  502    0 -0.23699585137E+03 -0.62668360576E+03 -0.85797457798E+03  0.10885861251E+04  0.50400001928E-02 0.  1.
       -1    1    3    3    0  502  0.23699585137E+03  0.62668360576E+03  0.43126029468E+03  0.79679659707E+03  0.50400001928E-02 0. -1.
</event>
<event>
 5   0  0.4142886E-06  0.3239453E+04  0.7818609E-02  0.8178475E-01
        1   -1    0    0  501    0  0.00000000000E+00  0.00000000000E+00  0.14881727179E+04  0.14881727179E+04  0.50400001928E-02 0. -1.
       -1   -1    0    0    0  501  0.00000000000E+00  0.00000000000E+00 -0.17629096205E+04  0.17629096205E+04  0.50400001928E-02 0.  1.
    10030    2    1    2    0    0  0.00000000000E+00  0.00000000000E+00 -0.27473690256E+03  0.32510823384E+04  0.32394530411E+04 0.  0.
        5    1    3    3  502    0  0.84988196353E+03  0.13780620333E+04 -0.90968376576E+02  0.16216200711E+04  0.46999998093E+01 0.  1.
       -5    1    3    3    0  502 -0.84988196353E+03 -0.13780620333E+04 -0.18376852598E+03  0.16294622673E+04  0.46999998093E+01 0. -1.
</event>
<event>
 5   0  0.2635798E-06  0.3201923E+04  0.7818609E-02  0.8188309E-01
       -1   -1    0    0    0  501  0.00000000000E+00  0.00000000000E+00  0.19183418233E+04  0.19183418233E+04  0.50400001928E-02 0.  1.
        1   -1    0    0  501    0  0.00000000000E+00  0.00000000000E+00 -0.13360904391E+04  0.13360904391E+04  0.50400001928E-02 0. -1.
    10030    2    1    2    0    0  0.00000000000E+00  0.00000000000E+00  0.58225138423E+03  0.32544322623E+04  0.32019232776E+04 0.  0.
        1    1    3    3  502    0 -0.14621320900E+04 -0.38969768468E+03  0.82256120418E+03  0.17222954069E+04  0.50400001928E-02 0.  1.
       -1    1    3    3    0  502  0.14621320900E+04  0.38969768468E+03 -0.24030981995E+03  0.15321368554E+04  0.50400001928E-02 0. -1.
</event>
<event>
 5   0  0.8237664E-06  0.3204950E+04  0.7818609E-02  0.8187511E-01
       -2   -1    0    0    0  501  0.00000000000E+00  0.00000000000E+00  0.13646034523E+04  0.13646034523E+04  0.25500000920E-02 0. -1.
        2   -1    0    0  501    0  0.00000000000E+00  0.00000000000E+00 -0.18818110689E+04  0.18818110689E+04  0.25500000920E-02 0.  1.
    10030    2    1    2    0    0  0.00000000000E+00  0.00000000000E+00 -0.51720761658E+03  0.32464145211E+04  0.32049498474E+04 0.  0.
        5    1    3    3  502    0 -0.82986740211E+03  0.11939121489E+04 -0.94096428466E+03  0.17319185891E+04  0.46999998093E+01 0.  1.
       -5    1    3    3    0  502  0.82986740211E+03 -0.11939121489E+04  0.42375666807E+03  0.15144959320E+04  0.46999998093E+01 0. -1.
</event>
<event>
 5   0  0.7510251E-06  0.3181256E+04  0.7818609E-02  0.8193785E-01
        2   -1    0    0  501    0  0.00000000000E+00  0.00000000000E+00  0.17496864434E+04  0.17496864434E+04  0.25500000920E-02 0.  1.
       -2   -1    0    0    0  501  0.00000000000E+00  0.00000000000E+00 -0.14460291095E+04  0.14460291095E+04  0.25500000920E-02 0. -1.
    10030    2    1    2    0    0  0.00000000000E+00  0.00000000000E+00  0.30365733384E+03  0.31957155529E+04  0.31812560599E+04 0.  0.
        3    1    3    3  502    0 -0.81004280461E+03 -0.83098194065E+03  0.12446137445E+04  0.17016943657E+04  0.10100000352E+00 0.  1.
       -3    1    3    3    0  502  0.81004280461E+03  0.83098194065E+03 -0.94095641062E+03  0.14940211872E+04  0.10100000352E+00 0. -1.
</event>
<event>
 5   0  0.7971763E-06  0.3166468E+04  0.7818609E-02  0.8197729E-01
       -2   -1    0    0    0  501  0.00000000000E+00  0.00000000000E+00  0.12898301513E+04  0.12898301513E+04  0.25500000920E-02 0.  1.
        2   -1    0    0  501    0  0.00000000000E+00  0.00000000000E+00 -0.19433801399E+04  0.19433801399E+04  0.25500000920E-02 0. -1.
    10030    2    1    2    0    0  0.00000000000E+00  0.00000000000E+00 -0.65354998859E+03  0.32332102912E+04  0.31664682533E+04 0.  0.
        1    1    3    3  502    0 -0.21898119183E+03 -0.69145631096E+03 -0.17637639883E+04  0.19070731498E+04  0.50400001928E-02 0. -1.
       -1    1    3    3    0  502  0.21898119183E+03  0.69145631096E+03  0.11102139997E+04  0.13261371413E+04  0.50400001928E-02 0.  1.
</event>
<event>
 5   0  0.2933646E-06  0.3092179E+04  0.7818609E-02  0.8217888E-01
       -1   -1    0    0    0  501  0.00000000000E+00  0.00000000000E+00  0.12838710880E+04  0.12838710881E+04  0.50400001928E-02 0.  1.
        1   -1    0    0  501    0  0.00000000000E+00  0.00000000000E+00 -0.18618634430E+04  0.18618634430E+04  0.50400001928E-02 0. -1.
    10030    2    1    2    0    0  0.00000000000E+00  0.00000000000E+00 -0.57799235493E+03  0.31457345310E+04  0.30921789368E+04 0.  0.
        2    1    3    3  502    0  0.10271485498E+04  0.16132633263E+03  0.87508266403E+03  0.13589812353E+04  0.25500000920E-02 0.  1.
       -2    1    3    3    0  502 -0.10271485498E+04 -0.16132633263E+03 -0.14530750190E+04  0.17867532957E+04  0.25500000920E-02 0. -1.
</event>
<event>
 5   0  0.2635798E-06  0.2707168E+04  0.7818609E-02  0.8332683E-01
       -1   -1    0    0    0  501  0.00000000000E+00  0.00000000000E+00  0.10405911549E+04  0.10405911549E+04  0.50400001928E-02 0.  1.
        1   -1    0    0  501    0  0.00000000000E+00  0.00000000000E+00 -0.17607205833E+04  0.17607205834E+04  0.50400001928E-02 0. -1.
    10030    2    1    2    0    0  0.00000000000E+00  0.00000000000E+00 -0.72012942845E+03  0.28013117383E+04  0.27071684582E+04 0.  0.
        1    1    3    3  502    0  0.74717304111E+03  0.22868113457E+03  0.78364441258E+03  0.11066441072E+04  0.50400001928E-02 0.  1.
       -1    1    3    3    0  502 -0.74717304111E+03 -0.22868113457E+03 -0.15037738410E+04  0.16946676310E+04  0.50400001928E-02 0. -1.
</event>
<event>
 5   0  0.8237664E-06  0.3035054E+04  0.7818609E-02  0.8233791E-01
       -2   -1    0    0    0  501  0.00000000000E+00  0.00000000000E+00  0.18934867564E+04  0.18934867564E+04  0.25500000920E-02 0. -1.
        2   -1    0    0  501    0  0.00000000000E+00  0.00000000000E+00 -0.12162155266E+04  0.12162155266E+04  0.25500000920E-02 0.  1.
    10030    2    1    2    0    0  0.00000000000E+00  0.00000000000E+00  0.67727122976E+03  0.31097022830E+04  0.30350538661E+04 0.  0.
        5    1    3    3  502    0 -0.89549916736E+03  0.11634710336E+04  0.73184844929E+03  0.16404901242E+04  0.46999998093E+01 0.  1.
       -5    1    3    3    0  502  0.89549916736E+03 -0.11634710336E+04 -0.54577219527E+02  0.14692121588E+04  0.46999998093E+01 0. -1.
</event>
<event>
 5   0  0.4142886E-06  0.3084948E+04  0.7818609E-02  0.8219881E-01
        1   -1    0    0  501    0  0.00000000000E+00  0.00000000000E+00  0.15535918826E+04  0.15535918826E+04  0.50400001928E-02 0.  1.
       -1   -1    0    0    0  501  0.00000000000E+00  0.00000000000E+00 -0.15314355508E+04  0.15314355508E+04  0.50400001928E-02 0. -1.
    10030    2    1    2    0    0  0.00000000000E+00  0.00000000000E+00  0.22156331823E+02  0.30850274334E+04  0.30849478702E+04 0.  0.
        5    1    3    3  502    0  0.75540238650E+03  0.12167036669E+04 -0.56182680116E+03  0.15383991755E+04  0.46999998093E+01 0. -1.
       -5    1    3    3    0  502 -0.75540238650E+03 -0.12167036669E+04  0.58398313298E+03  0.15466282579E+04  0.46999998093E+01 0.  1.
</event>
<event>
 5   0  0.2635798E-06  0.3225230E+04  0.7818609E-02  0.8182186E-01
        1   -1    0    0  501    0  0.00000000000E+00  0.00000000000E+00  0.99848531193E+03  0.99848531194E+03  0.50400001928E-02 0. -1.
       -1   -1    0    0    0  501  0.00000000000E+00  0.00000000000E+00 -0.26044720852E+04  0.26044720852E+04  0.50400001928E-02 0.  1.
    10030    2    1    2    0    0  0.00000000000E+00  0.00000000000E+00 -0.16059867732E+04  0.36029573971E+04  0.32252299902E+04 0.  0.
        1    1    3    3  502    0 -0.14379962581E+04 -0.66283151641E+03 -0.11443053901E+04  0.19536155414E+04  0.50400001928E-02 0. -1.
       -1    1    3    3    0  502  0.14379962581E+04  0.66283151641E+03 -0.46168138313E+03  0.16493418558E+04  0.50400001928E-02 0.  1.
</event>
<event>
 5   0  0.8237664E-06  0.3110100E+04  0.7818609E-02  0.8212972E-01
       -2   -1    0    0    0  501  0.00000000000E+00  0.00000000000E+00  0.14642879473E+04  0.14642879473E+04  0.25500000920E-02 0. -1.
        2   -1    0    0  501    0  0.00000000000E+00  0.00000000000E+00 -0.16514374121E+04  0.16514374121E+04  0.25500000920E-02 0.  1.
    10030    2    1    2    0    0  0.00000000000E+00  0.00000000000E+00 -0.18714946479E+03  0.31157253595E+04  0.31100996115E+04 0.  0.
        5    1    3    3  502    0  0.12541973170E+04  0.46195366438E+03 -0.88983678842E+03  0.16056910344E+04  0.46999998093E+01 0.  1.
       -5    1    3    3    0  502 -0.12541973170E+04 -0.46195366438E+03  0.70268732363E+03  0.15100343250E+04  0.46999998093E+01 0. -1.
</event>
<event>
 5   0  0.8237664E-06  0.3198332E+04  0.7818609E-02  0.8189258E-01
        2   -1    0    0  501    0  0.00000000000E+00  0.00000000000E+00  0.18464705637E+04  0.18464705637E+04  0.25500000920E-02 0. -1.
       -2   -1    0    0    0  501  0.00000000000E+00  0.00000000000E+00 -0.13849836943E+04  0.13849836943E+04  0.25500000920E-02 0.  1.
    10030    2    1    2    0    0  0.00000000000E+00  0.00000000000E+00  0.46148686936E+03  0.32314542580E+04  0.31983318294E+04 0.  0.
        5    1    3    3  502    0 -0.78433105088E+03 -0.61102313295E+02 -0.11759397228E+04  0.14148374507E+04  0.46999998093E+01 0.  1.
       -5    1    3    3    0  502  0.78433105088E+03  0.61102313295E+02  0.16374265922E+04  0.18166168074E+04  0.46999998093E+01 0. -1.
</event>
<event>
 5   0  0.7941434E-06  0.2326771E+04  0.7818609E-02  0.8467440E-01
        2   -1    0    0  501    0  0.00000000000E+00  0.00000000000E+00  0.94620929974E+03  0.94620929975E+03  0.25500000920E-02 0. -1.
       -2   -1    0    0    0  501  0.00000000000E+00  0.00000000000E+00 -0.14304086526E+04  0.14304086526E+04  0.25500000920E-02 0.  1.
    10030    2    1    2    0    0  0.00000000000E+00  0.00000000000E+00 -0.48419935281E+03  0.23766179523E+04  0.23267711271E+04 0.  0.
        4    1    3    3  502    0  0.97565659867E+03  0.36014340918E+03  0.29046774483E+03  0.10798065555E+04  0.12699999809E+01 0. -1.
       -4    1    3    3    0  502 -0.97565659867E+03 -0.36014340918E+03 -0.77466709764E+03  0.12968113968E+04  0.12699999809E+01 0.  1.
</event>
<event>
 5   0  0.7971763E-06  0.3321275E+04  0.7818609E-02  0.8157503E-01
        2   -1    0    0  501    0  0.00000000000E+00  0.00000000000E+00  0.17576468056E+04  0.17576468056E+04  0.25500000920E-02 0. -1.
       -2   -1    0    0    0  501  0.00000000000E+00  0.00000000000E+00 -0.15689820722E+04  0.15689820722E+04  0.25500000920E-02 0.  1.
    10030    2    1    2    0    0  0.00000000000E+00  0.00000000000E+00  0.18866473347E+03  0.33266288778E+04  0.33212746512E+04 0.  0.
        1    1    3    3  502    0  0.67874429320E+03 -0.26827332462E+02 -0.14234662078E+04  0.15772347847E+04  0.50400001928E-02 0.  1.
       -1    1    3    3    0  502 -0.67874429320E+03  0.26827332462E+02  0.16121309412E+04  0.17493940931E+04  0.50400001928E-02 0. -1.
</event>
<event>
 5   0  0.7971763E-06  0.3102978E+04  0.7818609E-02  0.8214921E-01
        2   -1    0    0  501    0  0.00000000000E+00  0.00000000000E+00  0.24245770556E+04  0.24245770556E+04  0.25500000920E-02 0. -1.
       -2   -1    0    0    0  501  0.00000000000E+00  0.00000000000E+00 -0.99279887558E+03  0.99279887558E+03  0.25500000920E-02 0.  1.
    10030    2    1    2    0    0  0.00000000000E+00  0.00000000000E+00  0.14317781800E+04  0.34173759311E+04  0.31029775214E+04 0.  0.
        1    1    3    3  502    0 -0.16635997308E+03 -0.14134948599E+04  0.35673459850E+02  0.14236979860E+04  0.50400001928E-02 0. -1.
       -1    1    3    3    0  502  0.16635997308E+03  0.14134948599E+04  0.13961047201E+04  0.19936779452E+04  0.50400001928E-02 0.  1.
</event>
<event>
 5   0  0.2933646E-06  0.3084253E+04  0.7818609E-02  0.8220073E-01
        1   -1    0    0  501    0  0.00000000000E+00  0.00000000000E+00  0.15088316815E+04  0.15088316815E+04  0.50400001928E-02 0. -1.
       -1   -1    0    0    0  501  0.00000000000E+00  0.00000000000E+00 -0.15761556058E+04  0.15761556058E+04  0.50400001928E-02 0.  1.
    10030    2    1    2    0    0  0.00000000000E+00  0.00000000000E+00 -0.67323924291E+02  0.30849872873E+04  0.30842525921E+04 0.  0.
        2    1    3    3  502    0  0.48236204055E+03 -0.47956879066E+03 -0.14180054284E+04  0.15727042818E+04  0.25500000920E-02 0.  1.
       -2    1    3    3    0  502 -0.48236204055E+03  0.47956879066E+03  0.13506815041E+04  0.15122830055E+04  0.25500000920E-02 0. -1.
</event>
<event>
 5   0  0.7971763E-06  0.3054333E+04  0.7818609E-02  0.8228384E-01
        2   -1    0    0  501    0  0.00000000000E+00  0.00000000000E+00  0.23257485228E+04  0.23257485228E+04  0.25500000920E-02 0.  1.
       -2   -1    0    0    0  501  0.00000000000E+00  0.00000000000E+00 -0.10027903364E+04  0.10027903364E+04  0.25500000920E-02 0. -1.
    10030    2    1    2    0    0  0.00000000000E+00  0.00000000000E+00  0.13229581865E+04  0.33285388592E+04  0.30543334091E+04 0.  0.
        1    1    3    3  502    0 -0.47447269258E+03  0.90913679592E+03  0.18947010272E+04  0.21544247567E+04  0.50400001928E-02 0.  1.
       -1    1    3    3    0  502  0.47447269258E+03 -0.90913679592E+03 -0.57174284075E+03  0.11741141025E+04  0.50400001928E-02 0. -1.
</event>
<event>
 5   0  0.4142886E-06  0.3208727E+04  0.7818609E-02  0.8186516E-01
       -1   -1    0    0    0  501  0.00000000000E+00  0.00000000000E+00  0.12785747200E+04  0.12785747200E+04  0.50400001928E-02 0. -1.
        1   -1    0    0  501    0  0.00000000000E+00  0.00000000000E+00 -0.20131654276E+04  0.20131654276E+04  0.50400001928E-02 0.  1.
    10030    2    1    2    0    0  0.00000000000E+00  0.00000000000E+00 -0.73459070764E+03  0.32917401476E+04  0.32087271139E+04 0.  0.
        5    1    3    3  502    0 -0.54276682771E+02  0.49990508649E+03 -0.19302290488E+04  0.19946571947E+04  0.46999998093E+01 0.  1.
       -5    1    3    3    0  502  0.54276682771E+02 -0.49990508649E+03  0.11956383411E+04  0.12970829529E+04  0.46999998093E+01 0. -1.
</event>
<event>
 5   0  0.4142886E-06  0.3025826E+04  0.7818609E-02  0.8236394E-01
       -1   -1    0    0    0  501  0.00000000000E+00  0.00000000000E+00  0.11115684625E+04  0.11115684625E+04  0.50400001928E-02 0.  1.
        1   -1    0    0  501    0  0.00000000000E+00  0.00000000000E+00 -0.20591679547E+04  0.20591679547E+04  0.50400001928E-02 0. -1.
    10030    2    1    2    0    0  0.00000000000E+00  0.00000000000E+00 -0.94759949220E+03  0.31707364172E+04  0.30258262722E+04 0.  0.
        5    1    3    3  502    0  0.84738271249E+03  0.68367531301E+03  0.62694223067E+03  0.12564028198E+04  0.46999998093E+01 0.  1.
       -5    1    3    3    0  502 -0.84738271249E+03 -0.68367531301E+03 -0.15745417229E+04  0.19143335974E+04  0.46999998093E+01 0. -1.
</event>
<event>
 5   0  0.7941434E-06  0.3134521E+04  0.7818609E-02  0.8206327E-01
       -2   -1    0    0    0  501  0.00000000000E+00  0.00000000000E+00  0.22075290799E+04  0.22075290799E+04  0.25500000920E-02 0. -1.
        2   -1    0    0  501    0  0.00000000000E+00  0.00000000000E+00 -0.11126944378E+04  0.11126944378E+04  0.25500000920E-02 0.  1.
    10030    2    1    2    0    0  0.00000000000E+00  0.00000000000E+00  0.10948346420E+04  0.33202235177E+04  0.31345209066E+04 0.  0.
        4    1    3    3  502    0  0.18868481707E+02 -0.45908216490E+02 -0.11118611681E+04  0.11129692062E+04  0.12699999809E+01 0.  1.
       -4    1    3    3    0  502 -0.18868481707E+02  0.45908216490E+02  0.22066958102E+04  0.22072543115E+04  0.12699999809E+01 0. -1.
</event>
<event>
 5   0  0.2635798E-06  0.3107439E+04  0.7818609E-02  0.8213699E-01
       -1   -1    0    0    0  501  0.00000000000E+00  0.00000000000E+00  0.12659003428E+04  0.12659003428E+04  0.50400001928E-02 0.  1.
        1   -1    0    0  501    0  0.00000000000E+00  0.00000000000E+00 -0.19069784586E+04  0.19069784586E+04  0.50400001928E-02 0. -1.
    10030    2    1    2    0    0  0.00000000000E+00  0.00000000000E+00 -0.64107811578E+03  0.31728788014E+04  0.31074392573E+04 0.  0.
        1    1    3    3  502    0  0.14491011591E+04  0.29212136865E+03  0.16788120185E+03  0.14877544022E+04  0.50400001928E-02 0.  1.
       -1    1    3    3    0  502 -0.14491011591E+04 -0.29212136865E+03 -0.80895931764E+03  0.16851243992E+04  0.50400001928E-02 0. -1.
</event>
<event>
 5   0  0.7510251E-06  0.2788881E+04  0.7818609E-02  0.8306729E-01
       -2   -1    0    0    0  501  0.00000000000E+00  0.00000000000E+00  0.13989880522E+04  0.13989880522E+04  0.25500000920E-02 0. -1.
        2   -1    0    0  501    0  0.00000000000E+00  0.00000000000E+00 -0.13899078016E+04  0.13899078016E+04  0.25500000920E-02 0.  1.
    10030    2    1    2    0    0  0.00000000000E+00  0.00000000000E+00  0.90802505899E+01  0.27888958538E+04  0.27888810718E+04 0.  0.
        3    1    3    3  502    0  0.55780379690E+03  0.85146726041E+03 -0.94852464449E+03  0.13913448828E+04  0.10100000352E+00 0.  1.
       -3    1    3    3    0  502 -0.55780379690E+03 -0.85146726041E+03  0.95760489508E+03  0.13975509710E+04  0.10100000352E+00 0. -1.
</event>
<event>
 5   0  0.7510251E-06  0.2792337E+04  0.7818609E-02  0.8305651E-01
        2   -1    0    0  501    0  0.00000000000E+00  0.00000000000E+00  0.21911203385E+04  0.21911203385E+04  0.25500000920E-02 0.  1.
       -2   -1    0    0    0  501  0.00000000000E+00  0.00000000000E+00 -0.88963006146E+03  0.88963006146E+03  0.25500000920E-02 0. -1.
    10030    2    1    2    0    0  0.00000000000E+00  0.00000000000E+00  0.13014902770E+04  0.30807503999E+04  0.27923370294E+04 0.  0.
        3    1    3    3  502    0 -0.11139961477E+04 -0.80265287578E+03  0.37152957861E+03  0.14224181151E+04  0.10100000352E+00 0. -1.
       -3    1    3    3    0  502  0.11139961477E+04  0.80265287578E+03  0.92996069841E+03  0.16583322848E+04  0.10100000352E+00 0.  1.
</event>
<event>
 5   0  0.7510251E-06  0.2513520E+04  0.7818609E-02  0.8398185E-01
       -2   -1    0    0    0  501  0.00000000000E+00  0.00000000000E+00  0.14812969229E+04  0.14812969229E+04  0.25500000920E-02 0. -1.
        2   -1    0    0  501    0  0.00000000000E+00  0.00000000000E+00 -0.10662586942E+04  0.10662586942E+04  0.25500000920E-02 0.  1.
    10030    2    1    2    0    0  0.00000000000E+00  0.00000000000E+00  0.41503822870E+03  0.25475556172E+04  0.25135200201E+04 0.  0.
        3    1    3    3  502    0  0.40456579692E+03  0.94281366074E+03 -0.52817108203E+03  0.11539219146E+04  0.10100000352E+00 0.  1.
       -3    1    3    3    0  502 -0.40456579692E+03 -0.94281366074E+03  0.94320931073E+03  0.13936337026E+04  0.10100000352E+00 0. -1.
</event>
<event>
 5   0  0.2933646E-06  0.3487292E+04  0.7818609E-02  0.8116808E-01
       -1   -1    0    0    0  501  0.00000000000E+00  0.00000000000E+00  0.25498056334E+04  0.25498056334E+04  0.50400001928E-02 0. -1.
        1   -1    0    0  501    0  0.00000000000E+00  0.00000000000E+00 -0.11923661286E+04  0.11923661286E+04  0.50400001928E-02 0.  1.
    10030    2    1    2    0    0  0.00000000000E+00  0.00000000000E+00  0.13574395048E+04  0.37421717620E+04  0.34872922859E+04 0.  0.
        2    1    3    3  502    0 -0.44806888409E+03 -0.70394542824E+03 -0.96419069829E+03  0.12751347354E+04  0.25500000920E-02 0.  1.
       -2    1    3    3    0  502  0.44806888409E+03  0.70394542824E+03  0.23216302031E+04  0.24670370266E+04  0.25500000920E-02 0. -1.
</event>
<event>
 5   0  0.8237664E-06  0.3220716E+04  0.7818609E-02  0.8183367E-01
       -2   -1    0    0    0  501  0.00000000000E+00  0.00000000000E+00  0.10122848105E+04  0.10122848105E+04  0.25500000920E-02 0.  1.
        2   -1    0    0  501    0  0.00000000000E+00  0.00000000000E+00 -0.25617824302E+04  0.25617824302E+04  0.25500000920E-02 0. -1.
    10030    2    1    2    0    0  0.00000000000E+00  0.00000000000E+00 -0.15494976197E+04  0.35740672407E+04  0.32207163439E+04 0.  0.
        5    1    3    3  502    0  0.11843249902E+04  0.94853314913E+02  0.43152819300E+03  0.12640654671E+04  0.46999998093E+01 0.  1.
       -5    1    3    3    0  502 -0.11843249902E+04 -0.94853314913E+02 -0.19810258127E+04  0.23100017737E+04  0.46999998093E+01 0. -1.
</event>
<event>
 5   0  0.8237664E-06  0.3014887E+04  0.7818609E-02  0.8239492E-01
        2   -1    0    0  501    0  0.00000000000E+00  0.00000000000E+00  0.15305604514E+04  0.15305604514E+04  0.25500000920E-02 0.  1.
       -2   -1    0    0    0  501  0.00000000000E+00  0.00000000000E+00 -0.14846761158E+04  0.14846761158E+04  0.25500000920E-02 0. -1.
    10030    2    1    2    0    0  0.00000000000E+00  0.00000000000E+00  0.45884335599E+02  0.30152365673E+04  0.30148874248E+04 0.  0.
        5    1    3    3  502    0 -0.10281798125E+04  0.46897371338E+03  0.10206920946E+04  0.15228015343E+04  0.46999998093E+01 0.  1.
       -5    1    3    3    0  502  0.10281798125E+04 -0.46897371338E+03 -0.97480775904E+03  0.14924350330E+04  0.46999998093E+01 0. -1.
</event>
<event>
 5   0  0.7941434E-06  0.3191097E+04  0.7818609E-02  0.8191172E-01
        2   -1    0    0  501    0  0.00000000000E+00  0.00000000000E+00  0.14754113509E+04  0.14754113509E+04  0.25500000920E-02 0.  1.
       -2   -1    0    0    0  501  0.00000000000E+00  0.00000000000E+00 -0.17254675863E+04  0.17254675863E+04  0.25500000920E-02 0. -1.
    10030    2    1    2    0    0  0.00000000000E+00  0.00000000000E+00 -0.25005623541E+03  0.32008789372E+04  0.31910966532E+04 0.  0.
        4    1    3    3  502    0  0.66766245215E+03 -0.87163800457E+03 -0.12862673341E+04  0.16911567724E+04  0.12699999809E+01 0. -1.
       -4    1    3    3    0  502 -0.66766245215E+03  0.87163800457E+03  0.10362110987E+04  0.15097221648E+04  0.12699999809E+01 0.  1.
</event>
<event>
 5   0  0.7941434E-06  0.2339891E+04  0.7818609E-02  0.8462357E-01
        2   -1    0    0  501    0  0.00000000000E+00  0.00000000000E+00  0.22600126991E+04  0.22600126991E+04  0.25500000920E-02 0. -1.
       -2   -1    0    0    0  501  0.00000000000E+00  0.00000000000E+00 -0.60564819699E+03  0.60564819699E+03  0.25500000920E-02 0.  1.
    10030    2    1    2    0    0  0.00000000000E+00  0.00000000000E+00  0.16543645021E+04  0.28656608961E+04  0.23398911226E+04 0.  0.
        4    1    3    3  502    0 -0.58923506208E+03  0.15676205420E+03 -0.39567691872E+03  0.72686596902E+03  0.12699999809E+01 0.  1.
       -4    1    3    3    0  502  0.58923506208E+03 -0.15676205420E+03  0.20500414208E+04  0.21387949271E+04  0.12699999809E+01 0. -1.
</event>
<event>
 5   0  0.3938696E-06  0.2041869E+04  0.7818609E-02  0.8587292E-01
        1   -1    0    0  501    0  0.00000000000E+00  0.00000000000E+00  0.26608350894E+04  0.26608350894E+04  0.50400001928E-02 0.  1.
       -1   -1    0    0    0  501  0.00000000000E+00  0.00000000000E+00 -0.39172183028E+03  0.39172183032E+03  0.50400001928E-02 0. -1.
    10030    2    1    2    0    0  0.00000000000E+00  0.00000000000E+00  0.22691132591E+04  0.30525569197E+04  0.20418689393E+04 0.  0.
        4    1    3    3  502    0 -0.97646641121E+02  0.75306802829E+03  0.21547207105E+04  0.22846157828E+04  0.12699999809E+01 0.  1.
       -4    1    3    3    0  502  0.97646641121E+02 -0.75306802829E+03  0.11439254863E+03  0.76794113696E+03  0.12699999809E+01 0. -1.
</event>
<event>
 5   0  0.7510251E-06  0.1963386E+04  0.7818609E-02  0.8623933E-01
       -2   -1    0    0    0  501  0.00000000000E+00  0.00000000000E+00  0.77349989509E+03  0.77349989509E+03  0.25500000920E-02 0. -1.
        2   -1    0    0  501    0  0.00000000000E+00  0.00000000000E+00 -0.12459224323E+04  0.12459224323E+04  0.25500000920E-02 0.  1.
    10030    2    1    2    0    0  0.00000000000E+00  0.00000000000E+00 -0.47242253722E+03  0.20194223274E+04  0.19633857193E+04 0.  0.
        3    1    3    3  502    0  0.41648156883E+03  0.15206836255E+02 -0.11504172613E+04  0.12235800057E+04  0.10100000352E+00 0.  1.
       -3    1    3    3    0  502 -0.41648156883E+03 -0.15206836255E+02  0.67799472405E+03  0.79584232174E+03  0.10100000352E+00 0. -1.
</event>
<event>
 5   0  0.2635798E-06  0.2980797E+04  0.7818609E-02  0.8249236E-01
       -1   -1    0    0    0  501  0.00000000000E+00  0.00000000000E+00  0.14164599415E+04  0.14164599415E+04  0.50400001928E-02 0.  1.
        1   -1    0    0  501    0  0.00000000000E+00  0.00000000000E+00 -0.15681966848E+04  0.15681966848E+04  0.50400001928E-02 0. -1.
    10030    2    1    2    0    0  0.00000000000E+00  0.00000000000E+00 -0.15173674330E+03  0.29846566264E+04  0.29807970642E+04 0.  0.
        1    1    3    3  502    0  0.12147442427E+04 -0.88311363404E+02  0.78424638251E+03  0.14486010011E+04  0.50400001928E-02 0.  1.
       -1    1    3    3    0  502 -0.12147442427E+04  0.88311363404E+02 -0.93598312581E+03  0.15360556252E+04  0.50400001928E-02 0. -1.
</event>
<event>
 5   0  0.7971763E-06  0.3192047E+04  0.7818609E-02  0.8190921E-01
       -2   -1    0    0    0  501  0.00000000000E+00  0.00000000000E+00  0.12942066594E+04  0.12942066594E+04  0.25500000920E-02 0. -1.
        2   -1    0    0  501    0  0.00000000000E+00  0.00000000000E+00 -0.19682259470E+04  0.19682259470E+04  0.25500000920E-02 0.  1.
    10030    2    1    2    0    0  0.00000000000E+00  0.00000000000E+00 -0.67401928760E+03  0.32624326064E+04  0.31920470722E+04 0.  0.
        1    1    3    3  502    0  0.13781151340E+04  0.23089853854E+01 -0.11597978739E+04  0.18012045309E+04  0.50400001928E-02 0.  1.
       -1    1    3    3    0  502 -0.13781151340E+04 -0.23089853854E+01  0.48577858626E+03  0.14612280755E+04  0.50400001928E-02 0. -1.
</event>
<event>
 5   0  0.7952307E-06  0.3298958E+04  0.7818609E-02  0.8163161E-01
        2   -1    0    0  501    0  0.00000000000E+00  0.00000000000E+00  0.18779168238E+04  0.18779168238E+04  0.25500000920E-02 0. -1.
       -2   -1    0    0    0  501  0.00000000000E+00  0.00000000000E+00 -0.14488295709E+04  0.14488295709E+04  0.25500000920E-02 0.  1.
    10030    2    1    2    0    0  0.00000000000E+00  0.00000000000E+00  0.42908725297E+03  0.33267463947E+04  0.32989582756E+04 0.  0.
        2    1    3    3  502    0  0.70597524934E+03  0.14955167498E+03  0.17102820854E+04  0.18562951188E+04  0.25500000920E-02 0. -1.
       -2    1    3    3    0  502 -0.70597524934E+03 -0.14955167498E+03 -0.12811948325E+04  0.14704512759E+04  0.25500000920E-02 0.  1.
</event>
<event>
 5   0  0.2635798E-06  0.3096441E+04  0.7818609E-02  0.8216715E-01
        1   -1    0    0  501    0  0.00000000000E+00  0.00000000000E+00  0.32109548449E+04  0.32109548449E+04  0.50400001928E-02 0.  1.
       -1   -1    0    0    0  501  0.00000000000E+00  0.00000000000E+00 -0.74650285035E+03  0.74650285037E+03  0.50400001928E-02 0. -1.
    10030    2    1    2    0    0  0.00000000000E+00  0.00000000000E+00  0.24644519945E+04  0.39574576953E+04  0.30964411469E+04 0.  0.
        1    1    3    3  502    0 -0.11130161410E+04 -0.78361500264E+03  0.21749934993E+04  0.25658242583E+04  0.50400001928E-02 0.  1.
       -1    1    3    3    0  502  0.11130161410E+04  0.78361500264E+03  0.28945849529E+03  0.13916334370E+04  0.50400001928E-02 0. -1.
</event>
<event>
 5   0  0.2933646E-06  0.3128845E+04  0.7818609E-02  0.8207866E-01
       -1   -1    0    0    0  501  0.00000000000E+00  0.00000000000E+00  0.10114910421E+04  0.10114910421E+04  0.50400001928E-02 0.  1.
        1   -1    0    0  501    0  0.00000000000E+00  0.00000000000E+00 -0.24196141300E+04  0.24196141300E+04  0.50400001928E-02 0. -1.
    10030    2    1    2    0    0  0.00000000000E+00  0.00000000000E+00 -0.14081230879E+04  0.34311051721E+04  0.31288451657E+04 0.  0.
        2    1    3    3  502    0 -0.65386277598E+03  0.14210910406E+04 -0.72548724508E+03  0.17243456783E+04  0.25500000920E-02 0.  1.
       -2    1    3    3    0  502  0.65386277598E+03 -0.14210910406E+04 -0.68263584279E+03  0.17067594937E+04  0.25500000920E-02 0. -1.
</event>
<event>
 5   0  0.7941434E-06  0.1582238E+04  0.7818609E-02  0.8831535E-01
       -2   -1    0    0    0  501  0.00000000000E+00  0.00000000000E+00  0.80040227832E+03  0.80040227832E+03  0.25500000920E-02 0. -1.
        2   -1    0    0  501    0  0.00000000000E+00  0.00000000000E+00 -0.78194366520E+03  0.78194366520E+03  0.25500000920E-02 0.  1.
    10030    2    1    2    0    0  0.00000000000E+00  0.00000000000E+00  0.18458613119E+02  0.15823459435E+04  0.15822382768E+04 0.  0.
        4    1    3    3  502    0  0.18971019982E+03 -0.22286407125E+03 -0.72581017943E+03  0.78259848175E+03  0.12699999809E+01 0.  1.
       -4    1    3    3    0  502 -0.18971019982E+03  0.22286407125E+03  0.74426879254E+03  0.79974746178E+03  0.12699999809E+01 0. -1.
</event>
<event>
 5   0  0.7941434E-06  0.3321636E+04  0.7818609E-02  0.8157412E-01
        2   -1    0    0  501    0  0.00000000000E+00  0.00000000000E+00  0.20884557998E+04  0.20884557998E+04  0.25500000920E-02 0.  1.
       -2   -1    0    0    0  501  0.00000000000E+00  0.00000000000E+00 -0.13207446331E+04  0.13207446331E+04  0.25500000920E-02 0. -1.
    10030    2    1    2    0    0  0.00000000000E+00  0.00000000000E+00  0.76771116675E+03  0.34092004329E+04  0.33216362168E+04 0.  0.
        4    1    3    3  502    0 -0.25221746845E+02  0.14597249857E+04  0.11964865536E+04  0.18875949927E+04  0.12699999809E+01 0. -1.
       -4    1    3    3    0  502  0.25221746845E+02 -0.14597249857E+04 -0.42877538689E+03  0.15216054403E+04  0.12699999809E+01 0.  1.
</event>
<event>
 5   0  0.3938696E-06  0.3235797E+04  0.7818609E-02  0.8179427E-01
       -1   -1    0    0    0  501  0.00000000000E+00  0.00000000000E+00  0.25574897220E+04  0.25574897220E+04  0.50400001928E-02 0. -1.
        1   -1    0    0  501    0  0.00000000000E+00  0.00000000000E+00 -0.10235020378E+04  0.10235020378E+04  0.50400001928E-02 0.  1.
    10030    2    1    2    0    0  0.00000000000E+00  0.00000000000E+00  0.15339876842E+04  0.35809917598E+04  0.32357972385E+04 0.  0.
        4    1    3    3  502    0 -0.11339349598E+04 -0.21307830424E+03 -0.48818973253E+03  0.12528135075E+04  0.12699999809E+01 0.  1.
       -4    1    3    3    0  502  0.11339349598E+04  0.21307830424E+03  0.20221774167E+04  0.23281782523E+04  0.12699999809E+01 0. -1.
</event>
<event>
 5   0  0.2933646E-06  0.1884273E+04  0.7818609E-02  0.8662724E-01
        1   -1    0    0  501    0  0.00000000000E+00  0.00000000000E+00  0.69512069218E+03  0.69512069219E+03  0.50400001928E-02 0. -1.
       -1   -1    0    0    0  501  0.00000000000E+00  0.00000000000E+00 -0.12769316191E+04  0.12769316191E+04  0.50400001928E-02 0.  1.
    10030    2    1    2    0    0  0.00000000000E+00  0.00000000000E+00 -0.58181092688E+03  0.19720523113E+04  0.18842734312E+04 0.  0.
        2    1    3    3  502    0 -0.41107003888E+03  0.65493247362E+03 -0.85422343007E+03  0.11522208080E+04  0.25500000920E-02 0.  1.
       -2    1    3    3    0  502  0.41107003888E+03 -0.65493247362E+03  0.27241250319E+03  0.81983150328E+03  0.25500000920E-02 0. -1.
</event>
<event>
 5   0  0.8237664E-06  0.3349376E+04  0.7818609E-02  0.8150444E-01
        2   -1    0    0  501    0  0.00000000000E+00  0.00000000000E+00  0.19692185329E+04  0.19692185329E+04  0.25500000920E-02 0.  1.
       -2   -1    0    0    0  501  0.00000000000E+00  0.00000000000E+00 -0.14242094691E+04  0.14242094691E+04  0.25500000920E-02 0. -1.
    10030    2    1    2    0    0  0.00000000000E+00  0.00000000000E+00  0.54500906381E+03  0.33934280019E+04  0.33493758709E+04 0.  0.
        5    1    3    3  502    0 -0.75849664452E+03  0.56723549032E+02  0.17841138588E+04  0.19394893843E+04  0.46999998093E+01 0.  1.
       -5    1    3    3    0  502  0.75849664452E+03 -0.56723549032E+02 -0.12391047950E+04  0.14539386176E+04  0.46999998093E+01 0. -1.
</event>
<event>
 5   0  0.2580875E-06  0.3218214E+04  0.7818609E-02  0.8184023E-01
       -4   -1    0    0    0  501  0.00000000000E+00  0.00000000000E+00  0.12292402928E+04  0.12292409489E+04  0.12699999809E+01 0. -1.
        4   -1    0    0  501    0  0.00000000000E+00  0.00000000000E+00 -0.21063609487E+04  0.21063613315E+04  0.12699999809E+01 0.  1.
    10030    2    1    2    0    0  0.00000000000E+00  0.00000000000E+00 -0.87712065585E+03  0.33356022804E+04  0.32182140898E+04 0.  0.
        1    1    3    3  502    0  0.14336311058E+04  0.72796813123E+03 -0.50402866605E+03  0.16850165115E+04  0.50400001928E-02 0.  1.
       -1    1    3    3    0  502 -0.14336311058E+04 -0.72796813123E+03 -0.37309198980E+03  0.16505857689E+04  0.50400001928E-02 0. -1.
</event>
<event>
 5   0  0.4142886E-06  0.3277208E+04  0.7818609E-02  0.8168719E-01
        1   -1    0    0  501    0  0.00000000000E+00  0.00000000000E+00  0.18017595014E+04  0.18017595014E+04  0.50400001928E-02 0.  1.
       -1   -1    0    0    0  501  0.00000000000E+00  0.00000000000E+00 -0.14902226240E+04  0.14902226240E+04  0.50400001928E-02 0. -1.
    10030    2    1    2    0    0  0.00000000000E+00  0.00000000000E+00  0.31153687743E+03  0.32919821254E+04  0.32772078189E+04 0.  0.
        5    1    3    3  502    0  0.74075664685E+03 -0.14548010369E+04  0.14299532295E+02  0.16326031464E+04  0.46999998093E+01 0. -1.
       -5    1    3    3    0  502 -0.74075664685E+03  0.14548010369E+04  0.29723734514E+03  0.16593789791E+04  0.46999998093E+01 0.  1.
</event>
<event>
 5   0  0.7952307E-06  0.2072393E+04  0.7818609E-02  0.8573503E-01
       -2   -1    0    0    0  501  0.00000000000E+00  0.00000000000E+00  0.43372552739E+03  0.43372552740E+03  0.25500000920E-02 0. -1.
        2   -1    0    0  501    0  0.00000000000E+00  0.00000000000E+00 -0.24755366215E+04  0.24755366215E+04  0.25500000920E-02 0.  1.
    10030    2    1    2    0    0  0.00000000000E+00  0.00000000000E+00 -0.20418110941E+04  0.29092621489E+04  0.20723932317E+04 0.  0.
        2    1    3    3  502    0  0.24682340340E+02  0.60480446653E+03  0.15972574719E+03  0.62602713597E+03  0.25500000920E-02 0. -1.
       -2    1    3    3    0  502 -0.24682340340E+02 -0.60480446653E+03 -0.22015368413E+04  0.22832350129E+04  0.25500000920E-02 0.  1.
</event>
<event>
 5   0  0.2635798E-06  0.2558277E+04  0.7818609E-02  0.8382513E-01
       -1   -1    0    0    0  501  0.00000000000E+00  0.00000000000E+00  0.71282101003E+03  0.71282101005E+03  0.50400001928E-02 0.  1.
        1   -1    0    0  501    0  0.00000000000E+00  0.00000000000E+00 -0.22953794725E+04  0.22953794725E+04  0.50400001928E-02 0. -1.
    10030    2    1    2    0    0  0.00000000000E+00  0.00000000000E+00 -0.15825584625E+04  0.30082004826E+04  0.25582765402E+04 0.  0.
        1    1    3    3  502    0  0.13631916300E+03 -0.11170839236E+04 -0.15062771059E+04  0.18802473577E+04  0.50400001928E-02 0. -1.
       -1    1    3    3    0  502 -0.13631916300E+03  0.11170839236E+04 -0.76281356599E+02  0.11279531248E+04  0.50400001928E-02 0.  1.
</event>
<event>
 5   0  0.7510251E-06  0.1623801E+04  0.7818609E-02  0.8806058E-01
        2   -1    0    0  501    0  0.00000000000E+00  0.00000000000E+00  0.16094286201E+04  0.16094286201E+04  0.25500000920E-02 0.  1.
       -2   -1    0    0    0  501  0.00000000000E+00  0.00000000000E+00 -0.40957555135E+03  0.40957555136E+03  0.25500000920E-02 0. -1.
    10030    2    1    2    0    0  0.00000000000E+00  0.00000000000E+00  0.11998530687E+04  0.20190041714E+04  0.16238012371E+04 0.  0.
        3    1    3    3  502    0  0.15298462612E+03  0.75372097746E+03  0.92340407855E+03  0.12017382037E+04  0.10100000352E+00 0.  1.
       -3    1    3    3    0  502 -0.15298462612E+03 -0.75372097746E+03  0.27644899020E+03  0.81726596777E+03  0.10100000352E+00 0. -1.
</event>
<event>
 5   0  0.2933646E-06  0.2693383E+04  0.7818609E-02  0.8337155E-01
        1   -1    0    0  501    0  0.00000000000E+00  0.00000000000E+00  0.15174983012E+04  0.15174983012E+04  0.50400001928E-02 0. -1.
       -1   -1    0    0    0  501  0.00000000000E+00  0.00000000000E+00 -0.11951104214E+04  0.11951104214E+04  0.50400001928E-02 0.  1.
    10030    2    1    2    0    0  0.00000000000E+00  0.00000000000E+00  0.32238787983E+03  0.27126087226E+04  0.26933830283E+04 0.  0.
        2    1    3    3  502    0 -0.11834259442E+03  0.11283751141E+04  0.89186738312E+03  0.14431433736E+04  0.25500000920E-02 0.  1.
       -2    1    3    3    0  502  0.11834259442E+03 -0.11283751141E+04 -0.56947950329E+03  0.12694653490E+04  0.25500000920E-02 0. -1.
</event>
<event>
 5   0  0.7952307E-06  0.2607867E+04  0.7818609E-02  0.8365534E-01
        2   -1    0    0  501    0  0.00000000000E+00  0.00000000000E+00  0.27211590229E+04  0.27211590229E+04  0.25500000920E-02 0. -1.
       -2   -1    0    0    0  501  0.00000000000E+00  0.00000000000E+00 -0.62482316708E+03  0.62482316709E+03  0.25500000920E-02 0.  1.
    10030    2    1    2    0    0  0.00000000000E+00  0.00000000000E+00  0.20963358558E+04  0.33459821900E+04  0.26078674804E+04 0.  0.
        2    1    3    3  502    0  0.55072128325E+03 -0.19969584278E+03 -0.44648158556E+03  0.73655832606E+03  0.25500000920E-02 0.  1.
       -2    1    3    3    0  502 -0.55072128325E+03  0.19969584278E+03  0.25428174414E+04  0.26094238639E+04  0.25500000920E-02 0. -1.
</event>
<event>
 5   0  0.2788054E-06  0.2790004E+04  0.7818609E-02  0.8306379E-01
       -1   -1    0    0    0  501  0.00000000000E+00  0.00000000000E+00  0.72748994207E+03  0.72748994209E+03  0.50400001928E-02 0. -1.
        1   -1    0    0  501    0  0.00000000000E+00  0.00000000000E+00 -0.26749922157E+04  0.26749922157E+04  0.50400001928E-02 0.  1.
    10030    2    1    2    0    0  0.00000000000E+00  0.00000000000E+00 -0.19475022736E+04  0.34024821578E+04  0.27900035355E+04 0.  0.
        3    1    3    3  502    0 -0.10359992774E+04  0.55244520546E+03 -0.55018316016E+02  0.11753796124E+04  0.10100000352E+00 0.  1.
       -3    1    3    3    0  502  0.10359992774E+04 -0.55244520546E+03 -0.18924839576E+04  0.22271025454E+04  0.10100000352E+00 0. -1.
</event>
<event>
 5   0  0.7952307E-06  0.3192483E+04  0.7818609E-02  0.8190805E-01
        2   -1    0    0  501    0  0.00000000000E+00  0.00000000000E+00  0.14965132871E+04  0.14965132871E+04  0.25500000920E-02 0.  1.
       -2   -1    0    0    0  501  0.00000000000E+00  0.00000000000E+00 -0.17026160599E+04  0.17026160599E+04  0.25500000920E-02 0. -1.
    10030    2    1    2    0    0  0.00000000000E+00  0.00000000000E+00 -0.20610277275E+03  0.31991293470E+04  0.31924833948E+04 0.  0.
        2    1    3    3  502    0  0.59799974415E+03  0.10567885810E+04 -0.11413462711E+04  0.16664564529E+04  0.25500000920E-02 0. -1.
       -2    1    3    3    0  502 -0.59799974415E+03 -0.10567885810E+04  0.93524349834E+03  0.15326728941E+04  0.25500000920E-02 0.  1.
</event>
<event>
 5   0  0.4142886E-06  0.3181770E+04  0.7818609E-02  0.8193648E-01
       -1   -1    0    0    0  501  0.00000000000E+00  0.00000000000E+00  0.18334761644E+04  0.18334761644E+04  0.50400001928E-02 0.  1.
        1   -1    0    0  501    0  0.00000000000E+00  0.00000000000E+00 -0.13803916264E+04  0.13803916264E+04  0.50400001928E-02 0. -1.
    10030    2    1    2    0    0  0.00000000000E+00  0.00000000000E+00  0.45308453794E+03  0.32138677908E+04  0.31817700386E+04 0.  0.
        5    1    3    3  502    0  0.61750816815E+03  0.23716254591E+03 -0.12348881231E+04  0.14009044141E+04  0.46999998093E+01 0. -1.
       -5    1    3    3    0  502 -0.61750816815E+03 -0.23716254591E+03  0.16879726610E+04  0.18129633767E+04  0.46999998093E+01 0.  1.
</event>
<event>
 5   0  0.3938696E-06  0.3101831E+04  0.7818609E-02  0.8215236E-01
        1   -1    0    0  501    0  0.00000000000E+00  0.00000000000E+00  0.24280556808E+04  0.24280556808E+04  0.50400001928E-02 0.  1.
       -1   -1    0    0    0  501  0.00000000000E+00  0.00000000000E+00 -0.99064373061E+03  0.99064373063E+03  0.50400001928E-02 0. -1.
    10030    2    1    2    0    0  0.00000000000E+00  0.00000000000E+00  0.14374119502E+04  0.34186994115E+04  0.31018305162E+04 0.  0.
        4    1    3    3  502    0  0.13270205270E+04  0.59534867390E+03  0.12526613420E+03  0.14598344906E+04  0.12699999809E+01 0. -1.
       -4    1    3    3    0  502 -0.13270205270E+04 -0.59534867390E+03  0.13121458160E+04  0.19588649208E+04  0.12699999809E+01 0.  1.
</event>
<event>
 5   0  0.7510251E-06  0.1899436E+04  0.7818609E-02  0.8655137E-01
       -2   -1    0    0    0  501  0.00000000000E+00  0.00000000000E+00  0.59709685219E+03  0.59709685219E+03  0.25500000920E-02 0. -1.
        2   -1    0    0  501    0  0.00000000000E+00  0.00000000000E+00 -0.15105821745E+04  0.15105821745E+04  0.25500000920E-02 0.  1.
    10030    2    1    2    0    0  0.00000000000E+00  0.00000000000E+00 -0.91348532227E+03  0.21076790267E+04  0.18994355597E+04 0.  0.
        3    1    3    3  502    0 -0.22582025996E+02  0.36565349135E+03 -0.14290201395E+04  0.14752325217E+04  0.10100000352E+00 0.  1.
       -3    1    3    3    0  502  0.22582025996E+02 -0.36565349135E+03  0.51553481727E+03  0.63244650497E+03  0.10100000352E+00 0. -1.
</event>
<event>
 5   0  0.2788054E-06  0.3283556E+04  0.7818609E-02  0.8167092E-01
        1   -1    0    0  501    0  0.00000000000E+00  0.00000000000E+00  0.21130825792E+04  0.21130825792E+04  0.50400001928E-02 0.  1.
       -1   -1    0    0    0  501  0.00000000000E+00  0.00000000000E+00 -0.12755937573E+04  0.12755937573E+04  0.50400001928E-02 0. -1.
    10030    2    1    2    0    0  0.00000000000E+00  0.00000000000E+00  0.83748882193E+03  0.33886763365E+04  0.32835559667E+04 0.  0.
        3    1    3    3  502    0 -0.89959921925E+03 -0.12874055304E+04  0.91232690197E+03  0.18163237986E+04  0.10100000352E+00 0.  1.
       -3    1    3    3    0  502  0.89959921925E+03  0.12874055304E+04 -0.74838080039E+02  0.15723525379E+04  0.10100000352E+00 0. -1.
</event>
<event>
 5   0  0.2933646E-06  0.3201191E+04  0.7818609E-02  0.8188503E-01
       -1   -1    0    0    0  501  0.00000000000E+00  0.00000000000E+00  0.15102853298E+04  0.15102853298E+04  0.50400001928E-02 0.  1.
        1   -1    0    0  501    0  0.00000000000E+00  0.00000000000E+00 -0.16963063896E+04  0.16963063896E+04  0.50400001928E-02 0. -1.
    10030    2    1    2    0    0  0.00000000000E+00  0.00000000000E+00 -0.18602105982E+03  0.32065917194E+04  0.32011914376E+04 0.  0.
        2    1    3    3  502    0 -0.70647107431E+02  0.14375399367E+04  0.60845259767E+03  0.15626025237E+04  0.25500000920E-02 0.  1.
       -2    1    3    3    0  502  0.70647107431E+02 -0.14375399367E+04 -0.79447365749E+03  0.16439891958E+04  0.25500000920E-02 0. -1.
</event>
<event>
 5   0  0.2933646E-06  0.3242406E+04  0.7818609E-02  0.8177707E-01
        1   -1    0    0  501    0  0.00000000000E+00  0.00000000000E+00  0.24147897829E+04  0.24147897829E+04  0.50400001928E-02 0.  1.
       -1   -1    0    0    0  501  0.00000000000E+00  0.00000000000E+00 -0.10884175903E+04  0.10884175904E+04  0.50400001928E-02 0. -1.
    10030    2    1    2    0    0  0.00000000000E+00  0.00000000000E+00  0.13263721926E+04  0.35032073733E+04  0.32424063143E+04 0.  0.
        2    1    3    3  502    0 -0.12483957963E+04 -0.58768649944E+02  0.17788903327E+04  0.21740277445E+04  0.25500000920E-02 0.  1.
       -2    1    3    3    0  502  0.12483957963E+04  0.58768649944E+02 -0.45251814008E+03  0.13291796288E+04  0.25500000920E-02 0. -1.
</event>
<event>
 5   0  0.7941434E-06  0.3104929E+04  0.7818609E-02  0.8214386E-01
       -2   -1    0    0    0  501  0.00000000000E+00  0.00000000000E+00  0.14688160308E+04  0.14688160308E+04  0.25500000920E-02 0.  1.
        2   -1    0    0  501    0  0.00000000000E+00  0.00000000000E+00 -0.16408770082E+04  0.16408770082E+04  0.25500000920E-02 0. -1.
    10030    2    1    2    0    0  0.00000000000E+00  0.00000000000E+00 -0.17206097744E+03  0.31096930390E+04  0.31049292772E+04 0.  0.
        4    1    3    3  502    0  0.35488108857E+03 -0.12483094810E+04 -0.93935160232E+03  0.16020612327E+04  0.12699999809E+01 0. -1.
       -4    1    3    3    0  502 -0.35488108857E+03  0.12483094810E+04  0.76729062488E+03  0.15076318063E+04  0.12699999809E+01 0.  1.
</event>
<event>
 5   0  0.2635798E-06  0.3178572E+04  0.7818609E-02  0.8194499E-01
       -1   -1    0    0    0  501  0.00000000000E+00  0.00000000000E+00  0.17760107729E+04  0.17760107729E+04  0.50400001928E-02 0.  1.
        1   -1    0    0  501    0  0.00000000000E+00  0.00000000000E+00 -0.14221930240E+04  0.14221930240E+04  0.50400001928E-02 0. -1.
    10030    2    1    2    0    0  0.00000000000E+00  0.00000000000E+00  0.35381774889E+03  0.31982037969E+04  0.31785720893E+04 0.  0.
        1    1    3    3  502    0 -0.70399573518E+03 -0.12120445498E+03 -0.12515530245E+04  0.14410709518E+04  0.50400001928E-02 0. -1.
       -1    1    3    3    0  502  0.70399573518E+03  0.12120445498E+03  0.16053707734E+04  0.17571328450E+04  0.50400001928E-02 0.  1.
</event>
<event>
 5   0  0.2635798E-06  0.3240407E+04  0.7818609E-02  0.8178227E-01
        1   -1    0    0  501    0  0.00000000000E+00  0.00000000000E+00  0.22485551209E+04  0.22485551209E+04  0.50400001928E-02 0.  1.
       -1   -1    0    0    0  501  0.00000000000E+00  0.00000000000E+00 -0.11674426222E+04  0.11674426222E+04  0.50400001928E-02 0. -1.
    10030    2    1    2    0    0  0.00000000000E+00  0.00000000000E+00  0.10811124988E+04  0.34159977431E+04  0.32404068180E+04 0.  0.
        1    1    3    3  502    0  0.45341104634E+03 -0.15534296304E+04  0.62445459435E+03  0.17345514504E+04  0.50400001928E-02 0.  1.
       -1    1    3    3    0  502 -0.45341104634E+03  0.15534296304E+04  0.45665790442E+03  0.16814462927E+04  0.50400001928E-02 0. -1.
</event>
<event>
 5   0  0.8237664E-06  0.1921706E+04  0.7818609E-02  0.8644127E-01
       -2   -1    0    0    0  501  0.00000000000E+00  0.00000000000E+00  0.88929324850E+03  0.88929324850E+03  0.25500000920E-02 0.  1.
        2   -1    0    0  501    0  0.00000000000E+00  0.00000000000E+00 -0.10381705580E+04  0.10381705580E+04  0.25500000920E-02 0. -1.
    10030    2    1    2    0    0  0.00000000000E+00  0.00000000000E+00 -0.14887730954E+03  0.19274638065E+04  0.19217055634E+04 0.  0.
        5    1    3    3  502    0 -0.83216753264E+03  0.23159989445E+03 -0.49650196247E+03  0.99633207428E+03  0.46999998093E+01 0.  1.
       -5    1    3    3    0  502  0.83216753264E+03 -0.23159989445E+03  0.34762465293E+03  0.93113173226E+03  0.46999998093E+01 0. -1.
</event>
<event>
 5   0  0.7971763E-06  0.3037002E+04  0.7818609E-02  0.8233243E-01
       -2   -1    0    0    0  501  0.00000000000E+00  0.00000000000E+00  0.11842432612E+04  0.11842432612E+04  0.25500000920E-02 0.  1.
        2   -1    0    0  501    0  0.00000000000E+00  0.00000000000E+00 -0.19471049514E+04  0.19471049514E+04  0.25500000920E-02 0. -1.
    10030    2    1    2    0    0  0.00000000000E+00  0.00000000000E+00 -0.76286169015E+03  0.31313482126E+04  0.30370024152E+04 0.  0.
        1    1    3    3  502    0  0.33548662638E+03  0.46561891259E+03 -0.18309833184E+04  0.19188153013E+04  0.50400001928E-02 0. -1.
       -1    1    3    3    0  502 -0.33548662638E+03 -0.46561891259E+03  0.10681216282E+04  0.12125329113E+04  0.50400001928E-02 0.  1.
</event>
<event>
 5   0  0.7971763E-06  0.2543495E+04  0.7818609E-02  0.8387652E-01
       -2   -1    0    0    0  501  0.00000000000E+00  0.00000000000E+00  0.15432916395E+04  0.15432916395E+04  0.25500000920E-02 0.  1.
        2   -1    0    0  501    0  0.00000000000E+00  0.00000000000E+00 -0.10479822519E+04  0.10479822519E+04  0.25500000920E-02 0. -1.
    10030    2    1    2    0    0  0.00000000000E+00  0.00000000000E+00  0.49530938757E+03  0.25912738914E+04  0.25434954277E+04 0.  0.
        1    1    3    3  502    0 -0.44232352397E+02 -0.28905854119E+03 -0.10132659988E+04  0.10546180947E+04  0.50400001928E-02 0. -1.
       -1    1    3    3    0  502  0.44232352397E+02  0.28905854119E+03  0.15085753864E+04  0.15366557967E+04  0.50400001928E-02 0.  1.
</event>
<event>
 5   0  0.3785599E-06  0.1674767E+04  0.7818609E-02  0.8775888E-01
       -1   -1    0    0    0  501  0.00000000000E+00  0.00000000000E+00  0.46438694989E+03  0.46438694992E+03  0.50400001928E-02 0. -1.
        1   -1    0    0  501    0  0.00000000000E+00  0.00000000000E+00 -0.15099720300E+04  0.15099720300E+04  0.50400001928E-02 0.  1.
    10030    2    1    2    0    0  0.00000000000E+00  0.00000000000E+00 -0.10455850801E+04  0.19743589799E+04  0.16747672142E+04 0.  0.
        3    1    3    3  502    0  0.22487024084E+03 -0.17996259156E+03 -0.14497431380E+04  0.14780758898E+04  0.10100000352E+00 0.  1.
       -3    1    3    3    0  502 -0.22487024084E+03  0.17996259156E+03  0.40415805791E+03  0.49628309013E+03  0.10100000352E+00 0. -1.
</event>
<event>
 5   0  0.8237664E-06  0.3059156E+04  0.7818609E-02  0.8227038E-01
        2   -1    0    0  501    0  0.00000000000E+00  0.00000000000E+00  0.25086392760E+04  0.25086392760E+04  0.25500000920E-02 0.  1.
       -2   -1    0    0    0  501  0.00000000000E+00  0.00000000000E+00 -0.93262046216E+03  0.93262046217E+03  0.25500000920E-02 0. -1.
    10030    2    1    2    0    0  0.00000000000E+00  0.00000000000E+00  0.15760188139E+04  0.34412597382E+04  0.30591556489E+04 0.  0.
        5    1    3    3  502    0  0.87006433248E+03 -0.94377212699E+02 -0.62313782979E+03  0.10743564799E+04  0.46999998093E+01 0. -1.
       -5    1    3    3    0  502 -0.87006433248E+03  0.94377212699E+02  0.21991566437E+04  0.23669032583E+04  0.46999998093E+01 0.  1.
</event>
<event>
 5   0  0.7952307E-06  0.2659264E+04  0.7818609E-02  0.8348345E-01
        2   -1    0    0  501    0  0.00000000000E+00  0.00000000000E+00  0.19968189966E+04  0.19968189966E+04  0.25500000920E-02 0. -1.
       -2   -1    0    0    0  501  0.00000000000E+00  0.00000000000E+00 -0.88536904496E+03  0.88536904497E+03  0.25500000920E-02 0.  1.
    10030    2    1    2    0    0  0.00000000000E+00  0.00000000000E+00  0.11114499517E+04  0.28821880416E+04  0.26592643554E+04 0.  0.
        2    1    3    3  502    0  0.77427572501E+03 -0.10808937900E+04  0.54558990774E+03  0.14371856634E+04  0.25500000920E-02 0. -1.
       -2    1    3    3    0  502 -0.77427572501E+03  0.10808937900E+04  0.56586004393E+03  0.14450023782E+04  0.25500000920E-02 0.  1.
</event>
<event>
 5   0  0.7971763E-06  0.3040525E+04  0.7818609E-02  0.8232253E-01
       -2   -1    0    0    0  501  0.00000000000E+00  0.00000000000E+00  0.12379919234E+04  0.12379919234E+04  0.25500000920E-02 0. -1.
        2   -1    0    0  501    0  0.00000000000E+00  0.00000000000E+00 -0.18668922217E+04  0.18668922217E+04  0.25500000920E-02 0.  1.
    10030    2    1    2    0    0  0.00000000000E+00  0.00000000000E+00 -0.62890029828E+03  0.31048841450E+04  0.30405246207E+04 0.  0.
        1    1    3    3  502    0 -0.73033331010E+03  0.82625211966E+03  0.75417987066E+03  0.13359889919E+04  0.50400001928E-02 0. -1.
       -1    1    3    3    0  502  0.73033331010E+03 -0.82625211966E+03 -0.13830801689E+04  0.17688951531E+04  0.50400001928E-02 0.  1.
</event>
<event>
 5   0  0.7941434E-06  0.3272515E+04  0.7818609E-02  0.8169924E-01
        2   -1    0    0  501    0  0.00000000000E+00  0.00000000000E+00  0.10692803288E+04  0.10692803288E+04  0.25500000920E-02 0.  1.
       -2   -1    0    0    0  501  0.00000000000E+00  0.00000000000E+00 -0.25038692913E+04  0.25038692913E+04  0.25500000920E-02 0. -1.
    10030    2    1    2    0    0  0.00000000000E+00  0.00000000000E+00 -0.14345889624E+04  0.35731496201E+04  0.32725147389E+04 0.  0.
        4    1    3    3  502    0  0.66464335213E+03 -0.24276568943E+03 -0.23281773067E+04  0.24333304645E+04  0.12699999809E+01 0. -1.
       -4    1    3    3    0  502 -0.66464335213E+03  0.24276568943E+03  0.89358834422E+03  0.11398191555E+04  0.12699999809E+01 0.  1.
</event>
<event>
 5   0  0.7971763E-06  0.3158826E+04  0.7818609E-02  0.8199777E-01
       -2   -1    0    0    0  501  0.00000000000E+00  0.00000000000E+00  0.11845351286E+04  0.11845351286E+04  0.25500000920E-02 0.  1.
        2   -1    0    0  501    0  0.00000000000E+00  0.00000000000E+00 -0.21059279228E+04  0.21059279228E+04  0.25500000920E-02 0. -1.
    10030    2    1    2    0    0  0.00000000000E+00  0.00000000000E+00 -0.92139279424E+03  0.32904630514E+04  0.31588261128E+04 0.  0.
        1    1    3    3  502    0 -0.10845308017E+04  0.83281449984E+03  0.36265912718E+03  0.14146761797E+04  0.50400001928E-02 0.  1.
       -1    1    3    3    0  502  0.10845308017E+04 -0.83281449984E+03 -0.12840519214E+04  0.18757868717E+04  0.50400001928E-02 0. -1.
</event>
<event>
 5   0  0.7952307E-06  0.3068787E+04  0.7818609E-02  0.8224357E-01
        2   -1    0    0  501    0  0.00000000000E+00  0.00000000000E+00  0.98708656835E+03  0.98708656835E+03  0.25500000920E-02 0.  1.
       -2   -1    0    0    0  501  0.00000000000E+00  0.00000000000E+00 -0.23851633850E+04  0.23851633850E+04  0.25500000920E-02 0. -1.
    10030    2    1    2    0    0  0.00000000000E+00  0.00000000000E+00 -0.13980768166E+04  0.33722499533E+04  0.30687865619E+04 0.  0.
        2    1    3    3  502    0 -0.10298762215E+04 -0.28398522220E+03 -0.19093467407E+04  0.21878979899E+04  0.25500000920E-02 0. -1.
       -2    1    3    3    0  502  0.10298762215E+04  0.28398522220E+03  0.51126992407E+03  0.11843519634E+04  0.25500000920E-02 0.  1.
</event>
<event>
 5   0  0.2933646E-06  0.2492742E+04  0.7818609E-02  0.8405576E-01
        1   -1    0    0  501    0  0.00000000000E+00  0.00000000000E+00  0.12445677637E+04  0.12445677637E+04  0.50400001928E-02 0.  1.
       -1   -1    0    0    0  501  0.00000000000E+00  0.00000000000E+00 -0.12481765039E+04  0.12481765039E+04  0.50400001928E-02 0. -1.
    10030    2    1    2    0    0  0.00000000000E+00  0.00000000000E+00 -0.36087401896E+01  0.24927442676E+04  0.24927416555E+04 0.  0.
        2    1    3    3  502    0  0.10243559215E+04  0.62628240066E+03  0.33271883612E+03  0.12458878453E+04  0.25500000920E-02 0.  1.
       -2    1    3    3    0  502 -0.10243559215E+04 -0.62628240066E+03 -0.33632757631E+03  0.12468564223E+04  0.25500000920E-02 0. -1.
</event>
<event>
 5   0  0.2933646E-06  0.2142495E+04  0.7818609E-02  0.8542752E-01
       -1   -1    0    0    0  501  0.00000000000E+00  0.00000000000E+00  0.87043849437E+03  0.87043849438E+03  0.50400001928E-02 0.  1.
        1   -1    0    0  501    0  0.00000000000E+00  0.00000000000E+00 -0.13183827432E+04  0.13183827432E+04  0.50400001928E-02 0. -1.
    10030    2    1    2    0    0  0.00000000000E+00  0.00000000000E+00 -0.44794424879E+03  0.21888212376E+04  0.21424948915E+04 0.  0.
        2    1    3    3  502    0  0.10359986434E+02 -0.20049480087E+03  0.85104752339E+03  0.87440687416E+03  0.25500000920E-02 0.  1.
       -2    1    3    3    0  502 -0.10359986434E+02  0.20049480087E+03 -0.12989917722E+04  0.13144143634E+04  0.25500000920E-02 0. -1.
</event>
<event>
 5   0  0.7971763E-06  0.3261441E+04  0.7818609E-02  0.8172776E-01
        2   -1    0    0  501    0  0.00000000000E+00  0.00000000000E+00  0.24515699527E+04  0.24515699527E+04  0.25500000920E-02 0.  1.
       -2   -1    0    0    0  501  0.00000000000E+00  0.00000000000E+00 -0.10847131438E+04  0.10847131438E+04  0.25500000920E-02 0. -1.
    10030    2    1    2    0    0  0.00000000000E+00  0.00000000000E+00  0.13668568089E+04  0.35362830964E+04  0.32614414914E+04 0.  0.
        1    1    3    3  502    0  0.66690675076E+03 -0.13452809921E+04  0.13732018917E+04  0.20347552672E+04  0.50400001928E-02 0.  1.
       -1    1    3    3    0  502 -0.66690675076E+03  0.13452809921E+04 -0.63450827904E+01  0.15015278292E+04  0.50400001928E-02 0. -1.
</event>
<event>
 5   0  0.2788054E-06  0.3227420E+04  0.7818609E-02  0.8181613E-01
       -1   -1    0    0    0  501  0.00000000000E+00  0.00000000000E+00  0.13789952849E+04  0.13789952850E+04  0.50400001928E-02 0. -1.
        1   -1    0    0  501    0  0.00000000000E+00  0.00000000000E+00 -0.18883751847E+04  0.18883751847E+04  0.50400001928E-02 0.  1.
    10030    2    1    2    0    0  0.00000000000E+00  0.00000000000E+00 -0.50937989975E+03  0.32673704696E+04  0.32274203172E+04 0.  0.
        3    1    3    3  502    0  0.10786547806E+04  0.38129038311E+03  0.89745798739E+03  0.14540664844E+04  0.10100000352E+00 0. -1.
       -3    1    3    3    0  502 -0.10786547806E+04 -0.38129038311E+03 -0.14068378871E+04  0.18133039852E+04  0.10100000352E+00 0.  1.
</event>
<event>
 5   0  0.7510251E-06  0.3241786E+04  0.7818609E-02  0.8177868E-01
       -2   -1    0    0    0  501  0.00000000000E+00  0.00000000000E+00  0.11946098693E+04  0.11946098693E+04  0.25500000920E-02 0.  1.
        2   -1    0    0  501    0  0.00000000000E+00  0.00000000000E+00 -0.21992900620E+04  0.21992900620E+04  0.25500000920E-02 0. -1.
    10030    2    1    2    0    0  0.00000000000E+00  0.00000000000E+00 -0.10046801927E+04  0.33938999313E+04  0.32417856891E+04 0.  0.
        3    1    3    3  502    0  0.11970493692E+04 -0.55276024160E+03  0.48467150802E+03  0.14047695747E+04  0.10100000352E+00 0.  1.
       -3    1    3    3    0  502 -0.11970493692E+04  0.55276024160E+03 -0.14893517007E+04  0.19891303566E+04  0.10100000352E+00 0. -1.
</event>
<event>
 5   0  0.3938696E-06  0.2705188E+04  0.7818609E-02  0.8333324E-01
        1   -1    0    0  501    0  0.00000000000E+00  0.00000000000E+00  0.13179634443E+04  0.13179634443E+04  0.50400001928E-02 0.  1.
       -1   -1    0    0    0  501  0.00000000000E+00  0.00000000000E+00 -0.13881347616E+04  0.13881347616E+04  0.50400001928E-02 0. -1.
    10030    2    1    2    0    0  0.00000000000E+00  0.00000000000E+00 -0.70171317273E+02  0.27060982060E+04  0.27051882534E+04 0.  0.
        4    1    3    3  502    0 -0.62708408255E+03 -0.98218975469E+03  0.65186077570E+03  0.13352360258E+04  0.12699999809E+01 0.  1.
       -4    1    3    3    0  502  0.62708408255E+03  0.98218975469E+03 -0.72203209297E+03  0.13708621802E+04  0.12699999809E+01 0. -1.
</event>
<event>
 5   0  0.7952307E-06  0.3145910E+04  0.7818609E-02  0.8203250E-01
        2   -1    0    0  501    0  0.00000000000E+00  0.00000000000E+00  0.14859606143E+04  0.14859606143E+04  0.25500000920E-02 0.  1.
       -2   -1    0    0    0  501  0.00000000000E+00  0.00000000000E+00 -0.16650424226E+04  0.16650424226E+04  0.25500000920E-02 0. -1.
    10030    2    1    2    0    0  0.00000000000E+00  0.00000000000E+00 -0.17908180828E+03  0.31510030370E+04  0.31459100186E+04 0.  0.
        2    1    3    3  502    0 -0.60802109652E+03  0.60914855227E+03 -0.14082725015E+04  0.16504493482E+04  0.25500000920E-02 0. -1.
       -2    1    3    3    0  502  0.60802109652E+03 -0.60914855227E+03  0.12291906932E+04  0.15005536888E+04  0.25500000920E-02 0.  1.
</event>
<event>
 5   0  0.2635798E-06  0.3044780E+04  0.7818609E-02  0.8231058E-01
        1   -1    0    0  501    0  0.00000000000E+00  0.00000000000E+00  0.76316507190E+03  0.76316507192E+03  0.50400001928E-02 0. -1.
       -1   -1    0    0    0  501  0.00000000000E+00  0.00000000000E+00 -0.30369198478E+04  0.30369198478E+04  0.50400001928E-02 0.  1.
    10030    2    1    2    0    0  0.00000000000E+00  0.00000000000E+00 -0.22737547759E+04  0.38000849198E+04  0.30447798962E+04 0.  0.
        1    1    3    3  502    0  0.21471805195E+03  0.11976747700E+04  0.50463019274E+01  0.12167802438E+04  0.50400001928E-02 0. -1.
       -1    1    3    3    0  502 -0.21471805195E+03 -0.11976747700E+04 -0.22788010779E+04  0.25833046760E+04  0.50400001928E-02 0.  1.
</event>
<event>
 5   0  0.2635798E-06  0.3144086E+04  0.7818609E-02  0.8203742E-01
        1   -1    0    0  501    0  0.00000000000E+00  0.00000000000E+00  0.12715107683E+04  0.12715107683E+04  0.50400001928E-02 0.  1.
       -1   -1    0    0    0  501  0.00000000000E+00  0.00000000000E+00 -0.19436089679E+04  0.19436089679E+04  0.50400001928E-02 0. -1.
    10030    2    1    2    0    0  0.00000000000E+00  0.00000000000E+00 -0.67209819961E+03  0.32151197361E+04  0.31440863423E+04 0.  0.
        1    1    3    3  502    0 -0.44248396532E+03 -0.53558215124E+02  0.12055443063E+04  0.12853005938E+04  0.50400001928E-02 0.  1.
       -1    1    3    3    0  502  0.44248396532E+03  0.53558215124E+02 -0.18776425059E+04  0.19298191423E+04  0.50400001928E-02 0. -1.
</event>
<event>
 5   0  0.8237664E-06  0.3142114E+04  0.7818609E-02  0.8204274E-01
       -2   -1    0    0    0  501  0.00000000000E+00  0.00000000000E+00  0.12612968704E+04  0.12612968704E+04  0.25500000920E-02 0. -1.
        2   -1    0    0  501    0  0.00000000000E+00  0.00000000000E+00 -0.19568901967E+04  0.19568901967E+04  0.25500000920E-02 0.  1.
    10030    2    1    2    0    0  0.00000000000E+00  0.00000000000E+00 -0.69559332632E+03  0.32181870671E+04  0.31421136076E+04 0.  0.
        5    1    3    3  502    0  0.13115669696E+04  0.85319374727E+03 -0.20277076722E+03  0.15777469886E+04  0.46999998093E+01 0.  1.
       -5    1    3    3    0  502 -0.13115669696E+04 -0.85319374727E+03 -0.49282255910E+03  0.16404400784E+04  0.46999998093E+01 0. -1.
</event>
<event>
 5   0  0.2788054E-06  0.3060946E+04  0.7818609E-02  0.8226539E-01
        1   -1    0    0  501    0  0.00000000000E+00  0.00000000000E+00  0.20808121205E+04  0.20808121205E+04  0.50400001928E-02 0. -1.
       -1   -1    0    0    0  501  0.00000000000E+00  0.00000000000E+00 -0.11256888202E+04  0.11256888202E+04  0.50400001928E-02 0.  1.
    10030    2    1    2    0    0  0.00000000000E+00  0.00000000000E+00  0.95512330028E+03  0.32065009407E+04  0.30609455670E+04 0.  0.
        3    1    3    3  502    0  0.57784064241E+03 -0.47295938141E+03  0.18770370116E+04  0.20201134467E+04  0.10100000352E+00 0. -1.
       -3    1    3    3    0  502 -0.57784064241E+03  0.47295938141E+03 -0.92191371134E+03  0.11863874940E+04  0.10100000352E+00 0.  1.
</event>
<event>
 5   0  0.4142886E-06  0.3250370E+04  0.7818609E-02  0.8175640E-01
       -1   -1    0    0    0  501  0.00000000000E+00  0.00000000000E+00  0.30444044993E+04  0.30444044993E+04  0.50400001928E-02 0.  1.
        1   -1    0    0  501    0  0.00000000000E+00  0.00000000000E+00 -0.86756731139E+03  0.86756731140E+03  0.50400001928E-02 0. -1.
    10030    2    1    2    0    0  0.00000000000E+00  0.00000000000E+00  0.21768371879E+04  0.39119718107E+04  0.32503697182E+04 0.  0.
        5    1    3    3  502    0  0.10412613220E+04  0.24742736851E+03  0.25603706450E+04  0.27750613278E+04  0.46999998093E+01 0.  1.
       -5    1    3    3    0  502 -0.10412613220E+04 -0.24742736851E+03 -0.38353345710E+03  0.11369104829E+04  0.46999998093E+01 0. -1.
</event>
<event>
 5   0  0.7952307E-06  0.1621754E+04  0.7818609E-02  0.8807294E-01
       -2   -1    0    0    0  501  0.00000000000E+00  0.00000000000E+00  0.86751156051E+03  0.86751156051E+03  0.25500000920E-02 0.  1.
        2   -1    0    0  501    0  0.00000000000E+00  0.00000000000E+00 -0.75793986553E+03  0.75793986553E+03  0.25500000920E-02 0. -1.
    10030    2    1    2    0    0  0.00000000000E+00  0.00000000000E+00  0.10957169498E+03  0.16254514260E+04  0.16217541065E+04 0.  0.
        2    1    3    3  502    0 -0.48140886156E+03  0.64627525513E+03  0.14496540406E+03  0.81880471773E+03  0.25500000920E-02 0.  1.
       -2    1    3    3    0  502  0.48140886156E+03 -0.64627525513E+03 -0.35393709078E+02  0.80664670832E+03  0.25500000920E-02 0. -1.
</event>
<event>
 5   0  0.7941434E-06  0.3220800E+04  0.7818609E-02  0.8183345E-01
       -2   -1    0    0    0  501  0.00000000000E+00  0.00000000000E+00  0.11707190169E+04  0.11707190169E+04  0.25500000920E-02 0.  1.
        2   -1    0    0  501    0  0.00000000000E+00  0.00000000000E+00 -0.22152099383E+04  0.22152099383E+04  0.25500000920E-02 0. -1.
    10030    2    1    2    0    0  0.00000000000E+00  0.00000000000E+00 -0.10444909214E+04  0.33859289551E+04  0.32208001497E+04 0.  0.
        4    1    3    3  502    0  0.11181122558E+04 -0.50486794896E+02 -0.17394788367E+04  0.20684564703E+04  0.12699999809E+01 0. -1.
       -4    1    3    3    0  502 -0.11181122558E+04  0.50486794896E+02  0.69498791532E+03  0.13174724849E+04  0.12699999809E+01 0.  1.
</event>
<event>
 5   0  0.2788054E-06  0.3325512E+04  0.7818609E-02  0.8156434E-01
        1   -1    0    0  501    0  0.00000000000E+00  0.00000000000E+00  0.18126199584E+04  0.18126199584E+04  0.50400001928E-02 0.  1.
       -1   -1    0    0    0  501  0.00000000000E+00  0.00000000000E+00 -0.15252828726E+04  0.15252828727E+04  0.50400001928E-02 0. -1.
    10030    2    1    2    0    0  0.00000000000E+00  0.00000000000E+00  0.28733708573E+03  0.33379028310E+04  0.33255123979E+04 0.  0.
        3    1    3    3  502    0 -0.80567816139E+03  0.26079559602E+03 -0.12926160173E+04  0.15453115612E+04  0.10100000352E+00 0. -1.
       -3    1    3    3    0  502  0.80567816139E+03 -0.26079559602E+03  0.15799531031E+04  0.17925912699E+04  0.10100000352E+00 0.  1.
</event>
<event>
 5   0  0.7952307E-06  0.1589971E+04  0.7818609E-02  0.8826733E-01
       -2   -1    0    0    0  501  0.00000000000E+00  0.00000000000E+00  0.83826659704E+03  0.83826659704E+03  0.25500000920E-02 0.  1.
        2   -1    0    0  501    0  0.00000000000E+00  0.00000000000E+00 -0.75393888635E+03  0.75393888636E+03  0.25500000920E-02 0. -1.
    10030    2    1    2    0    0  0.00000000000E+00  0.00000000000E+00  0.84327710690E+02  0.15922054834E+04  0.15899707980E+04 0.  0.
        2    1    3    3  502    0 -0.51107797166E+03  0.27660766531E+03  0.58541068016E+03  0.82487463173E+03  0.25500000920E-02 0.  1.
       -2    1    3    3    0  502  0.51107797166E+03 -0.27660766531E+03 -0.50108296947E+03  0.76733085167E+03  0.25500000920E-02 0. -1.
</event>
<event>
 5   0  0.7941434E-06  0.3210578E+04  0.7818609E-02  0.8186029E-01
        2   -1    0    0  501    0  0.00000000000E+00  0.00000000000E+00  0.17925513443E+04  0.17925513443E+04  0.25500000920E-02 0. -1.
       -2   -1    0    0    0  501  0.00000000000E+00  0.00000000000E+00 -0.14375891308E+04  0.14375891308E+04  0.25500000920E-02 0.  1.
    10030    2    1    2    0    0  0.00000000000E+00  0.00000000000E+00  0.35496221350E+03  0.32301404750E+04  0.32105777230E+04 0.  0.
        4    1    3    3  502    0  0.24598103152E+03 -0.38982561498E+03  0.17245371537E+04  0.17850772211E+04  0.12699999809E+01 0. -1.
       -4    1    3    3    0  502 -0.24598103152E+03  0.38982561498E+03 -0.13695749402E+04  0.14450632539E+04  0.12699999809E+01 0.  1.
</event>
<event>
 5   0  0.7510251E-06  0.2630155E+04  0.7818609E-02  0.8358030E-01
        2   -1    0    0  501    0  0.00000000000E+00  0.00000000000E+00  0.15296587032E+04  0.15296587032E+04  0.25500000920E-02 0.  1.
       -2   -1    0    0    0  501  0.00000000000E+00  0.00000000000E+00 -0.11305974280E+04  0.11305974280E+04  0.25500000920E-02 0. -1.
    10030    2    1    2    0    0  0.00000000000E+00  0.00000000000E+00  0.39906127520E+03  0.26602561313E+04  0.26301545169E+04 0.  0.
        3    1    3    3  502    0 -0.30406883595E+03 -0.11268866715E+04 -0.41328870430E+03  0.12381998993E+04  0.10100000352E+00 0. -1.
       -3    1    3    3    0  502  0.30406883595E+03  0.11268866715E+04  0.81234997950E+03  0.14220562319E+04  0.10100000352E+00 0.  1.
</event>
<event>
 5   0  0.4142886E-06  0.2899764E+04  0.7818609E-02  0.8272948E-01
       -1   -1    0    0    0  501  0.00000000000E+00  0.00000000000E+00  0.31245955954E+04  0.31245955954E+04  0.50400001928E-02 0.  1.
        1   -1    0    0  501    0  0.00000000000E+00  0.00000000000E+00 -0.67277752877E+03  0.67277752879E+03  0.50400001928E-02 0. -1.
    10030    2    1    2    0    0  0.00000000000E+00  0.00000000000E+00  0.24518180666E+04  0.37973731242E+04  0.28997639236E+04 0.  0.
        5    1    3    3  502    0  0.37191956394E+03  0.12602007188E+04  0.20285927702E+04  0.24169486405E+04  0.46999998093E+01 0.  1.
       -5    1    3    3    0  502 -0.37191956394E+03 -0.12602007188E+04  0.42322529645E+03  0.13804244837E+04  0.46999998093E+01 0. -1.
</event>
<event>
 5   0  0.7952307E-06  0.3173084E+04  0.7818609E-02  0.8195962E-01
        2   -1    0    0  501    0  0.00000000000E+00  0.00000000000E+00  0.18634279297E+04  0.18634279297E+04  0.25500000920E-02 0. -1.
       -2   -1    0    0    0  501  0.00000000000E+00  0.00000000000E+00 -0.13507984371E+04  0.13507984371E+04  0.25500000920E-02 0.  1.
    10030    2    1    2    0    0  0.00000000000E+00  0.00000000000E+00  0.51262949264E+03  0.32142263668E+04  0.31730840109E+04 0.  0.
        2    1    3    3  502    0 -0.17565116949E+02  0.14514858582E+03 -0.13439596689E+04  0.13518891363E+04  0.25500000920E-02 0.  1.
       -2    1    3    3    0  502  0.17565116949E+02 -0.14514858582E+03  0.18565891615E+04  0.18623372305E+04  0.25500000920E-02 0. -1.
</event>
<event>
 5   0  0.3938696E-06  0.2692035E+04  0.7818609E-02  0.8337594E-01
       -1   -1    0    0    0  501  0.00000000000E+00  0.00000000000E+00  0.88965892726E+03  0.88965892727E+03  0.50400001928E-02 0. -1.
        1   -1    0    0  501    0  0.00000000000E+00  0.00000000000E+00 -0.20364691199E+04  0.20364691199E+04  0.50400001928E-02 0.  1.
    10030    2    1    2    0    0  0.00000000000E+00  0.00000000000E+00 -0.11468101927E+04  0.29261280472E+04  0.26920348680E+04 0.  0.
        4    1    3    3  502    0 -0.99734124762E+03  0.70327026389E+03  0.43851658325E+02  0.12211483158E+04  0.12699999809E+01 0. -1.
       -4    1    3    3    0  502  0.99734124762E+03 -0.70327026389E+03 -0.11906618510E+04  0.17049797314E+04  0.12699999809E+01 0.  1.
</event>
<event>
 5   0  0.7952307E-06  0.3167267E+04  0.7818609E-02  0.8197516E-01
       -2   -1    0    0    0  501  0.00000000000E+00  0.00000000000E+00  0.20642145706E+04  0.20642145706E+04  0.25500000920E-02 0. -1.
        2   -1    0    0  501    0  0.00000000000E+00  0.00000000000E+00 -0.12149390243E+04  0.12149390243E+04  0.25500000920E-02 0.  1.
    10030    2    1    2    0    0  0.00000000000E+00  0.00000000000E+00  0.84927554636E+03  0.32791535949E+04  0.31672668573E+04 0.  0.
        2    1    3    3  502    0  0.19442904593E+03 -0.14304495816E+04 -0.24944305542E+03  0.14649950502E+04  0.25500000920E-02 0.  1.
       -2    1    3    3    0  502 -0.19442904593E+03  0.14304495816E+04  0.10987186018E+04  0.18141585447E+04  0.25500000920E-02 0. -1.
</event>
<event>
 5   0  0.4142886E-06  0.2993614E+04  0.7818609E-02  0.8245557E-01
        1   -1    0    0  501    0  0.00000000000E+00  0.00000000000E+00  0.17366848901E+04  0.17366848901E+04  0.50400001928E-02 0. -1.
       -1   -1    0    0    0  501  0.00000000000E+00  0.00000000000E+00 -0.12900621253E+04  0.12900621253E+04  0.50400001928E-02 0.  1.
    10030    2    1    2    0    0  0.00000000000E+00  0.00000000000E+00  0.44662276488E+03  0.30267470154E+04  0.29936141370E+04 0.  0.
        5    1    3    3  502    0  0.61280688479E+03  0.13409459650E+04  0.48451338216E+03  0.15519161275E+04  0.46999998093E+01 0. -1.
       -5    1    3    3    0  502 -0.61280688479E+03 -0.13409459650E+04 -0.37890617284E+02  0.14748308880E+04  0.46999998093E+01 0.  1.
</event>
<event>
 5   0  0.4142886E-06  0.3270164E+04  0.7818609E-02  0.8170529E-01
       -1   -1    0    0    0  501  0.00000000000E+00  0.00000000000E+00  0.17583095908E+04  0.17583095908E+04  0.50400001928E-02 0. -1.
        1   -1    0    0  501    0  0.00000000000E+00  0.00000000000E+00 -0.15204902445E+04  0.15204902445E+04  0.50400001928E-02 0.  1.
    10030    2    1    2    0    0  0.00000000000E+00  0.00000000000E+00  0.23781934631E+03  0.32787998353E+04  0.32701636532E+04 0.  0.
        5    1    3    3  502    0  0.73653599187E+03 -0.10373218008E+04 -0.91090977414E+03  0.15647046023E+04  0.46999998093E+01 0.  1.
       -5    1    3    3    0  502 -0.73653599187E+03  0.10373218008E+04  0.11487291205E+04  0.17140952330E+04  0.46999998093E+01 0. -1.
</event>
<event>
 5   0  0.2788054E-06  0.2899857E+04  0.7818609E-02  0.8272920E-01
       -1   -1    0    0    0  501  0.00000000000E+00  0.00000000000E+00  0.12359917455E+04  0.12359917455E+04  0.50400001928E-02 0.  1.
        1   -1    0    0  501    0  0.00000000000E+00  0.00000000000E+00 -0.17008957244E+04  0.17008957244E+04  0.50400001928E-02 0. -1.
    10030    2    1    2    0    0  0.00000000000E+00  0.00000000000E+00 -0.46490397889E+03  0.29368874699E+04  0.28998572898E+04 0.  0.
        3    1    3    3  502    0 -0.13939216497E+04 -0.32533799334E+03 -0.46655450007E+03  0.15055017393E+04  0.10100000352E+00 0.  1.
       -3    1    3    3    0  502  0.13939216497E+04  0.32533799334E+03  0.16505211741E+01  0.14313857306E+04  0.10100000352E+00 0. -1.
</event>
<event>
 5   0  0.2933646E-06  0.3261420E+04  0.7818609E-02  0.8172782E-01
       -1   -1    0    0    0  501  0.00000000000E+00  0.00000000000E+00  0.18030053203E+04  0.18030053203E+04  0.50400001928E-02 0. -1.
        1   -1    0    0  501    0  0.00000000000E+00  0.00000000000E+00 -0.14748791983E+04  0.14748791983E+04  0.50400001928E-02 0.  1.
    10030    2    1    2    0    0  0.00000000000E+00  0.00000000000E+00  0.32812612206E+03  0.32778845186E+04  0.32614199615E+04 0.  0.
        2    1    3    3  502    0  0.10685779279E+04 -0.36290079248E+03  0.13471458859E+04  0.17573724167E+04  0.25500000920E-02 0. -1.
       -2    1    3    3    0  502 -0.10685779279E+04  0.36290079248E+03 -0.10190197638E+04  0.15205121019E+04  0.25500000920E-02 0.  1.
</event>
<event>
 5   0  0.8237664E-06  0.3095285E+04  0.7818609E-02  0.8217033E-01
       -2   -1    0    0    0  501  0.00000000000E+00  0.00000000000E+00  0.20428616587E+04  0.20428616587E+04  0.25500000920E-02 0. -1.
        2   -1    0    0  501    0  0.00000000000E+00  0.00000000000E+00 -0.11724717032E+04  0.11724717032E+04  0.25500000920E-02 0.  1.
    10030    2    1    2    0    0  0.00000000000E+00  0.00000000000E+00  0.87038995544E+03  0.32153333619E+04  0.30952851167E+04 0.  0.
        5    1    3    3  502    0 -0.28397195482E+03 -0.35248220309E+03  0.19725576018E+04  0.20238303677E+04  0.46999998093E+01 0. -1.
       -5    1    3    3    0  502  0.28397195482E+03  0.35248220309E+03 -0.11021676464E+04  0.11915029943E+04  0.46999998093E+01 0.  1.
</event>
<event>
 5   0  0.2635798E-06  0.3213212E+04  0.7818609E-02  0.8185337E-01
        1   -1    0    0  501    0  0.00000000000E+00  0.00000000000E+00  0.10187836129E+04  0.10187836130E+04  0.50400001928E-02 0.  1.
       -1   -1    0    0    0  501  0.00000000000E+00  0.00000000000E+00 -0.25335934200E+04  0.25335934200E+04  0.50400001928E-02 0. -1.
    10030    2    1    2    0    0  0.00000000000E+00  0.00000000000E+00 -0.15148098071E+04  0.35523770330E+04  0.32132123853E+04 0.  0.
        1    1    3    3  502    0 -0.38174373802E+03 -0.15429333936E+04 -0.10162359298E+04  0.18865596211E+04  0.50400001928E-02 0.  1.
       -1    1    3    3    0  502  0.38174373802E+03  0.15429333936E+04 -0.49857387727E+03  0.16658174119E+04  0.50400001928E-02 0. -1.
</event>
<event>
 5   0  0.4142886E-06  0.3229557E+04  0.7818609E-02  0.8181055E-01
       -1   -1    0    0    0  501  0.00000000000E+00  0.00000000000E+00  0.18655118153E+04  0.18655118153E+04  0.50400001928E-02 0. -1.
        1   -1    0    0  501    0  0.00000000000E+00  0.00000000000E+00 -0.13977447952E+04  0.13977447952E+04  0.50400001928E-02 0.  1.
    10030    2    1    2    0    0  0.00000000000E+00  0.00000000000E+00  0.46776702011E+03  0.32632566105E+04  0.32295568923E+04 0.  0.
        5    1    3    3  502    0  0.15966861825E+04 -0.23981849439E+03  0.20980918190E+03  0.16281774039E+04  0.46999998093E+01 0. -1.
       -5    1    3    3    0  502 -0.15966861825E+04  0.23981849439E+03  0.25795783822E+03  0.16350792066E+04  0.46999998093E+01 0.  1.
</event>
<event>
 5   0  0.7952307E-06  0.1699940E+04  0.7818609E-02  0.8761398E-01
       -2   -1    0    0    0  501  0.00000000000E+00  0.00000000000E+00  0.88762714279E+03  0.88762714280E+03  0.25500000920E-02 0.  1.
        2   -1    0    0  501    0  0.00000000000E+00  0.00000000000E+00 -0.81391060772E+03  0.81391060772E+03  0.25500000920E-02 0. -1.
    10030    2    1    2    0    0  0.00000000000E+00  0.00000000000E+00  0.73716535075E+02  0.17015377505E+04  0.16999401722E+04 0.  0.
        2    1    3    3  502    0  0.29278577959E+03 -0.75352729264E+03  0.29963547128E+03  0.86215329794E+03  0.25500000920E-02 0.  1.
       -2    1    3    3    0  502 -0.29278577959E+03  0.75352729264E+03 -0.22591893620E+03  0.83938445258E+03  0.25500000920E-02 0. -1.
</event>
<event>
 5   0  0.2933646E-06  0.3212615E+04  0.7818609E-02  0.8185494E-01
        1   -1    0    0  501    0  0.00000000000E+00  0.00000000000E+00  0.18249465336E+04  0.18249465336E+04  0.50400001928E-02 0.  1.
       -1   -1    0    0    0  501  0.00000000000E+00  0.00000000000E+00 -0.14138624225E+04  0.14138624226E+04  0.50400001928E-02 0. -1.
    10030    2    1    2    0    0  0.00000000000E+00  0.00000000000E+00  0.41108411104E+03  0.32388089561E+04  0.32126147152E+04 0.  0.
        2    1    3    3  502    0 -0.68324310319E+03 -0.14463649254E+04  0.57956185649E+02  0.16006722197E+04  0.25500000920E-02 0.  1.
       -2    1    3    3    0  502  0.68324310319E+03  0.14463649254E+04  0.35312792539E+03  0.16381367364E+04  0.25500000920E-02 0. -1.
</event>
<event>
 5   0  0.8237664E-06  0.2522243E+04  0.7818609E-02  0.8395104E-01
       -2   -1    0    0    0  501  0.00000000000E+00  0.00000000000E+00  0.10882769906E+04  0.10882769906E+04  0.25500000920E-02 0.  1.
        2   -1    0    0  501    0  0.00000000000E+00  0.00000000000E+00 -0.14614177419E+04  0.14614177419E+04  0.25500000920E-02 0. -1.
    10030    2    1    2    0    0  0.00000000000E+00  0.00000000000E+00 -0.37314075133E+03  0.25496947325E+04  0.25222428924E+04 0.  0.
        5    1    3    3  502    0 -0.31296139106E+03 -0.59433523311E+03 -0.12655325654E+04  0.14327504897E+04  0.46999998093E+01 0. -1.
       -5    1    3    3    0  502  0.31296139106E+03  0.59433523311E+03  0.89239181408E+03  0.11169442428E+04  0.46999998093E+01 0.  1.
</event>
<event>
 5   0  0.2635798E-06  0.3184042E+04  0.7818609E-02  0.8193044E-01
        1   -1    0    0  501    0  0.00000000000E+00  0.00000000000E+00  0.27021880055E+04  0.27021880055E+04  0.50400001928E-02 0.  1.
       -1   -1    0    0    0  501  0.00000000000E+00  0.00000000000E+00 -0.93795482076E+03  0.93795482077E+03  0.50400001928E-02 0. -1.
    10030    2    1    2    0    0  0.00000000000E+00  0.00000000000E+00  0.17642331848E+04  0.36401428263E+04  0.31840416244E+04 0.  0.
        1    1    3    3  502    0 -0.75297668117E+03  0.44527386035E+02  0.24849351179E+04  0.25968941278E+04  0.50400001928E-02 0.  1.
       -1    1    3    3    0  502  0.75297668117E+03 -0.44527386035E+02 -0.72070193317E+03  0.10432486985E+04  0.50400001928E-02 0. -1.
</event>
<event>
 5   0  0.7510251E-06  0.1670074E+04  0.7818609E-02  0.8778619E-01
        2   -1    0    0  501    0  0.00000000000E+00  0.00000000000E+00  0.17531849975E+04  0.17531849975E+04  0.25500000920E-02 0.  1.
       -2   -1    0    0    0  501  0.00000000000E+00  0.00000000000E+00 -0.39772571378E+03  0.39772571379E+03  0.25500000920E-02 0. -1.
    10030    2    1    2    0    0  0.00000000000E+00  0.00000000000E+00  0.13554592837E+04  0.21509107113E+04  0.16700739559E+04 0.  0.
        3    1    3    3  502    0 -0.83260018234E+03 -0.37741752791E+02  0.61156496654E+03  0.10337597506E+04  0.10100000352E+00 0.  1.
       -3    1    3    3    0  502  0.83260018234E+03  0.37741752791E+02  0.74389431717E+03  0.11171509606E+04  0.10100000352E+00 0. -1.
</event>
<event>
 5   0  0.8237664E-06  0.3210475E+04  0.7818609E-02  0.8186056E-01
       -2   -1    0    0    0  501  0.00000000000E+00  0.00000000000E+00  0.99364943908E+03  0.99364943909E+03  0.25500000920E-02 0.  1.
        2   -1    0    0  501    0  0.00000000000E+00  0.00000000000E+00 -0.25932559449E+04  0.25932559449E+04  0.25500000920E-02 0. -1.
    10030    2    1    2    0    0  0.00000000000E+00  0.00000000000E+00 -0.15996065059E+04  0.35869053840E+04  0.32104749275E+04 0.  0.
        5    1    3    3  502    0 -0.27492002166E+02 -0.44459882586E+03 -0.25228129711E+04  0.25618413892E+04  0.46999998093E+01 0. -1.
       -5    1    3    3    0  502  0.27492002166E+02  0.44459882586E+03  0.92320646523E+03  0.10250639949E+04  0.46999998093E+01 0.  1.
</event>
<event>
 5   0  0.2635798E-06  0.3694742E+04  0.7818609E-02  0.8069128E-01
        1   -1    0    0  501    0  0.00000000000E+00  0.00000000000E+00  0.23418737600E+04  0.23418737600E+04  0.50400001928E-02 0.  1.
       -1   -1    0    0    0  501  0.00000000000E+00  0.00000000000E+00 -0.14572855677E+04  0.14572855677E+04  0.50400001928E-02 0. -1.
    10030    2    1    2    0    0  0.00000000000E+00  0.00000000000E+00  0.88458819232E+03  0.37991593277E+04  0.36947415778E+04 0.  0.
        1    1    3    3  502    0  0.68809625378E+03 -0.17185238324E+03 -0.13117184919E+04  0.14911790966E+04  0.50400001928E-02 0. -1.
       -1    1    3    3    0  502 -0.68809625378E+03  0.17185238324E+03  0.21963066842E+04  0.23079802311E+04  0.50400001928E-02 0.  1.
</event>
<event>
 5   0  0.7952307E-06  0.3148852E+04  0.7818609E-02  0.8202457E-01
       -2   -1    0    0    0  501  0.00000000000E+00  0.00000000000E+00  0.29903653829E+04  0.29903653829E+04  0.25500000920E-02 0. -1.
        2   -1    0    0  501    0  0.00000000000E+00  0.00000000000E+00 -0.82893441789E+03  0.82893441790E+03  0.25500000920E-02 0.  1.
    10030    2    1    2    0    0  0.00000000000E+00  0.00000000000E+00  0.21614309650E+04  0.38192998008E+04  0.31488517196E+04 0.  0.
        2    1    3    3  502    0  0.72578506115E+03 -0.65796678966E+03 -0.41424383019E+03  0.10636175074E+04  0.25500000920E-02 0.  1.
       -2    1    3    3    0  502 -0.72578506115E+03  0.65796678966E+03  0.25756747952E+04  0.27556822934E+04  0.25500000920E-02 0. -1.
</event>
<event>
 5   0  0.8237664E-06  0.1667063E+04  0.7818609E-02  0.8780375E-01
        2   -1    0    0  501    0  0.00000000000E+00  0.00000000000E+00  0.49939141140E+03  0.49939141141E+03  0.25500000920E-02 0.  1.
       -2   -1    0    0    0  501  0.00000000000E+00  0.00000000000E+00 -0.13912436978E+04  0.13912436978E+04  0.25500000920E-02 0. -1.
    10030    2    1    2    0    0  0.00000000000E+00  0.00000000000E+00 -0.89185228643E+03  0.18906351092E+04  0.16670634707E+04 0.  0.
        5    1    3    3  502    0 -0.24648693238E+03  0.37752663759E+03 -0.12409945287E+04  0.13203680093E+04  0.46999998093E+01 0. -1.
       -5    1    3    3    0  502  0.24648693238E+03 -0.37752663759E+03  0.34914224223E+03  0.57026709990E+03  0.46999998093E+01 0.  1.
</event>
<event>
 5   0  0.3938696E-06  0.3118161E+04  0.7818609E-02  0.8210771E-01
        1   -1    0    0  501    0  0.00000000000E+00  0.00000000000E+00  0.13527839535E+04  0.13527839535E+04  0.50400001928E-02 0.  1.
       -1   -1    0    0    0  501  0.00000000000E+00  0.00000000000E+00 -0.17968364419E+04  0.17968364419E+04  0.50400001928E-02 0. -1.
    10030    2    1    2    0    0  0.00000000000E+00  0.00000000000E+00 -0.44405248839E+03  0.31496203955E+04  0.31181606795E+04 0.  0.
        4    1    3    3  502    0 -0.30015611025E+03  0.14033467141E+04 -0.83747998047E+03  0.16615805792E+04  0.12699999809E+01 0. -1.
       -4    1    3    3    0  502  0.30015611025E+03 -0.14033467141E+04  0.39342749208E+03  0.14880398163E+04  0.12699999809E+01 0.  1.
</event>
<event>
 5   0  0.8237664E-06  0.3334553E+04  0.7818609E-02  0.8154159E-01
        2   -1    0    0  501    0  0.00000000000E+00  0.00000000000E+00  0.19226736960E+04  0.19226736960E+04  0.25500000920E-02 0.  1.
       -2   -1    0    0    0  501  0.00000000000E+00  0.00000000000E+00 -0.14458046183E+04  0.14458046183E+04  0.25500000920E-02 0. -1.
    10030    2    1    2    0    0  0.00000000000E+00  0.00000000000E+00  0.47686907771E+03  0.33684783144E+04  0.33345527492E+04 0.  0.
        5    1    3    3  502    0  0.43984947642E+03  0.13024476459E+04  0.11914044937E+04  0.18191493038E+04  0.46999998093E+01 0.  1.
       -5    1    3    3    0  502 -0.43984947642E+03 -0.13024476459E+04 -0.71453541595E+03  0.15493290105E+04  0.46999998093E+01 0. -1.
</event>
<event>
 5   0  0.3938696E-06  0.3116359E+04  0.7818609E-02  0.8211263E-01
       -1   -1    0    0    0  501  0.00000000000E+00  0.00000000000E+00  0.10422225075E+04  0.10422225075E+04  0.50400001928E-02 0. -1.
        1   -1    0    0  501    0  0.00000000000E+00  0.00000000000E+00 -0.23295635701E+04  0.23295635701E+04  0.50400001928E-02 0.  1.
    10030    2    1    2    0    0  0.00000000000E+00  0.00000000000E+00 -0.12873410626E+04  0.33717860776E+04  0.31163591484E+04 0.  0.
        4    1    3    3  502    0 -0.14079527666E+04  0.17552362663E+03  0.53152809509E+02  0.14198473054E+04  0.12699999809E+01 0. -1.
       -4    1    3    3    0  502  0.14079527666E+04 -0.17552362663E+03 -0.13404938721E+04  0.19519387723E+04  0.12699999809E+01 0.  1.
</event>
<event>
 5   0  0.2580875E-06  0.3304948E+04  0.7818609E-02  0.8161638E-01
        3   -1    0    0  501    0  0.00000000000E+00  0.00000000000E+00  0.11581560850E+04  0.11581560894E+04  0.10100000352E+00 0.  1.
       -3   -1    0    0    0  501  0.00000000000E+00  0.00000000000E+00 -0.23577734856E+04  0.23577734877E+04  0.10100000352E+00 0. -1.
    10030    2    1    2    0    0  0.00000000000E+00  0.00000000000E+00 -0.11996174005E+04  0.35159295771E+04  0.33049476371E+04 0.  0.
        3    1    3    3  502    0 -0.27105851043E+03 -0.11651291184E+04 -0.18126174487E+04  0.21717690034E+04  0.10100000352E+00 0. -1.
       -3    1    3    3    0  502  0.27105851043E+03  0.11651291184E+04  0.61300004818E+03  0.13441605737E+04  0.10100000352E+00 0.  1.
</event>
<event>
 5   0  0.4142886E-06  0.2602824E+04  0.7818609E-02  0.8367243E-01
       -1   -1    0    0    0  501  0.00000000000E+00  0.00000000000E+00  0.63273092447E+03  0.63273092449E+03  0.50400001928E-02 0. -1.
        1   -1    0    0  501    0  0.00000000000E+00  0.00000000000E+00 -0.26767669825E+04  0.26767669825E+04  0.50400001928E-02 0.  1.
    10030    2    1    2    0    0  0.00000000000E+00  0.00000000000E+00 -0.20440360580E+04  0.33094979070E+04  0.26028240413E+04 0.  0.
        5    1    3    3  502    0 -0.52538779281E+02  0.70826860664E+03  0.36458845508E+03  0.79834301779E+03  0.46999998093E+01 0. -1.
       -5    1    3    3    0  502  0.52538779281E+02 -0.70826860664E+03 -0.24086245131E+04  0.25111548892E+04  0.46999998093E+01 0.  1.
</event>
<event>
 5   0  0.7510251E-06  0.3263538E+04  0.7818609E-02  0.8172236E-01
       -2   -1    0    0    0  501  0.00000000000E+00  0.00000000000E+00  0.14934571967E+04  0.14934571967E+04  0.25500000920E-02 0. -1.
        2   -1    0    0  501    0  0.00000000000E+00  0.00000000000E+00 -0.17828899895E+04  0.17828899895E+04  0.25500000920E-02 0.  1.
    10030    2    1    2    0    0  0.00000000000E+00  0.00000000000E+00 -0.28943279275E+03  0.32763471862E+04  0.32635378875E+04 0.  0.
        3    1    3    3  502    0  0.99853216138E+03  0.12872986252E+04 -0.52346308335E+02  0.16300136116E+04  0.10100000352E+00 0. -1.
       -3    1    3    3    0  502 -0.99853216138E+03 -0.12872986252E+04 -0.23708648441E+03  0.16463335746E+04  0.10100000352E+00 0.  1.
</event>
<event>
 5   0  0.4142886E-06  0.3171750E+04  0.7818609E-02  0.8196318E-01
        1   -1    0    0  501    0  0.00000000000E+00  0.00000000000E+00  0.18557096224E+04  0.18557096224E+04  0.50400001928E-02 0. -1.
       -1   -1    0    0    0  501  0.00000000000E+00  0.00000000000E+00 -0.13552764950E+04  0.13552764950E+04  0.50400001928E-02 0.  1.
    10030    2    1    2    0    0  0.00000000000E+00  0.00000000000E+00  0.50043312739E+03  0.32109861174E+04  0.31717500739E+04 0.  0.
        5    1    3    3  502    0 -0.74280829319E+03  0.14009427920E+04  0.27444324354E+03  0.16092687939E+04  0.46999998093E+01 0. -1.
       -5    1    3    3    0  502  0.74280829319E+03 -0.14009427920E+04  0.22598988385E+03  0.16017173236E+04  0.46999998093E+01 0.  1.
</event>
<event>
 5   0  0.2580875E-06  0.2295913E+04  0.7818609E-02  0.8479534E-01
        3   -1    0    0  501    0  0.00000000000E+00  0.00000000000E+00  0.18295653161E+04  0.18295653189E+04  0.10100000352E+00 0.  1.
       -3   -1    0    0    0  501  0.00000000000E+00  0.00000000000E+00 -0.72028288496E+03  0.72028289204E+03  0.10100000352E+00 0. -1.
    10030    2    1    2    0    0  0.00000000000E+00  0.00000000000E+00  0.11092824311E+04  0.25498482109E+04  0.22959134101E+04 0.  0.
        2    1    3    3  502    0  0.77875567016E+03 -0.74161001845E+03  0.10007647445E+04  0.14690050671E+04  0.25500000920E-02 0.  1.
       -2    1    3    3    0  502 -0.77875567016E+03  0.74161001845E+03  0.10851768664E+03  0.10808431438E+04  0.25500000920E-02 0. -1.
</event>
<event>
 5   0  0.7510251E-06  0.3437231E+04  0.7818609E-02  0.8128828E-01
       -2   -1    0    0    0  501  0.00000000000E+00  0.00000000000E+00  0.12925572890E+04  0.12925572890E+04  0.25500000920E-02 0. -1.
        2   -1    0    0  501    0  0.00000000000E+00  0.00000000000E+00 -0.22851134842E+04  0.22851134842E+04  0.25500000920E-02 0.  1.
    10030    2    1    2    0    0  0.00000000000E+00  0.00000000000E+00 -0.99255619523E+03  0.35776707733E+04  0.34372314966E+04 0.  0.
        3    1    3    3  502    0 -0.11975315456E+04 -0.41066206445E+02 -0.17786356766E+04  0.21446009224E+04  0.10100000352E+00 0.  1.
       -3    1    3    3    0  502  0.11975315456E+04  0.41066206445E+02  0.78607948140E+03  0.14330698508E+04  0.10100000352E+00 0. -1.
</event>
<event>
 5   0  0.7971763E-06  0.1705541E+04  0.7818609E-02  0.8758211E-01
        2   -1    0    0  501    0  0.00000000000E+00  0.00000000000E+00  0.16110973811E+04  0.16110973811E+04  0.25500000920E-02 0. -1.
       -2   -1    0    0    0  501  0.00000000000E+00  0.00000000000E+00 -0.45138009612E+03  0.45138009612E+03  0.25500000920E-02 0.  1.
    10030    2    1    2    0    0  0.00000000000E+00  0.00000000000E+00  0.11597172850E+04  0.20624774772E+04  0.17055407245E+04 0.  0.
        1    1    3    3  502    0  0.21789623561E+03 -0.16665017027E+03  0.15562854073E+04  0.15802769750E+04  0.50400001928E-02 0. -1.
       -1    1    3    3    0  502 -0.21789623561E+03  0.16665017027E+03 -0.39656812228E+03  0.48220050225E+03  0.50400001928E-02 0.  1.
</event>
<event>
 5   0  0.7941434E-06  0.3223235E+04  0.7818609E-02  0.8182708E-01
       -2   -1    0    0    0  501  0.00000000000E+00  0.00000000000E+00  0.13800850467E+04  0.13800850467E+04  0.25500000920E-02 0. -1.
        2   -1    0    0  501    0  0.00000000000E+00  0.00000000000E+00 -0.18819930718E+04  0.18819930718E+04  0.25500000920E-02 0.  1.
    10030    2    1    2    0    0  0.00000000000E+00  0.00000000000E+00 -0.50190802504E+03  0.32620781185E+04  0.32232347084E+04 0.  0.
        4    1    3    3  502    0  0.28316023233E+03  0.65015575638E+03  0.12136998616E+04  0.14056853103E+04  0.12699999809E+01 0. -1.
       -4    1    3    3    0  502 -0.28316023233E+03 -0.65015575638E+03 -0.17156078866E+04  0.18563928082E+04  0.12699999809E+01 0.  1.
</event>
<event>
 5   0  0.2933646E-06  0.2827431E+04  0.7818609E-02  0.8294802E-01
        1   -1    0    0  501    0  0.00000000000E+00  0.00000000000E+00  0.80258633202E+03  0.80258633203E+03  0.50400001928E-02 0.  1.
       -1   -1    0    0    0  501  0.00000000000E+00  0.00000000000E+00 -0.24901888365E+04  0.24901888365E+04  0.50400001928E-02 0. -1.
    10030    2    1    2    0    0  0.00000000000E+00  0.00000000000E+00 -0.16876025045E+04  0.32927751686E+04  0.28274310067E+04 0.  0.
        2    1    3    3  502    0 -0.87253742605E+03 -0.10688143617E+04 -0.12025715618E+04  0.18302633857E+04  0.25500000920E-02 0. -1.
       -2    1    3    3    0  502  0.87253742605E+03  0.10688143617E+04 -0.48503094270E+03  0.14625117829E+04  0.25500000920E-02 0.  1.
</event>
<event>
 5   0  0.8237664E-06  0.3051675E+04  0.7818609E-02  0.8229127E-01
       -2   -1    0    0    0  501  0.00000000000E+00  0.00000000000E+00  0.86669560556E+03  0.86669560556E+03  0.25500000920E-02 0.  1.
        2   -1    0    0  501    0  0.00000000000E+00  0.00000000000E+00 -0.26862724380E+04  0.26862724380E+04  0.25500000920E-02 0. -1.
    10030    2    1    2    0    0  0.00000000000E+00  0.00000000000E+00 -0.18195768324E+04  0.35529680436E+04  0.30516752890E+04 0.  0.
        5    1    3    3  502    0 -0.85455663987E+03  0.10694824507E+04 -0.12522492913E+03  0.13746865592E+04  0.46999998093E+01 0.  1.
       -5    1    3    3    0  502  0.85455663987E+03 -0.10694824507E+04 -0.16943519033E+04  0.21782814844E+04  0.46999998093E+01 0. -1.
</event>
<event>
 5   0  0.3938696E-06  0.3215697E+04  0.7818609E-02  0.8184684E-01
        1   -1    0    0  501    0  0.00000000000E+00  0.00000000000E+00  0.16237608601E+04  0.16237608601E+04  0.50400001928E-02 0.  1.
       -1   -1    0    0    0  501  0.00000000000E+00  0.00000000000E+00 -0.15920921282E+04  0.15920921282E+04  0.50400001928E-02 0. -1.
    10030    2    1    2    0    0  0.00000000000E+00  0.00000000000E+00  0.31668731898E+02  0.32158529883E+04  0.32156970526E+04 0.  0.
        4    1    3    3  502    0 -0.46535946156E+03  0.14929374507E+04 -0.35802010369E+03  0.16042448902E+04  0.12699999809E+01 0. -1.
       -4    1    3    3    0  502  0.46535946156E+03 -0.14929374507E+04  0.38968883558E+03  0.16116080981E+04  0.12699999809E+01 0.  1.
</event>
<event>
 5   0  0.7971763E-06  0.1792448E+04  0.7818609E-02  0.8710326E-01
       -2   -1    0    0    0  501  0.00000000000E+00  0.00000000000E+00  0.90453230022E+03  0.90453230023E+03  0.25500000920E-02 0.  1.
        2   -1    0    0  501    0  0.00000000000E+00  0.00000000000E+00 -0.88799247536E+03  0.88799247536E+03  0.25500000920E-02 0. -1.
    10030    2    1    2    0    0  0.00000000000E+00  0.00000000000E+00  0.16539824869E+02  0.17925247756E+04  0.17924484666E+04 0.  0.
        1    1    3    3  502    0  0.26652196542E+03  0.84112094388E+03 -0.14889744768E+03  0.89481218713E+03  0.50400001928E-02 0. -1.
       -1    1    3    3    0  502 -0.26652196542E+03 -0.84112094388E+03  0.16543727255E+03  0.89771258845E+03  0.50400001928E-02 0.  1.
</event>
<event>
 5   0  0.2580875E-06  0.1752702E+04  0.7818609E-02  0.8731864E-01
        4   -1    0    0  501    0  0.00000000000E+00  0.00000000000E+00  0.79052945963E+03  0.79053047977E+03  0.12699999809E+01 0. -1.
       -4   -1    0    0    0  501  0.00000000000E+00  0.00000000000E+00 -0.97148774363E+03  0.97148857375E+03  0.12699999809E+01 0.  1.
    10030    2    1    2    0    0  0.00000000000E+00  0.00000000000E+00 -0.18095828400E+03  0.17620190535E+04  0.17527022692E+04 0.  0.
        4    1    3    3  502    0 -0.37884293531E+03  0.42098733936E+03  0.58183384865E+03  0.81196339195E+03  0.12699999809E+01 0. -1.
       -4    1    3    3    0  502  0.37884293531E+03 -0.42098733936E+03 -0.76279213265E+03  0.95005566156E+03  0.12699999809E+01 0.  1.
</event>
<event>
 5   0  0.7952307E-06  0.1890987E+04  0.7818609E-02  0.8659356E-01
       -2   -1    0    0    0  501  0.00000000000E+00  0.00000000000E+00  0.11137542426E+04  0.11137542426E+04  0.25500000920E-02 0.  1.
        2   -1    0    0  501    0  0.00000000000E+00  0.00000000000E+00 -0.80265316425E+03  0.80265316426E+03  0.25500000920E-02 0. -1.
    10030    2    1    2    0    0  0.00000000000E+00  0.00000000000E+00  0.31110107834E+03  0.19164074069E+04  0.18909874320E+04 0.  0.
        2    1    3    3  502    0 -0.19157754736E+03 -0.42985026127E+03  0.98662617754E+03  0.10931168364E+04  0.25500000920E-02 0.  1.
       -2    1    3    3    0  502  0.19157754736E+03  0.42985026127E+03 -0.67552509920E+03  0.82329057047E+03  0.25500000920E-02 0. -1.
</event>
<event>
 5   0  0.2788054E-06  0.2969884E+04  0.7818609E-02  0.8252383E-01
       -1   -1    0    0    0  501  0.00000000000E+00  0.00000000000E+00  0.11122899705E+04  0.11122899705E+04  0.50400001928E-02 0. -1.
        1   -1    0    0  501    0  0.00000000000E+00  0.00000000000E+00 -0.19824436627E+04  0.19824436627E+04  0.50400001928E-02 0.  1.
    10030    2    1    2    0    0  0.00000000000E+00  0.00000000000E+00 -0.87015369220E+03  0.30947336332E+04  0.29698836362E+04 0.  0.
        3    1    3    3  502    0 -0.69060848419E+03  0.13129087115E+04 -0.50406287510E+03  0.15667637841E+04  0.10100000352E+00 0.  1.
       -3    1    3    3    0  502  0.69060848419E+03 -0.13129087115E+04 -0.36609081710E+03  0.15279698491E+04  0.10100000352E+00 0. -1.
</event>
<event>
 5   0  0.4642833E-06  0.1619736E+04  0.7818609E-02  0.8808514E-01
       -1   -1    0    0    0  501  0.00000000000E+00  0.00000000000E+00  0.35312129410E+03  0.35312129413E+03  0.50400001928E-02 0. -1.
        1   -1    0    0  501    0  0.00000000000E+00  0.00000000000E+00 -0.18573973654E+04  0.18573973654E+04  0.50400001928E-02 0.  1.
    10030    2    1    2    0    0  0.00000000000E+00  0.00000000000E+00 -0.15042760713E+04  0.22105186595E+04  0.16197364741E+04 0.  0.
        4    1    3    3  502    0 -0.29620035119E+03 -0.16144630944E+03  0.25267132999E+03  0.42147831827E+03  0.12699999809E+01 0. -1.
       -4    1    3    3    0  502  0.29620035119E+03  0.16144630944E+03 -0.17569474012E+04  0.17890403412E+04  0.12699999809E+01 0.  1.
</event>
<event>
 5   0  0.7952307E-06  0.2929609E+04  0.7818609E-02  0.8264122E-01
       -2   -1    0    0    0  501  0.00000000000E+00  0.00000000000E+00  0.15723872616E+04  0.15723872616E+04  0.25500000920E-02 0.  1.
        2   -1    0    0  501    0  0.00000000000E+00  0.00000000000E+00 -0.13645829421E+04  0.13645829421E+04  0.25500000920E-02 0. -1.
    10030    2    1    2    0    0  0.00000000000E+00  0.00000000000E+00  0.20780431946E+03  0.29369702037E+04  0.29296094180E+04 0.  0.
        2    1    3    3  502    0  0.72983843316E+03 -0.35351572252E+03 -0.11190050918E+04  0.13819587187E+04  0.25500000920E-02 0. -1.
       -2    1    3    3    0  502 -0.72983843316E+03  0.35351572252E+03  0.13268094113E+04  0.15550114850E+04  0.25500000920E-02 0.  1.
</event>
<event>
 5   0  0.8237664E-06  0.3163723E+04  0.7818609E-02  0.8198464E-01
       -2   -1    0    0    0  501  0.00000000000E+00  0.00000000000E+00  0.77964582302E+03  0.77964582302E+03  0.25500000920E-02 0. -1.
        2   -1    0    0  501    0  0.00000000000E+00  0.00000000000E+00 -0.32095152671E+04  0.32095152671E+04  0.25500000920E-02 0.  1.
    10030    2    1    2    0    0  0.00000000000E+00  0.00000000000E+00 -0.24298694441E+04  0.39891610901E+04  0.31637225997E+04 0.  0.
        5    1    3    3  502    0 -0.14941579791E+03 -0.78131389402E+03  0.50909344017E+03  0.94444412353E+03  0.46999998093E+01 0. -1.
       -5    1    3    3    0  502  0.14941579791E+03  0.78131389402E+03 -0.29389628842E+04  0.30447169666E+04  0.46999998093E+01 0.  1.
</event>
<event>
 5   0  0.2635798E-06  0.3164124E+04  0.7818609E-02  0.8198357E-01
       -1   -1    0    0    0  501  0.00000000000E+00  0.00000000000E+00  0.13717273317E+04  0.13717273317E+04  0.50400001928E-02 0. -1.
        1   -1    0    0  501    0  0.00000000000E+00  0.00000000000E+00 -0.18246490397E+04  0.18246490397E+04  0.50400001928E-02 0.  1.
    10030    2    1    2    0    0  0.00000000000E+00  0.00000000000E+00 -0.45292170797E+03  0.31963763714E+04  0.31641244973E+04 0.  0.
        1    1    3    3  502    0 -0.19703179414E+03 -0.11919821696E+04 -0.12582818484E+04  0.17443956634E+04  0.50400001928E-02 0.  1.
       -1    1    3    3    0  502  0.19703179414E+03  0.11919821696E+04  0.80536014039E+03  0.14519807080E+04  0.50400001928E-02 0. -1.
</event>
<event>
 5   0  0.2933646E-06  0.3215317E+04  0.7818609E-02  0.8184784E-01
       -1   -1    0    0    0  501  0.00000000000E+00  0.00000000000E+00  0.15368870988E+04  0.15368870988E+04  0.50400001928E-02 0. -1.
        1   -1    0    0  501    0  0.00000000000E+00  0.00000000000E+00 -0.16816887605E+04  0.16816887605E+04  0.50400001928E-02 0.  1.
    10030    2    1    2    0    0  0.00000000000E+00  0.00000000000E+00 -0.14480166172E+03  0.32185758593E+04  0.32153169425E+04 0.  0.
        2    1    3    3  502    0 -0.12274299006E+04  0.82893903241E+03  0.55340613977E+03  0.15811332758E+04  0.25500000920E-02 0. -1.
       -2    1    3    3    0  502  0.12274299006E+04 -0.82893903241E+03 -0.69820780149E+03  0.16374425835E+04  0.25500000920E-02 0.  1.
</event>
<event>
 5   0  0.7941434E-06  0.2662629E+04  0.7818609E-02  0.8347233E-01
        2   -1    0    0  501    0  0.00000000000E+00  0.00000000000E+00  0.95012079255E+03  0.95012079255E+03  0.25500000920E-02 0. -1.
       -2   -1    0    0    0  501  0.00000000000E+00  0.00000000000E+00 -0.18654458398E+04  0.18654458398E+04  0.25500000920E-02 0.  1.
    10030    2    1    2    0    0  0.00000000000E+00  0.00000000000E+00 -0.91532504723E+03  0.28155666323E+04  0.26626294371E+04 0.  0.
        4    1    3    3  502    0 -0.68742339164E+03  0.25322297987E+03 -0.16331443090E+04  0.17899259046E+04  0.12699999809E+01 0.  1.
       -4    1    3    3    0  502  0.68742339164E+03 -0.25322297987E+03  0.71781926180E+03  0.10256407277E+04  0.12699999809E+01 0. -1.
</event>
<event>
 5   0  0.7941434E-06  0.3198461E+04  0.7818609E-02  0.8189224E-01
       -2   -1    0    0    0  501  0.00000000000E+00  0.00000000000E+00  0.15033388070E+04  0.15033388070E+04  0.25500000920E-02 0. -1.
        2   -1    0    0  501    0  0.00000000000E+00  0.00000000000E+00 -0.17012392340E+04  0.17012392340E+04  0.25500000920E-02 0.  1.
    10030    2    1    2    0    0  0.00000000000E+00  0.00000000000E+00 -0.19790042701E+03  0.32045780409E+04  0.31984614804E+04 0.  0.
        4    1    3    3  502    0  0.13827715846E+04 -0.88896516538E+02  0.70106126707E+03  0.15528838846E+04  0.12699999809E+01 0. -1.
       -4    1    3    3    0  502 -0.13827715846E+04  0.88896516538E+02 -0.89896169408E+03  0.16516941564E+04  0.12699999809E+01 0.  1.
</event>
<event>
 5   0  0.7941434E-06  0.3141666E+04  0.7818609E-02  0.8204395E-01
        2   -1    0    0  501    0  0.00000000000E+00  0.00000000000E+00  0.27602130774E+04  0.27602130774E+04  0.25500000920E-02 0.  1.
       -2   -1    0    0    0  501  0.00000000000E+00  0.00000000000E+00 -0.89395843789E+03  0.89395843790E+03  0.25500000920E-02 0. -1.
    10030    2    1    2    0    0  0.00000000000E+00  0.00000000000E+00  0.18662546395E+04  0.36541715153E+04  0.31416656543E+04 0.  0.
        4    1    3    3  502    0 -0.12887923604E+04  0.19936106746E+03  0.19516374767E+04  0.23472581956E+04  0.12699999809E+01 0.  1.
       -4    1    3    3    0  502  0.12887923604E+04 -0.19936106746E+03 -0.85382837246E+02  0.13069133197E+04  0.12699999809E+01 0. -1.
</event>
<event>
 5   0  0.7510251E-06  0.3113548E+04  0.7818609E-02  0.8212030E-01
       -2   -1    0    0    0  501  0.00000000000E+00  0.00000000000E+00  0.18844277150E+04  0.18844277150E+04  0.25500000920E-02 0. -1.
        2   -1    0    0  501    0  0.00000000000E+00  0.00000000000E+00 -0.12860905492E+04  0.12860905492E+04  0.25500000920E-02 0.  1.
    10030    2    1    2    0    0  0.00000000000E+00  0.00000000000E+00  0.59833716571E+03  0.31705182642E+04  0.31135476068E+04 0.  0.
        3    1    3    3  502    0 -0.34478861728E+03  0.63783647127E+03  0.17019933186E+04  0.18499988707E+04  0.10100000352E+00 0. -1.
       -3    1    3    3    0  502  0.34478861728E+03 -0.63783647127E+03 -0.11036561529E+04  0.13205193935E+04  0.10100000352E+00 0.  1.
</event>
<event>
 5   0  0.2933646E-06  0.2778330E+04  0.7818609E-02  0.8310028E-01
        1   -1    0    0  501    0  0.00000000000E+00  0.00000000000E+00  0.14939927113E+04  0.14939927113E+04  0.50400001928E-02 0. -1.
       -1   -1    0    0    0  501  0.00000000000E+00  0.00000000000E+00 -0.12916930398E+04  0.12916930398E+04  0.50400001928E-02 0.  1.
    10030    2    1    2    0    0  0.00000000000E+00  0.00000000000E+00  0.20229967151E+03  0.27856857510E+04  0.27783304243E+04 0.  0.
        2    1    3    3  502    0  0.13749517734E+04  0.10540921449E+03  0.26945280890E+03  0.14050652291E+04  0.25500000920E-02 0. -1.
       -2    1    3    3    0  502 -0.13749517734E+04 -0.10540921449E+03 -0.67153137386E+02  0.13806205219E+04  0.25500000920E-02 0.  1.
</event>
<event>
 5   0  0.2635798E-06  0.3133520E+04  0.7818609E-02  0.8206598E-01
       -1   -1    0    0    0  501  0.00000000000E+00  0.00000000000E+00  0.12392417502E+04  0.12392417503E+04  0.50400001928E-02 0. -1.
        1   -1    0    0  501    0  0.00000000000E+00  0.00000000000E+00 -0.19808375093E+04  0.19808375093E+04  0.50400001928E-02 0.  1.
    10030    2    1    2    0    0  0.00000000000E+00  0.00000000000E+00 -0.74159575907E+03  0.32200792596E+04  0.31335197731E+04 0.  0.
        1    1    3    3  502    0  0.49315434474E+02 -0.61960417927E+03  0.11071219691E+04  0.12696694079E+04  0.50400001928E-02 0. -1.
       -1    1    3    3    0  502 -0.49315434474E+02  0.61960417927E+03 -0.18487177281E+04  0.19504098516E+04  0.50400001928E-02 0.  1.
</event>
<event>
 5   0  0.7971763E-06  0.1862154E+04  0.7818609E-02  0.8673928E-01
        2   -1    0    0  501    0  0.00000000000E+00  0.00000000000E+00  0.17003715157E+04  0.17003715157E+04  0.25500000920E-02 0. -1.
       -2   -1    0    0    0  501  0.00000000000E+00  0.00000000000E+00 -0.50983220568E+03  0.50983220568E+03  0.25500000920E-02 0.  1.
    10030    2    1    2    0    0  0.00000000000E+00  0.00000000000E+00  0.11905393100E+04  0.22102037214E+04  0.18621537641E+04 0.  0.
        1    1    3    3  502    0 -0.54517631653E+03 -0.70192048569E+03  0.26592787206E+03  0.92769996093E+03  0.50400001928E-02 0.  1.
       -1    1    3    3    0  502  0.54517631653E+03  0.70192048569E+03  0.92461143796E+03  0.12825037605E+04  0.50400001928E-02 0. -1.
</event>
<event>
 5   0  0.8237664E-06  0.1828177E+04  0.7818609E-02  0.8691457E-01
       -2   -1    0    0    0  501  0.00000000000E+00  0.00000000000E+00  0.47391631560E+03  0.47391631561E+03  0.25500000920E-02 0.  1.
        2   -1    0    0  501    0  0.00000000000E+00  0.00000000000E+00 -0.17630915305E+04  0.17630915305E+04  0.25500000920E-02 0. -1.
    10030    2    1    2    0    0  0.00000000000E+00  0.00000000000E+00 -0.12891752149E+04  0.22370078461E+04  0.18281770617E+04 0.  0.
        5    1    3    3  502    0 -0.53643408269E+03 -0.71016369449E+03 -0.89962445326E+03  0.12654802428E+04  0.46999998093E+01 0. -1.
       -5    1    3    3    0  502  0.53643408269E+03  0.71016369449E+03 -0.38955076161E+03  0.97152760327E+03  0.46999998093E+01 0.  1.
</event>
<event>
 5   0  0.7941434E-06  0.3146917E+04  0.7818609E-02  0.8202979E-01
        2   -1    0    0  501    0  0.00000000000E+00  0.00000000000E+00  0.15527760651E+04  0.15527760651E+04  0.25500000920E-02 0.  1.
       -2   -1    0    0    0  501  0.00000000000E+00  0.00000000000E+00 -0.15944163378E+04  0.15944163378E+04  0.25500000920E-02 0. -1.
    10030    2    1    2    0    0  0.00000000000E+00  0.00000000000E+00 -0.41640272726E+02  0.31471924029E+04  0.31469169211E+04 0.  0.
        4    1    3    3  502    0  0.14240439199E+04  0.94914891665E+02 -0.68334321594E+03  0.15823619959E+04  0.12699999809E+01 0. -1.
       -4    1    3    3    0  502 -0.14240439199E+04 -0.94914891665E+02  0.64170294322E+03  0.15648304070E+04  0.12699999809E+01 0.  1.
</event>
<event>
 5   0  0.2788054E-06  0.3119000E+04  0.7818609E-02  0.8210543E-01
        1   -1    0    0  501    0  0.00000000000E+00  0.00000000000E+00  0.14636996729E+04  0.14636996729E+04  0.50400001928E-02 0. -1.
       -1   -1    0    0    0  501  0.00000000000E+00  0.00000000000E+00 -0.16615709690E+04  0.16615709690E+04  0.50400001928E-02 0.  1.
    10030    2    1    2    0    0  0.00000000000E+00  0.00000000000E+00 -0.19787129610E+03  0.31252706419E+04  0.31190004064E+04 0.  0.
        3    1    3    3  502    0  0.20281563968E+02 -0.76180890262E+03 -0.14622872469E+04  0.16489536526E+04  0.10100000352E+00 0.  1.
       -3    1    3    3    0  502 -0.20281563968E+02  0.76180890262E+03  0.12644159508E+04  0.14763169892E+04  0.10100000352E+00 0. -1.
</event>
<event>
 5   0  0.2933646E-06  0.3238433E+04  0.7818609E-02  0.8178740E-01
       -1   -1    0    0    0  501  0.00000000000E+00  0.00000000000E+00  0.24876108952E+04  0.24876108953E+04  0.50400001928E-02 0.  1.
        1   -1    0    0  501    0  0.00000000000E+00  0.00000000000E+00 -0.10539676924E+04  0.10539676925E+04  0.50400001928E-02 0. -1.
    10030    2    1    2    0    0  0.00000000000E+00  0.00000000000E+00  0.14336432028E+04  0.35415785877E+04  0.32384326548E+04 0.  0.
        2    1    3    3  502    0  0.99535628058E+02 -0.95961100316E+03  0.21389760792E+04  0.23464823217E+04  0.25500000920E-02 0.  1.
       -2    1    3    3    0  502 -0.99535628058E+02  0.95961100316E+03 -0.70533287635E+03  0.11950962660E+04  0.25500000920E-02 0. -1.
</event>
<event>
 5   0  0.2933646E-06  0.3182996E+04  0.7818609E-02  0.8193322E-01
        1   -1    0    0  501    0  0.00000000000E+00  0.00000000000E+00  0.22471408184E+04  0.22471408184E+04  0.50400001928E-02 0. -1.
       -1   -1    0    0    0  501  0.00000000000E+00  0.00000000000E+00 -0.11271501951E+04  0.11271501951E+04  0.50400001928E-02 0.  1.
    10030    2    1    2    0    0  0.00000000000E+00  0.00000000000E+00  0.11199906233E+04  0.33742910135E+04  0.31829955777E+04 0.  0.
        2    1    3    3  502    0  0.38018663105E+03  0.14187743526E+04  0.12095192787E+04  0.19027347223E+04  0.25500000920E-02 0. -1.
       -2    1    3    3    0  502 -0.38018663105E+03 -0.14187743526E+04 -0.89528655366E+02  0.14715562912E+04  0.25500000920E-02 0.  1.
</event>
<event>
 5   0  0.4142886E-06  0.3192446E+04  0.7818609E-02  0.8190815E-01
       -1   -1    0    0    0  501  0.00000000000E+00  0.00000000000E+00  0.16519889131E+04  0.16519889132E+04  0.50400001928E-02 0.  1.
        1   -1    0    0  501    0  0.00000000000E+00  0.00000000000E+00 -0.15423396322E+04  0.15423396322E+04  0.50400001928E-02 0. -1.
    10030    2    1    2    0    0  0.00000000000E+00  0.00000000000E+00  0.10964928097E+03  0.31943285453E+04  0.31924460670E+04 0.  0.
        5    1    3    3  502    0  0.53855764599E+03 -0.67704807774E+03  0.13970579443E+04  0.16432380921E+04  0.46999998093E+01 0.  1.
       -5    1    3    3    0  502 -0.53855764599E+03  0.67704807774E+03 -0.12874086633E+04  0.15510904532E+04  0.46999998093E+01 0. -1.
</event>
<event>
 5   0  0.7971763E-06  0.3151139E+04  0.7818609E-02  0.8201842E-01
       -2   -1    0    0    0  501  0.00000000000E+00  0.00000000000E+00  0.16186720118E+04  0.16186720118E+04  0.25500000920E-02 0.  1.
        2   -1    0    0  501    0  0.00000000000E+00  0.00000000000E+00 -0.15336149456E+04  0.15336149456E+04  0.25500000920E-02 0. -1.
    10030    2    1    2    0    0  0.00000000000E+00  0.00000000000E+00  0.85057066241E+02  0.31522869575E+04  0.31511392158E+04 0.  0.
        1    1    3    3  502    0  0.10799426596E+04  0.36533004168E+03 -0.10453772963E+04  0.15467888928E+04  0.50400001928E-02 0. -1.
       -1    1    3    3    0  502 -0.10799426596E+04 -0.36533004168E+03  0.11304343625E+04  0.16054980646E+04  0.50400001928E-02 0.  1.
</event>
<event>
 5   0  0.3938696E-06  0.3212443E+04  0.7818609E-02  0.8185539E-01
       -1   -1    0    0    0  501  0.00000000000E+00  0.00000000000E+00  0.12352025872E+04  0.12352025872E+04  0.50400001928E-02 0. -1.
        1   -1    0    0  501    0  0.00000000000E+00  0.00000000000E+00 -0.20886839812E+04  0.20886839812E+04  0.50400001928E-02 0.  1.
    10030    2    1    2    0    0  0.00000000000E+00  0.00000000000E+00 -0.85348139392E+03  0.33238865684E+04  0.32124432182E+04 0.  0.
        4    1    3    3  502    0 -0.11501912596E+04  0.40822000117E+03 -0.15071697053E+04  0.19393673289E+04  0.12699999809E+01 0.  1.
       -4    1    3    3    0  502  0.11501912596E+04 -0.40822000117E+03  0.65368831137E+03  0.13845192395E+04  0.12699999809E+01 0. -1.
</event>
<event>
 5   0  0.2635798E-06  0.3218754E+04  0.7818609E-02  0.8183882E-01
       -1   -1    0    0    0  501  0.00000000000E+00  0.00000000000E+00  0.10059990394E+04  0.10059990394E+04  0.50400001928E-02 0.  1.
        1   -1    0    0  501    0  0.00000000000E+00  0.00000000000E+00 -0.25746485158E+04  0.25746485158E+04  0.50400001928E-02 0. -1.
    10030    2    1    2    0    0  0.00000000000E+00  0.00000000000E+00 -0.15686494764E+04  0.35806475552E+04  0.32187537549E+04 0.  0.
        1    1    3    3  502    0 -0.61147293940E+03 -0.14853294436E+04 -0.67313028415E+03  0.17416104878E+04  0.50400001928E-02 0. -1.
       -1    1    3    3    0  502  0.61147293940E+03  0.14853294436E+04 -0.89551919227E+03  0.18390370674E+04  0.50400001928E-02 0.  1.
</event>
<event>
 5   0  0.7941434E-06  0.3213224E+04  0.7818609E-02  0.8185333E-01
        2   -1    0    0  501    0  0.00000000000E+00  0.00000000000E+00  0.14554319913E+04  0.14554319913E+04  0.25500000920E-02 0.  1.
       -2   -1    0    0    0  501  0.00000000000E+00  0.00000000000E+00 -0.17734958476E+04  0.17734958476E+04  0.25500000920E-02 0. -1.
    10030    2    1    2    0    0  0.00000000000E+00  0.00000000000E+00 -0.31806385626E+03  0.32289278389E+04  0.32132242953E+04 0.  0.
        4    1    3    3  502    0  0.22802207138E+03  0.19135906718E+02  0.14389727133E+04  0.14570533039E+04  0.12699999809E+01 0.  1.
       -4    1    3    3    0  502 -0.22802207138E+03 -0.19135906718E+02 -0.17570365696E+04  0.17718745350E+04  0.12699999809E+01 0. -1.
</event>
<event>
 5   0  0.2580875E-06  0.3166232E+04  0.7818609E-02  0.8197793E-01
        3   -1    0    0  501    0  0.00000000000E+00  0.00000000000E+00  0.11026445184E+04  0.11026445230E+04  0.10100000352E+00 0. -1.
       -3   -1    0    0    0  501  0.00000000000E+00  0.00000000000E+00 -0.22729506711E+04  0.22729506734E+04  0.10100000352E+00 0.  1.
    10030    2    1    2    0    0  0.00000000000E+00  0.00000000000E+00 -0.11703061528E+04  0.33755951964E+04  0.31662322149E+04 0.  0.
        3    1    3    3  502    0 -0.67891374128E+02  0.15505461902E+03  0.10929694553E+04  0.11059988310E+04  0.10100000352E+00 0. -1.
       -3    1    3    3    0  502  0.67891374128E+02 -0.15505461902E+03 -0.22632756081E+04  0.22695963654E+04  0.10100000352E+00 0.  1.
</event>
<event>
 5   0  0.3938696E-06  0.3183145E+04  0.7818609E-02  0.8193283E-01
        1   -1    0    0  501    0  0.00000000000E+00  0.00000000000E+00  0.15767425746E+04  0.15767425746E+04  0.50400001928E-02 0.  1.
       -1   -1    0    0    0  501  0.00000000000E+00  0.00000000000E+00 -0.16065422676E+04  0.16065422676E+04  0.50400001928E-02 0. -1.
    10030    2    1    2    0    0  0.00000000000E+00  0.00000000000E+00 -0.29799692938E+02  0.31832848422E+04  0.31831453572E+04 0.  0.
        4    1    3    3  502    0  0.46746502853E+03  0.55088496329E+03  0.14032963456E+04  0.15783662573E+04  0.12699999809E+01 0.  1.
       -4    1    3    3    0  502 -0.46746502853E+03 -0.55088496329E+03 -0.14330960385E+04  0.16049185849E+04  0.12699999809E+01 0. -1.
</event>
<event>
 5   0  0.7971763E-06  0.3105419E+04  0.7818609E-02  0.8214252E-01
       -2   -1    0    0    0  501  0.00000000000E+00  0.00000000000E+00  0.13485437425E+04  0.13485437425E+04  0.25500000920E-02 0.  1.
        2   -1    0    0  501    0  0.00000000000E+00  0.00000000000E+00 -0.17877850693E+04  0.17877850693E+04  0.25500000920E-02 0. -1.
    10030    2    1    2    0    0  0.00000000000E+00  0.00000000000E+00 -0.43924132680E+03  0.31363288117E+04  0.31054187273E+04 0.  0.
        1    1    3    3  502    0 -0.10831613162E+04  0.43738870034E+03 -0.12527193006E+04  0.17128493682E+04  0.50400001928E-02 0. -1.
       -1    1    3    3    0  502  0.10831613162E+04 -0.43738870034E+03  0.81347797377E+03  0.14234794435E+04  0.50400001928E-02 0.  1.
</event>
<event>
 5   0  0.3938696E-06  0.2038720E+04  0.7818609E-02  0.8588729E-01
       -1   -1    0    0    0  501  0.00000000000E+00  0.00000000000E+00  0.78276000435E+03  0.78276000437E+03  0.50400001928E-02 0.  1.
        1   -1    0    0  501    0  0.00000000000E+00  0.00000000000E+00 -0.13274756146E+04  0.13274756147E+04  0.50400001928E-02 0. -1.
    10030    2    1    2    0    0  0.00000000000E+00  0.00000000000E+00 -0.54471561029E+03  0.21102356190E+04  0.20387200082E+04 0.  0.
        4    1    3    3  502    0 -0.85533208474E+03 -0.54419301506E+03 -0.16206390740E+03  0.10266476201E+04  0.12699999809E+01 0.  1.
       -4    1    3    3    0  502  0.85533208474E+03  0.54419301506E+03 -0.38265170289E+03  0.10835879989E+04  0.12699999809E+01 0. -1.
</event>
<event>
 5   0  0.7971763E-06  0.3206556E+04  0.7818609E-02  0.8187088E-01
        2   -1    0    0  501    0  0.00000000000E+00  0.00000000000E+00  0.16407887703E+04  0.16407887703E+04  0.25500000920E-02 0.  1.
       -2   -1    0    0    0  501  0.00000000000E+00  0.00000000000E+00 -0.15666247033E+04  0.15666247033E+04  0.25500000920E-02 0. -1.
    10030    2    1    2    0    0  0.00000000000E+00  0.00000000000E+00  0.74164066969E+02  0.32074134736E+04  0.32065559221E+04 0.  0.
        1    1    3    3  502    0  0.49912930492E+03  0.94520774985E+03  0.12323712636E+04  0.16313450538E+04  0.50400001928E-02 0.  1.
       -1    1    3    3    0  502 -0.49912930492E+03 -0.94520774985E+03 -0.11582071966E+04  0.15760684197E+04  0.50400001928E-02 0. -1.
</event>
<event>
 5   0  0.7510251E-06  0.1985722E+04  0.7818609E-02  0.8613325E-01
        2   -1    0    0  501    0  0.00000000000E+00  0.00000000000E+00  0.30861457252E+04  0.30861457252E+04  0.25500000920E-02 0. -1.
       -2   -1    0    0    0  501  0.00000000000E+00  0.00000000000E+00 -0.31941871346E+03  0.31941871347E+03  0.25500000920E-02 0.  1.
    10030    2    1    2    0    0  0.00000000000E+00  0.00000000000E+00  0.27667270118E+04  0.34055644387E+04  0.19857217299E+04 0.  0.
        3    1    3    3  502    0  0.18991123947E+03  0.40112965619E+02 -0.28656232319E+03  0.34611169318E+03  0.10100000352E+00 0.  1.
       -3    1    3    3    0  502 -0.18991123947E+03 -0.40112965619E+02  0.30532893349E+04  0.30594527455E+04  0.10100000352E+00 0. -1.
</event>
<event>
 5   0  0.7510251E-06  0.3228748E+04  0.7818609E-02  0.8181266E-01
       -2   -1    0    0    0  501  0.00000000000E+00  0.00000000000E+00  0.16481548827E+04  0.16481548827E+04  0.25500000920E-02 0. -1.
        2   -1    0    0  501    0  0.00000000000E+00  0.00000000000E+00 -0.15812858592E+04  0.15812858592E+04  0.25500000920E-02 0.  1.
    10030    2    1    2    0    0  0.00000000000E+00  0.00000000000E+00  0.66869023506E+02  0.32294407420E+04  0.32287483705E+04 0.  0.
        3    1    3    3  502    0 -0.12491605516E+04 -0.47410184543E+03  0.93973551932E+03  0.16334863024E+04  0.10100000352E+00 0. -1.
       -3    1    3    3    0  502  0.12491605516E+04  0.47410184543E+03 -0.87286649582E+03  0.15959544396E+04  0.10100000352E+00 0.  1.
</event>
<event>
 5   0  0.2635798E-06  0.3225403E+04  0.7818609E-02  0.8182140E-01
        1   -1    0    0  501    0  0.00000000000E+00  0.00000000000E+00  0.18524926189E+04  0.18524926189E+04  0.50400001928E-02 0.  1.
       -1   -1    0    0    0  501  0.00000000000E+00  0.00000000000E+00 -0.14039497685E+04  0.14039497685E+04  0.50400001928E-02 0. -1.
    10030    2    1    2    0    0  0.00000000000E+00  0.00000000000E+00  0.44854285038E+03  0.32564423874E+04  0.32254032823E+04 0.  0.
        1    1    3    3  502    0 -0.42232390629E+03 -0.26375914319E+03 -0.13243999976E+04  0.14149069656E+04  0.50400001928E-02 0. -1.
       -1    1    3    3    0  502  0.42232390629E+03  0.26375914319E+03  0.17729428480E+04  0.18415354218E+04  0.50400001928E-02 0.  1.
</event>
<event>
 5   0  0.4142886E-06  0.3336229E+04  0.7818609E-02  0.8153738E-01
       -1   -1    0    0    0  501  0.00000000000E+00  0.00000000000E+00  0.11642744142E+04  0.11642744142E+04  0.50400001928E-02 0.  1.
        1   -1    0    0  501    0  0.00000000000E+00  0.00000000000E+00 -0.23899908623E+04  0.23899908623E+04  0.50400001928E-02 0. -1.
    10030    2    1    2    0    0  0.00000000000E+00  0.00000000000E+00 -0.12257164481E+04  0.35542652765E+04  0.33362285361E+04 0.  0.
        5    1    3    3  502    0  0.80723324632E+03 -0.18227879928E+03  0.93015288364E+03  0.12450130729E+04  0.46999998093E+01 0.  1.
       -5    1    3    3    0  502 -0.80723324632E+03  0.18227879928E+03 -0.21558693317E+04  0.23092522037E+04  0.46999998093E+01 0. -1.
</event>
<event>
 5   0  0.7510251E-06  0.3204953E+04  0.7818609E-02  0.8187510E-01
       -2   -1    0    0    0  501  0.00000000000E+00  0.00000000000E+00  0.15706016198E+04  0.15706016198E+04  0.25500000920E-02 0. -1.
        2   -1    0    0  501    0  0.00000000000E+00  0.00000000000E+00 -0.16349987539E+04  0.16349987539E+04  0.25500000920E-02 0.  1.
    10030    2    1    2    0    0  0.00000000000E+00  0.00000000000E+00 -0.64397134119E+02  0.32056003737E+04  0.32049534731E+04 0.  0.
        3    1    3    3  502    0 -0.24984006576E+03  0.94242690844E+03 -0.13042033283E+04  0.16283534223E+04  0.10100000352E+00 0.  1.
       -3    1    3    3    0  502  0.24984006576E+03 -0.94242690844E+03  0.12398061942E+04  0.15772469514E+04  0.10100000352E+00 0. -1.
</event>
<event>
 5   0  0.4142886E-06  0.2514076E+04  0.7818609E-02  0.8397988E-01
        1   -1    0    0  501    0  0.00000000000E+00  0.00000000000E+00  0.13978859118E+04  0.13978859119E+04  0.50400001928E-02 0.  1.
       -1   -1    0    0    0  501  0.00000000000E+00  0.00000000000E+00 -0.11303815232E+04  0.11303815232E+04  0.50400001928E-02 0. -1.
    10030    2    1    2    0    0  0.00000000000E+00  0.00000000000E+00  0.26750438870E+03  0.25282674350E+04  0.25140758988E+04 0.  0.
        5    1    3    3  502    0 -0.12031285647E+04 -0.36216673757E+03  0.95600895395E+02  0.12600971034E+04  0.46999998093E+01 0.  1.
       -5    1    3    3    0  502  0.12031285647E+04  0.36216673757E+03  0.17190349330E+03  0.12681703316E+04  0.46999998093E+01 0. -1.
</event>
<event>
 5   0  0.7952307E-06  0.3233710E+04  0.7818609E-02  0.8179971E-01
       -2   -1    0    0    0  501  0.00000000000E+00  0.00000000000E+00  0.10294670528E+04  0.10294670528E+04  0.25500000920E-02 0. -1.
        2   -1    0    0  501    0  0.00000000000E+00  0.00000000000E+00 -0.25393915667E+04  0.25393915667E+04  0.25500000920E-02 0.  1.
    10030    2    1    2    0    0  0.00000000000E+00  0.00000000000E+00 -0.15099245139E+04  0.35688586194E+04  0.32337099140E+04 0.  0.
        2    1    3    3  502    0  0.97603117886E+03 -0.44284669384E+03 -0.20909938754E+04  0.23496819877E+04  0.25500000920E-02 0.  1.
       -2    1    3    3    0  502 -0.97603117886E+03  0.44284669384E+03  0.58106936154E+03  0.12191766317E+04  0.25500000920E-02 0. -1.
</event>
<event>
 5   0  0.2788054E-06  0.3233738E+04  0.7818609E-02  0.8179964E-01
       -1   -1    0    0    0  501  0.00000000000E+00  0.00000000000E+00  0.14959281472E+04  0.14959281472E+04  0.50400001928E-02 0. -1.
        1   -1    0    0  501    0  0.00000000000E+00  0.00000000000E+00 -0.17475871764E+04  0.17475871764E+04  0.50400001928E-02 0.  1.
    10030    2    1    2    0    0  0.00000000000E+00  0.00000000000E+00 -0.25165902916E+03  0.32435153236E+04  0.32337376807E+04 0.  0.
        3    1    3    3  502    0  0.12880971692E+04 -0.97182060711E+03 -0.22926857056E+03  0.16297833284E+04  0.10100000352E+00 0. -1.
       -3    1    3    3    0  502 -0.12880971692E+04  0.97182060711E+03 -0.22390458605E+02  0.16137319953E+04  0.10100000352E+00 0.  1.
</event>
<event>
 5   0  0.2788054E-06  0.3214662E+04  0.7818609E-02  0.8184956E-01
        1   -1    0    0  501    0  0.00000000000E+00  0.00000000000E+00  0.12449088881E+04  0.12449088881E+04  0.50400001928E-02 0. -1.
       -1   -1    0    0    0  501  0.00000000000E+00  0.00000000000E+00 -0.20752621584E+04  0.20752621584E+04  0.50400001928E-02 0.  1.
    10030    2    1    2    0    0  0.00000000000E+00  0.00000000000E+00 -0.83035327026E+03  0.33201710465E+04  0.32146616034E+04 0.  0.
        3    1    3    3  502    0  0.41838577490E+03 -0.41233101953E+03 -0.19604267150E+04  0.20465425579E+04  0.10100000352E+00 0.  1.
       -3    1    3    3    0  502 -0.41838577490E+03  0.41233101953E+03  0.11300734447E+04  0.12736284886E+04  0.10100000352E+00 0. -1.
</event>
<event>
 5   0  0.3938696E-06  0.3249073E+04  0.7818609E-02  0.8175976E-01
       -1   -1    0    0    0  501  0.00000000000E+00  0.00000000000E+00  0.12963692829E+04  0.12963692829E+04  0.50400001928E-02 0. -1.
        1   -1    0    0  501    0  0.00000000000E+00  0.00000000000E+00 -0.20357771164E+04  0.20357771164E+04  0.50400001928E-02 0.  1.
    10030    2    1    2    0    0  0.00000000000E+00  0.00000000000E+00 -0.73940783354E+03  0.33321463993E+04  0.32490730497E+04 0.  0.
        4    1    3    3  502    0 -0.40370414286E+03  0.15343896088E+04 -0.11798496337E+02  0.15866534984E+04  0.12699999809E+01 0.  1.
       -4    1    3    3    0  502  0.40370414286E+03 -0.15343896088E+04 -0.72760933720E+03  0.17454929009E+04  0.12699999809E+01 0. -1.
</event>
<event>
 5   0  0.7941434E-06  0.1971334E+04  0.7818609E-02  0.8620142E-01
       -2   -1    0    0    0  501  0.00000000000E+00  0.00000000000E+00  0.63907842060E+03  0.63907842060E+03  0.25500000920E-02 0.  1.
        2   -1    0    0  501    0  0.00000000000E+00  0.00000000000E+00 -0.15202188398E+04  0.15202188398E+04  0.25500000920E-02 0. -1.
    10030    2    1    2    0    0  0.00000000000E+00  0.00000000000E+00 -0.88114041917E+03  0.21592972604E+04  0.19713336147E+04 0.  0.
        4    1    3    3  502    0  0.75144284709E+03  0.63738827232E+03 -0.41357747911E+03  0.10686337568E+04  0.12699999809E+01 0. -1.
       -4    1    3    3    0  502 -0.75144284709E+03 -0.63738827232E+03 -0.46756294007E+03  0.10906635035E+04  0.12699999809E+01 0.  1.
</event>
<event>
 5   0  0.4142886E-06  0.2480586E+04  0.7818609E-02  0.8409935E-01
       -1   -1    0    0    0  501  0.00000000000E+00  0.00000000000E+00  0.10394793426E+04  0.10394793426E+04  0.50400001928E-02 0. -1.
        1   -1    0    0  501    0  0.00000000000E+00  0.00000000000E+00 -0.14799012163E+04  0.14799012163E+04  0.50400001928E-02 0.  1.
    10030    2    1    2    0    0  0.00000000000E+00  0.00000000000E+00 -0.44042187370E+03  0.25193805589E+04  0.24805860142E+04 0.  0.
        5    1    3    3  502    0  0.98295425835E+03  0.74755605501E+03 -0.33718826280E+03  0.12801395018E+04  0.46999998093E+01 0.  1.
       -5    1    3    3    0  502 -0.98295425835E+03 -0.74755605501E+03 -0.10323361090E+03  0.12392410572E+04  0.46999998093E+01 0. -1.
</event>
<event>
 5   0  0.3938696E-06  0.3188312E+04  0.7818609E-02  0.8191911E-01
       -1   -1    0    0    0  501  0.00000000000E+00  0.00000000000E+00  0.11510160857E+04  0.11510160857E+04  0.50400001928E-02 0.  1.
        1   -1    0    0  501    0  0.00000000000E+00  0.00000000000E+00 -0.22079048031E+04  0.22079048031E+04  0.50400001928E-02 0. -1.
    10030    2    1    2    0    0  0.00000000000E+00  0.00000000000E+00 -0.10568887174E+04  0.33589208888E+04  0.31883123712E+04 0.  0.
        4    1    3    3  502    0 -0.78961590498E+02  0.57245971611E+03  0.10367856943E+04  0.11869588232E+04  0.12699999809E+01 0.  1.
       -4    1    3    3    0  502  0.78961590498E+02 -0.57245971611E+03 -0.20936744117E+04  0.21719620656E+04  0.12699999809E+01 0. -1.
</event>
<event>
 5   0  0.7952307E-06  0.1608767E+04  0.7818609E-02  0.8815180E-01
        2   -1    0    0  501    0  0.00000000000E+00  0.00000000000E+00  0.15110888075E+04  0.15110888075E+04  0.25500000920E-02 0. -1.
       -2   -1    0    0    0  501  0.00000000000E+00  0.00000000000E+00 -0.42818982546E+03  0.42818982547E+03  0.25500000920E-02 0.  1.
    10030    2    1    2    0    0  0.00000000000E+00  0.00000000000E+00  0.10828989820E+04  0.19392786329E+04  0.16087670468E+04 0.  0.
        2    1    3    3  502    0  0.42471216855E+03  0.28144450209E+03 -0.20887664398E+03  0.55065496119E+03  0.25500000920E-02 0.  1.
       -2    1    3    3    0  502 -0.42471216855E+03 -0.28144450209E+03  0.12917756260E+04  0.13886236718E+04  0.25500000920E-02 0. -1.
</event>
<event>
 5   0  0.7941434E-06  0.3199157E+04  0.7818609E-02  0.8189040E-01
        2   -1    0    0  501    0  0.00000000000E+00  0.00000000000E+00  0.16607370069E+04  0.16607370069E+04  0.25500000920E-02 0. -1.
       -2   -1    0    0    0  501  0.00000000000E+00  0.00000000000E+00 -0.15406719284E+04  0.15406719284E+04  0.25500000920E-02 0.  1.
    10030    2    1    2    0    0  0.00000000000E+00  0.00000000000E+00  0.12006507843E+03  0.32014089353E+04  0.31991566932E+04 0.  0.
        4    1    3    3  502    0  0.51070148996E+03 -0.83462281711E+03  0.13263237332E+04  0.16481952302E+04  0.12699999809E+01 0. -1.
       -4    1    3    3    0  502 -0.51070148996E+03  0.83462281711E+03 -0.12062586547E+04  0.15532137051E+04  0.12699999809E+01 0.  1.
</event>
<event>
 5   0  0.7941434E-06  0.3113101E+04  0.7818609E-02  0.8212152E-01
        2   -1    0    0  501    0  0.00000000000E+00  0.00000000000E+00  0.16193126645E+04  0.16193126645E+04  0.25500000920E-02 0. -1.
       -2   -1    0    0    0  501  0.00000000000E+00  0.00000000000E+00 -0.14962208797E+04  0.14962208797E+04  0.25500000920E-02 0.  1.
    10030    2    1    2    0    0  0.00000000000E+00  0.00000000000E+00  0.12309178482E+03  0.31155335442E+04  0.31131009745E+04 0.  0.
        4    1    3    3  502    0  0.32432080766E+03  0.35594846071E+03 -0.14198014268E+04  0.14992401400E+04  0.12699999809E+01 0.  1.
       -4    1    3    3    0  502 -0.32432080766E+03 -0.35594846071E+03  0.15428932116E+04  0.16162934042E+04  0.12699999809E+01 0. -1.
</event>
<event>
 5   0  0.2635798E-06  0.3247513E+04  0.7818609E-02  0.8176381E-01
       -1   -1    0    0    0  501  0.00000000000E+00  0.00000000000E+00  0.14090245097E+04  0.14090245097E+04  0.50400001928E-02 0.  1.
        1   -1    0    0  501    0  0.00000000000E+00  0.00000000000E+00 -0.18712134808E+04  0.18712134808E+04  0.50400001928E-02 0. -1.
    10030    2    1    2    0    0  0.00000000000E+00  0.00000000000E+00 -0.46218897107E+03  0.32802379905E+04  0.32475132994E+04 0.  0.
        1    1    3    3  502    0 -0.11150828935E+04  0.10723078998E+04  0.26716278124E+03  0.15699140241E+04  0.50400001928E-02 0.  1.
       -1    1    3    3    0  502  0.11150828935E+04 -0.10723078998E+04 -0.72935175231E+03  0.17103239664E+04  0.50400001928E-02 0. -1.
</event>
<event>
 5   0  0.7952307E-06  0.3157250E+04  0.7818609E-02  0.8200199E-01
       -2   -1    0    0    0  501  0.00000000000E+00  0.00000000000E+00  0.12528837989E+04  0.12528837989E+04  0.25500000920E-02 0.  1.
        2   -1    0    0  501    0  0.00000000000E+00  0.00000000000E+00 -0.19890566094E+04  0.19890566094E+04  0.25500000920E-02 0. -1.
    10030    2    1    2    0    0  0.00000000000E+00  0.00000000000E+00 -0.73617281053E+03  0.32419404083E+04  0.31572499433E+04 0.  0.
        2    1    3    3  502    0  0.10328888739E+04  0.51158969513E+03 -0.14756643146E+04  0.18724765984E+04  0.25500000920E-02 0. -1.
       -2    1    3    3    0  502 -0.10328888739E+04 -0.51158969513E+03  0.73949150412E+03  0.13694638099E+04  0.25500000920E-02 0.  1.
</event>
<event>
 5   0  0.7941434E-06  0.2100177E+04  0.7818609E-02  0.8561166E-01
       -2   -1    0    0    0  501  0.00000000000E+00  0.00000000000E+00  0.61561117507E+03  0.61561117508E+03  0.25500000920E-02 0. -1.
        2   -1    0    0  501    0  0.00000000000E+00  0.00000000000E+00 -0.17912043317E+04  0.17912043317E+04  0.25500000920E-02 0.  1.
    10030    2    1    2    0    0  0.00000000000E+00  0.00000000000E+00 -0.11755931566E+04  0.24068155068E+04  0.21001765673E+04 0.  0.
        4    1    3    3  502    0  0.18543841000E+03 -0.10314439715E+04 -0.51160896264E+03  0.11661944151E+04  0.12699999809E+01 0. -1.
       -4    1    3    3    0  502 -0.18543841000E+03  0.10314439715E+04 -0.66398419398E+03  0.12406210917E+04  0.12699999809E+01 0.  1.
</event>
<event>
 5   0  0.8237664E-06  0.3183442E+04  0.7818609E-02  0.8193204E-01
        2   -1    0    0  501    0  0.00000000000E+00  0.00000000000E+00  0.22843326660E+04  0.22843326660E+04  0.25500000920E-02 0.  1.
       -2   -1    0    0    0  501  0.00000000000E+00  0.00000000000E+00 -0.11091101039E+04  0.11091101039E+04  0.25500000920E-02 0. -1.
    10030    2    1    2    0    0  0.00000000000E+00  0.00000000000E+00  0.11752225621E+04  0.33934427699E+04  0.31834424389E+04 0.  0.
        5    1    3    3  502    0  0.59861776889E+03  0.14245568584E+04  0.99470562525E+03  0.18377069535E+04  0.46999998093E+01 0. -1.
       -5    1    3    3    0  502 -0.59861776889E+03 -0.14245568584E+04  0.18051693686E+03  0.15557358164E+04  0.46999998093E+01 0.  1.
</event>
<event>
 5   0  0.2933646E-06  0.3210472E+04  0.7818609E-02  0.8186057E-01
        1   -1    0    0  501    0  0.00000000000E+00  0.00000000000E+00  0.21861298034E+04  0.21861298034E+04  0.50400001928E-02 0.  1.
       -1   -1    0    0    0  501  0.00000000000E+00  0.00000000000E+00 -0.11786960185E+04  0.11786960185E+04  0.50400001928E-02 0. -1.
    10030    2    1    2    0    0  0.00000000000E+00  0.00000000000E+00  0.10074337849E+04  0.33648258219E+04  0.32104719249E+04 0.  0.
        2    1    3    3  502    0 -0.59848929488E+02  0.15821506468E+04  0.22642158572E+03  0.15993902895E+04  0.25500000920E-02 0.  1.
       -2    1    3    3    0  502  0.59848929488E+02 -0.15821506468E+04  0.78101219918E+03  0.17654355324E+04  0.25500000920E-02 0. -1.
</event>
<event>
 5   0  0.8237664E-06  0.3277729E+04  0.7818609E-02  0.8168585E-01
        2   -1    0    0  501    0  0.00000000000E+00  0.00000000000E+00  0.18214411492E+04  0.18214411492E+04  0.25500000920E-02 0. -1.
       -2   -1    0    0    0  501  0.00000000000E+00  0.00000000000E+00 -0.14745893039E+04  0.14745893039E+04  0.25500000920E-02 0.  1.
    10030    2    1    2    0    0  0.00000000000E+00  0.00000000000E+00  0.34685184529E+03  0.32960304530E+04  0.32777294801E+04 0.  0.
        5    1    3    3  502    0  0.99497757364E+03 -0.12539933267E+04  0.52663616954E+03  0.16851846725E+04  0.46999998093E+01 0.  1.
       -5    1    3    3    0  502 -0.99497757364E+03  0.12539933267E+04 -0.17978432425E+03  0.16108457805E+04  0.46999998093E+01 0. -1.
</event>
<event>
 5   0  0.2933646E-06  0.3212986E+04  0.7818609E-02  0.8185396E-01
       -1   -1    0    0    0  501  0.00000000000E+00  0.00000000000E+00  0.12954834616E+04  0.12954834617E+04  0.50400001928E-02 0.  1.
        1   -1    0    0  501    0  0.00000000000E+00  0.00000000000E+00 -0.19921674359E+04  0.19921674359E+04  0.50400001928E-02 0. -1.
    10030    2    1    2    0    0  0.00000000000E+00  0.00000000000E+00 -0.69668397428E+03  0.32876508976E+04  0.32129861289E+04 0.  0.
        2    1    3    3  502    0  0.15748539999E+03  0.15369241608E+04 -0.79889519052E+03  0.17393018866E+04  0.25500000920E-02 0.  1.
       -2    1    3    3    0  502 -0.15748539999E+03 -0.15369241608E+04  0.10221121623E+03  0.15483490110E+04  0.25500000920E-02 0. -1.
</event>
<event>
 5   0  0.7971763E-06  0.3221402E+04  0.7818609E-02  0.8183188E-01
        2   -1    0    0  501    0  0.00000000000E+00  0.00000000000E+00  0.23297060073E+04  0.23297060073E+04  0.25500000920E-02 0.  1.
       -2   -1    0    0    0  501  0.00000000000E+00  0.00000000000E+00 -0.11135985712E+04  0.11135985712E+04  0.25500000920E-02 0. -1.
    10030    2    1    2    0    0  0.00000000000E+00  0.00000000000E+00  0.12161074362E+04  0.34433045785E+04  0.32214017328E+04 0.  0.
        1    1    3    3  502    0 -0.34046362419E+03 -0.15653376490E+04  0.42868541798E+03  0.16583029344E+04  0.50400001928E-02 0. -1.
       -1    1    3    3    0  502  0.34046362419E+03  0.15653376490E+04  0.78742201820E+03  0.17850016441E+04  0.50400001928E-02 0.  1.
</event>
<event>
 5   0  0.2635798E-06  0.3248737E+04  0.7818609E-02  0.8176063E-01
       -1   -1    0    0    0  501  0.00000000000E+00  0.00000000000E+00  0.97467632385E+03  0.97467632387E+03  0.50400001928E-02 0.  1.
        1   -1    0    0  501    0  0.00000000000E+00  0.00000000000E+00 -0.27071273724E+04  0.27071273724E+04  0.50400001928E-02 0. -1.
    10030    2    1    2    0    0  0.00000000000E+00  0.00000000000E+00 -0.17324510485E+04  0.36818036963E+04  0.32487369580E+04 0.  0.
        1    1    3    3  502    0  0.11225894999E+03 -0.23619880810E+02 -0.27025308542E+04  0.27049645078E+04  0.50400001928E-02 0. -1.
       -1    1    3    3    0  502 -0.11225894999E+03  0.23619880810E+02  0.97007980568E+03  0.97683918842E+03  0.50400001928E-02 0.  1.
</event>
<event>
 5   0  0.7510251E-06  0.3345306E+04  0.7818609E-02  0.8151462E-01
        2   -1    0    0  501    0  0.00000000000E+00  0.00000000000E+00  0.23733044755E+04  0.23733044755E+04  0.25500000920E-02 0. -1.
       -2   -1    0    0    0  501  0.00000000000E+00  0.00000000000E+00 -0.11788489577E+04  0.11788489577E+04  0.25500000920E-02 0.  1.
    10030    2    1    2    0    0  0.00000000000E+00  0.00000000000E+00  0.11944555179E+04  0.35521534332E+04  0.33453056705E+04 0.  0.
        3    1    3    3  502    0 -0.88194046829E+03 -0.74819175041E+03 -0.68585827657E+03  0.13446231705E+04  0.10100000352E+00 0.  1.
       -3    1    3    3    0  502  0.88194046829E+03  0.74819175041E+03  0.18803137944E+04  0.22075302627E+04  0.10100000352E+00 0. -1.
</event>
<event>
 5   0  0.4142886E-06  0.2447708E+04  0.7818609E-02  0.8421855E-01
       -1   -1    0    0    0  501  0.00000000000E+00  0.00000000000E+00  0.12339471627E+04  0.12339471627E+04  0.50400001928E-02 0.  1.
        1   -1    0    0  501    0  0.00000000000E+00  0.00000000000E+00 -0.12138438614E+04  0.12138438614E+04  0.50400001928E-02 0. -1.
    10030    2    1    2    0    0  0.00000000000E+00  0.00000000000E+00  0.20103301356E+02  0.24477910241E+04  0.24477084702E+04 0.  0.
        5    1    3    3  502    0 -0.79063052147E+03  0.28350341269E+02 -0.92373395073E+03  0.12162264859E+04  0.46999998093E+01 0. -1.
       -5    1    3    3    0  502  0.79063052147E+03 -0.28350341269E+02  0.94383725209E+03  0.12315645382E+04  0.46999998093E+01 0.  1.
</event>
<event>
 5   0  0.2788054E-06  0.3062773E+04  0.7818609E-02  0.8226030E-01
       -1   -1    0    0    0  501  0.00000000000E+00  0.00000000000E+00  0.75493095458E+03  0.75493095460E+03  0.50400001928E-02 0.  1.
        1   -1    0    0  501    0  0.00000000000E+00  0.00000000000E+00 -0.31064349323E+04  0.31064349323E+04  0.50400001928E-02 0. -1.
    10030    2    1    2    0    0  0.00000000000E+00  0.00000000000E+00 -0.23515039777E+04  0.38613658869E+04  0.30627725275E+04 0.  0.
        3    1    3    3  502    0  0.75626721070E+03  0.12729123718E+04 -0.16687293119E+04  0.22308974712E+04  0.10100000352E+00 0. -1.
       -3    1    3    3    0  502 -0.75626721070E+03 -0.12729123718E+04 -0.68277466582E+03  0.16304684157E+04  0.10100000352E+00 0.  1.
</event>
<event>
 5   0  0.7952307E-06  0.2154586E+04  0.7818609E-02  0.8537572E-01
       -2   -1    0    0    0  501  0.00000000000E+00  0.00000000000E+00  0.64248460285E+03  0.64248460285E+03  0.25500000920E-02 0. -1.
        2   -1    0    0  501    0  0.00000000000E+00  0.00000000000E+00 -0.18063631514E+04  0.18063631514E+04  0.25500000920E-02 0.  1.
    10030    2    1    2    0    0  0.00000000000E+00  0.00000000000E+00 -0.11638785486E+04  0.24488477543E+04  0.21545862823E+04 0.  0.
        2    1    3    3  502    0  0.39563087615E+03  0.11483330928E+03 -0.17133019820E+04  0.17621334117E+04  0.25500000920E-02 0.  1.
       -2    1    3    3    0  502 -0.39563087615E+03 -0.11483330928E+03  0.54942343343E+03  0.68671434257E+03  0.25500000920E-02 0. -1.
</event>
<event>
 5   0  0.8237664E-06  0.3221001E+04  0.7818609E-02  0.8183293E-01
        2   -1    0    0  501    0  0.00000000000E+00  0.00000000000E+00  0.21629444622E+04  0.21629444622E+04  0.25500000920E-02 0. -1.
       -2   -1    0    0    0  501  0.00000000000E+00  0.00000000000E+00 -0.11991582248E+04  0.11991582248E+04  0.25500000920E-02 0.  1.
    10030    2    1    2    0    0  0.00000000000E+00  0.00000000000E+00  0.96378623739E+03  0.33621026869E+04  0.32210014849E+04 0.  0.
        5    1    3    3  502    0  0.93588510141E+03 -0.12721473284E+04  0.81106611158E+03  0.17754126494E+04  0.46999998093E+01 0.  1.
       -5    1    3    3    0  502 -0.93588510141E+03  0.12721473284E+04  0.15272012582E+03  0.15866900375E+04  0.46999998093E+01 0. -1.
</event>
<event>
 5   0  0.2635798E-06  0.3083987E+04  0.7818609E-02  0.8220146E-01
        1   -1    0    0  501    0  0.00000000000E+00  0.00000000000E+00  0.18754239887E+04  0.18754239887E+04  0.50400001928E-02 0. -1.
       -1   -1    0    0    0  501  0.00000000000E+00  0.00000000000E+00 -0.12678435696E+04  0.12678435696E+04  0.50400001928E-02 0.  1.
    10030    2    1    2    0    0  0.00000000000E+00  0.00000000000E+00  0.60758041913E+03  0.31432675583E+04  0.30839871882E+04 0.  0.
        1    1    3    3  502    0 -0.11736335865E+04  0.91091330389E+03  0.72472445142E+03  0.16529986004E+04  0.50400001928E-02 0. -1.
       -1    1    3    3    0  502  0.11736335865E+04 -0.91091330389E+03 -0.11714403228E+03  0.14902689579E+04  0.50400001928E-02 0.  1.
</event>
<event>
 5   0  0.7941434E-06  0.3232927E+04  0.7818609E-02  0.8180175E-01
       -2   -1    0    0    0  501  0.00000000000E+00  0.00000000000E+00  0.11652119779E+04  0.11652119779E+04  0.25500000920E-02 0.  1.
        2   -1    0    0  501    0  0.00000000000E+00  0.00000000000E+00 -0.22424713733E+04  0.22424713733E+04  0.25500000920E-02 0. -1.
    10030    2    1    2    0    0  0.00000000000E+00  0.00000000000E+00 -0.10772593954E+04  0.34076833512E+04  0.32329271592E+04 0.  0.
        4    1    3    3  502    0 -0.79314114642E+02  0.75952330081E+03  0.96308867643E+03  0.12291085326E+04  0.12699999809E+01 0.  1.
       -4    1    3    3    0  502  0.79314114642E+02 -0.75952330081E+03 -0.20403480718E+04  0.21785748186E+04  0.12699999809E+01 0. -1.
</event>
<event>
 5   0  0.7952307E-06  0.2923509E+04  0.7818609E-02  0.8265917E-01
        2   -1    0    0  501    0  0.00000000000E+00  0.00000000000E+00  0.18788394682E+04  0.18788394682E+04  0.25500000920E-02 0.  1.
       -2   -1    0    0    0  501  0.00000000000E+00  0.00000000000E+00 -0.11372587949E+04  0.11372587949E+04  0.25500000920E-02 0. -1.
    10030    2    1    2    0    0  0.00000000000E+00  0.00000000000E+00  0.74158067324E+03  0.30160982631E+04  0.29235093360E+04 0.  0.
        2    1    3    3  502    0 -0.20184887634E+03 -0.97019112276E+03 -0.73781768099E+03  0.12354710494E+04  0.25500000920E-02 0. -1.
       -2    1    3    3    0  502  0.20184887634E+03  0.97019112276E+03  0.14793983542E+04  0.17806272137E+04  0.25500000920E-02 0.  1.
</event>
<event>
 5   0  0.7510251E-06  0.3010789E+04  0.7818609E-02  0.8240657E-01
        2   -1    0    0  501    0  0.00000000000E+00  0.00000000000E+00  0.32460830166E+04  0.32460830166E+04  0.25500000920E-02 0.  1.
       -2   -1    0    0    0  501  0.00000000000E+00  0.00000000000E+00 -0.69813747789E+03  0.69813747790E+03  0.25500000920E-02 0. -1.
    10030    2    1    2    0    0  0.00000000000E+00  0.00000000000E+00  0.25479455387E+04  0.39442204945E+04  0.30107887407E+04 0.  0.
        3    1    3    3  502    0 -0.90961801257E+03  0.42215179190E+03 -0.19687835106E+03  0.10219482176E+04  0.10100000352E+00 0. -1.
       -3    1    3    3    0  502  0.90961801257E+03 -0.42215179190E+03  0.27448238898E+04  0.29222722769E+04  0.10100000352E+00 0.  1.
</event>
<event>
 5   0  0.2933646E-06  0.1916434E+04  0.7818609E-02  0.8646719E-01
        1   -1    0    0  501    0  0.00000000000E+00  0.00000000000E+00  0.15171078443E+04  0.15171078443E+04  0.50400001928E-02 0. -1.
       -1   -1    0    0    0  501  0.00000000000E+00  0.00000000000E+00 -0.60521723037E+03  0.60521723039E+03  0.50400001928E-02 0.  1.
    10030    2    1    2    0    0  0.00000000000E+00  0.00000000000E+00  0.91189061389E+03  0.21223250747E+04  0.19164339881E+04 0.  0.
        2    1    3    3  502    0 -0.87270347029E+03 -0.21113339958E+03  0.85341488766E+02  0.90192673160E+03  0.25500000920E-02 0.  1.
       -2    1    3    3    0  502  0.87270347029E+03  0.21113339958E+03  0.82654912512E+03  0.12203983430E+04  0.25500000920E-02 0. -1.
</event>
<event>
 5   0  0.2580875E-06  0.3033053E+04  0.7818609E-02  0.8234355E-01
        3   -1    0    0  501    0  0.00000000000E+00  0.00000000000E+00  0.17374378839E+04  0.17374378868E+04  0.10100000352E+00 0.  1.
       -3   -1    0    0    0  501  0.00000000000E+00  0.00000000000E+00 -0.13237032712E+04  0.13237032751E+04  0.10100000352E+00 0. -1.
    10030    2    1    2    0    0  0.00000000000E+00  0.00000000000E+00  0.41373461262E+03  0.30611411619E+04  0.30330527334E+04 0.  0.
        1    1    3    3  502    0  0.11856932444E+04 -0.12964968643E+03 -0.73838217333E+03  0.14028135104E+04  0.50400001928E-02 0. -1.
       -1    1    3    3    0  502 -0.11856932444E+04  0.12964968643E+03  0.11521167860E+04  0.16583276515E+04  0.50400001928E-02 0.  1.
</event>
<event>
 5   0  0.7510251E-06  0.3123294E+04  0.7818609E-02  0.8209374E-01
        2   -1    0    0  501    0  0.00000000000E+00  0.00000000000E+00  0.17253209366E+04  0.17253209366E+04  0.25500000920E-02 0. -1.
       -2   -1    0    0    0  501  0.00000000000E+00  0.00000000000E+00 -0.14135005414E+04  0.14135005414E+04  0.25500000920E-02 0.  1.
    10030    2    1    2    0    0  0.00000000000E+00  0.00000000000E+00  0.31182039521E+03  0.31388214780E+04  0.31232944645E+04 0.  0.
        3    1    3    3  502    0 -0.31417446603E+03  0.69834448818E+03 -0.12118670617E+04  0.14335314453E+04  0.10100000352E+00 0.  1.
       -3    1    3    3    0  502  0.31417446603E+03 -0.69834448818E+03  0.15236874569E+04  0.17052900327E+04  0.10100000352E+00 0. -1.
</event>
<event>
 5   0  0.7510251E-06  0.3267835E+04  0.7818609E-02  0.8171128E-01
        2   -1    0    0  501    0  0.00000000000E+00  0.00000000000E+00  0.26841208272E+04  0.26841208272E+04  0.25500000920E-02 0.  1.
       -2   -1    0    0    0  501  0.00000000000E+00  0.00000000000E+00 -0.99462244340E+03  0.99462244340E+03  0.25500000920E-02 0. -1.
    10030    2    1    2    0    0  0.00000000000E+00  0.00000000000E+00  0.16894983838E+04  0.36787432706E+04  0.32678352562E+04 0.  0.
        3    1    3    3  502    0 -0.28399156936E+02 -0.10678406386E+04 -0.54707948503E+03  0.12001608703E+04  0.10100000352E+00 0. -1.
       -3    1    3    3    0  502  0.28399156936E+02  0.10678406386E+04  0.22365778688E+04  0.24785824002E+04  0.10100000352E+00 0.  1.
</event>
<event>
 5   0  0.7952307E-06  0.3308178E+04  0.7818609E-02  0.8160818E-01
        2   -1    0    0  501    0  0.00000000000E+00  0.00000000000E+00  0.21182073193E+04  0.21182073193E+04  0.25500000920E-02 0.  1.
       -2   -1    0    0    0  501  0.00000000000E+00  0.00000000000E+00 -0.12916633367E+04  0.12916633367E+04  0.25500000920E-02 0. -1.
    10030    2    1    2    0    0  0.00000000000E+00  0.00000000000E+00  0.82654398261E+03  0.34098706560E+04  0.33081781898E+04 0.  0.
        2    1    3    3  502    0  0.78123792754E+03  0.47332491036E+02 -0.10887239882E+04  0.13408553191E+04  0.25500000920E-02 0. -1.
       -2    1    3    3    0  502 -0.78123792754E+03 -0.47332491036E+02  0.19152679708E+04  0.20690153369E+04  0.25500000920E-02 0.  1.
</event>
<event>
 5   0  0.2635798E-06  0.3149025E+04  0.7818609E-02  0.8202411E-01
        1   -1    0    0  501    0  0.00000000000E+00  0.00000000000E+00  0.14797932220E+04  0.14797932220E+04  0.50400001928E-02 0.  1.
       -1   -1    0    0    0  501  0.00000000000E+00  0.00000000000E+00 -0.16752945568E+04  0.16752945568E+04  0.50400001928E-02 0. -1.
    10030    2    1    2    0    0  0.00000000000E+00  0.00000000000E+00 -0.19550133487E+03  0.31550877788E+04  0.31490249475E+04 0.  0.
        1    1    3    3  502    0  0.63658318076E+03  0.11812082129E+04 -0.92310760512E+03  0.16286861695E+04  0.50400001928E-02 0. -1.
       -1    1    3    3    0  502 -0.63658318076E+03 -0.11812082129E+04  0.72760627025E+03  0.15264016093E+04  0.50400001928E-02 0.  1.
</event>
<event>
 5   0  0.7941434E-06  0.2712179E+04  0.7818609E-02  0.8331064E-01
       -2   -1    0    0    0  501  0.00000000000E+00  0.00000000000E+00  0.67513918981E+03  0.67513918981E+03  0.25500000920E-02 0.  1.
        2   -1    0    0  501    0  0.00000000000E+00  0.00000000000E+00 -0.27238509813E+04  0.27238509813E+04  0.25500000920E-02 0. -1.
    10030    2    1    2    0    0  0.00000000000E+00  0.00000000000E+00 -0.20487117915E+04  0.33989901711E+04  0.27121788619E+04 0.  0.
        4    1    3    3  502    0  0.23427696261E+03 -0.75681090256E+03  0.35495621216E+03  0.86812669749E+03  0.12699999809E+01 0.  1.
       -4    1    3    3    0  502 -0.23427696261E+03  0.75681090256E+03 -0.24036680037E+04  0.25308634737E+04  0.12699999809E+01 0. -1.
</event>
<event>
 5   0  0.7510251E-06  0.3179103E+04  0.7818609E-02  0.8194358E-01
        2   -1    0    0  501    0  0.00000000000E+00  0.00000000000E+00  0.14236457479E+04  0.14236457479E+04  0.25500000920E-02 0. -1.
       -2   -1    0    0    0  501  0.00000000000E+00  0.00000000000E+00 -0.17747908258E+04  0.17747908258E+04  0.25500000920E-02 0.  1.
    10030    2    1    2    0    0  0.00000000000E+00  0.00000000000E+00 -0.35114507787E+03  0.31984365737E+04  0.31791026486E+04 0.  0.
        3    1    3    3  502    0  0.91960413070E+03 -0.96184006602E+03 -0.10502650447E+04  0.16952476940E+04  0.10100000352E+00 0. -1.
       -3    1    3    3    0  502 -0.91960413070E+03  0.96184006602E+03  0.69911996683E+03  0.15031888797E+04  0.10100000352E+00 0.  1.
</event>
<event>
 5   0  0.2933646E-06  0.1617081E+04  0.7818609E-02  0.8810123E-01
       -1   -1    0    0    0  501  0.00000000000E+00  0.00000000000E+00  0.87494947812E+03  0.87494947814E+03  0.50400001928E-02 0. -1.
        1   -1    0    0  501    0  0.00000000000E+00  0.00000000000E+00 -0.74717152887E+03  0.74717152888E+03  0.50400001928E-02 0.  1.
    10030    2    1    2    0    0  0.00000000000E+00  0.00000000000E+00  0.12777794925E+03  0.16221210070E+04  0.16170805042E+04 0.  0.
        2    1    3    3  502    0 -0.32729583548E+03  0.51769916957E+02 -0.67592915626E+03  0.75278344331E+03  0.25500000920E-02 0.  1.
       -2    1    3    3    0  502  0.32729583548E+03 -0.51769916957E+02  0.80370710551E+03  0.86933756372E+03  0.25500000920E-02 0. -1.
</event>
<event>
 5   0  0.2635798E-06  0.2628142E+04  0.7818609E-02  0.8358704E-01
        1   -1    0    0  501    0  0.00000000000E+00  0.00000000000E+00  0.95550265271E+03  0.95550265273E+03  0.50400001928E-02 0. -1.
       -1   -1    0    0    0  501  0.00000000000E+00  0.00000000000E+00 -0.18071977884E+04  0.18071977884E+04  0.50400001928E-02 0.  1.
    10030    2    1    2    0    0  0.00000000000E+00  0.00000000000E+00 -0.85169513571E+03  0.27627004412E+04  0.26281417624E+04 0.  0.
        1    1    3    3  502    0 -0.88499654911E+03  0.67723023832E+03  0.30616951988E+03  0.11556813845E+04  0.50400001928E-02 0. -1.
       -1    1    3    3    0  502  0.88499654911E+03 -0.67723023832E+03 -0.11578646556E+04  0.16070190566E+04  0.50400001928E-02 0.  1.
</event>
<event>
 5   0  0.7971763E-06  0.2020682E+04  0.7818609E-02  0.8597012E-01
        2   -1    0    0  501    0  0.00000000000E+00  0.00000000000E+00  0.79185014775E+03  0.79185014776E+03  0.25500000920E-02 0.  1.
       -2   -1    0    0    0  501  0.00000000000E+00  0.00000000000E+00 -0.12891186652E+04  0.12891186652E+04  0.25500000920E-02 0. -1.
    10030    2    1    2    0    0  0.00000000000E+00  0.00000000000E+00 -0.49726851741E+03  0.20809688129E+04  0.20206818705E+04 0.  0.
        1    1    3    3  502    0 -0.76494886520E+03  0.23080405983E+03 -0.88544502637E+03  0.11926567717E+04  0.50400001928E-02 0. -1.
       -1    1    3    3    0  502  0.76494886520E+03 -0.23080405983E+03  0.38817650896E+03  0.88831204119E+03  0.50400001928E-02 0.  1.
</event>
<event>
 5   0  0.2635798E-06  0.2984830E+04  0.7818609E-02  0.8248076E-01
       -1   -1    0    0    0  501  0.00000000000E+00  0.00000000000E+00  0.18400221696E+04  0.18400221696E+04  0.50400001928E-02 0. -1.
        1   -1    0    0  501    0  0.00000000000E+00  0.00000000000E+00 -0.12104761565E+04  0.12104761565E+04  0.50400001928E-02 0.  1.
    10030    2    1    2    0    0  0.00000000000E+00  0.00000000000E+00  0.62954601305E+03  0.30504983261E+04  0.29848302892E+04 0.  0.
        1    1    3    3  502    0 -0.15489082912E+03 -0.12268825717E+04 -0.53911503332E+03  0.13490281809E+04  0.50400001928E-02 0.  1.
       -1    1    3    3    0  502  0.15489082912E+03  0.12268825717E+04  0.11686610464E+04  0.17014701452E+04  0.50400001928E-02 0. -1.
</event>
<event>
 5   0  0.7510251E-06  0.2128801E+04  0.7818609E-02  0.8548662E-01
        2   -1    0    0  501    0  0.00000000000E+00  0.00000000000E+00  0.12735799742E+04  0.12735799742E+04  0.25500000920E-02 0. -1.
       -2   -1    0    0    0  501  0.00000000000E+00  0.00000000000E+00 -0.88957744520E+03  0.88957744520E+03  0.25500000920E-02 0.  1.
    10030    2    1    2    0    0  0.00000000000E+00  0.00000000000E+00  0.38400252902E+03  0.21631574194E+04  0.21288006198E+04 0.  0.
        3    1    3    3  502    0  0.10359132922E+04  0.21606813412E+01  0.44054437063E+03  0.11256999468E+04  0.10100000352E+00 0.  1.
       -3    1    3    3    0  502 -0.10359132922E+04 -0.21606813412E+01 -0.56541841612E+02  0.10374574726E+04  0.10100000352E+00 0. -1.
</event>
<event>
 5   0  0.2635798E-06  0.2681932E+04  0.7818609E-02  0.8340891E-01
       -1   -1    0    0    0  501  0.00000000000E+00  0.00000000000E+00  0.17730748240E+04  0.17730748241E+04  0.50400001928E-02 0.  1.
        1   -1    0    0  501    0  0.00000000000E+00  0.00000000000E+00 -0.10141645809E+04  0.10141645809E+04  0.50400001928E-02 0. -1.
    10030    2    1    2    0    0  0.00000000000E+00  0.00000000000E+00  0.75891024313E+03  0.27872394050E+04  0.26819319051E+04 0.  0.
        1    1    3    3  502    0 -0.22679337574E+03 -0.68218818591E+03  0.15558806346E+04  0.17139371358E+04  0.50400001928E-02 0.  1.
       -1    1    3    3    0  502  0.22679337574E+03  0.68218818591E+03 -0.79697039144E+03  0.10733022692E+04  0.50400001928E-02 0. -1.
</event>
<event>
 5   0  0.2635798E-06  0.2895823E+04  0.7818609E-02  0.8274121E-01
       -1   -1    0    0    0  501  0.00000000000E+00  0.00000000000E+00  0.12740618687E+04  0.12740618687E+04  0.50400001928E-02 0.  1.
        1   -1    0    0  501    0  0.00000000000E+00  0.00000000000E+00 -0.16454831156E+04  0.16454831156E+04  0.50400001928E-02 0. -1.
    10030    2    1    2    0    0  0.00000000000E+00  0.00000000000E+00 -0.37142124685E+03  0.29195449843E+04  0.28958227109E+04 0.  0.
        1    1    3    3  502    0 -0.89363995817E+03 -0.53980101184E+03  0.82573740558E+03  0.13310972054E+04  0.50400001928E-02 0. -1.
       -1    1    3    3    0  502  0.89363995817E+03  0.53980101184E+03 -0.11971586524E+04  0.15884477789E+04  0.50400001928E-02 0.  1.
</event>
<event>
 5   0  0.2933646E-06  0.3116794E+04  0.7818609E-02  0.8211144E-01
       -1   -1    0    0    0  501  0.00000000000E+00  0.00000000000E+00  0.17583329779E+04  0.17583329779E+04  0.50400001928E-02 0. -1.
        1   -1    0    0  501    0  0.00000000000E+00  0.00000000000E+00 -0.13811955678E+04  0.13811955678E+04  0.50400001928E-02 0.  1.
    10030    2    1    2    0    0  0.00000000000E+00  0.00000000000E+00  0.37713741006E+03  0.31395285457E+04  0.31167943248E+04 0.  0.
        2    1    3    3  502    0 -0.45650315432E+03 -0.13094072135E+04  0.90485279773E+03  0.16558082516E+04  0.25500000920E-02 0. -1.
       -2    1    3    3    0  502  0.45650315432E+03  0.13094072135E+04 -0.52771538767E+03  0.14837202941E+04  0.25500000920E-02 0.  1.
</event>
<event>
 5   0  0.7971763E-06  0.3097827E+04  0.7818609E-02  0.8216334E-01
       -2   -1    0    0    0  501  0.00000000000E+00  0.00000000000E+00  0.14398345911E+04  0.14398345911E+04  0.25500000920E-02 0.  1.
        2   -1    0    0  501    0  0.00000000000E+00  0.00000000000E+00 -0.16662561702E+04  0.16662561702E+04  0.25500000920E-02 0. -1.
    10030    2    1    2    0    0  0.00000000000E+00  0.00000000000E+00 -0.22642157909E+03  0.31060907614E+04  0.30978271557E+04 0.  0.
        1    1    3    3  502    0  0.31092694431E+03  0.77106718934E+03 -0.14235684252E+04  0.16485652054E+04  0.50400001928E-02 0. -1.
       -1    1    3    3    0  502 -0.31092694431E+03 -0.77106718934E+03  0.11971468461E+04  0.14575255560E+04  0.50400001928E-02 0.  1.
</event>
<event>
 5   0  0.7510251E-06  0.3156850E+04  0.7818609E-02  0.8200307E-01
        2   -1    0    0  501    0  0.00000000000E+00  0.00000000000E+00  0.14435116228E+04  0.14435116228E+04  0.25500000920E-02 0.  1.
       -2   -1    0    0    0  501  0.00000000000E+00  0.00000000000E+00 -0.17259473901E+04  0.17259473901E+04  0.25500000920E-02 0. -1.
    10030    2    1    2    0    0  0.00000000000E+00  0.00000000000E+00 -0.28243576727E+03  0.31694590129E+04  0.31568497702E+04 0.  0.
        3    1    3    3  502    0  0.12445442173E+04  0.88013709234E+03  0.27016684256E+03  0.15480703289E+04  0.10100000352E+00 0.  1.
       -3    1    3    3    0  502 -0.12445442173E+04 -0.88013709234E+03 -0.55260260983E+03  0.16213886840E+04  0.10100000352E+00 0. -1.
</event>
<event>
 5   0  0.7952307E-06  0.3210161E+04  0.7818609E-02  0.8186139E-01
        2   -1    0    0  501    0  0.00000000000E+00  0.00000000000E+00  0.21781094908E+04  0.21781094908E+04  0.25500000920E-02 0.  1.
       -2   -1    0    0    0  501  0.00000000000E+00  0.00000000000E+00 -0.11828072251E+04  0.11828072251E+04  0.25500000920E-02 0. -1.
    10030    2    1    2    0    0  0.00000000000E+00  0.00000000000E+00  0.99530226575E+03  0.33609167159E+04  0.32101611441E+04 0.  0.
        2    1    3    3  502    0  0.43901528587E+02 -0.10148300758E+04 -0.80348138046E+03  0.12951408247E+04  0.25500000920E-02 0. -1.
       -2    1    3    3    0  502 -0.43901528587E+02  0.10148300758E+04  0.17987836462E+04  0.20657758912E+04  0.25500000920E-02 0.  1.
</event>
<event>
 5   0  0.7971763E-06  0.2948596E+04  0.7818609E-02  0.8258564E-01
       -2   -1    0    0    0  501  0.00000000000E+00  0.00000000000E+00  0.10241930952E+04  0.10241930952E+04  0.25500000920E-02 0. -1.
        2   -1    0    0  501    0  0.00000000000E+00  0.00000000000E+00 -0.21222123328E+04  0.21222123328E+04  0.25500000920E-02 0.  1.
    10030    2    1    2    0    0  0.00000000000E+00  0.00000000000E+00 -0.10980192376E+04  0.31464054280E+04  0.29485964239E+04 0.  0.
        1    1    3    3  502    0 -0.72094923222E+03 -0.12001242805E+04 -0.55963850531E+02  0.14011416904E+04  0.50400001928E-02 0. -1.
       -1    1    3    3    0  502  0.72094923222E+03  0.12001242805E+04 -0.10420553871E+04  0.17452637376E+04  0.50400001928E-02 0.  1.
</event>
<event>
 5   0  0.7510251E-06  0.3143240E+04  0.7818609E-02  0.8203970E-01
       -2   -1    0    0    0  501  0.00000000000E+00  0.00000000000E+00  0.16131774538E+04  0.16131774538E+04  0.25500000920E-02 0. -1.
        2   -1    0    0  501    0  0.00000000000E+00  0.00000000000E+00 -0.15311326992E+04  0.15311326992E+04  0.25500000920E-02 0.  1.
    10030    2    1    2    0    0  0.00000000000E+00  0.00000000000E+00  0.82044754638E+02  0.31443101530E+04  0.31432395704E+04 0.  0.
        3    1    3    3  502    0 -0.96763878100E+03  0.11955886863E+04  0.36398156372E+03  0.15805820783E+04  0.10100000352E+00 0. -1.
       -3    1    3    3    0  502  0.96763878100E+03 -0.11955886863E+04 -0.28193680908E+03  0.15637280748E+04  0.10100000352E+00 0.  1.
</event>
<event>
 5   0  0.2788054E-06  0.3251558E+04  0.7818609E-02  0.8175332E-01
       -1   -1    0    0    0  501  0.00000000000E+00  0.00000000000E+00  0.11250173804E+04  0.11250173804E+04  0.50400001928E-02 0. -1.
        1   -1    0    0  501    0  0.00000000000E+00  0.00000000000E+00 -0.23494373729E+04  0.23494373729E+04  0.50400001928E-02 0.  1.
    10030    2    1    2    0    0  0.00000000000E+00  0.00000000000E+00 -0.12244199925E+04  0.34744547534E+04  0.32515583210E+04 0.  0.
        3    1    3    3  502    0 -0.81174422844E+03 -0.31183797539E+03  0.85563257927E+03  0.12199503007E+04  0.10100000352E+00 0. -1.
       -3    1    3    3    0  502  0.81174422844E+03  0.31183797539E+03 -0.20800525718E+04  0.22545044526E+04  0.10100000352E+00 0.  1.
</event>
<event>
 5   0  0.7941434E-06  0.3177014E+04  0.7818609E-02  0.8194914E-01
       -2   -1    0    0    0  501  0.00000000000E+00  0.00000000000E+00  0.10023297265E+04  0.10023297265E+04  0.25500000920E-02 0. -1.
        2   -1    0    0  501    0  0.00000000000E+00  0.00000000000E+00 -0.25174898693E+04  0.25174898693E+04  0.25500000920E-02 0.  1.
    10030    2    1    2    0    0  0.00000000000E+00  0.00000000000E+00 -0.15151601427E+04  0.35198195958E+04  0.31770142790E+04 0.  0.
        4    1    3    3  502    0 -0.19953064076E+01  0.14818876283E+04 -0.12369141575E+03  0.14870427376E+04  0.12699999809E+01 0. -1.
       -4    1    3    3    0  502  0.19953064076E+01 -0.14818876283E+04 -0.13914687270E+04  0.20327768582E+04  0.12699999809E+01 0.  1.
</event>
<event>
 5   0  0.7952307E-06  0.3209401E+04  0.7818609E-02  0.8186339E-01
        2   -1    0    0  501    0  0.00000000000E+00  0.00000000000E+00  0.12974904267E+04  0.12974904267E+04  0.25500000920E-02 0.  1.
       -2   -1    0    0    0  501  0.00000000000E+00  0.00000000000E+00 -0.19846491064E+04  0.19846491064E+04  0.25500000920E-02 0. -1.
    10030    2    1    2    0    0  0.00000000000E+00  0.00000000000E+00 -0.68715867974E+03  0.32821395331E+04  0.32094007016E+04 0.  0.
        2    1    3    3  502    0  0.10700779635E+04 -0.48570668902E+03 -0.14610877172E+04  0.18750347072E+04  0.25500000920E-02 0. -1.
       -2    1    3    3    0  502 -0.10700779635E+04  0.48570668902E+03  0.77392903751E+03  0.14071048258E+04  0.25500000920E-02 0.  1.
</event>
<event>
 5   0  0.2933646E-06  0.3126889E+04  0.7818609E-02  0.8208397E-01
       -1   -1    0    0    0  501  0.00000000000E+00  0.00000000000E+00  0.11147985189E+04  0.11147985189E+04  0.50400001928E-02 0. -1.
        1   -1    0    0  501    0  0.00000000000E+00  0.00000000000E+00 -0.21926455858E+04  0.21926455858E+04  0.50400001928E-02 0.  1.
    10030    2    1    2    0    0  0.00000000000E+00  0.00000000000E+00 -0.10778470669E+04  0.33074441047E+04  0.31268885823E+04 0.  0.
        2    1    3    3  502    0  0.10956629219E+04  0.10996559687E+04 -0.34206521358E+03  0.15895688404E+04  0.25500000920E-02 0.  1.
       -2    1    3    3    0  502 -0.10956629219E+04 -0.10996559687E+04 -0.73578185334E+03  0.17178752643E+04  0.25500000920E-02 0. -1.
</event>
<event>
 5   0  0.2933646E-06  0.3160112E+04  0.7818609E-02  0.8199432E-01
        1   -1    0    0  501    0  0.00000000000E+00  0.00000000000E+00  0.11869572975E+04  0.11869572975E+04  0.50400001928E-02 0.  1.
       -1   -1    0    0    0  501  0.00000000000E+00  0.00000000000E+00 -0.21033414674E+04  0.21033414674E+04  0.50400001928E-02 0. -1.
    10030    2    1    2    0    0  0.00000000000E+00  0.00000000000E+00 -0.91638416996E+03  0.32902987649E+04  0.31601117093E+04 0.  0.
        2    1    3    3  502    0  0.33310232948E+02  0.55761328388E+03 -0.19970989574E+04  0.20737517671E+04  0.25500000920E-02 0. -1.
       -2    1    3    3    0  502 -0.33310232948E+02 -0.55761328388E+03  0.10807147874E+04  0.12165469978E+04  0.25500000920E-02 0.  1.
</event>
<event>
 5   0  0.7971763E-06  0.2333797E+04  0.7818609E-02  0.8464714E-01
       -2   -1    0    0    0  501  0.00000000000E+00  0.00000000000E+00  0.62352753323E+03  0.62352753324E+03  0.25500000920E-02 0. -1.
        2   -1    0    0  501    0  0.00000000000E+00  0.00000000000E+00 -0.21837876276E+04  0.21837876276E+04  0.25500000920E-02 0.  1.
    10030    2    1    2    0    0  0.00000000000E+00  0.00000000000E+00 -0.15602600944E+04  0.28073151609E+04  0.23337966600E+04 0.  0.
        1    1    3    3  502    0 -0.48539163887E+03 -0.79904899065E+03 -0.16200646594E+04  0.18704795731E+04  0.50400001928E-02 0.  1.
       -1    1    3    3    0  502  0.48539163887E+03  0.79904899065E+03  0.59804565017E+02  0.93683558780E+03  0.50400001928E-02 0. -1.
</event>
<event>
 5   0  0.2635798E-06  0.1912963E+04  0.7818609E-02  0.8648431E-01
        1   -1    0    0  501    0  0.00000000000E+00  0.00000000000E+00  0.18892486124E+04  0.18892486124E+04  0.50400001928E-02 0. -1.
       -1   -1    0    0    0  501  0.00000000000E+00  0.00000000000E+00 -0.48424366036E+03  0.48424366039E+03  0.50400001928E-02 0.  1.
    10030    2    1    2    0    0  0.00000000000E+00  0.00000000000E+00  0.14050049520E+04  0.23734922728E+04  0.19129627947E+04 0.  0.
        1    1    3    3  502    0 -0.30527821539E+03 -0.64279874205E+03  0.14954825226E+04  0.16561560877E+04  0.50400001928E-02 0. -1.
       -1    1    3    3    0  502  0.30527821539E+03  0.64279874205E+03 -0.90477570553E+02  0.71733618505E+03  0.50400001928E-02 0.  1.
</event>
<event>
 5   0  0.2635798E-06  0.2995307E+04  0.7818609E-02  0.8245072E-01
       -1   -1    0    0    0  501  0.00000000000E+00  0.00000000000E+00  0.23660592130E+04  0.23660592130E+04  0.50400001928E-02 0.  1.
        1   -1    0    0  501    0  0.00000000000E+00  0.00000000000E+00 -0.94797549254E+03  0.94797549256E+03  0.50400001928E-02 0. -1.
    10030    2    1    2    0    0  0.00000000000E+00  0.00000000000E+00  0.14180837204E+04  0.33140347055E+04  0.29953070947E+04 0.  0.
        1    1    3    3  502    0 -0.59967782464E+03 -0.13675402484E+04  0.58199101453E+03  0.16026519788E+04  0.50400001928E-02 0.  1.
       -1    1    3    3    0  502  0.59967782464E+03  0.13675402484E+04  0.83609270588E+03  0.17113827267E+04  0.50400001928E-02 0. -1.
</event>
<event>
 5   0  0.2788054E-06  0.2803850E+04  0.7818609E-02  0.8302074E-01
        1   -1    0    0  501    0  0.00000000000E+00  0.00000000000E+00  0.18942291876E+04  0.18942291876E+04  0.50400001928E-02 0.  1.
       -1   -1    0    0    0  501  0.00000000000E+00  0.00000000000E+00 -0.10375693572E+04  0.10375693573E+04  0.50400001928E-02 0. -1.
    10030    2    1    2    0    0  0.00000000000E+00  0.00000000000E+00  0.85665983038E+03  0.29317985449E+04  0.28038503246E+04 0.  0.
        3    1    3    3  502    0 -0.10061580983E+04  0.80383371886E+02  0.14456500191E+04  0.17631561454E+04  0.10100000352E+00 0.  1.
       -3    1    3    3    0  502  0.10061580983E+04 -0.80383371886E+02 -0.58899018875E+03  0.11686423995E+04  0.10100000352E+00 0. -1.
</event>
<event>
 5   0  0.7510251E-06  0.3184626E+04  0.7818609E-02  0.8192889E-01
       -2   -1    0    0    0  501  0.00000000000E+00  0.00000000000E+00  0.12664802030E+04  0.12664802030E+04  0.25500000920E-02 0.  1.
        2   -1    0    0  501    0  0.00000000000E+00  0.00000000000E+00 -0.20019739431E+04  0.20019739431E+04  0.25500000920E-02 0. -1.
    10030    2    1    2    0    0  0.00000000000E+00  0.00000000000E+00 -0.73549374005E+03  0.32684541461E+04  0.31846257965E+04 0.  0.
        3    1    3    3  502    0 -0.68367470688E+03  0.67397928367E+03 -0.16715409407E+04  0.19276172613E+04  0.10100000352E+00 0. -1.
       -3    1    3    3    0  502  0.68367470688E+03 -0.67397928367E+03  0.93604720061E+03  0.13408368848E+04  0.10100000352E+00 0.  1.
</event>
<event>
 5   0  0.7971763E-06  0.3296538E+04  0.7818609E-02  0.8163777E-01
        2   -1    0    0  501    0  0.00000000000E+00  0.00000000000E+00  0.12795238181E+04  0.12795238181E+04  0.25500000920E-02 0. -1.
       -2   -1    0    0    0  501  0.00000000000E+00  0.00000000000E+00 -0.21232823962E+04  0.21232823962E+04  0.25500000920E-02 0.  1.
    10030    2    1    2    0    0  0.00000000000E+00  0.00000000000E+00 -0.84375857808E+03  0.34028062142E+04  0.32965378192E+04 0.  0.
        1    1    3    3  502    0  0.16338062180E+04  0.17487531489E+03 -0.28774310417E+03  0.16681427480E+04  0.50400001928E-02 0. -1.
       -1    1    3    3    0  502 -0.16338062180E+04 -0.17487531489E+03 -0.55601547391E+03  0.17346634662E+04  0.50400001928E-02 0.  1.
</event>
<event>
 5   0  0.7941434E-06  0.3091619E+04  0.7818609E-02  0.8218042E-01
        2   -1    0    0  501    0  0.00000000000E+00  0.00000000000E+00  0.16337875873E+04  0.16337875873E+04  0.25500000920E-02 0. -1.
       -2   -1    0    0    0  501  0.00000000000E+00  0.00000000000E+00 -0.14625691726E+04  0.14625691726E+04  0.25500000920E-02 0.  1.
    10030    2    1    2    0    0  0.00000000000E+00  0.00000000000E+00  0.17121841466E+03  0.30963567599E+04  0.30916192261E+04 0.  0.
        4    1    3    3  502    0  0.68916066238E+03 -0.51316512024E+03 -0.12013676505E+04  0.14770127636E+04  0.12699999809E+01 0.  1.
       -4    1    3    3    0  502 -0.68916066238E+03  0.51316512024E+03  0.13725860652E+04  0.16193439963E+04  0.12699999809E+01 0. -1.
</event>
<event>
 5   0  0.2933646E-06  0.3238460E+04  0.7818609E-02  0.8178733E-01
       -1   -1    0    0    0  501  0.00000000000E+00  0.00000000000E+00  0.12941552027E+04  0.12941552027E+04  0.50400001928E-02 0.  1.
        1   -1    0    0  501    0  0.00000000000E+00  0.00000000000E+00 -0.20259589218E+04  0.20259589218E+04  0.50400001928E-02 0. -1.
    10030    2    1    2    0    0  0.00000000000E+00  0.00000000000E+00 -0.73180371907E+03  0.33201141245E+04  0.32384596827E+04 0.  0.
        2    1    3    3  502    0 -0.13449881260E+04  0.87276796724E+03 -0.13394893593E+03  0.16089311052E+04  0.25500000920E-02 0. -1.
       -2    1    3    3    0  502  0.13449881260E+04 -0.87276796724E+03 -0.59785478314E+03  0.17111830193E+04  0.25500000920E-02 0.  1.
</event>
<event>
 5   0  0.8237664E-06  0.3167201E+04  0.7818609E-02  0.8197533E-01
       -2   -1    0    0    0  501  0.00000000000E+00  0.00000000000E+00  0.16172821584E+04  0.16172821584E+04  0.25500000920E-02 0.  1.
        2   -1    0    0  501    0  0.00000000000E+00  0.00000000000E+00 -0.15506204851E+04  0.15506204851E+04  0.25500000920E-02 0. -1.
    10030    2    1    2    0    0  0.00000000000E+00  0.00000000000E+00  0.66661673320E+02  0.31679026434E+04  0.31672011903E+04 0.  0.
        5    1    3    3  502    0  0.14566136985E+04  0.40060062701E+02  0.65350080191E+03  0.15970014600E+04  0.46999998093E+01 0.  1.
       -5    1    3    3    0  502 -0.14566136985E+04 -0.40060062701E+02 -0.58683912859E+03  0.15709011834E+04  0.46999998093E+01 0. -1.
</event>
<event>
 5   0  0.8237664E-06  0.3094480E+04  0.7818609E-02  0.8217254E-01
       -2   -1    0    0    0  501  0.00000000000E+00  0.00000000000E+00  0.19007395559E+04  0.19007395559E+04  0.25500000920E-02 0.  1.
        2   -1    0    0  501    0  0.00000000000E+00  0.00000000000E+00 -0.12594842138E+04  0.12594842138E+04  0.25500000920E-02 0. -1.
    10030    2    1    2    0    0  0.00000000000E+00  0.00000000000E+00  0.64125534210E+03  0.31602237697E+04  0.30944799015E+04 0.  0.
        5    1    3    3  502    0 -0.16895575972E+03 -0.15370872772E+04  0.37414355574E+03  0.15909710358E+04  0.46999998093E+01 0. -1.
       -5    1    3    3    0  502  0.16895575972E+03  0.15370872772E+04  0.26711178637E+03  0.15692527339E+04  0.46999998093E+01 0.  1.
</event>
<event>
 5   0  0.7510251E-06  0.3214507E+04  0.7818609E-02  0.8184996E-01
       -2   -1    0    0    0  501  0.00000000000E+00  0.00000000000E+00  0.10014222742E+04  0.10014222742E+04  0.25500000920E-02 0.  1.
        2   -1    0    0  501    0  0.00000000000E+00  0.00000000000E+00 -0.25795946487E+04  0.25795946487E+04  0.25500000920E-02 0. -1.
    10030    2    1    2    0    0  0.00000000000E+00  0.00000000000E+00 -0.15781723746E+04  0.35810169229E+04  0.32145068297E+04 0.  0.
        3    1    3    3  502    0 -0.60780331849E+03 -0.80902398450E+03  0.60201744540E+03  0.11774420140E+04  0.10100000352E+00 0.  1.
       -3    1    3    3    0  502  0.60780331849E+03  0.80902398450E+03 -0.21801898200E+04  0.24035749089E+04  0.10100000352E+00 0. -1.
</event>
<event>
 5   0  0.8237664E-06  0.1619585E+04  0.7818609E-02  0.8808606E-01
        2   -1    0    0  501    0  0.00000000000E+00  0.00000000000E+00  0.11823740255E+04  0.11823740255E+04  0.25500000920E-02 0. -1.
       -2   -1    0    0    0  501  0.00000000000E+00  0.00000000000E+00 -0.55461634809E+03  0.55461634810E+03  0.25500000920E-02 0.  1.
    10030    2    1    2    0    0  0.00000000000E+00  0.00000000000E+00  0.62775767744E+03  0.17369903736E+04  0.16195850878E+04 0.  0.
        5    1    3    3  502    0  0.15324939838E+03  0.19624830150E+03  0.11402838273E+04  0.11671624012E+04  0.46999998093E+01 0. -1.
       -5    1    3    3    0  502 -0.15324939838E+03 -0.19624830150E+03 -0.51252614983E+03  0.56982797247E+03  0.46999998093E+01 0.  1.
</event>
<event>
 5   0  0.7952307E-06  0.3308615E+04  0.7818609E-02  0.8160707E-01
        2   -1    0    0  501    0  0.00000000000E+00  0.00000000000E+00  0.17408257444E+04  0.17408257444E+04  0.25500000920E-02 0. -1.
       -2   -1    0    0    0  501  0.00000000000E+00  0.00000000000E+00 -0.15720892376E+04  0.15720892376E+04  0.25500000920E-02 0.  1.
    10030    2    1    2    0    0  0.00000000000E+00  0.00000000000E+00  0.16873650678E+03  0.33129149820E+04  0.33086150682E+04 0.  0.
        2    1    3    3  502    0 -0.14893592303E+04 -0.54108584094E+03  0.56013691306E+03  0.16806897886E+04  0.25500000920E-02 0. -1.
       -2    1    3    3    0  502  0.14893592303E+04  0.54108584094E+03 -0.39140040629E+03  0.16322251934E+04  0.25500000920E-02 0.  1.
</event>
<event>
 5   0  0.8237664E-06  0.2710370E+04  0.7818609E-02  0.8331648E-01
       -2   -1    0    0    0  501  0.00000000000E+00  0.00000000000E+00  0.89728225493E+03  0.89728225494E+03  0.25500000920E-02 0. -1.
        2   -1    0    0  501    0  0.00000000000E+00  0.00000000000E+00 -0.20467650295E+04  0.20467650295E+04  0.25500000920E-02 0.  1.
    10030    2    1    2    0    0  0.00000000000E+00  0.00000000000E+00 -0.11494827746E+04  0.29440472845E+04  0.27103696730E+04 0.  0.
        5    1    3    3  502    0 -0.31946205815E+02  0.69871370093E+03  0.68605680894E+03  0.97975376040E+03  0.46999998093E+01 0. -1.
       -5    1    3    3    0  502  0.31946205815E+02 -0.69871370093E+03 -0.18355395835E+04  0.19642935241E+04  0.46999998093E+01 0.  1.
</event>
<event>
 5   0  0.7952307E-06  0.3058948E+04  0.7818609E-02  0.8227095E-01
        2   -1    0    0  501    0  0.00000000000E+00  0.00000000000E+00  0.14472005189E+04  0.14472005189E+04  0.25500000920E-02 0.  1.
       -2   -1    0    0    0  501  0.00000000000E+00  0.00000000000E+00 -0.16164247495E+04  0.16164247495E+04  0.25500000920E-02 0. -1.
    10030    2    1    2    0    0  0.00000000000E+00  0.00000000000E+00 -0.16922423058E+03  0.30636252684E+04  0.30589480128E+04 0.  0.
        2    1    3    3  502    0 -0.68153281263E+03 -0.52728337493E+03 -0.13501802912E+04  0.16017183120E+04  0.25500000920E-02 0. -1.
       -2    1    3    3    0  502  0.68153281263E+03  0.52728337493E+03  0.11809560606E+04  0.14619069565E+04  0.25500000920E-02 0.  1.
</event>
<event>
 5   0  0.7941434E-06  0.3193574E+04  0.7818609E-02  0.8190516E-01
       -2   -1    0    0    0  501  0.00000000000E+00  0.00000000000E+00  0.10105814163E+04  0.10105814163E+04  0.25500000920E-02 0. -1.
        2   -1    0    0  501    0  0.00000000000E+00  0.00000000000E+00 -0.25230316246E+04  0.25230316246E+04  0.25500000920E-02 0.  1.
    10030    2    1    2    0    0  0.00000000000E+00  0.00000000000E+00 -0.15124502083E+04  0.35336130410E+04  0.31935740935E+04 0.  0.
        4    1    3    3  502    0 -0.16722357938E+03 -0.14554857701E+04 -0.53525990057E+02  0.14660386069E+04  0.12699999809E+01 0. -1.
       -4    1    3    3    0  502  0.16722357938E+03  0.14554857701E+04 -0.14589242183E+04  0.20675744340E+04  0.12699999809E+01 0.  1.
</event>
<event>
 5   0  0.7971763E-06  0.3193940E+04  0.7818609E-02  0.8190420E-01
        2   -1    0    0  501    0  0.00000000000E+00  0.00000000000E+00  0.15040463522E+04  0.15040463522E+04  0.25500000920E-02 0.  1.
       -2   -1    0    0    0  501  0.00000000000E+00  0.00000000000E+00 -0.16956342364E+04  0.16956342364E+04  0.25500000920E-02 0. -1.
    10030    2    1    2    0    0  0.00000000000E+00  0.00000000000E+00 -0.19158788417E+03  0.31996805886E+04  0.31939395661E+04 0.  0.
        1    1    3    3  502    0  0.43945365967E+03 -0.48239607065E+03  0.13643879929E+04  0.15124087024E+04  0.50400001928E-02 0.  1.
       -1    1    3    3    0  502 -0.43945365967E+03  0.48239607065E+03 -0.15559758770E+04  0.16872718862E+04  0.50400001928E-02 0. -1.
</event>
<event>
 5   0  0.2635798E-06  0.3210220E+04  0.7818609E-02  0.8186123E-01
       -1   -1    0    0    0  501  0.00000000000E+00  0.00000000000E+00  0.10129710878E+04  0.10129710878E+04  0.50400001928E-02 0. -1.
        1   -1    0    0  501    0  0.00000000000E+00  0.00000000000E+00 -0.25433875391E+04  0.25433875391E+04  0.50400001928E-02 0.  1.
    10030    2    1    2    0    0  0.00000000000E+00  0.00000000000E+00 -0.15304164513E+04  0.35563586269E+04  0.32102199564E+04 0.  0.
        1    1    3    3  502    0 -0.22759765940E+03  0.57832950823E+03 -0.24046800367E+04  0.24836972025E+04  0.50400001928E-02 0.  1.
       -1    1    3    3    0  502  0.22759765940E+03 -0.57832950823E+03  0.87426358536E+03  0.10726614244E+04  0.50400001928E-02 0. -1.
</event>
<event>
 5   0  0.4142886E-06  0.3122377E+04  0.7818609E-02  0.8209623E-01
       -1   -1    0    0    0  501  0.00000000000E+00  0.00000000000E+00  0.99675036576E+03  0.99675036577E+03  0.50400001928E-02 0. -1.
        1   -1    0    0  501    0  0.00000000000E+00  0.00000000000E+00 -0.24452559785E+04  0.24452559785E+04  0.50400001928E-02 0.  1.
    10030    2    1    2    0    0  0.00000000000E+00  0.00000000000E+00 -0.14485056128E+04  0.34420063443E+04  0.31223771656E+04 0.  0.
        5    1    3    3  502    0 -0.14132808921E+04 -0.33403291319E+03 -0.13559263981E+04  0.19868314861E+04  0.46999998093E+01 0.  1.
       -5    1    3    3    0  502  0.14132808921E+04  0.33403291319E+03 -0.92579214641E+02  0.14551748582E+04  0.46999998093E+01 0. -1.
</event>
<event>
 5   0  0.2933646E-06  0.2665928E+04  0.7818609E-02  0.8346146E-01
        1   -1    0    0  501    0  0.00000000000E+00  0.00000000000E+00  0.12930563951E+04  0.12930563951E+04  0.50400001928E-02 0.  1.
       -1   -1    0    0    0  501  0.00000000000E+00  0.00000000000E+00 -0.13741028281E+04  0.13741028282E+04  0.50400001928E-02 0. -1.
    10030    2    1    2    0    0  0.00000000000E+00  0.00000000000E+00 -0.81046433079E+02  0.26671592232E+04  0.26659275680E+04 0.  0.
        2    1    3    3  502    0  0.24419053048E+03 -0.11301460948E+04 -0.70410428160E+03  0.13537437165E+04  0.25500000920E-02 0. -1.
       -2    1    3    3    0  502 -0.24419053048E+03  0.11301460948E+04  0.62305784852E+03  0.13134155067E+04  0.25500000920E-02 0.  1.
</event>
<event>
 5   0  0.7510251E-06  0.3165304E+04  0.7818609E-02  0.8198041E-01
        2   -1    0    0  501    0  0.00000000000E+00  0.00000000000E+00  0.16489529455E+04  0.16489529455E+04  0.25500000920E-02 0.  1.
       -2   -1    0    0    0  501  0.00000000000E+00  0.00000000000E+00 -0.15190167035E+04  0.15190167035E+04  0.25500000920E-02 0. -1.
    10030    2    1    2    0    0  0.00000000000E+00  0.00000000000E+00  0.12993624195E+03  0.31679696490E+04  0.31653038196E+04 0.  0.
        3    1    3    3  502    0  0.82783052246E+03 -0.42160651425E+03  0.13473479940E+04  0.16365824312E+04  0.10100000352E+00 0.  1.
       -3    1    3    3    0  502 -0.82783052246E+03  0.42160651425E+03 -0.12174117521E+04  0.15313872179E+04  0.10100000352E+00 0. -1.
</event>
<event>
 5   0  0.7941434E-06  0.3148619E+04  0.7818609E-02  0.8202520E-01
        2   -1    0    0  501    0  0.00000000000E+00  0.00000000000E+00  0.13936244094E+04  0.13936244094E+04  0.25500000920E-02 0.  1.
       -2   -1    0    0    0  501  0.00000000000E+00  0.00000000000E+00 -0.17784202355E+04  0.17784202355E+04  0.25500000920E-02 0. -1.
    10030    2    1    2    0    0  0.00000000000E+00  0.00000000000E+00 -0.38479582607E+03  0.31720446449E+04  0.31486186497E+04 0.  0.
        4    1    3    3  502    0  0.75120425663E+03 -0.86270416955E+03  0.89726016275E+03  0.14538375879E+04  0.12699999809E+01 0.  1.
       -4    1    3    3    0  502 -0.75120425663E+03  0.86270416955E+03 -0.12820559888E+04  0.17182070570E+04  0.12699999809E+01 0. -1.
</event>
<event>
 5   0  0.2635798E-06  0.3186675E+04  0.7818609E-02  0.8192345E-01
        1   -1    0    0  501    0  0.00000000000E+00  0.00000000000E+00  0.17720760142E+04  0.17720760142E+04  0.50400001928E-02 0. -1.
       -1   -1    0    0    0  501  0.00000000000E+00  0.00000000000E+00 -0.14326274423E+04  0.14326274424E+04  0.50400001928E-02 0.  1.
    10030    2    1    2    0    0  0.00000000000E+00  0.00000000000E+00  0.33944857184E+03  0.32047034566E+04  0.31866752127E+04 0.  0.
        1    1    3    3  502    0 -0.57339174403E+02  0.40929531194E+03  0.17172327610E+04  0.17662669076E+04  0.50400001928E-02 0. -1.
       -1    1    3    3    0  502  0.57339174403E+02 -0.40929531194E+03 -0.13777841892E+04  0.14384365489E+04  0.50400001928E-02 0.  1.
</event>
<event>
 5   0  0.2933646E-06  0.3144533E+04  0.7818609E-02  0.8203621E-01
       -1   -1    0    0    0  501  0.00000000000E+00  0.00000000000E+00  0.21915726109E+04  0.21915726109E+04  0.50400001928E-02 0. -1.
        1   -1    0    0  501    0  0.00000000000E+00  0.00000000000E+00 -0.11279673282E+04  0.11279673282E+04  0.50400001928E-02 0.  1.
    10030    2    1    2    0    0  0.00000000000E+00  0.00000000000E+00  0.10636052827E+04  0.33195399390E+04  0.31445332260E+04 0.  0.
        2    1    3    3  502    0  0.48310404217E+03  0.20360084949E+03  0.20965869323E+04  0.21611384931E+04  0.25500000920E-02 0. -1.
       -2    1    3    3    0  502 -0.48310404217E+03 -0.20360084949E+03 -0.10329816497E+04  0.11584014460E+04  0.25500000920E-02 0.  1.
</event>
<event>
 5   0  0.2933646E-06  0.3229890E+04  0.7818609E-02  0.8180968E-01
        1   -1    0    0  501    0  0.00000000000E+00  0.00000000000E+00  0.19445843731E+04  0.19445843731E+04  0.50400001928E-02 0. -1.
       -1   -1    0    0    0  501  0.00000000000E+00  0.00000000000E+00 -0.13411852826E+04  0.13411852826E+04  0.50400001928E-02 0.  1.
    10030    2    1    2    0    0  0.00000000000E+00  0.00000000000E+00  0.60339909057E+03  0.32857696557E+04  0.32298903647E+04 0.  0.
        2    1    3    3  502    0 -0.27540463095E+03 -0.30128059641E+03 -0.12878405705E+04  0.13509815112E+04  0.25500000920E-02 0.  1.
       -2    1    3    3    0  502  0.27540463095E+03  0.30128059641E+03  0.18912396611E+04  0.19347881445E+04  0.25500000920E-02 0. -1.
</event>
<event>
 5   0  0.7952307E-06  0.3307225E+04  0.7818609E-02  0.8161060E-01
       -2   -1    0    0    0  501  0.00000000000E+00  0.00000000000E+00  0.19033590101E+04  0.19033590101E+04  0.25500000920E-02 0.  1.
        2   -1    0    0  501    0  0.00000000000E+00  0.00000000000E+00 -0.14366358288E+04  0.14366358288E+04  0.25500000920E-02 0. -1.
    10030    2    1    2    0    0  0.00000000000E+00  0.00000000000E+00  0.46672318128E+03  0.33399948388E+04  0.33072246666E+04 0.  0.
        2    1    3    3  502    0  0.52692705012E+03  0.62909936750E+03  0.16832104751E+04  0.18725959611E+04  0.25500000920E-02 0.  1.
       -2    1    3    3    0  502 -0.52692705012E+03 -0.62909936750E+03 -0.12164872938E+04  0.14673988777E+04  0.25500000920E-02 0. -1.
</event>
<event>
 5   0  0.2635798E-06  0.3184119E+04  0.7818609E-02  0.8193024E-01
       -1   -1    0    0    0  501  0.00000000000E+00  0.00000000000E+00  0.13565065269E+04  0.13565065269E+04  0.50400001928E-02 0. -1.
        1   -1    0    0  501    0  0.00000000000E+00  0.00000000000E+00 -0.18685152379E+04  0.18685152379E+04  0.50400001928E-02 0.  1.
    10030    2    1    2    0    0  0.00000000000E+00  0.00000000000E+00 -0.51200871097E+03  0.32250217648E+04  0.31841187891E+04 0.  0.
        1    1    3    3  502    0 -0.11035554106E+04 -0.10292879978E+04 -0.76985254091E+03  0.16940900984E+04  0.50400001928E-02 0.  1.
       -1    1    3    3    0  502  0.11035554106E+04  0.10292879978E+04  0.25784382994E+03  0.15309316664E+04  0.50400001928E-02 0. -1.
</event>
<event>
 5   0  0.3938696E-06  0.3201825E+04  0.7818609E-02  0.8188335E-01
        1   -1    0    0  501    0  0.00000000000E+00  0.00000000000E+00  0.23365356925E+04  0.23365356925E+04  0.50400001928E-02 0.  1.
       -1   -1    0    0    0  501  0.00000000000E+00  0.00000000000E+00 -0.10968889837E+04  0.10968889837E+04  0.50400001928E-02 0. -1.
    10030    2    1    2    0    0  0.00000000000E+00  0.00000000000E+00  0.12396467088E+04  0.34334246763E+04  0.32018246431E+04 0.  0.
        4    1    3    3  502    0 -0.42503806501E+03  0.51286116449E+03  0.21808830510E+04  0.22803369105E+04  0.12699999809E+01 0.  1.
       -4    1    3    3    0  502  0.42503806501E+03 -0.51286116449E+03 -0.94123634217E+03  0.11530877657E+04  0.12699999809E+01 0. -1.
</event>
<event>
 5   0  0.2788054E-06  0.2047405E+04  0.7818609E-02  0.8584772E-01
       -1   -1    0    0    0  501  0.00000000000E+00  0.00000000000E+00  0.97259066135E+03  0.97259066136E+03  0.50400001928E-02 0.  1.
        1   -1    0    0  501    0  0.00000000000E+00  0.00000000000E+00 -0.10775003962E+04  0.10775003963E+04  0.50400001928E-02 0. -1.
    10030    2    1    2    0    0  0.00000000000E+00  0.00000000000E+00 -0.10490973489E+03  0.20500910576E+04  0.20474050142E+04 0.  0.
        3    1    3    3  502    0 -0.65247479532E+03  0.58623496094E+03 -0.58094652865E+03  0.10520901422E+04  0.10100000352E+00 0. -1.
       -3    1    3    3    0  502  0.65247479532E+03 -0.58623496094E+03  0.47603679376E+03  0.99800091542E+03  0.10100000352E+00 0.  1.
</event>
<event>
 5   0  0.3938696E-06  0.3086056E+04  0.7818609E-02  0.8219575E-01
        1   -1    0    0  501    0  0.00000000000E+00  0.00000000000E+00  0.13643667944E+04  0.13643667944E+04  0.50400001928E-02 0. -1.
       -1   -1    0    0    0  501  0.00000000000E+00  0.00000000000E+00 -0.17450840932E+04  0.17450840932E+04  0.50400001928E-02 0.  1.
    10030    2    1    2    0    0  0.00000000000E+00  0.00000000000E+00 -0.38071729882E+03  0.31094508875E+04  0.30860555991E+04 0.  0.
        4    1    3    3  502    0 -0.12884740134E+04  0.70673843694E+03  0.28362084184E+03  0.14966919844E+04  0.12699999809E+01 0. -1.
       -4    1    3    3    0  502  0.12884740134E+04 -0.70673843694E+03 -0.66433814065E+03  0.16127589031E+04  0.12699999809E+01 0.  1.
</event>
<event>
 5   0  0.7941434E-06  0.3120871E+04  0.7818609E-02  0.8210033E-01
       -2   -1    0    0    0  501  0.00000000000E+00  0.00000000000E+00  0.15783621270E+04  0.15783621271E+04  0.25500000920E-02 0.  1.
        2   -1    0    0  501    0  0.00000000000E+00  0.00000000000E+00 -0.15427125884E+04  0.15427125884E+04  0.25500000920E-02 0. -1.
    10030    2    1    2    0    0  0.00000000000E+00  0.00000000000E+00  0.35649538612E+02  0.31210747155E+04  0.31208711108E+04 0.  0.
        4    1    3    3  502    0 -0.36865182633E+03  0.10424332788E+04 -0.10833311672E+04  0.15479597348E+04  0.12699999809E+01 0. -1.
       -4    1    3    3    0  502  0.36865182633E+03 -0.10424332788E+04  0.11189807058E+04  0.15731149807E+04  0.12699999809E+01 0.  1.
</event>
<event>
 5   0  0.7952307E-06  0.3163812E+04  0.7818609E-02  0.8198440E-01
       -2   -1    0    0    0  501  0.00000000000E+00  0.00000000000E+00  0.19186773032E+04  0.19186773032E+04  0.25500000920E-02 0. -1.
        2   -1    0    0  501    0  0.00000000000E+00  0.00000000000E+00 -0.13042454223E+04  0.13042454223E+04  0.25500000920E-02 0.  1.
    10030    2    1    2    0    0  0.00000000000E+00  0.00000000000E+00  0.61443188095E+03  0.32229227255E+04  0.31638116819E+04 0.  0.
        2    1    3    3  502    0  0.14547860054E+04 -0.55446530708E+03  0.21635530038E+02  0.15570170823E+04  0.25500000920E-02 0. -1.
       -2    1    3    3    0  502 -0.14547860054E+04  0.55446530708E+03  0.59279635091E+03  0.16659056432E+04  0.25500000920E-02 0.  1.
</event>
<event>
 5   0  0.8237664E-06  0.3100377E+04  0.7818609E-02  0.8215635E-01
        2   -1    0    0  501    0  0.00000000000E+00  0.00000000000E+00  0.13698808090E+04  0.13698808090E+04  0.25500000920E-02 0.  1.
       -2   -1    0    0    0  501  0.00000000000E+00  0.00000000000E+00 -0.17542283315E+04  0.17542283315E+04  0.25500000920E-02 0. -1.
    10030    2    1    2    0    0  0.00000000000E+00  0.00000000000E+00 -0.38434752249E+03  0.31241091404E+04  0.31003765744E+04 0.  0.
        5    1    3    3  502    0  0.50106793725E+03  0.55365424597E+03  0.11767019387E+04  0.13936468865E+04  0.46999998093E+01 0.  1.
       -5    1    3    3    0  502 -0.50106793725E+03 -0.55365424597E+03 -0.15610494612E+04  0.17304622539E+04  0.46999998093E+01 0. -1.
</event>
<event>
 5   0  0.7510251E-06  0.1715363E+04  0.7818609E-02  0.8752651E-01
        2   -1    0    0  501    0  0.00000000000E+00  0.00000000000E+00  0.16638743214E+04  0.16638743214E+04  0.25500000920E-02 0. -1.
       -2   -1    0    0    0  501  0.00000000000E+00  0.00000000000E+00 -0.44211104566E+03  0.44211104567E+03  0.25500000920E-02 0.  1.
    10030    2    1    2    0    0  0.00000000000E+00  0.00000000000E+00  0.12217632758E+04  0.21059853671E+04  0.17153626044E+04 0.  0.
        3    1    3    3  502    0 -0.63631111748E+03 -0.48151596030E+03  0.22484659386E+03  0.82903887679E+03  0.10100000352E+00 0.  1.
       -3    1    3    3    0  502  0.63631111748E+03  0.48151596030E+03  0.99691668192E+03  0.12769464903E+04  0.10100000352E+00 0. -1.
</event>
<event>
 5   0  0.7971763E-06  0.3100372E+04  0.7818609E-02  0.8215636E-01
        2   -1    0    0  501    0  0.00000000000E+00  0.00000000000E+00  0.16125198780E+04  0.16125198780E+04  0.25500000920E-02 0.  1.
       -2   -1    0    0    0  501  0.00000000000E+00  0.00000000000E+00 -0.14902620730E+04  0.14902620730E+04  0.25500000920E-02 0. -1.
    10030    2    1    2    0    0  0.00000000000E+00  0.00000000000E+00  0.12225780498E+03  0.31027819510E+04  0.31003723752E+04 0.  0.
        1    1    3    3  502    0  0.13528996753E+04 -0.74799280538E+03  0.17631156515E+03  0.15559294767E+04  0.50400001928E-02 0. -1.
       -1    1    3    3    0  502 -0.13528996753E+04  0.74799280538E+03 -0.54053760165E+02  0.15468524743E+04  0.50400001928E-02 0.  1.
</event>
<event>
 5   0  0.4142886E-06  0.3168290E+04  0.7818609E-02  0.8197242E-01
        1   -1    0    0  501    0  0.00000000000E+00  0.00000000000E+00  0.12928304591E+04  0.12928304591E+04  0.50400001928E-02 0. -1.
       -1   -1    0    0    0  501  0.00000000000E+00  0.00000000000E+00 -0.19411020192E+04  0.19411020192E+04  0.50400001928E-02 0.  1.
    10030    2    1    2    0    0  0.00000000000E+00  0.00000000000E+00 -0.64827156018E+03  0.32339324783E+04  0.31682902737E+04 0.  0.
        5    1    3    3  502    0 -0.58569323297E+03  0.12159039873E+03  0.11731134987E+04  0.13168288267E+04  0.46999998093E+01 0. -1.
       -5    1    3    3    0  502  0.58569323297E+03 -0.12159039873E+03 -0.18213850588E+04  0.19171036516E+04  0.46999998093E+01 0.  1.
</event>
<event>
 5   0  0.2788054E-06  0.3087223E+04  0.7818609E-02  0.8219253E-01
        1   -1    0    0  501    0  0.00000000000E+00  0.00000000000E+00  0.22453245802E+04  0.22453245802E+04  0.50400001928E-02 0.  1.
       -1   -1    0    0    0  501  0.00000000000E+00  0.00000000000E+00 -0.10611993015E+04  0.10611993015E+04  0.50400001928E-02 0. -1.
    10030    2    1    2    0    0  0.00000000000E+00  0.00000000000E+00  0.11841252787E+04  0.33065238817E+04  0.30872232677E+04 0.  0.
        3    1    3    3  502    0 -0.37464835567E+03  0.18604492424E+03  0.21834643734E+04  0.22231713349E+04  0.10100000352E+00 0.  1.
       -3    1    3    3    0  502  0.37464835567E+03 -0.18604492424E+03 -0.99933909471E+03  0.10833525468E+04  0.10100000352E+00 0. -1.
</event>
<event>
 5   0  0.8237664E-06  0.1684213E+04  0.7818609E-02  0.8770420E-01
        2   -1    0    0  501    0  0.00000000000E+00  0.00000000000E+00  0.65729331396E+03  0.65729331396E+03  0.25500000920E-02 0. -1.
       -2   -1    0    0    0  501  0.00000000000E+00  0.00000000000E+00 -0.10788847807E+04  0.10788847807E+04  0.25500000920E-02 0.  1.
    10030    2    1    2    0    0  0.00000000000E+00  0.00000000000E+00 -0.42159146671E+03  0.17361780946E+04  0.16842134697E+04 0.  0.
        5    1    3    3  502    0  0.40205934711E+03 -0.72194814362E+03 -0.37784758572E+03  0.90865380025E+03  0.46999998093E+01 0.  1.
       -5    1    3    3    0  502 -0.40205934711E+03  0.72194814362E+03 -0.43743880997E+02  0.82752429439E+03  0.46999998093E+01 0. -1.
</event>
<event>
 5   0  0.3938696E-06  0.2409674E+04  0.7818609E-02  0.8435891E-01
        1   -1    0    0  501    0  0.00000000000E+00  0.00000000000E+00  0.11871682857E+04  0.11871682857E+04  0.50400001928E-02 0. -1.
       -1   -1    0    0    0  501  0.00000000000E+00  0.00000000000E+00 -0.12227689564E+04  0.12227689564E+04  0.50400001928E-02 0.  1.
    10030    2    1    2    0    0  0.00000000000E+00  0.00000000000E+00 -0.35600670692E+02  0.24099372421E+04  0.24096742732E+04 0.  0.
        4    1    3    3  502    0  0.68141180790E+03 -0.40103732203E+03  0.89140719042E+03  0.11915374009E+04  0.12699999809E+01 0. -1.
       -4    1    3    3    0  502 -0.68141180790E+03  0.40103732203E+03 -0.92700786111E+03  0.12183998412E+04  0.12699999809E+01 0.  1.
</event>
<event>
 5   0  0.7971763E-06  0.3151860E+04  0.7818609E-02  0.8201648E-01
        2   -1    0    0  501    0  0.00000000000E+00  0.00000000000E+00  0.16278139601E+04  0.16278139601E+04  0.25500000920E-02 0. -1.
       -2   -1    0    0    0  501  0.00000000000E+00  0.00000000000E+00 -0.15256993410E+04  0.15256993410E+04  0.25500000920E-02 0.  1.
    10030    2    1    2    0    0  0.00000000000E+00  0.00000000000E+00  0.10211461913E+03  0.31535133011E+04  0.31518595693E+04 0.  0.
        1    1    3    3  502    0 -0.99232336482E+03  0.66047701149E+03 -0.98031775080E+03  0.15433594642E+04  0.50400001928E-02 0.  1.
       -1    1    3    3    0  502  0.99232336482E+03 -0.66047701149E+03  0.10824323699E+04  0.16101538369E+04  0.50400001928E-02 0. -1.
</event>
<event>
 5   0  0.7510251E-06  0.2025063E+04  0.7818609E-02  0.8594992E-01
       -2   -1    0    0    0  501  0.00000000000E+00  0.00000000000E+00  0.71367023859E+03  0.71367023860E+03  0.25500000920E-02 0. -1.
        2   -1    0    0  501    0  0.00000000000E+00  0.00000000000E+00 -0.14365457059E+04  0.14365457059E+04  0.25500000920E-02 0.  1.
    10030    2    1    2    0    0  0.00000000000E+00  0.00000000000E+00 -0.72287546727E+03  0.21502159445E+04  0.20250628797E+04 0.  0.
        3    1    3    3  502    0  0.15516419334E+03  0.34144622761E+03  0.63719738258E+03  0.73937944779E+03  0.10100000352E+00 0. -1.
       -3    1    3    3    0  502 -0.15516419334E+03 -0.34144622761E+03 -0.13600728498E+04  0.14108364967E+04  0.10100000352E+00 0.  1.
</event>
<event>
 5   0  0.2788054E-06  0.3077537E+04  0.7818609E-02  0.8221930E-01
       -1   -1    0    0    0  501  0.00000000000E+00  0.00000000000E+00  0.15716552109E+04  0.15716552109E+04  0.50400001928E-02 0.  1.
        1   -1    0    0  501    0  0.00000000000E+00  0.00000000000E+00 -0.15065700093E+04  0.15065700093E+04  0.50400001928E-02 0. -1.
    10030    2    1    2    0    0  0.00000000000E+00  0.00000000000E+00  0.65085201614E+02  0.30782252202E+04  0.30775370709E+04 0.  0.
        3    1    3    3  502    0  0.81879535163E+03  0.89388740488E+03 -0.91548159096E+03  0.15190678306E+04  0.10100000352E+00 0. -1.
       -3    1    3    3    0  502 -0.81879535163E+03 -0.89388740488E+03  0.98056679258E+03  0.15591573895E+04  0.10100000352E+00 0.  1.
</event>
<event>
 5   0  0.7510251E-06  0.2568047E+04  0.7818609E-02  0.8379136E-01
        2   -1    0    0  501    0  0.00000000000E+00  0.00000000000E+00  0.10893870305E+04  0.10893870305E+04  0.25500000920E-02 0.  1.
       -2   -1    0    0    0  501  0.00000000000E+00  0.00000000000E+00 -0.15134352785E+04  0.15134352785E+04  0.25500000920E-02 0. -1.
    10030    2    1    2    0    0  0.00000000000E+00  0.00000000000E+00 -0.42404824795E+03  0.26028223090E+04  0.25680473234E+04 0.  0.
        3    1    3    3  502    0  0.20020382204E+03 -0.20714447505E+03 -0.14802582294E+04  0.15080301190E+04  0.10100000352E+00 0. -1.
       -3    1    3    3    0  502 -0.20020382204E+03  0.20714447505E+03  0.10562099815E+04  0.10947921899E+04  0.10100000352E+00 0.  1.
</event>
<event>
 5   0  0.7971763E-06  0.2985133E+04  0.7818609E-02  0.8247989E-01
       -2   -1    0    0    0  501  0.00000000000E+00  0.00000000000E+00  0.13813571917E+04  0.13813571917E+04  0.25500000920E-02 0. -1.
        2   -1    0    0  501    0  0.00000000000E+00  0.00000000000E+00 -0.16127294359E+04  0.16127294359E+04  0.25500000920E-02 0.  1.
    10030    2    1    2    0    0  0.00000000000E+00  0.00000000000E+00 -0.23137224423E+03  0.29940866276E+04  0.29851334339E+04 0.  0.
        1    1    3    3  502    0 -0.14578641531E+04  0.26488168697E+03  0.64366095559E+02  0.14831295261E+04  0.50400001928E-02 0.  1.
       -1    1    3    3    0  502  0.14578641531E+04 -0.26488168697E+03 -0.29573833979E+03  0.15109571015E+04  0.50400001928E-02 0. -1.
</event>
<event>
 5   0  0.3938696E-06  0.3005367E+04  0.7818609E-02  0.8242200E-01
       -1   -1    0    0    0  501  0.00000000000E+00  0.00000000000E+00  0.12466922720E+04  0.12466922720E+04  0.50400001928E-02 0. -1.
        1   -1    0    0  501    0  0.00000000000E+00  0.00000000000E+00 -0.18112388673E+04  0.18112388673E+04  0.50400001928E-02 0.  1.
    10030    2    1    2    0    0  0.00000000000E+00  0.00000000000E+00 -0.56454659526E+03  0.30579311393E+04  0.30053668652E+04 0.  0.
        4    1    3    3  502    0 -0.79466461946E+03 -0.70210474324E+03 -0.13656078832E+04  0.17289677358E+04  0.12699999809E+01 0.  1.
       -4    1    3    3    0  502  0.79466461946E+03  0.70210474324E+03  0.80106128796E+03  0.13289634035E+04  0.12699999809E+01 0. -1.
</event>
<event>
 5   0  0.7941434E-06  0.3174773E+04  0.7818609E-02  0.8195511E-01
       -2   -1    0    0    0  501  0.00000000000E+00  0.00000000000E+00  0.12320215135E+04  0.12320215135E+04  0.25500000920E-02 0.  1.
        2   -1    0    0  501    0  0.00000000000E+00  0.00000000000E+00 -0.20452531902E+04  0.20452531902E+04  0.25500000920E-02 0. -1.
    10030    2    1    2    0    0  0.00000000000E+00  0.00000000000E+00 -0.81323167669E+03  0.32772747038E+04  0.31747730193E+04 0.  0.
        4    1    3    3  502    0 -0.96151607539E+02  0.37525256875E+03 -0.19957114511E+04  0.20329597711E+04  0.12699999809E+01 0. -1.
       -4    1    3    3    0  502  0.96151607539E+02 -0.37525256875E+03  0.11824797744E+04  0.12443149327E+04  0.12699999809E+01 0.  1.
</event>
<event>
 5   0  0.7952307E-06  0.3190973E+04  0.7818609E-02  0.8191205E-01
        2   -1    0    0  501    0  0.00000000000E+00  0.00000000000E+00  0.19242483524E+04  0.19242483524E+04  0.25500000920E-02 0.  1.
       -2   -1    0    0    0  501  0.00000000000E+00  0.00000000000E+00 -0.13228943452E+04  0.13228943452E+04  0.25500000920E-02 0. -1.
    10030    2    1    2    0    0  0.00000000000E+00  0.00000000000E+00  0.60135400725E+03  0.32471426976E+04  0.31909730580E+04 0.  0.
        2    1    3    3  502    0 -0.93367357926E+03 -0.11246127968E+04 -0.35017276026E+03  0.15030373440E+04  0.25500000920E-02 0.  1.
       -2    1    3    3    0  502  0.93367357926E+03  0.11246127968E+04  0.95152676751E+03  0.17441053536E+04  0.25500000920E-02 0. -1.
</event>
<event>
 5   0  0.2788054E-06  0.3196326E+04  0.7818609E-02  0.8189788E-01
        1   -1    0    0  501    0  0.00000000000E+00  0.00000000000E+00  0.12201009076E+04  0.12201009076E+04  0.50400001928E-02 0.  1.
       -1   -1    0    0    0  501  0.00000000000E+00  0.00000000000E+00 -0.20933721902E+04  0.20933721902E+04  0.50400001928E-02 0. -1.
    10030    2    1    2    0    0  0.00000000000E+00  0.00000000000E+00 -0.87327128256E+03  0.33134730978E+04  0.31963262095E+04 0.  0.
        3    1    3    3  502    0 -0.45275754775E+03  0.93157576543E+03  0.82505891759E+03  0.13242148736E+04  0.10100000352E+00 0.  1.
       -3    1    3    3    0  502  0.45275754775E+03 -0.93157576543E+03 -0.16983302002E+04  0.19892582242E+04  0.10100000352E+00 0. -1.
</event>
<event>
 5   0  0.3938696E-06  0.3136087E+04  0.7818609E-02  0.8205903E-01
       -1   -1    0    0    0  501  0.00000000000E+00  0.00000000000E+00  0.22632444972E+04  0.22632444972E+04  0.50400001928E-02 0. -1.
        1   -1    0    0  501    0  0.00000000000E+00  0.00000000000E+00 -0.10863872130E+04  0.10863872130E+04  0.50400001928E-02 0.  1.
    10030    2    1    2    0    0  0.00000000000E+00  0.00000000000E+00  0.11768572842E+04  0.33496317102E+04  0.31360866580E+04 0.  0.
        4    1    3    3  502    0 -0.33632245363E+03  0.59248659224E+03 -0.92004410552E+03  0.11448300851E+04  0.12699999809E+01 0.  1.
       -4    1    3    3    0  502  0.33632245363E+03 -0.59248659224E+03  0.20969013897E+04  0.22048016250E+04  0.12699999809E+01 0. -1.
</event>
<event>
 5   0  0.3938696E-06  0.3188057E+04  0.7818609E-02  0.8191978E-01
        1   -1    0    0  501    0  0.00000000000E+00  0.00000000000E+00  0.29324685029E+04  0.29324685030E+04  0.50400001928E-02 0. -1.
       -1   -1    0    0    0  501  0.00000000000E+00  0.00000000000E+00 -0.86648039008E+03  0.86648039009E+03  0.50400001928E-02 0.  1.
    10030    2    1    2    0    0  0.00000000000E+00  0.00000000000E+00  0.20659881129E+04  0.37989488930E+04  0.31880567450E+04 0.  0.
        4    1    3    3  502    0  0.90868954383E+03 -0.25743001274E+03 -0.49717552269E+03  0.10673200138E+04  0.12699999809E+01 0.  1.
       -4    1    3    3    0  502 -0.90868954383E+03  0.25743001274E+03  0.25631636356E+04  0.27316288793E+04  0.12699999809E+01 0. -1.
</event>
<event>
 5   0  0.2635798E-06  0.3136331E+04  0.7818609E-02  0.8205837E-01
        1   -1    0    0  501    0  0.00000000000E+00  0.00000000000E+00  0.18774488544E+04  0.18774488544E+04  0.50400001928E-02 0.  1.
       -1   -1    0    0    0  501  0.00000000000E+00  0.00000000000E+00 -0.13098319082E+04  0.13098319082E+04  0.50400001928E-02 0. -1.
    10030    2    1    2    0    0  0.00000000000E+00  0.00000000000E+00  0.56761694620E+03  0.31872807625E+04  0.31363306046E+04 0.  0.
        1    1    3    3  502    0 -0.88120978875E+02  0.39994246261E+03 -0.12545272748E+04  0.13196810082E+04  0.50400001928E-02 0. -1.
       -1    1    3    3    0  502  0.88120978875E+02 -0.39994246261E+03  0.18221442210E+04  0.18675997543E+04  0.50400001928E-02 0.  1.
</event>
<event>
 5   0  0.8237664E-06  0.2558468E+04  0.7818609E-02  0.8382447E-01
       -2   -1    0    0    0  501  0.00000000000E+00  0.00000000000E+00  0.15016051407E+04  0.15016051407E+04  0.25500000920E-02 0. -1.
        2   -1    0    0  501    0  0.00000000000E+00  0.00000000000E+00 -0.10897933374E+04  0.10897933374E+04  0.25500000920E-02 0.  1.
    10030    2    1    2    0    0  0.00000000000E+00  0.00000000000E+00  0.41181180339E+03  0.25913984781E+04  0.25584677271E+04 0.  0.
        5    1    3    3  502    0  0.24936342072E+03  0.72783006381E+02 -0.10627887426E+04  0.10940847696E+04  0.46999998093E+01 0.  1.
       -5    1    3    3    0  502 -0.24936342072E+03 -0.72783006381E+02  0.14746005460E+04  0.14973137085E+04  0.46999998093E+01 0. -1.
</event>
<event>
 5   0  0.3938696E-06  0.3377378E+04  0.7818609E-02  0.8143481E-01
       -1   -1    0    0    0  501  0.00000000000E+00  0.00000000000E+00  0.14570084792E+04  0.14570084792E+04  0.50400001928E-02 0. -1.
        1   -1    0    0  501    0  0.00000000000E+00  0.00000000000E+00 -0.19572089673E+04  0.19572089673E+04  0.50400001928E-02 0.  1.
    10030    2    1    2    0    0  0.00000000000E+00  0.00000000000E+00 -0.50020048805E+03  0.34142174465E+04  0.33773777171E+04 0.  0.
        4    1    3    3  502    0  0.99323028298E+03 -0.12581217550E+04  0.28700649333E+03  0.16284198124E+04  0.12699999809E+01 0. -1.
       -4    1    3    3    0  502 -0.99323028298E+03  0.12581217550E+04 -0.78720698137E+03  0.17857976341E+04  0.12699999809E+01 0.  1.
</event>
<event>
 5   0  0.2933646E-06  0.3187976E+04  0.7818609E-02  0.8192000E-01
        1   -1    0    0  501    0  0.00000000000E+00  0.00000000000E+00  0.19288834270E+04  0.19288834270E+04  0.50400001928E-02 0.  1.
       -1   -1    0    0    0  501  0.00000000000E+00  0.00000000000E+00 -0.13172377823E+04  0.13172377823E+04  0.50400001928E-02 0. -1.
    10030    2    1    2    0    0  0.00000000000E+00  0.00000000000E+00  0.61164564467E+03  0.32461212093E+04  0.31879762407E+04 0.  0.
        2    1    3    3  502    0 -0.79266820025E+01 -0.13559734323E+04  0.11590020644E+04  0.17838196564E+04  0.25500000920E-02 0.  1.
       -2    1    3    3    0  502  0.79266820025E+01  0.13559734323E+04 -0.54735641976E+03  0.14623015529E+04  0.25500000920E-02 0. -1.
</event>
<event>
 5   0  0.7510251E-06  0.3195140E+04  0.7818609E-02  0.8190102E-01
       -2   -1    0    0    0  501  0.00000000000E+00  0.00000000000E+00  0.33409855554E+04  0.33409855554E+04  0.25500000920E-02 0. -1.
        2   -1    0    0  501    0  0.00000000000E+00  0.00000000000E+00 -0.76391520252E+03  0.76391520252E+03  0.25500000920E-02 0.  1.
    10030    2    1    2    0    0  0.00000000000E+00  0.00000000000E+00  0.25770703529E+04  0.41049007579E+04  0.31951398449E+04 0.  0.
        3    1    3    3  502    0 -0.54954305470E+02 -0.15837924834E+04  0.15480735783E+04  0.22153894511E+04  0.10100000352E+00 0.  1.
       -3    1    3    3    0  502  0.54954305470E+02  0.15837924834E+04  0.10289967746E+04  0.18895113068E+04  0.10100000352E+00 0. -1.
</event>
<event>
 5   0  0.7510251E-06  0.3104903E+04  0.7818609E-02  0.8214394E-01
        2   -1    0    0  501    0  0.00000000000E+00  0.00000000000E+00  0.16393427547E+04  0.16393427547E+04  0.25500000920E-02 0.  1.
       -2   -1    0    0    0  501  0.00000000000E+00  0.00000000000E+00 -0.14701661466E+04  0.14701661466E+04  0.25500000920E-02 0. -1.
    10030    2    1    2    0    0  0.00000000000E+00  0.00000000000E+00  0.16917660811E+03  0.31095089013E+04  0.31049033612E+04 0.  0.
        3    1    3    3  502    0 -0.67509883718E+03  0.76247232559E+03 -0.10888936388E+04  0.14909097404E+04  0.10100000352E+00 0. -1.
       -3    1    3    3    0  502  0.67509883718E+03 -0.76247232559E+03  0.12580702469E+04  0.16185991609E+04  0.10100000352E+00 0.  1.
</event>
<event>
 5   0  0.8237664E-06  0.3217930E+04  0.7818609E-02  0.8184098E-01
       -2   -1    0    0    0  501  0.00000000000E+00  0.00000000000E+00  0.20156538418E+04  0.20156538418E+04  0.25500000920E-02 0.  1.
        2   -1    0    0  501    0  0.00000000000E+00  0.00000000000E+00 -0.12843317722E+04  0.12843317722E+04  0.25500000920E-02 0. -1.
    10030    2    1    2    0    0  0.00000000000E+00  0.00000000000E+00  0.73132206962E+03  0.32999856140E+04  0.32179299376E+04 0.  0.
        5    1    3    3  502    0 -0.43480924972E+03  0.63984415809E+03 -0.10810882174E+04  0.13293733313E+04  0.46999998093E+01 0. -1.
       -5    1    3    3    0  502  0.43480924972E+03 -0.63984415809E+03  0.18124102870E+04  0.19706122827E+04  0.46999998093E+01 0.  1.
</event>
<event>
 5   0  0.7510251E-06  0.3217822E+04  0.7818609E-02  0.8184126E-01
        2   -1    0    0  501    0  0.00000000000E+00  0.00000000000E+00  0.17782748506E+04  0.17782748506E+04  0.25500000920E-02 0. -1.
       -2   -1    0    0    0  501  0.00000000000E+00  0.00000000000E+00 -0.14556776442E+04  0.14556776442E+04  0.25500000920E-02 0.  1.
    10030    2    1    2    0    0  0.00000000000E+00  0.00000000000E+00  0.32259720646E+03  0.32339524948E+04  0.32178222109E+04 0.  0.
        3    1    3    3  502    0  0.31524577670E+03 -0.14309152726E+02  0.17468668375E+04  0.17751417999E+04  0.10100000352E+00 0. -1.
       -3    1    3    3    0  502 -0.31524577670E+03  0.14309152726E+02 -0.14242696310E+04  0.14588106949E+04  0.10100000352E+00 0.  1.
</event>
<event>
 5   0  0.2788054E-06  0.3162927E+04  0.7818609E-02  0.8198677E-01
       -1   -1    0    0    0  501  0.00000000000E+00  0.00000000000E+00  0.25765631540E+04  0.25765631540E+04  0.50400001928E-02 0. -1.
        1   -1    0    0  501    0  0.00000000000E+00  0.00000000000E+00 -0.97068337384E+03  0.97068337385E+03  0.50400001928E-02 0.  1.
    10030    2    1    2    0    0  0.00000000000E+00  0.00000000000E+00  0.16058797802E+04  0.35472465279E+04  0.31629271350E+04 0.  0.
        3    1    3    3  502    0  0.11590896906E+04  0.69796810775E+03 -0.11531290944E+03  0.13579195365E+04  0.10100000352E+00 0.  1.
       -3    1    3    3    0  502 -0.11590896906E+04 -0.69796810775E+03  0.17211926896E+04  0.21893269914E+04  0.10100000352E+00 0. -1.
</event>
<event>
 5   0  0.2788054E-06  0.2585729E+04  0.7818609E-02  0.8373065E-01
        1   -1    0    0  501    0  0.00000000000E+00  0.00000000000E+00  0.16078337989E+04  0.16078337989E+04  0.50400001928E-02 0.  1.
       -1   -1    0    0    0  501  0.00000000000E+00  0.00000000000E+00 -0.10395969839E+04  0.10395969839E+04  0.50400001928E-02 0. -1.
    10030    2    1    2    0    0  0.00000000000E+00  0.00000000000E+00  0.56823681500E+03  0.26474307828E+04  0.25857294275E+04 0.  0.
        3    1    3    3  502    0 -0.71850619328E+02 -0.43575489215E+02 -0.10367979685E+04  0.10401977564E+04  0.10100000352E+00 0. -1.
       -3    1    3    3    0  502  0.71850619328E+02  0.43575489215E+02  0.16050347835E+04  0.16072330264E+04  0.10100000352E+00 0.  1.
</event>
<event>
 5   0  0.3938696E-06  0.1797055E+04  0.7818609E-02  0.8707867E-01
        1   -1    0    0  501    0  0.00000000000E+00  0.00000000000E+00  0.15154161037E+04  0.15154161037E+04  0.50400001928E-02 0.  1.
       -1   -1    0    0    0  501  0.00000000000E+00  0.00000000000E+00 -0.53275932915E+03  0.53275932917E+03  0.50400001928E-02 0. -1.
    10030    2    1    2    0    0  0.00000000000E+00  0.00000000000E+00  0.98265677451E+03  0.20481754328E+04  0.17970554435E+04 0.  0.
        4    1    3    3  502    0  0.42481759710E+03 -0.79173716005E+03  0.49784910069E+03  0.10272161707E+04  0.12699999809E+01 0. -1.
       -4    1    3    3    0  502 -0.42481759710E+03  0.79173716005E+03  0.48480767382E+03  0.10209592621E+04  0.12699999809E+01 0.  1.
</event>
<event>
 5   0  0.7971763E-06  0.3199047E+04  0.7818609E-02  0.8189069E-01
        2   -1    0    0  501    0  0.00000000000E+00  0.00000000000E+00  0.23462824406E+04  0.23462824406E+04  0.25500000920E-02 0. -1.
       -2   -1    0    0    0  501  0.00000000000E+00  0.00000000000E+00 -0.10904382675E+04  0.10904382675E+04  0.25500000920E-02 0.  1.
    10030    2    1    2    0    0  0.00000000000E+00  0.00000000000E+00  0.12558441731E+04  0.34367207081E+04  0.31990474580E+04 0.  0.
        1    1    3    3  502    0  0.63026356104E+03  0.21182267032E+03 -0.93493722490E+03  0.11472613541E+04  0.50400001928E-02 0.  1.
       -1    1    3    3    0  502 -0.63026356104E+03 -0.21182267032E+03  0.21907813980E+04  0.22894593540E+04  0.50400001928E-02 0. -1.
</event>
<event>
 5   0  0.2580875E-06  0.3169180E+04  0.7818609E-02  0.8197004E-01
        4   -1    0    0  501    0  0.00000000000E+00  0.00000000000E+00  0.11084843386E+04  0.11084850661E+04  0.12699999809E+01 0. -1.
       -4   -1    0    0    0  501  0.00000000000E+00  0.00000000000E+00 -0.22651866142E+04  0.22651869702E+04  0.12699999809E+01 0.  1.
    10030    2    1    2    0    0  0.00000000000E+00  0.00000000000E+00 -0.11567022756E+04  0.33736720363E+04  0.31691801549E+04 0.  0.
        5    1    3    3  502    0  0.23989494801E+03  0.21972897219E+03 -0.22292485416E+04  0.22528651885E+04  0.46999998093E+01 0.  1.
       -5    1    3    3    0  502 -0.23989494801E+03 -0.21972897219E+03  0.10725462660E+04  0.11208068478E+04  0.46999998093E+01 0. -1.
</event>
<event>
 5   0  0.7952307E-06  0.3112305E+04  0.7818609E-02  0.8212369E-01
        2   -1    0    0  501    0  0.00000000000E+00  0.00000000000E+00  0.12296262997E+04  0.12296262997E+04  0.25500000920E-02 0. -1.
       -2   -1    0    0    0  501  0.00000000000E+00  0.00000000000E+00 -0.19693877148E+04  0.19693877148E+04  0.25500000920E-02 0.  1.
    10030    2    1    2    0    0  0.00000000000E+00  0.00000000000E+00 -0.73976141513E+03  0.31990140145E+04  0.31123052090E+04 0.  0.
        2    1    3    3  502    0 -0.99314958896E+03  0.32258517445E+03  0.81604152066E+03  0.13252664126E+04  0.25500000920E-02 0. -1.
       -2    1    3    3    0  502  0.99314958896E+03 -0.32258517445E+03 -0.15558029358E+04  0.18737476020E+04  0.25500000920E-02 0.  1.
</event>
<event>
 5   0  0.7510251E-06  0.3246013E+04  0.7818609E-02  0.8176770E-01
       -2   -1    0    0    0  501  0.00000000000E+00  0.00000000000E+00  0.14081969968E+04  0.14081969968E+04  0.25500000920E-02 0.  1.
        2   -1    0    0  501    0  0.00000000000E+00  0.00000000000E+00 -0.18705831634E+04  0.18705831634E+04  0.25500000920E-02 0. -1.
    10030    2    1    2    0    0  0.00000000000E+00  0.00000000000E+00 -0.46238616658E+03  0.32787801602E+04  0.32460126882E+04 0.  0.
        3    1    3    3  502    0  0.31692078891E+03  0.54719016732E+02 -0.18380745602E+04  0.18659986753E+04  0.10100000352E+00 0. -1.
       -3    1    3    3    0  502 -0.31692078891E+03 -0.54719016732E+02  0.13756883936E+04  0.14127814848E+04  0.10100000352E+00 0.  1.
</event>
<event>
 5   0  0.3938696E-06  0.2626682E+04  0.7818609E-02  0.8359194E-01
        1   -1    0    0  501    0  0.00000000000E+00  0.00000000000E+00  0.15456363804E+04  0.15456363804E+04  0.50400001928E-02 0.  1.
       -1   -1    0    0    0  501  0.00000000000E+00  0.00000000000E+00 -0.11159575902E+04  0.11159575902E+04  0.50400001928E-02 0. -1.
    10030    2    1    2    0    0  0.00000000000E+00  0.00000000000E+00  0.42967879024E+03  0.26615939706E+04  0.26266820519E+04 0.  0.
        4    1    3    3  502    0 -0.11905325253E+04  0.50305336233E+03  0.45124842983E+03  0.13689620658E+04  0.12699999809E+01 0. -1.
       -4    1    3    3    0  502  0.11905325253E+04 -0.50305336233E+03 -0.21569639591E+02  0.12926319048E+04  0.12699999809E+01 0.  1.
</event>
<event>
 5   0  0.2788054E-06  0.2956254E+04  0.7818609E-02  0.8256334E-01
       -1   -1    0    0    0  501  0.00000000000E+00  0.00000000000E+00  0.10582173999E+04  0.10582173999E+04  0.50400001928E-02 0.  1.
        1   -1    0    0  501    0  0.00000000000E+00  0.00000000000E+00 -0.20646596469E+04  0.20646596469E+04  0.50400001928E-02 0. -1.
    10030    2    1    2    0    0  0.00000000000E+00  0.00000000000E+00 -0.10064422470E+04  0.31228770468E+04  0.29562535502E+04 0.  0.
        3    1    3    3  502    0 -0.12876271299E+04 -0.34589633409E+03 -0.11773354286E+04  0.17786923908E+04  0.10100000352E+00 0. -1.
       -3    1    3    3    0  502  0.12876271299E+04  0.34589633409E+03  0.17089318163E+03  0.13441846560E+04  0.10100000352E+00 0.  1.
</event>
<event>
 5   0  0.7510251E-06  0.1589581E+04  0.7818609E-02  0.8826975E-01
        2   -1    0    0  501    0  0.00000000000E+00  0.00000000000E+00  0.80825751796E+03  0.80825751796E+03  0.25500000920E-02 0. -1.
       -2   -1    0    0    0  501  0.00000000000E+00  0.00000000000E+00 -0.78154776804E+03  0.78154776805E+03  0.25500000920E-02 0.  1.
    10030    2    1    2    0    0  0.00000000000E+00  0.00000000000E+00  0.26709749912E+02  0.15898052860E+04  0.15895808997E+04 0.  0.
        3    1    3    3  502    0  0.71907200284E+03 -0.13470937423E+03 -0.29730237777E+03  0.78968340163E+03  0.10100000352E+00 0.  1.
       -3    1    3    3    0  502 -0.71907200284E+03  0.13470937423E+03  0.32401212768E+03  0.80012188438E+03  0.10100000352E+00 0. -1.
</event>
<event>
 5   0  0.8237664E-06  0.1963358E+04  0.7818609E-02  0.8623946E-01
       -2   -1    0    0    0  501  0.00000000000E+00  0.00000000000E+00  0.11927677804E+04  0.11927677804E+04  0.25500000920E-02 0.  1.
        2   -1    0    0  501    0  0.00000000000E+00  0.00000000000E+00 -0.80794747131E+03  0.80794747131E+03  0.25500000920E-02 0. -1.
    10030    2    1    2    0    0  0.00000000000E+00  0.00000000000E+00  0.38482030906E+03  0.20007152517E+04  0.19633580540E+04 0.  0.
        5    1    3    3  502    0 -0.42032905071E+03  0.71654243077E+03  0.72539358050E+03  0.11028723873E+04  0.46999998093E+01 0.  1.
       -5    1    3    3    0  502  0.42032905071E+03 -0.71654243077E+03 -0.34057327145E+03  0.89784286441E+03  0.46999998093E+01 0. -1.
</event>
<event>
 5   0  0.2788054E-06  0.3229657E+04  0.7818609E-02  0.8181028E-01
        1   -1    0    0  501    0  0.00000000000E+00  0.00000000000E+00  0.15356801261E+04  0.15356801261E+04  0.50400001928E-02 0. -1.
       -1   -1    0    0    0  501  0.00000000000E+00  0.00000000000E+00 -0.16980560753E+04  0.16980560753E+04  0.50400001928E-02 0.  1.
    10030    2    1    2    0    0  0.00000000000E+00  0.00000000000E+00 -0.16237594923E+03  0.32337362014E+04  0.32296569278E+04 0.  0.
        3    1    3    3  502    0 -0.72493971849E+02  0.91624634730E+03 -0.14106105440E+04  0.16836225414E+04  0.10100000352E+00 0.  1.
       -3    1    3    3    0  502  0.72493971849E+02 -0.91624634730E+03  0.12482345948E+04  0.15501136599E+04  0.10100000352E+00 0. -1.
</event>
<event>
 5   0  0.3938696E-06  0.3262113E+04  0.7818609E-02  0.8172603E-01
        1   -1    0    0  501    0  0.00000000000E+00  0.00000000000E+00  0.12877915913E+04  0.12877915913E+04  0.50400001928E-02 0. -1.
       -1   -1    0    0    0  501  0.00000000000E+00  0.00000000000E+00 -0.20658192592E+04  0.20658192592E+04  0.50400001928E-02 0.  1.
    10030    2    1    2    0    0  0.00000000000E+00  0.00000000000E+00 -0.77802766786E+03  0.33536108505E+04  0.32621126106E+04 0.  0.
        4    1    3    3  502    0  0.10469683172E+04 -0.54172404756E+03  0.76987369961E+03  0.14079469902E+04  0.12699999809E+01 0. -1.
       -4    1    3    3    0  502 -0.10469683172E+04  0.54172404756E+03 -0.15479013675E+04  0.19456638603E+04  0.12699999809E+01 0.  1.
</event>
<event>
 5   0  0.2933646E-06  0.1597256E+04  0.7818609E-02  0.8822236E-01
        1   -1    0    0  501    0  0.00000000000E+00  0.00000000000E+00  0.24422314272E+04  0.24422314272E+04  0.50400001928E-02 0. -1.
       -1   -1    0    0    0  501  0.00000000000E+00  0.00000000000E+00 -0.26115722157E+03  0.26115722162E+03  0.50400001928E-02 0.  1.
    10030    2    1    2    0    0  0.00000000000E+00  0.00000000000E+00  0.21810742056E+04  0.27033886488E+04  0.15972556139E+04 0.  0.
        2    1    3    3  502    0  0.53017091194E+03  0.11141961144E+03  0.97399522510E+02  0.55043818242E+03  0.25500000920E-02 0.  1.
       -2    1    3    3    0  502 -0.53017091194E+03 -0.11141961144E+03  0.20836746831E+04  0.21529504664E+04  0.25500000920E-02 0. -1.
</event>
<event>
 5   0  0.7941434E-06  0.3166098E+04  0.7818609E-02  0.8197829E-01
       -2   -1    0    0    0  501  0.00000000000E+00  0.00000000000E+00  0.91323479824E+03  0.91323479824E+03  0.25500000920E-02 0. -1.
        2   -1    0    0  501    0  0.00000000000E+00  0.00000000000E+00 -0.27441391970E+04  0.27441391970E+04  0.25500000920E-02 0.  1.
    10030    2    1    2    0    0  0.00000000000E+00  0.00000000000E+00 -0.18309043987E+04  0.36573739952E+04  0.31660975385E+04 0.  0.
        4    1    3    3  502    0  0.12548089730E+04  0.95453179932E+03 -0.10803026948E+04  0.19112121913E+04  0.12699999809E+01 0. -1.
       -4    1    3    3    0  502 -0.12548089730E+04 -0.95453179932E+03 -0.75060170393E+03  0.17461618040E+04  0.12699999809E+01 0.  1.
</event>
<event>
 5   0  0.4142886E-06  0.3204305E+04  0.7818609E-02  0.8187681E-01
       -1   -1    0    0    0  501  0.00000000000E+00  0.00000000000E+00  0.14009620006E+04  0.14009620006E+04  0.50400001928E-02 0.  1.
        1   -1    0    0  501    0  0.00000000000E+00  0.00000000000E+00 -0.18322359366E+04  0.18322359366E+04  0.50400001928E-02 0. -1.
    10030    2    1    2    0    0  0.00000000000E+00  0.00000000000E+00 -0.43127393608E+03  0.32331979372E+04  0.32043051810E+04 0.  0.
        5    1    3    3  502    0 -0.10937209448E+04 -0.78692012347E+03 -0.10902875876E+04  0.17332679826E+04  0.46999998093E+01 0. -1.
       -5    1    3    3    0  502  0.10937209448E+04  0.78692012347E+03  0.65901365148E+03  0.14999299546E+04  0.46999998093E+01 0.  1.
</event>
<event>
 5   0  0.8237664E-06  0.1997732E+04  0.7818609E-02  0.8607682E-01
        2   -1    0    0  501    0  0.00000000000E+00  0.00000000000E+00  0.10966503186E+04  0.10966503186E+04  0.25500000920E-02 0. -1.
       -2   -1    0    0    0  501  0.00000000000E+00  0.00000000000E+00 -0.90980102306E+03  0.90980102306E+03  0.25500000920E-02 0.  1.
    10030    2    1    2    0    0  0.00000000000E+00  0.00000000000E+00  0.18684929550E+03  0.20064513416E+04  0.19977322961E+04 0.  0.
        5    1    3    3  502    0  0.70845688661E+03  0.66374415936E+03  0.32949094505E+03  0.10252091699E+04  0.46999998093E+01 0.  1.
       -5    1    3    3    0  502 -0.70845688661E+03 -0.66374415936E+03 -0.14264164955E+03  0.98124217167E+03  0.46999998093E+01 0. -1.
</event>
<event>
 5   0  0.2933646E-06  0.2549486E+04  0.7818609E-02  0.8385565E-01
       -1   -1    0    0    0  501  0.00000000000E+00  0.00000000000E+00  0.14775829311E+04  0.14775829311E+04  0.50400001928E-02 0.  1.
        1   -1    0    0  501    0  0.00000000000E+00  0.00000000000E+00 -0.10997488553E+04  0.10997488554E+04  0.50400001928E-02 0. -1.
    10030    2    1    2    0    0  0.00000000000E+00  0.00000000000E+00  0.37783407578E+03  0.25773317865E+04  0.25494863304E+04 0.  0.
        2    1    3    3  502    0 -0.53433018114E+03  0.64908234079E+03 -0.77975171715E+03  0.11466600926E+04  0.25500000920E-02 0. -1.
       -2    1    3    3    0  502  0.53433018114E+03 -0.64908234079E+03  0.11575857929E+04  0.14306716939E+04  0.25500000920E-02 0.  1.
</event>
<event>
 5   0  0.7971763E-06  0.3170836E+04  0.7818609E-02  0.8196562E-01
       -2   -1    0    0    0  501  0.00000000000E+00  0.00000000000E+00  0.97909820192E+03  0.97909820192E+03  0.25500000920E-02 0. -1.
        2   -1    0    0  501    0  0.00000000000E+00  0.00000000000E+00 -0.25672099150E+04  0.25672099150E+04  0.25500000920E-02 0.  1.
    10030    2    1    2    0    0  0.00000000000E+00  0.00000000000E+00 -0.15881117131E+04  0.35463081169E+04  0.31708362378E+04 0.  0.
        1    1    3    3  502    0 -0.91070386148E+03  0.23308469936E+02  0.65713802887E+03  0.11232787709E+04  0.50400001928E-02 0. -1.
       -1    1    3    3    0  502  0.91070386148E+03 -0.23308469936E+02 -0.22452497420E+04  0.24230293461E+04  0.50400001928E-02 0.  1.
</event>
<event>
 5   0  0.4142886E-06  0.3221266E+04  0.7818609E-02  0.8183223E-01
       -1   -1    0    0    0  501  0.00000000000E+00  0.00000000000E+00  0.97168377639E+03  0.97168377640E+03  0.50400001928E-02 0. -1.
        1   -1    0    0  501    0  0.00000000000E+00  0.00000000000E+00 -0.26697357190E+04  0.26697357190E+04  0.50400001928E-02 0.  1.
    10030    2    1    2    0    0  0.00000000000E+00  0.00000000000E+00 -0.16980519427E+04  0.36414194954E+04  0.32212661396E+04 0.  0.
        5    1    3    3  502    0  0.15359304354E+04  0.45994888971E+03 -0.10222496009E+04  0.19014866868E+04  0.46999998093E+01 0.  1.
       -5    1    3    3    0  502 -0.15359304354E+04 -0.45994888971E+03 -0.67580234171E+03  0.17399328086E+04  0.46999998093E+01 0. -1.
</event>
<event>
 5   0  0.2933646E-06  0.3184078E+04  0.7818609E-02  0.8193035E-01
        1   -1    0    0  501    0  0.00000000000E+00  0.00000000000E+00  0.22330838018E+04  0.22330838018E+04  0.50400001928E-02 0.  1.
       -1   -1    0    0    0  501  0.00000000000E+00  0.00000000000E+00 -0.11350168865E+04  0.11350168865E+04  0.50400001928E-02 0. -1.
    10030    2    1    2    0    0  0.00000000000E+00  0.00000000000E+00  0.10980669154E+04  0.33681006883E+04  0.31840777780E+04 0.  0.
        2    1    3    3  502    0  0.93759229312E+03  0.94826717106E+03 -0.37088184257E+03  0.13841399051E+04  0.25500000920E-02 0. -1.
       -2    1    3    3    0  502 -0.93759229312E+03 -0.94826717106E+03  0.14689487579E+04  0.19839607832E+04  0.25500000920E-02 0.  1.
</event>
<event>
 5   0  0.7952307E-06  0.3048514E+04  0.7818609E-02  0.8230011E-01
        2   -1    0    0  501    0  0.00000000000E+00  0.00000000000E+00  0.28595096996E+04  0.28595096996E+04  0.25500000920E-02 0.  1.
       -2   -1    0    0    0  501  0.00000000000E+00  0.00000000000E+00 -0.81250288639E+03  0.81250288639E+03  0.25500000920E-02 0. -1.
    10030    2    1    2    0    0  0.00000000000E+00  0.00000000000E+00  0.20470068132E+04  0.36720125860E+04  0.30485143166E+04 0.  0.
        2    1    3    3  502    0  0.11799979060E+03  0.15007815677E+04  0.13113083847E+04  0.19964465794E+04  0.25500000920E-02 0. -1.
       -2    1    3    3    0  502 -0.11799979060E+03 -0.15007815677E+04  0.73569842850E+03  0.16755660066E+04  0.25500000920E-02 0.  1.
</event>
<event>
 5   0  0.7952307E-06  0.3251181E+04  0.7818609E-02  0.8175430E-01
        2   -1    0    0  501    0  0.00000000000E+00  0.00000000000E+00  0.16681530178E+04  0.16681530178E+04  0.25500000920E-02 0. -1.
       -2   -1    0    0    0  501  0.00000000000E+00  0.00000000000E+00 -0.15841140648E+04  0.15841140648E+04  0.25500000920E-02 0.  1.
    10030    2    1    2    0    0  0.00000000000E+00  0.00000000000E+00  0.84038953014E+02  0.32522670826E+04  0.32511811132E+04 0.  0.
        2    1    3    3  502    0 -0.58198504768E+02  0.14603311176E+04  0.75400901374E+03  0.16445314323E+04  0.25500000920E-02 0. -1.
       -2    1    3    3    0  502  0.58198504768E+02 -0.14603311176E+04 -0.66997006073E+03  0.16077356503E+04  0.25500000920E-02 0.  1.
</event>
<event>
 5   0  0.7941434E-06  0.1832139E+04  0.7818609E-02  0.8689393E-01
        2   -1    0    0  501    0  0.00000000000E+00  0.00000000000E+00  0.11775724416E+04  0.11775724416E+04  0.25500000920E-02 0. -1.
       -2   -1    0    0    0  501  0.00000000000E+00  0.00000000000E+00 -0.71263811469E+03  0.71263811470E+03  0.25500000920E-02 0.  1.
    10030    2    1    2    0    0  0.00000000000E+00  0.00000000000E+00  0.46493432691E+03  0.18902105563E+04  0.18321386462E+04 0.  0.
        4    1    3    3  502    0  0.58254863278E+03 -0.13327949942E+02 -0.49679019005E+03  0.76573014152E+03  0.12699999809E+01 0.  1.
       -4    1    3    3    0  502 -0.58254863278E+03  0.13327949942E+02  0.96172451696E+03  0.11244804148E+04  0.12699999809E+01 0. -1.
</event>
<event>
 5   0  0.7952307E-06  0.3204028E+04  0.7818609E-02  0.8187754E-01
       -2   -1    0    0    0  501  0.00000000000E+00  0.00000000000E+00  0.20235070034E+04  0.20235070034E+04  0.25500000920E-02 0.  1.
        2   -1    0    0  501    0  0.00000000000E+00  0.00000000000E+00 -0.12683168682E+04  0.12683168682E+04  0.25500000920E-02 0. -1.
    10030    2    1    2    0    0  0.00000000000E+00  0.00000000000E+00  0.75519013523E+03  0.32918238716E+04  0.32040275064E+04 0.  0.
        2    1    3    3  502    0  0.12116055541E+04  0.10415700157E+04  0.25781591853E+03  0.16184329347E+04  0.25500000920E-02 0.  1.
       -2    1    3    3    0  502 -0.12116055541E+04 -0.10415700157E+04  0.49737421670E+03  0.16733909369E+04  0.25500000920E-02 0. -1.
</event>
<event>
 5   0  0.7952307E-06  0.1674953E+04  0.7818609E-02  0.8775780E-01
       -2   -1    0    0    0  501  0.00000000000E+00  0.00000000000E+00  0.45796512237E+03  0.45796512238E+03  0.25500000920E-02 0. -1.
        2   -1    0    0  501    0  0.00000000000E+00  0.00000000000E+00 -0.15314860541E+04  0.15314860541E+04  0.25500000920E-02 0.  1.
    10030    2    1    2    0    0  0.00000000000E+00  0.00000000000E+00 -0.10735209317E+04  0.19894511765E+04  0.16749533703E+04 0.  0.
        2    1    3    3  502    0  0.79940346593E+03 -0.16932104744E+03 -0.31887215207E+03  0.87715162191E+03  0.25500000920E-02 0. -1.
       -2    1    3    3    0  502 -0.79940346593E+03  0.16932104744E+03 -0.75464877965E+03  0.11122995546E+04  0.25500000920E-02 0.  1.
</event>
<event>
 5   0  0.7510251E-06  0.1997803E+04  0.7818609E-02  0.8607648E-01
        2   -1    0    0  501    0  0.00000000000E+00  0.00000000000E+00  0.86593624961E+03  0.86593624961E+03  0.25500000920E-02 0.  1.
       -2   -1    0    0    0  501  0.00000000000E+00  0.00000000000E+00 -0.11522842548E+04  0.11522842548E+04  0.25500000920E-02 0. -1.
    10030    2    1    2    0    0  0.00000000000E+00  0.00000000000E+00 -0.28634800518E+03  0.20182205044E+04  0.19978034999E+04 0.  0.
        3    1    3    3  502    0  0.24443832902E+03  0.93599492996E+03  0.10830394119E+03  0.97343020267E+03  0.10100000352E+00 0.  1.
       -3    1    3    3    0  502 -0.24443832902E+03 -0.93599492996E+03 -0.39465194636E+03  0.10447903017E+04  0.10100000352E+00 0. -1.
</event>
<event>
 5   0  0.3938696E-06  0.1873445E+04  0.7818609E-02  0.8668188E-01
       -1   -1    0    0    0  501  0.00000000000E+00  0.00000000000E+00  0.57414634109E+03  0.57414634111E+03  0.50400001928E-02 0. -1.
        1   -1    0    0  501    0  0.00000000000E+00  0.00000000000E+00 -0.15282679320E+04  0.15282679320E+04  0.50400001928E-02 0.  1.
    10030    2    1    2    0    0  0.00000000000E+00  0.00000000000E+00 -0.95412159089E+03  0.21024142731E+04  0.18734454264E+04 0.  0.
        4    1    3    3  502    0  0.37948608122E+03 -0.83169339155E+03 -0.24783077473E+03  0.94717753837E+03  0.12699999809E+01 0. -1.
       -4    1    3    3    0  502 -0.37948608122E+03  0.83169339155E+03 -0.70629081616E+03  0.11552367347E+04  0.12699999809E+01 0.  1.
</event>
<event>
 5   0  0.2635798E-06  0.2018965E+04  0.7818609E-02  0.8597805E-01
       -1   -1    0    0    0  501  0.00000000000E+00  0.00000000000E+00  0.99864893805E+03  0.99864893806E+03  0.50400001928E-02 0. -1.
        1   -1    0    0  501    0  0.00000000000E+00  0.00000000000E+00 -0.10204332294E+04  0.10204332294E+04  0.50400001928E-02 0.  1.
    10030    2    1    2    0    0  0.00000000000E+00  0.00000000000E+00 -0.21784291337E+02  0.20190821675E+04  0.20189646464E+04 0.  0.
        1    1    3    3  502    0 -0.76165239667E+03  0.25708159377E+03 -0.62154151230E+03  0.10161295049E+04  0.50400001928E-02 0.  1.
       -1    1    3    3    0  502  0.76165239667E+03 -0.25708159377E+03  0.59975722096E+03  0.10029526626E+04  0.50400001928E-02 0. -1.
</event>
<event>
 5   0  0.2788054E-06  0.3964824E+04  0.7818609E-02  0.8011681E-01
       -1   -1    0    0    0  501  0.00000000000E+00  0.00000000000E+00  0.16115890626E+04  0.16115890626E+04  0.50400001928E-02 0.  1.
        1   -1    0    0  501    0  0.00000000000E+00  0.00000000000E+00 -0.24385600106E+04  0.24385600106E+04  0.50400001928E-02 0. -1.
    10030    2    1    2    0    0  0.00000000000E+00  0.00000000000E+00 -0.82697094800E+03  0.40501490733E+04  0.39648236489E+04 0.  0.
        3    1    3    3  502    0 -0.66251478055E+03  0.93735335383E+03 -0.20645609560E+04  0.23621958208E+04  0.10100000352E+00 0. -1.
       -3    1    3    3    0  502  0.66251478055E+03 -0.93735335383E+03  0.12375900080E+04  0.16879532525E+04  0.10100000352E+00 0.  1.
</event>
<event>
 5   0  0.2933646E-06  0.2112822E+04  0.7818609E-02  0.8555616E-01
        1   -1    0    0  501    0  0.00000000000E+00  0.00000000000E+00  0.10347004726E+04  0.10347004726E+04  0.50400001928E-02 0. -1.
       -1   -1    0    0    0  501  0.00000000000E+00  0.00000000000E+00 -0.10785772253E+04  0.10785772254E+04  0.50400001928E-02 0.  1.
    10030    2    1    2    0    0  0.00000000000E+00  0.00000000000E+00 -0.43876752775E+02  0.21132776979E+04  0.21128221551E+04 0.  0.
        2    1    3    3  502    0 -0.32503536349E+03  0.49720408129E+03  0.85183138473E+03  0.10384972768E+04  0.25500000920E-02 0. -1.
       -2    1    3    3    0  502  0.32503536349E+03 -0.49720408129E+03 -0.89570813751E+03  0.10747804211E+04  0.25500000920E-02 0.  1.
</event>
<event>
 5   0  0.2788054E-06  0.3170842E+04  0.7818609E-02  0.8196560E-01
       -1   -1    0    0    0  501  0.00000000000E+00  0.00000000000E+00  0.14218112889E+04  0.14218112889E+04  0.50400001928E-02 0.  1.
        1   -1    0    0  501    0  0.00000000000E+00  0.00000000000E+00 -0.17678579466E+04  0.17678579466E+04  0.50400001928E-02 0. -1.
    10030    2    1    2    0    0  0.00000000000E+00  0.00000000000E+00 -0.34604665763E+03  0.31896692355E+04  0.31708424027E+04 0.  0.
        3    1    3    3  502    0  0.19494569373E+03  0.66178421728E+03 -0.16089434021E+04  0.17506173354E+04  0.10100000352E+00 0. -1.
       -3    1    3    3    0  502 -0.19494569373E+03 -0.66178421728E+03  0.12628967445E+04  0.14390519001E+04  0.10100000352E+00 0.  1.
</event>
<event>
 5   0  0.7941434E-06  0.3114714E+04  0.7818609E-02  0.8211711E-01
       -2   -1    0    0    0  501  0.00000000000E+00  0.00000000000E+00  0.31115212120E+04  0.31115212120E+04  0.25500000920E-02 0. -1.
        2   -1    0    0  501    0  0.00000000000E+00  0.00000000000E+00 -0.77947770573E+03  0.77947770574E+03  0.25500000920E-02 0.  1.
    10030    2    1    2    0    0  0.00000000000E+00  0.00000000000E+00  0.23320435062E+04  0.38909989177E+04  0.31147143790E+04 0.  0.
        4    1    3    3  502    0 -0.44148453948E+03  0.24237894145E+03  0.30069767122E+04  0.30488631833E+04  0.12699999809E+01 0. -1.
       -4    1    3    3    0  502  0.44148453948E+03 -0.24237894145E+03 -0.67493320593E+03  0.84213573444E+03  0.12699999809E+01 0.  1.
</event>
<event>
 5   0  0.7941434E-06  0.3253459E+04  0.7818609E-02  0.8174840E-01
        2   -1    0    0  501    0  0.00000000000E+00  0.00000000000E+00  0.29826508464E+04  0.29826508464E+04  0.25500000920E-02 0.  1.
       -2   -1    0    0    0  501  0.00000000000E+00  0.00000000000E+00 -0.88721397431E+03  0.88721397431E+03  0.25500000920E-02 0. -1.
    10030    2    1    2    0    0  0.00000000000E+00  0.00000000000E+00  0.20954368720E+04  0.38698648207E+04  0.32534593966E+04 0.  0.
        4    1    3    3  502    0 -0.10108902467E+04  0.74823473839E+03 -0.17950016085E+03  0.12704236440E+04  0.12699999809E+01 0. -1.
       -4    1    3    3    0  502  0.10108902467E+04 -0.74823473839E+03  0.22749370329E+04  0.25994411767E+04  0.12699999809E+01 0.  1.
</event>
<event>
 5   0  0.7952307E-06  0.3541941E+04  0.7818609E-02  0.8103922E-01
        2   -1    0    0  501    0  0.00000000000E+00  0.00000000000E+00  0.26610335106E+04  0.26610335106E+04  0.25500000920E-02 0.  1.
       -2   -1    0    0    0  501  0.00000000000E+00  0.00000000000E+00 -0.11786161066E+04  0.11786161066E+04  0.25500000920E-02 0. -1.
    10030    2    1    2    0    0  0.00000000000E+00  0.00000000000E+00  0.14824174040E+04  0.38396496172E+04  0.35419412507E+04 0.  0.
        2    1    3    3  502    0 -0.13780379201E+04  0.10650982907E+04  0.39344228957E+03  0.17855586558E+04  0.25500000920E-02 0. -1.
       -2    1    3    3    0  502  0.13780379201E+04 -0.10650982907E+04  0.10889751144E+04  0.20540909614E+04  0.25500000920E-02 0.  1.
</event>
<event>
 5   0  0.2635798E-06  0.2942364E+04  0.7818609E-02  0.8260383E-01
        1   -1    0    0  501    0  0.00000000000E+00  0.00000000000E+00  0.18551853992E+04  0.18551853992E+04  0.50400001928E-02 0.  1.
       -1   -1    0    0    0  501  0.00000000000E+00  0.00000000000E+00 -0.11666631424E+04  0.11666631424E+04  0.50400001928E-02 0. -1.
    10030    2    1    2    0    0  0.00000000000E+00  0.00000000000E+00  0.68852225674E+03  0.30218485416E+04  0.29423639663E+04 0.  0.
        1    1    3    3  502    0  0.14381372968E+04  0.32443350069E+02  0.27572665719E+02  0.14387674264E+04  0.50400001928E-02 0. -1.
       -1    1    3    3    0  502 -0.14381372968E+04 -0.32443350069E+02  0.66094959102E+03  0.15830811152E+04  0.50400001928E-02 0.  1.
</event>
<event>
 5   0  0.2788054E-06  0.2103947E+04  0.7818609E-02  0.8559507E-01
        1   -1    0    0  501    0  0.00000000000E+00  0.00000000000E+00  0.66564216175E+03  0.66564216177E+03  0.50400001928E-02 0.  1.
       -1   -1    0    0    0  501  0.00000000000E+00  0.00000000000E+00 -0.16625274413E+04  0.16625274413E+04  0.50400001928E-02 0. -1.
    10030    2    1    2    0    0  0.00000000000E+00  0.00000000000E+00 -0.99688527958E+03  0.23281696031E+04  0.21039471096E+04 0.  0.
        3    1    3    3  502    0  0.98037570542E+03 -0.28288803467E+03 -0.21526781202E+03  0.10428338339E+04  0.10100000352E+00 0. -1.
       -3    1    3    3    0  502 -0.98037570542E+03  0.28288803467E+03 -0.78161746756E+03  0.12853357693E+04  0.10100000352E+00 0.  1.
</event>
<event>
 5   0  0.3938696E-06  0.3195367E+04  0.7818609E-02  0.8190042E-01
       -1   -1    0    0    0  501  0.00000000000E+00  0.00000000000E+00  0.31589021967E+04  0.31589021967E+04  0.50400001928E-02 0. -1.
        1   -1    0    0  501    0  0.00000000000E+00  0.00000000000E+00 -0.80806312614E+03  0.80806312615E+03  0.50400001928E-02 0.  1.
    10030    2    1    2    0    0  0.00000000000E+00  0.00000000000E+00  0.23508390706E+04  0.39669653229E+04  0.31953668862E+04 0.  0.
        4    1    3    3  502    0 -0.12900826781E+04  0.93839800506E+03  0.10665751776E+04  0.19189810720E+04  0.12699999809E+01 0.  1.
       -4    1    3    3    0  502  0.12900826781E+04 -0.93839800506E+03  0.12842638930E+04  0.20479842509E+04  0.12699999809E+01 0. -1.
</event>
<event>
 5   0  0.3938696E-06  0.3186926E+04  0.7818609E-02  0.8192279E-01
        1   -1    0    0  501    0  0.00000000000E+00  0.00000000000E+00  0.13536769166E+04  0.13536769166E+04  0.50400001928E-02 0. -1.
       -1   -1    0    0    0  501  0.00000000000E+00  0.00000000000E+00 -0.18757237625E+04  0.18757237625E+04  0.50400001928E-02 0.  1.
    10030    2    1    2    0    0  0.00000000000E+00  0.00000000000E+00 -0.52204684583E+03  0.32294006791E+04  0.31869257658E+04 0.  0.
        4    1    3    3  502    0  0.17244886839E+03  0.10978469282E+02  0.13441541904E+04  0.13552163073E+04  0.12699999809E+01 0. -1.
       -4    1    3    3    0  502 -0.17244886839E+03 -0.10978469282E+02 -0.18662010362E+04  0.18741843718E+04  0.12699999809E+01 0.  1.
</event>
<event>
 5   0  0.7971763E-06  0.2989018E+04  0.7818609E-02  0.8246874E-01
        2   -1    0    0  501    0  0.00000000000E+00  0.00000000000E+00  0.27453179600E+04  0.27453179600E+04  0.25500000920E-02 0. -1.
       -2   -1    0    0    0  501  0.00000000000E+00  0.00000000000E+00 -0.81358798951E+03  0.81358798951E+03  0.25500000920E-02 0.  1.
    10030    2    1    2    0    0  0.00000000000E+00  0.00000000000E+00  0.19317299705E+04  0.35589059496E+04  0.29890183805E+04 0.  0.
        1    1    3    3  502    0 -0.90653931841E+03 -0.11880899050E+04  0.98212791480E+03  0.17882802910E+04  0.50400001928E-02 0.  1.
       -1    1    3    3    0  502  0.90653931841E+03  0.11880899050E+04  0.94960205574E+03  0.17706256585E+04  0.50400001928E-02 0. -1.
</event>
<event>
 5   0  0.7952307E-06  0.3228186E+04  0.7818609E-02  0.8181413E-01
        2   -1    0    0  501    0  0.00000000000E+00  0.00000000000E+00  0.20352434199E+04  0.20352434199E+04  0.25500000920E-02 0.  1.
       -2   -1    0    0    0  501  0.00000000000E+00  0.00000000000E+00 -0.12800909049E+04  0.12800909050E+04  0.25500000920E-02 0. -1.
    10030    2    1    2    0    0  0.00000000000E+00  0.00000000000E+00  0.75515251500E+03  0.33153343249E+04  0.32281862346E+04 0.  0.
        2    1    3    3  502    0 -0.67878612627E+03  0.13151130814E+04 -0.28403841714E+03  0.15069674331E+04  0.25500000920E-02 0. -1.
       -2    1    3    3    0  502  0.67878612627E+03 -0.13151130814E+04  0.10391909321E+04  0.18083668918E+04  0.25500000920E-02 0.  1.
</event>
<event>
 5   0  0.7510251E-06  0.3179636E+04  0.7818609E-02  0.8194216E-01
        2   -1    0    0  501    0  0.00000000000E+00  0.00000000000E+00  0.18440354384E+04  0.18440354384E+04  0.25500000920E-02 0. -1.
       -2   -1    0    0    0  501  0.00000000000E+00  0.00000000000E+00 -0.13706471697E+04  0.13706471697E+04  0.25500000920E-02 0.  1.
    10030    2    1    2    0    0  0.00000000000E+00  0.00000000000E+00  0.47338826872E+03  0.32146826080E+04  0.31796364285E+04 0.  0.
        3    1    3    3  502    0  0.28120735924E+03 -0.15260877943E+04 -0.11280437921E+03  0.15558747935E+04  0.10100000352E+00 0. -1.
       -3    1    3    3    0  502 -0.28120735924E+03  0.15260877943E+04  0.58619264793E+03  0.16588078145E+04  0.10100000352E+00 0.  1.
</event>
<event>
 5   0  0.8237664E-06  0.3216708E+04  0.7818609E-02  0.8184419E-01
        2   -1    0    0  501    0  0.00000000000E+00  0.00000000000E+00  0.15070399398E+04  0.15070399398E+04  0.25500000920E-02 0. -1.
       -2   -1    0    0    0  501  0.00000000000E+00  0.00000000000E+00 -0.17164792297E+04  0.17164792297E+04  0.25500000920E-02 0.  1.
    10030    2    1    2    0    0  0.00000000000E+00  0.00000000000E+00 -0.20943928990E+03  0.32235191696E+04  0.32167081031E+04 0.  0.
        5    1    3    3  502    0  0.12757852939E+04 -0.89077990305E+03 -0.51259954102E+03  0.16382604589E+04  0.46999998093E+01 0. -1.
       -5    1    3    3    0  502 -0.12757852939E+04  0.89077990305E+03  0.30316025113E+03  0.15852587106E+04  0.46999998093E+01 0.  1.
</event>
<event>
 5   0  0.4142886E-06  0.3190863E+04  0.7818609E-02  0.8191235E-01
       -1   -1    0    0    0  501  0.00000000000E+00  0.00000000000E+00  0.28116176764E+04  0.28116176764E+04  0.50400001928E-02 0.  1.
        1   -1    0    0  501    0  0.00000000000E+00  0.00000000000E+00 -0.90531546498E+03  0.90531546499E+03  0.50400001928E-02 0. -1.
    10030    2    1    2    0    0  0.00000000000E+00  0.00000000000E+00  0.19063022114E+04  0.37169331414E+04  0.31908625568E+04 0.  0.
        5    1    3    3  502    0  0.73645489375E+03  0.12123452839E+04  0.10253276245E+03  0.14222102359E+04  0.46999998093E+01 0.  1.
       -5    1    3    3    0  502 -0.73645489375E+03 -0.12123452839E+04  0.18037694490E+04  0.22947229055E+04  0.46999998093E+01 0. -1.
</event>
<event>
 5   0  0.2933646E-06  0.3247710E+04  0.7818609E-02  0.8176330E-01
        1   -1    0    0  501    0  0.00000000000E+00  0.00000000000E+00  0.18158184546E+04  0.18158184546E+04  0.50400001928E-02 0. -1.
       -1   -1    0    0    0  501  0.00000000000E+00  0.00000000000E+00 -0.14521849625E+04  0.14521849625E+04  0.50400001928E-02 0.  1.
    10030    2    1    2    0    0  0.00000000000E+00  0.00000000000E+00  0.36363349211E+03  0.32680034172E+04  0.32477095033E+04 0.  0.
        2    1    3    3  502    0  0.95724358560E+03  0.51136967313E+03 -0.10336592058E+04  0.14987546759E+04  0.25500000920E-02 0.  1.
       -2    1    3    3    0  502 -0.95724358560E+03 -0.51136967313E+03  0.13972926979E+04  0.17692487413E+04  0.25500000920E-02 0. -1.
</event>
<event>
 5   0  0.4142886E-06  0.3104533E+04  0.7818609E-02  0.8214495E-01
        1   -1    0    0  501    0  0.00000000000E+00  0.00000000000E+00  0.19181088559E+04  0.19181088559E+04  0.50400001928E-02 0.  1.
       -1   -1    0    0    0  501  0.00000000000E+00  0.00000000000E+00 -0.12562017048E+04  0.12562017048E+04  0.50400001928E-02 0. -1.
    10030    2    1    2    0    0  0.00000000000E+00  0.00000000000E+00  0.66190715109E+03  0.31743105607E+04  0.31045332111E+04 0.  0.
        5    1    3    3  502    0 -0.22820668647E+01  0.58540744889E+03 -0.11389965044E+04  0.12806413300E+04  0.46999998093E+01 0. -1.
       -5    1    3    3    0  502  0.22820668647E+01 -0.58540744889E+03  0.18009036555E+04  0.18936692307E+04  0.46999998093E+01 0.  1.
</event>
<event>
 5   0  0.7952307E-06  0.3210082E+04  0.7818609E-02  0.8186160E-01
       -2   -1    0    0    0  501  0.00000000000E+00  0.00000000000E+00  0.24793178849E+04  0.24793178849E+04  0.25500000920E-02 0. -1.
        2   -1    0    0  501    0  0.00000000000E+00  0.00000000000E+00 -0.10390587088E+04  0.10390587088E+04  0.25500000920E-02 0.  1.
    10030    2    1    2    0    0  0.00000000000E+00  0.00000000000E+00  0.14402591761E+04  0.35183765937E+04  0.32100821423E+04 0.  0.
        2    1    3    3  502    0 -0.31420037067E+03 -0.10693985699E+04  0.19859586461E+04  0.22773596374E+04  0.25500000920E-02 0. -1.
       -2    1    3    3    0  502  0.31420037067E+03  0.10693985699E+04 -0.54569946999E+03  0.12410169563E+04  0.25500000920E-02 0.  1.
</event>
<event>
 5   0  0.7971763E-06  0.2032548E+04  0.7818609E-02  0.8591553E-01
       -2   -1    0    0    0  501  0.00000000000E+00  0.00000000000E+00  0.14714403518E+04  0.14714403518E+04  0.25500000920E-02 0. -1.
        2   -1    0    0  501    0  0.00000000000E+00  0.00000000000E+00 -0.70190597125E+03  0.70190597126E+03  0.25500000920E-02 0.  1.
    10030    2    1    2    0    0  0.00000000000E+00  0.00000000000E+00  0.76953438051E+03  0.21733463230E+04  0.20325479274E+04 0.  0.
        1    1    3    3  502    0  0.10804754259E+02 -0.20638366107E+03  0.14487339723E+04  0.14634005196E+04  0.50400001928E-02 0. -1.
       -1    1    3    3    0  502 -0.10804754259E+02  0.20638366107E+03 -0.67919959179E+03  0.70994580341E+03  0.50400001928E-02 0.  1.
</event>
<event>
 5   0  0.7971763E-06  0.3082772E+04  0.7818609E-02  0.8220482E-01
       -2   -1    0    0    0  501  0.00000000000E+00  0.00000000000E+00  0.89476553748E+03  0.89476553748E+03  0.25500000920E-02 0. -1.
        2   -1    0    0  501    0  0.00000000000E+00  0.00000000000E+00 -0.26553006597E+04  0.26553006597E+04  0.25500000920E-02 0.  1.
    10030    2    1    2    0    0  0.00000000000E+00  0.00000000000E+00 -0.17605351222E+04  0.35500661971E+04  0.30827724677E+04 0.  0.
        1    1    3    3  502    0 -0.13424200337E+04 -0.45919094520E+03 -0.18651816962E+03  0.14309915788E+04  0.50400001928E-02 0.  1.
       -1    1    3    3    0  502  0.13424200337E+04  0.45919094520E+03 -0.15740169525E+04  0.21190746183E+04  0.50400001928E-02 0. -1.
</event>
<event>
 5   0  0.7510251E-06  0.2654917E+04  0.7818609E-02  0.8349783E-01
       -2   -1    0    0    0  501  0.00000000000E+00  0.00000000000E+00  0.97188138208E+03  0.97188138208E+03  0.25500000920E-02 0.  1.
        2   -1    0    0  501    0  0.00000000000E+00  0.00000000000E+00 -0.18131283524E+04  0.18131283524E+04  0.25500000920E-02 0. -1.
    10030    2    1    2    0    0  0.00000000000E+00  0.00000000000E+00 -0.84124697034E+03  0.27850097345E+04  0.26549167136E+04 0.  0.
        3    1    3    3  502    0 -0.82125082830E+03 -0.96162253017E+03 -0.84410663180E+03  0.15204232403E+04  0.10100000352E+00 0. -1.
       -3    1    3    3    0  502  0.82125082830E+03  0.96162253017E+03  0.28596614589E+01  0.12645864942E+04  0.10100000352E+00 0.  1.
</event>
<event>
 5   0  0.3938696E-06  0.3116165E+04  0.7818609E-02  0.8211315E-01
       -1   -1    0    0    0  501  0.00000000000E+00  0.00000000000E+00  0.13534990098E+04  0.13534990098E+04  0.50400001928E-02 0.  1.
        1   -1    0    0  501    0  0.00000000000E+00  0.00000000000E+00 -0.17935895494E+04  0.17935895494E+04  0.50400001928E-02 0. -1.
    10030    2    1    2    0    0  0.00000000000E+00  0.00000000000E+00 -0.44009053964E+03  0.31470885592E+04  0.31161653865E+04 0.  0.
        4    1    3    3  502    0  0.10446777116E+04  0.64396916731E+03 -0.11895572075E+04  0.17091213451E+04  0.12699999809E+01 0. -1.
       -4    1    3    3    0  502 -0.10446777116E+04 -0.64396916731E+03  0.74946666784E+03  0.14379672141E+04  0.12699999809E+01 0.  1.
</event>
<event>
 5   0  0.7510251E-06  0.2673601E+04  0.7818609E-02  0.8343622E-01
       -2   -1    0    0    0  501  0.00000000000E+00  0.00000000000E+00  0.81468090629E+03  0.81468090629E+03  0.25500000920E-02 0.  1.
        2   -1    0    0  501    0  0.00000000000E+00  0.00000000000E+00 -0.21935400246E+04  0.21935400246E+04  0.25500000920E-02 0. -1.
    10030    2    1    2    0    0  0.00000000000E+00  0.00000000000E+00 -0.13788591183E+04  0.30082209309E+04  0.26736006996E+04 0.  0.
        3    1    3    3  502    0  0.40033820323E+03 -0.21773043959E+03 -0.21034427703E+04  0.21522427185E+04  0.10100000352E+00 0. -1.
       -3    1    3    3    0  502 -0.40033820323E+03  0.21773043959E+03  0.72458365194E+03  0.85597821243E+03  0.10100000352E+00 0.  1.
</event>
<event>
 5   0  0.2933646E-06  0.2806660E+04  0.7818609E-02  0.8301204E-01
        1   -1    0    0  501    0  0.00000000000E+00  0.00000000000E+00  0.12688151697E+04  0.12688151697E+04  0.50400001928E-02 0.  1.
       -1   -1    0    0    0  501  0.00000000000E+00  0.00000000000E+00 -0.15521060819E+04  0.15521060819E+04  0.50400001928E-02 0. -1.
    10030    2    1    2    0    0  0.00000000000E+00  0.00000000000E+00 -0.28329091217E+03  0.28209212517E+04  0.28066604652E+04 0.  0.
        2    1    3    3  502    0 -0.55237853538E+03  0.19457640549E+03  0.11401200761E+04  0.12817393697E+04  0.25500000920E-02 0.  1.
       -2    1    3    3    0  502  0.55237853538E+03 -0.19457640549E+03 -0.14234109883E+04  0.15391818819E+04  0.25500000920E-02 0. -1.
</event>
<event>
 5   0  0.2580875E-06  0.3244679E+04  0.7818609E-02  0.8177116E-01
        4   -1    0    0  501    0  0.00000000000E+00  0.00000000000E+00  0.15930941522E+04  0.15930946585E+04  0.12699999809E+01 0. -1.
       -4   -1    0    0    0  501  0.00000000000E+00  0.00000000000E+00 -0.16521206104E+04  0.16521210985E+04  0.12699999809E+01 0.  1.
    10030    2    1    2    0    0  0.00000000000E+00  0.00000000000E+00 -0.59026458107E+02  0.32452157569E+04  0.32446789034E+04 0.  0.
        3    1    3    3  502    0  0.92281244594E+03 -0.33419589421E+03 -0.13215147097E+04  0.16461077863E+04  0.10100000352E+00 0.  1.
       -3    1    3    3    0  502 -0.92281244594E+03  0.33419589421E+03  0.12624882516E+04  0.15991079706E+04  0.10100000352E+00 0. -1.
</event>
<event>
 5   0  0.7510251E-06  0.3181709E+04  0.7818609E-02  0.8193665E-01
        2   -1    0    0  501    0  0.00000000000E+00  0.00000000000E+00  0.23332313068E+04  0.23332313068E+04  0.25500000920E-02 0. -1.
       -2   -1    0    0    0  501  0.00000000000E+00  0.00000000000E+00 -0.10846837900E+04  0.10846837900E+04  0.25500000920E-02 0.  1.
    10030    2    1    2    0    0  0.00000000000E+00  0.00000000000E+00  0.12485475169E+04  0.34179150968E+04  0.31817090858E+04 0.  0.
        3    1    3    3  502    0 -0.24018157019E+03 -0.15674580648E+04  0.76102816613E+03  0.17589132586E+04  0.10100000352E+00 0. -1.
       -3    1    3    3    0  502  0.24018157019E+03  0.15674580648E+04  0.48751935074E+03  0.16590018382E+04  0.10100000352E+00 0.  1.
</event>
<event>
 5   0  0.2933646E-06  0.3086413E+04  0.7818609E-02  0.8219477E-01
       -1   -1    0    0    0  501  0.00000000000E+00  0.00000000000E+00  0.12715243721E+04  0.12715243721E+04  0.50400001928E-02 0. -1.
        1   -1    0    0  501    0  0.00000000000E+00  0.00000000000E+00 -0.18729385069E+04  0.18729385069E+04  0.50400001928E-02 0.  1.
    10030    2    1    2    0    0  0.00000000000E+00  0.00000000000E+00 -0.60141413478E+03  0.31444628790E+04  0.30864134260E+04 0.  0.
        2    1    3    3  502    0 -0.14732127805E+04  0.45861783284E+03 -0.27187739507E+03  0.15667174382E+04  0.25500000920E-02 0.  1.
       -2    1    3    3    0  502  0.14732127805E+04 -0.45861783284E+03 -0.32953673971E+03  0.15777454408E+04  0.25500000920E-02 0. -1.
</event>
<event>
 5   0  0.2933646E-06  0.2649849E+04  0.7818609E-02  0.8351463E-01
        1   -1    0    0  501    0  0.00000000000E+00  0.00000000000E+00  0.13538519061E+04  0.13538519061E+04  0.50400001928E-02 0. -1.
       -1   -1    0    0    0  501  0.00000000000E+00  0.00000000000E+00 -0.12966147894E+04  0.12966147894E+04  0.50400001928E-02 0.  1.
    10030    2    1    2    0    0  0.00000000000E+00  0.00000000000E+00  0.57237116711E+02  0.26504666956E+04  0.26498486026E+04 0.  0.
        2    1    3    3  502    0 -0.78294547565E+03 -0.45048539663E+03  0.99811431658E+03  0.13461697142E+04  0.25500000920E-02 0. -1.
       -2    1    3    3    0  502  0.78294547565E+03  0.45048539663E+03 -0.94087719987E+03  0.13042969814E+04  0.25500000920E-02 0.  1.
</event>
<event>
 5   0  0.7952307E-06  0.3172973E+04  0.7818609E-02  0.8195992E-01
       -2   -1    0    0    0  501  0.00000000000E+00  0.00000000000E+00  0.11935607335E+04  0.11935607335E+04  0.25500000920E-02 0. -1.
        2   -1    0    0  501    0  0.00000000000E+00  0.00000000000E+00 -0.21087653917E+04  0.21087653918E+04  0.25500000920E-02 0.  1.
    10030    2    1    2    0    0  0.00000000000E+00  0.00000000000E+00 -0.91520465827E+03  0.33023261252E+04  0.31729730965E+04 0.  0.
        2    1    3    3  502    0  0.15509432657E+04  0.25305654280E+03 -0.68437720214E+03  0.17140113133E+04  0.25500000920E-02 0.  1.
       -2    1    3    3    0  502 -0.15509432657E+04 -0.25305654280E+03 -0.23082745613E+03  0.15883148119E+04  0.25500000920E-02 0. -1.
</event>
<event>
 5   0  0.7952307E-06  0.3241327E+04  0.7818609E-02  0.8177987E-01
        2   -1    0    0  501    0  0.00000000000E+00  0.00000000000E+00  0.14088202955E+04  0.14088202955E+04  0.25500000920E-02 0. -1.
       -2   -1    0    0    0  501  0.00000000000E+00  0.00000000000E+00 -0.18643608342E+04  0.18643608342E+04  0.25500000920E-02 0.  1.
    10030    2    1    2    0    0  0.00000000000E+00  0.00000000000E+00 -0.45554053872E+03  0.32731811297E+04  0.32413265070E+04 0.  0.
        2    1    3    3  502    0  0.88273998620E+03 -0.38712090161E+03 -0.15434392534E+04  0.18196970090E+04  0.25500000920E-02 0.  1.
       -2    1    3    3    0  502 -0.88273998620E+03  0.38712090161E+03  0.10878987147E+04  0.14534841207E+04  0.25500000920E-02 0. -1.
</event>
<event>
 5   0  0.2788054E-06  0.3198692E+04  0.7818609E-02  0.8189163E-01
       -1   -1    0    0    0  501  0.00000000000E+00  0.00000000000E+00  0.13436359345E+04  0.13436359345E+04  0.50400001928E-02 0. -1.
        1   -1    0    0  501    0  0.00000000000E+00  0.00000000000E+00 -0.19037202215E+04  0.19037202215E+04  0.50400001928E-02 0.  1.
    10030    2    1    2    0    0  0.00000000000E+00  0.00000000000E+00 -0.56008428700E+03  0.32473561561E+04  0.31986915443E+04 0.  0.
        3    1    3    3  502    0 -0.18714443331E+03 -0.13534470574E+04 -0.11239926576E+04  0.17692375422E+04  0.10100000352E+00 0.  1.
       -3    1    3    3    0  502  0.18714443331E+03  0.13534470574E+04  0.56390837057E+03  0.14781186139E+04  0.10100000352E+00 0. -1.
</event>
<event>
 5   0  0.7941434E-06  0.3062622E+04  0.7818609E-02  0.8226072E-01
        2   -1    0    0  501    0  0.00000000000E+00  0.00000000000E+00  0.16045862920E+04  0.16045862920E+04  0.25500000920E-02 0.  1.
       -2   -1    0    0    0  501  0.00000000000E+00  0.00000000000E+00 -0.14613814731E+04  0.14613814732E+04  0.25500000920E-02 0. -1.
    10030    2    1    2    0    0  0.00000000000E+00  0.00000000000E+00  0.14320481887E+03  0.30659677652E+04  0.30626215432E+04 0.  0.
        4    1    3    3  502    0  0.47749837226E+03  0.65073991118E+03  0.13743481544E+04  0.15938323594E+04  0.12699999809E+01 0.  1.
       -4    1    3    3    0  502 -0.47749837226E+03 -0.65073991118E+03 -0.12311433355E+04  0.14721354058E+04  0.12699999809E+01 0. -1.
</event>
<event>
 5   0  0.2635798E-06  0.3248298E+04  0.7818609E-02  0.8176177E-01
        1   -1    0    0  501    0  0.00000000000E+00  0.00000000000E+00  0.18881830224E+04  0.18881830224E+04  0.50400001928E-02 0.  1.
       -1   -1    0    0    0  501  0.00000000000E+00  0.00000000000E+00 -0.13970359177E+04  0.13970359177E+04  0.50400001928E-02 0. -1.
    10030    2    1    2    0    0  0.00000000000E+00  0.00000000000E+00  0.49114710468E+03  0.32852189400E+04  0.32482977089E+04 0.  0.
        1    1    3    3  502    0 -0.42781836984E+03 -0.15306489062E+03  0.18225924021E+04  0.18783770874E+04  0.50400001928E-02 0.  1.
       -1    1    3    3    0  502  0.42781836984E+03  0.15306489062E+03 -0.13314452974E+04  0.14068418526E+04  0.50400001928E-02 0. -1.
</event>
<event>
 5   0  0.7952307E-06  0.2899811E+04  0.7818609E-02  0.8272934E-01
       -2   -1    0    0    0  501  0.00000000000E+00  0.00000000000E+00  0.12179791987E+04  0.12179791987E+04  0.25500000920E-02 0. -1.
        2   -1    0    0  501    0  0.00000000000E+00  0.00000000000E+00 -0.17259945298E+04  0.17259945298E+04  0.25500000920E-02 0.  1.
    10030    2    1    2    0    0  0.00000000000E+00  0.00000000000E+00 -0.50801533109E+03  0.29439737285E+04  0.28998106382E+04 0.  0.
        2    1    3    3  502    0 -0.46677123881E+03 -0.12222271239E+04  0.38041818860E+03  0.13625096440E+04  0.25500000920E-02 0.  1.
       -2    1    3    3    0  502  0.46677123881E+03  0.12222271239E+04 -0.88843351969E+03  0.15814640845E+04  0.25500000920E-02 0. -1.
</event>
<event>
 5   0  0.4142886E-06  0.2002242E+04  0.7818609E-02  0.8605573E-01
       -1   -1    0    0    0  501  0.00000000000E+00  0.00000000000E+00  0.81640547262E+03  0.81640547263E+03  0.50400001928E-02 0. -1.
        1   -1    0    0  501    0  0.00000000000E+00  0.00000000000E+00 -0.12276286894E+04  0.12276286894E+04  0.50400001928E-02 0.  1.
    10030    2    1    2    0    0  0.00000000000E+00  0.00000000000E+00 -0.41122321679E+03  0.20440341620E+04  0.20022415243E+04 0.  0.
        5    1    3    3  502    0 -0.63769337879E+03 -0.35662644679E+03  0.49306044347E+03  0.88145672544E+03  0.46999998093E+01 0. -1.
       -5    1    3    3    0  502  0.63769337879E+03  0.35662644679E+03 -0.90428366026E+03  0.11625774366E+04  0.46999998093E+01 0.  1.
</event>
<event>
 5   0  0.7971763E-06  0.3077145E+04  0.7818609E-02  0.8222038E-01
        2   -1    0    0  501    0  0.00000000000E+00  0.00000000000E+00  0.23064892843E+04  0.23064892843E+04  0.25500000920E-02 0.  1.
       -2   -1    0    0    0  501  0.00000000000E+00  0.00000000000E+00 -0.10263237882E+04  0.10263237882E+04  0.25500000920E-02 0. -1.
    10030    2    1    2    0    0  0.00000000000E+00  0.00000000000E+00  0.12801654961E+04  0.33328130725E+04  0.30771446633E+04 0.  0.
        1    1    3    3  502    0  0.12400905031E+04 -0.32934144123E+03  0.15596954183E+04  0.20196385912E+04  0.50400001928E-02 0.  1.
       -1    1    3    3    0  502 -0.12400905031E+04  0.32934144123E+03 -0.27952992224E+03  0.13131744813E+04  0.50400001928E-02 0. -1.
</event>
<event>
 5   0  0.2580875E-06  0.3288130E+04  0.7818609E-02  0.8165922E-01
       -4   -1    0    0    0  501  0.00000000000E+00  0.00000000000E+00  0.18177747692E+04  0.18177752129E+04  0.12699999809E+01 0.  1.
        4   -1    0    0  501    0  0.00000000000E+00  0.00000000000E+00 -0.14869541007E+04  0.14869546431E+04  0.12699999809E+01 0. -1.
    10030    2    1    2    0    0  0.00000000000E+00  0.00000000000E+00  0.33082066846E+03  0.33047298560E+04  0.32881297277E+04 0.  0.
        5    1    3    3  502    0 -0.41812707842E+03  0.13167448213E+04 -0.73031289337E+03  0.15626983683E+04  0.46999998093E+01 0. -1.
       -5    1    3    3    0  502  0.41812707842E+03 -0.13167448213E+04  0.10611335618E+04  0.17420314877E+04  0.46999998093E+01 0.  1.
</event>
<event>
 5   0  0.2788054E-06  0.2868325E+04  0.7818609E-02  0.8282365E-01
       -1   -1    0    0    0  501  0.00000000000E+00  0.00000000000E+00  0.28513597862E+04  0.28513597862E+04  0.50400001928E-02 0. -1.
        1   -1    0    0  501    0  0.00000000000E+00  0.00000000000E+00 -0.72134757346E+03  0.72134757348E+03  0.50400001928E-02 0.  1.
    10030    2    1    2    0    0  0.00000000000E+00  0.00000000000E+00  0.21300122127E+04  0.35727073597E+04  0.28683245722E+04 0.  0.
        3    1    3    3  502    0  0.23188317334E+03 -0.81149945804E+03 -0.37927865560E+03  0.92528562361E+03  0.10100000352E+00 0.  1.
       -3    1    3    3    0  502 -0.23188317334E+03  0.81149945804E+03  0.25092908683E+04  0.26474217360E+04  0.10100000352E+00 0. -1.
</event>
<event>
 5   0  0.3938696E-06  0.1889703E+04  0.7818609E-02  0.8659999E-01
       -1   -1    0    0    0  501  0.00000000000E+00  0.00000000000E+00  0.43364001529E+03  0.43364001532E+03  0.50400001928E-02 0. -1.
        1   -1    0    0  501    0  0.00000000000E+00  0.00000000000E+00 -0.20587222866E+04  0.20587222866E+04  0.50400001928E-02 0.  1.
    10030    2    1    2    0    0  0.00000000000E+00  0.00000000000E+00 -0.16250822713E+04  0.24923623019E+04  0.18897030072E+04 0.  0.
        4    1    3    3  502    0  0.53144097088E+03 -0.38619192528E+03  0.83128172483E+02  0.66218246326E+03  0.12699999809E+01 0. -1.
       -4    1    3    3    0  502 -0.53144097088E+03  0.38619192528E+03 -0.17082104438E+04  0.18301798387E+04  0.12699999809E+01 0.  1.
</event>
<event>
 5   0  0.2635798E-06  0.3116676E+04  0.7818609E-02  0.8211176E-01
        1   -1    0    0  501    0  0.00000000000E+00  0.00000000000E+00  0.12314569052E+04  0.12314569052E+04  0.50400001928E-02 0.  1.
       -1   -1    0    0    0  501  0.00000000000E+00  0.00000000000E+00 -0.19719873116E+04  0.19719873116E+04  0.50400001928E-02 0. -1.
    10030    2    1    2    0    0  0.00000000000E+00  0.00000000000E+00 -0.74053040645E+03  0.32034442168E+04  0.31166760447E+04 0.  0.
        1    1    3    3  502    0  0.72211695355E+03  0.40619273510E+03  0.98631689833E+03  0.12881251712E+04  0.50400001928E-02 0.  1.
       -1    1    3    3    0  502 -0.72211695355E+03 -0.40619273510E+03 -0.17268473048E+04  0.19153190457E+04  0.50400001928E-02 0. -1.
</event>
<event>
 5   0  0.7952307E-06  0.3188720E+04  0.7818609E-02  0.8191803E-01
        2   -1    0    0  501    0  0.00000000000E+00  0.00000000000E+00  0.21580890091E+04  0.21580890091E+04  0.25500000920E-02 0. -1.
       -2   -1    0    0    0  501  0.00000000000E+00  0.00000000000E+00 -0.11778861320E+04  0.11778861320E+04  0.25500000920E-02 0.  1.
    10030    2    1    2    0    0  0.00000000000E+00  0.00000000000E+00  0.98020287713E+03  0.33359751412E+04  0.31887195647E+04 0.  0.
        2    1    3    3  502    0 -0.79857444099E+03 -0.10231544981E+04 -0.47862797510E+03  0.13833477522E+04  0.25500000920E-02 0.  1.
       -2    1    3    3    0  502  0.79857444099E+03  0.10231544981E+04  0.14588308522E+04  0.19526273890E+04  0.25500000920E-02 0. -1.
</event>
<event>
 5   0  0.7952307E-06  0.1826080E+04  0.7818609E-02  0.8692552E-01
       -2   -1    0    0    0  501  0.00000000000E+00  0.00000000000E+00  0.47539505532E+03  0.47539505533E+03  0.25500000920E-02 0.  1.
        2   -1    0    0  501    0  0.00000000000E+00  0.00000000000E+00 -0.17535783534E+04  0.17535783534E+04  0.25500000920E-02 0. -1.
    10030    2    1    2    0    0  0.00000000000E+00  0.00000000000E+00 -0.12781832981E+04  0.22289734087E+04  0.18260804783E+04 0.  0.
        2    1    3    3  502    0  0.37280574597E+03 -0.67498047081E+03 -0.42278785380E+02  0.77225012522E+03  0.25500000920E-02 0.  1.
       -2    1    3    3    0  502 -0.37280574597E+03  0.67498047081E+03 -0.12359045127E+04  0.14567232835E+04  0.25500000920E-02 0. -1.
</event>
<event>
 5   0  0.7941434E-06  0.3501824E+04  0.7818609E-02  0.8113358E-01
       -2   -1    0    0    0  501  0.00000000000E+00  0.00000000000E+00  0.15418843140E+04  0.15418843140E+04  0.25500000920E-02 0.  1.
        2   -1    0    0  501    0  0.00000000000E+00  0.00000000000E+00 -0.19882767625E+04  0.19882767625E+04  0.25500000920E-02 0. -1.
    10030    2    1    2    0    0  0.00000000000E+00  0.00000000000E+00 -0.44639244854E+03  0.35301610765E+04  0.35018239545E+04 0.  0.
        4    1    3    3  502    0 -0.90050374947E+03 -0.13742400053E+04  0.38688571217E+03  0.16879350586E+04  0.12699999809E+01 0.  1.
       -4    1    3    3    0  502  0.90050374947E+03  0.13742400053E+04 -0.83327816072E+03  0.18422260179E+04  0.12699999809E+01 0. -1.
</event>
<event>
 5   0  0.8237664E-06  0.3186045E+04  0.7818609E-02  0.8192512E-01
        2   -1    0    0  501    0  0.00000000000E+00  0.00000000000E+00  0.10629333122E+04  0.10629333122E+04  0.25500000920E-02 0. -1.
       -2   -1    0    0    0  501  0.00000000000E+00  0.00000000000E+00 -0.23874687781E+04  0.23874687781E+04  0.25500000920E-02 0.  1.
    10030    2    1    2    0    0  0.00000000000E+00  0.00000000000E+00 -0.13245354660E+04  0.34504020903E+04  0.31860446300E+04 0.  0.
        5    1    3    3  502    0 -0.32412953854E+03  0.13510395122E+04 -0.15062441707E+04  0.20491855243E+04  0.46999998093E+01 0.  1.
       -5    1    3    3    0  502  0.32412953854E+03 -0.13510395122E+04  0.18170870469E+03  0.14012165660E+04  0.46999998093E+01 0. -1.
</event>
<event>
 5   0  0.7952307E-06  0.3233538E+04  0.7818609E-02  0.8180016E-01
       -2   -1    0    0    0  501  0.00000000000E+00  0.00000000000E+00  0.14679757345E+04  0.14679757345E+04  0.25500000920E-02 0.  1.
        2   -1    0    0  501    0  0.00000000000E+00  0.00000000000E+00 -0.17806434116E+04  0.17806434116E+04  0.25500000920E-02 0. -1.
    10030    2    1    2    0    0  0.00000000000E+00  0.00000000000E+00 -0.31266767708E+03  0.32486191462E+04  0.32335375799E+04 0.  0.
        2    1    3    3  502    0  0.60535082344E+03  0.22603176395E+03 -0.16452722610E+04  0.17676144349E+04  0.25500000920E-02 0. -1.
       -2    1    3    3    0  502 -0.60535082344E+03 -0.22603176395E+03  0.13326045839E+04  0.14810047113E+04  0.25500000920E-02 0.  1.
</event>
<event>
 5   0  0.7971763E-06  0.3218899E+04  0.7818609E-02  0.8183844E-01
        2   -1    0    0  501    0  0.00000000000E+00  0.00000000000E+00  0.12269533116E+04  0.12269533116E+04  0.25500000920E-02 0. -1.
       -2   -1    0    0    0  501  0.00000000000E+00  0.00000000000E+00 -0.21111872236E+04  0.21111872236E+04  0.25500000920E-02 0.  1.
    10030    2    1    2    0    0  0.00000000000E+00  0.00000000000E+00 -0.88423391208E+03  0.33381405352E+04  0.32188992873E+04 0.  0.
        1    1    3    3  502    0 -0.82665972058E+03 -0.89539488805E+03 -0.15323605207E+04  0.19578628820E+04  0.50400001928E-02 0.  1.
       -1    1    3    3    0  502  0.82665972058E+03  0.89539488805E+03  0.64812660862E+03  0.13802776532E+04  0.50400001928E-02 0. -1.
</event>
<event>
 5   0  0.7941434E-06  0.3232327E+04  0.7818609E-02  0.8180332E-01
        2   -1    0    0  501    0  0.00000000000E+00  0.00000000000E+00  0.17812746451E+04  0.17812746451E+04  0.25500000920E-02 0. -1.
       -2   -1    0    0    0  501  0.00000000000E+00  0.00000000000E+00 -0.14663565714E+04  0.14663565714E+04  0.25500000920E-02 0.  1.
    10030    2    1    2    0    0  0.00000000000E+00  0.00000000000E+00  0.31491807364E+03  0.32476312165E+04  0.32323265809E+04 0.  0.
        4    1    3    3  502    0  0.20769247138E+03 -0.10635671125E+04 -0.10472473985E+04  0.15069969781E+04  0.12699999809E+01 0.  1.
       -4    1    3    3    0  502 -0.20769247138E+03  0.10635671125E+04  0.13621654722E+04  0.17406342384E+04  0.12699999809E+01 0. -1.
</event>
<event>
 5   0  0.7941434E-06  0.2343784E+04  0.7818609E-02  0.8460855E-01
       -2   -1    0    0    0  501  0.00000000000E+00  0.00000000000E+00  0.17211862265E+04  0.17211862265E+04  0.25500000920E-02 0.  1.
        2   -1    0    0  501    0  0.00000000000E+00  0.00000000000E+00 -0.79789765680E+03  0.79789765680E+03  0.25500000920E-02 0. -1.
    10030    2    1    2    0    0  0.00000000000E+00  0.00000000000E+00  0.92328856968E+03  0.25190838833E+04  0.23437836564E+04 0.  0.
        4    1    3    3  502    0 -0.35041815821E+03  0.84456745479E+03  0.12494334340E+04  0.15482805269E+04  0.12699999809E+01 0.  1.
       -4    1    3    3    0  502  0.35041815821E+03 -0.84456745479E+03 -0.32614486429E+03  0.97080335634E+03  0.12699999809E+01 0. -1.
</event>
<event>
 5   0  0.8237664E-06  0.2964515E+04  0.7818609E-02  0.8253937E-01
       -2   -1    0    0    0  501  0.00000000000E+00  0.00000000000E+00  0.11323283821E+04  0.11323283821E+04  0.25500000920E-02 0. -1.
        2   -1    0    0  501    0  0.00000000000E+00  0.00000000000E+00 -0.19403271135E+04  0.19403271135E+04  0.25500000920E-02 0.  1.
    10030    2    1    2    0    0  0.00000000000E+00  0.00000000000E+00 -0.80799873136E+03  0.30726554956E+04  0.29645151113E+04 0.  0.
        5    1    3    3  502    0 -0.11715033763E+04 -0.81096183660E+03  0.19546430658E+02  0.14249503198E+04  0.46999998093E+01 0. -1.
       -5    1    3    3    0  502  0.11715033763E+04  0.81096183660E+03 -0.82754516202E+03  0.16477051758E+04  0.46999998093E+01 0.  1.
</event>
<event>
 5   0  0.3938696E-06  0.3237894E+04  0.7818609E-02  0.8178881E-01
        1   -1    0    0  501    0  0.00000000000E+00  0.00000000000E+00  0.26992871461E+04  0.26992871461E+04  0.50400001928E-02 0.  1.
       -1   -1    0    0    0  501  0.00000000000E+00  0.00000000000E+00 -0.97099315230E+03  0.97099315232E+03  0.50400001928E-02 0. -1.
    10030    2    1    2    0    0  0.00000000000E+00  0.00000000000E+00  0.17282939938E+04  0.36702802985E+04  0.32378939668E+04 0.  0.
        4    1    3    3  502    0 -0.65744434475E+03  0.14141301198E+04  0.13569312038E+04  0.20671867276E+04  0.12699999809E+01 0.  1.
       -4    1    3    3    0  502  0.65744434475E+03 -0.14141301198E+04  0.37136279005E+03  0.16030935708E+04  0.12699999809E+01 0. -1.
</event>
<event>
 5   0  0.8237664E-06  0.3189932E+04  0.7818609E-02  0.8191481E-01
       -2   -1    0    0    0  501  0.00000000000E+00  0.00000000000E+00  0.11980435191E+04  0.11980435191E+04  0.25500000920E-02 0.  1.
        2   -1    0    0  501    0  0.00000000000E+00  0.00000000000E+00 -0.21233927851E+04  0.21233927851E+04  0.25500000920E-02 0. -1.
    10030    2    1    2    0    0  0.00000000000E+00  0.00000000000E+00 -0.92534926598E+03  0.33214363042E+04  0.31899322655E+04 0.  0.
        5    1    3    3  502    0 -0.89621255688E+03 -0.11920270993E+04 -0.10514679405E+04  0.18247554555E+04  0.46999998093E+01 0.  1.
       -5    1    3    3    0  502  0.89621255688E+03  0.11920270993E+04  0.12611867450E+03  0.14966808486E+04  0.46999998093E+01 0. -1.
</event>
<event>
 5   0  0.7510251E-06  0.3205974E+04  0.7818609E-02  0.8187241E-01
        2   -1    0    0  501    0  0.00000000000E+00  0.00000000000E+00  0.16352051949E+04  0.16352051949E+04  0.25500000920E-02 0. -1.
       -2   -1    0    0    0  501  0.00000000000E+00  0.00000000000E+00 -0.15714037765E+04  0.15714037765E+04  0.25500000920E-02 0.  1.
    10030    2    1    2    0    0  0.00000000000E+00  0.00000000000E+00  0.63801418372E+02  0.32066089715E+04  0.32059741850E+04 0.  0.
        3    1    3    3  502    0 -0.15033696569E+04  0.47243039311E+03 -0.26185253466E+03  0.15974597214E+04  0.10100000352E+00 0. -1.
       -3    1    3    3    0  502  0.15033696569E+04 -0.47243039311E+03  0.32565395303E+03  0.16091492500E+04  0.10100000352E+00 0.  1.
</event>
<event>
 5   0  0.2933646E-06  0.3113475E+04  0.7818609E-02  0.8212050E-01
       -1   -1    0    0    0  501  0.00000000000E+00  0.00000000000E+00  0.15254075308E+04  0.15254075308E+04  0.50400001928E-02 0. -1.
        1   -1    0    0  501    0  0.00000000000E+00  0.00000000000E+00 -0.15887107942E+04  0.15887107942E+04  0.50400001928E-02 0.  1.
    10030    2    1    2    0    0  0.00000000000E+00  0.00000000000E+00 -0.63303263430E+02  0.31141183250E+04  0.31134748496E+04 0.  0.
        2    1    3    3  502    0 -0.14037737301E+04 -0.37167790736E+03  0.52945117024E+03  0.15456531609E+04  0.25500000920E-02 0. -1.
       -2    1    3    3    0  502  0.14037737301E+04  0.37167790736E+03 -0.59275443367E+03  0.15684651641E+04  0.25500000920E-02 0.  1.
</event>
<event>
 5   0  0.2635798E-06  0.3110232E+04  0.7818609E-02  0.8212935E-01
       -1   -1    0    0    0  501  0.00000000000E+00  0.00000000000E+00  0.10289604851E+04  0.10289604851E+04  0.50400001928E-02 0. -1.
        1   -1    0    0  501    0  0.00000000000E+00  0.00000000000E+00 -0.23503194839E+04  0.23503194839E+04  0.50400001928E-02 0.  1.
    10030    2    1    2    0    0  0.00000000000E+00  0.00000000000E+00 -0.13213589988E+04  0.33792799691E+04  0.31102320662E+04 0.  0.
        1    1    3    3  502    0  0.62422208274E+03 -0.51395036262E+03  0.78260850582E+03  0.11252885218E+04  0.50400001928E-02 0. -1.
       -1    1    3    3    0  502 -0.62422208274E+03  0.51395036262E+03 -0.21039675047E+04  0.22539914473E+04  0.50400001928E-02 0.  1.
</event>
<event>
 5   0  0.4142886E-06  0.2208241E+04  0.7818609E-02  0.8515006E-01
        1   -1    0    0  501    0  0.00000000000E+00  0.00000000000E+00  0.15619410337E+04  0.15619410337E+04  0.50400001928E-02 0. -1.
       -1   -1    0    0    0  501  0.00000000000E+00  0.00000000000E+00 -0.78049156130E+03  0.78049156132E+03  0.50400001928E-02 0.  1.
    10030    2    1    2    0    0  0.00000000000E+00  0.00000000000E+00  0.78144947243E+03  0.23424325951E+04  0.22082407442E+04 0.  0.
        5    1    3    3  502    0 -0.24311251396E+03 -0.10376805165E+04  0.69665151905E+03  0.12732752953E+04  0.46999998093E+01 0. -1.
       -5    1    3    3    0  502  0.24311251396E+03  0.10376805165E+04  0.84797953377E+02  0.10691572997E+04  0.46999998093E+01 0.  1.
</event>
<event>
 5   0  0.7971763E-06  0.2489803E+04  0.7818609E-02  0.8406627E-01
        2   -1    0    0  501    0  0.00000000000E+00  0.00000000000E+00  0.18807295215E+04  0.18807295215E+04  0.25500000920E-02 0.  1.
       -2   -1    0    0    0  501  0.00000000000E+00  0.00000000000E+00 -0.82403092054E+03  0.82403092054E+03  0.25500000920E-02 0. -1.
    10030    2    1    2    0    0  0.00000000000E+00  0.00000000000E+00  0.10566986009E+04  0.27047604420E+04  0.24898026258E+04 0.  0.
        1    1    3    3  502    0  0.12068140817E+04 -0.30076201804E+03  0.58706428527E+03  0.13753190519E+04  0.50400001928E-02 0. -1.
       -1    1    3    3    0  502 -0.12068140817E+04  0.30076201804E+03  0.46963431566E+03  0.13294413901E+04  0.50400001928E-02 0.  1.
</event>
<event>
 5   0  0.7971763E-06  0.2007518E+04  0.7818609E-02  0.8603114E-01
        2   -1    0    0  501    0  0.00000000000E+00  0.00000000000E+00  0.12976982666E+04  0.12976982666E+04  0.25500000920E-02 0.  1.
       -2   -1    0    0    0  501  0.00000000000E+00  0.00000000000E+00 -0.77639971511E+03  0.77639971511E+03  0.25500000920E-02 0. -1.
    10030    2    1    2    0    0  0.00000000000E+00  0.00000000000E+00  0.52129855148E+03  0.20740979817E+04  0.20075184328E+04 0.  0.
        1    1    3    3  502    0 -0.39801170871E+03  0.15119600010E+03  0.11997838565E+04  0.12730887059E+04  0.50400001928E-02 0.  1.
       -1    1    3    3    0  502  0.39801170871E+03 -0.15119600010E+03 -0.67848530504E+03  0.80100927579E+03  0.50400001928E-02 0. -1.
</event>
<event>
 5   0  0.2635798E-06  0.2123403E+04  0.7818609E-02  0.8551003E-01
       -1   -1    0    0    0  501  0.00000000000E+00  0.00000000000E+00  0.58134532850E+03  0.58134532852E+03  0.50400001928E-02 0.  1.
        1   -1    0    0  501    0  0.00000000000E+00  0.00000000000E+00 -0.19389689724E+04  0.19389689724E+04  0.50400001928E-02 0. -1.
    10030    2    1    2    0    0  0.00000000000E+00  0.00000000000E+00 -0.13576236439E+04  0.25203143009E+04  0.21234034513E+04 0.  0.
        1    1    3    3  502    0 -0.43265415005E+02  0.10334176527E+04 -0.39447868134E+03  0.11069947475E+04  0.50400001928E-02 0.  1.
       -1    1    3    3    0  502  0.43265415005E+02 -0.10334176527E+04 -0.96314496252E+03  0.14133195533E+04  0.50400001928E-02 0. -1.
</event>
<event>
 5   0  0.7952307E-06  0.3183772E+04  0.7818609E-02  0.8193116E-01
        2   -1    0    0  501    0  0.00000000000E+00  0.00000000000E+00  0.17194618479E+04  0.17194618479E+04  0.25500000920E-02 0. -1.
       -2   -1    0    0    0  501  0.00000000000E+00  0.00000000000E+00 -0.14737759430E+04  0.14737759430E+04  0.25500000920E-02 0.  1.
    10030    2    1    2    0    0  0.00000000000E+00  0.00000000000E+00  0.24568590490E+03  0.31932377909E+04  0.31837722949E+04 0.  0.
        2    1    3    3  502    0 -0.22907277899E+03  0.19512665774E+03 -0.14449912019E+04  0.14759906247E+04  0.25500000920E-02 0.  1.
       -2    1    3    3    0  502  0.22907277899E+03 -0.19512665774E+03  0.16906771068E+04  0.17172471663E+04  0.25500000920E-02 0. -1.
</event>
<event>
 5   0  0.8237664E-06  0.1808735E+04  0.7818609E-02  0.8701668E-01
        2   -1    0    0  501    0  0.00000000000E+00  0.00000000000E+00  0.13887422443E+04  0.13887422443E+04  0.25500000920E-02 0.  1.
       -2   -1    0    0    0  501  0.00000000000E+00  0.00000000000E+00 -0.58893630644E+03  0.58893630645E+03  0.25500000920E-02 0. -1.
    10030    2    1    2    0    0  0.00000000000E+00  0.00000000000E+00  0.79980593785E+03  0.19776785507E+04  0.18087351691E+04 0.  0.
        5    1    3    3  502    0 -0.41088061483E+03 -0.40140708271E+03  0.11636503601E+04  0.12977113609E+04  0.46999998093E+01 0.  1.
       -5    1    3    3    0  502  0.41088061483E+03  0.40140708271E+03 -0.36384442222E+03  0.67996718985E+03  0.46999998093E+01 0. -1.
</event>
<event>
 5   0  0.8237664E-06  0.3166686E+04  0.7818609E-02  0.8197671E-01
        2   -1    0    0  501    0  0.00000000000E+00  0.00000000000E+00  0.92737079716E+03  0.92737079717E+03  0.25500000920E-02 0.  1.
       -2   -1    0    0    0  501  0.00000000000E+00  0.00000000000E+00 -0.27033147109E+04  0.27033147109E+04  0.25500000920E-02 0. -1.
    10030    2    1    2    0    0  0.00000000000E+00  0.00000000000E+00 -0.17759439138E+04  0.36306855081E+04  0.31666860397E+04 0.  0.
        5    1    3    3  502    0  0.46278751406E+03 -0.11006167676E+04 -0.20802609121E+04  0.23985489581E+04  0.46999998093E+01 0. -1.
       -5    1    3    3    0  502 -0.46278751406E+03  0.11006167676E+04  0.30431699830E+03  0.12321365500E+04  0.46999998093E+01 0.  1.
</event>
<event>
 5   0  0.2635798E-06  0.2269796E+04  0.7818609E-02  0.8489926E-01
       -1   -1    0    0    0  501  0.00000000000E+00  0.00000000000E+00  0.91789297795E+03  0.91789297796E+03  0.50400001928E-02 0.  1.
        1   -1    0    0  501    0  0.00000000000E+00  0.00000000000E+00 -0.14032060362E+04  0.14032060362E+04  0.50400001928E-02 0. -1.
    10030    2    1    2    0    0  0.00000000000E+00  0.00000000000E+00 -0.48531305827E+03  0.23210990142E+04  0.22697955567E+04 0.  0.
        1    1    3    3  502    0  0.10126639209E+03  0.88680854858E+03 -0.95943366829E+03  0.13104187300E+04  0.50400001928E-02 0. -1.
       -1    1    3    3    0  502 -0.10126639209E+03 -0.88680854858E+03  0.47412061002E+03  0.10106802842E+04  0.50400001928E-02 0.  1.
</event>
<event>
 5   0  0.3938696E-06  0.3774716E+04  0.7818609E-02  0.8051603E-01
        1   -1    0    0  501    0  0.00000000000E+00  0.00000000000E+00  0.18999603668E+04  0.18999603668E+04  0.50400001928E-02 0. -1.
       -1   -1    0    0    0  501  0.00000000000E+00  0.00000000000E+00 -0.18748396441E+04  0.18748396441E+04  0.50400001928E-02 0.  1.
    10030    2    1    2    0    0  0.00000000000E+00  0.00000000000E+00  0.25120722716E+02  0.37748000108E+04  0.37747164226E+04 0.  0.
        4    1    3    3  502    0  0.65625213117E+03  0.29549569253E+03  0.17573439189E+04  0.18990112759E+04  0.12699999809E+01 0. -1.
       -4    1    3    3    0  502 -0.65625213117E+03 -0.29549569253E+03 -0.17322231961E+04  0.18757887349E+04  0.12699999809E+01 0.  1.
</event>
<event>
 5   0  0.7510251E-06  0.3005543E+04  0.7818609E-02  0.8242150E-01
       -2   -1    0    0    0  501  0.00000000000E+00  0.00000000000E+00  0.14790196372E+04  0.14790196372E+04  0.25500000920E-02 0. -1.
        2   -1    0    0  501    0  0.00000000000E+00  0.00000000000E+00 -0.15269051983E+04  0.15269051983E+04  0.25500000920E-02 0.  1.
    10030    2    1    2    0    0  0.00000000000E+00  0.00000000000E+00 -0.47885561121E+02  0.30059248354E+04  0.30055433934E+04 0.  0.
        3    1    3    3  502    0 -0.95395437592E+03 -0.34244749567E+03  0.10857130259E+04  0.14852851657E+04  0.10100000352E+00 0. -1.
       -3    1    3    3    0  502  0.95395437592E+03  0.34244749567E+03 -0.11335985870E+04  0.15206396698E+04  0.10100000352E+00 0.  1.
</event>
<event>
 5   0  0.7971763E-06  0.3242932E+04  0.7818609E-02  0.8177570E-01
       -2   -1    0    0    0  501  0.00000000000E+00  0.00000000000E+00  0.20244377485E+04  0.20244377485E+04  0.25500000920E-02 0.  1.
        2   -1    0    0  501    0  0.00000000000E+00  0.00000000000E+00 -0.12987074116E+04  0.12987074116E+04  0.25500000920E-02 0. -1.
    10030    2    1    2    0    0  0.00000000000E+00  0.00000000000E+00  0.72573033687E+03  0.33231451602E+04  0.32429321969E+04 0.  0.
        1    1    3    3  502    0  0.73799077470E+03 -0.68654708738E+03 -0.93865885349E+03  0.13773371882E+04  0.50400001928E-02 0. -1.
       -1    1    3    3    0  502 -0.73799077470E+03  0.68654708738E+03  0.16643891904E+04  0.19458079720E+04  0.50400001928E-02 0.  1.
</event>
<event>
 5   0  0.8237664E-06  0.3159528E+04  0.7818609E-02  0.8199588E-01
       -2   -1    0    0    0  501  0.00000000000E+00  0.00000000000E+00  0.14319607259E+04  0.14319607259E+04  0.25500000920E-02 0. -1.
        2   -1    0    0  501    0  0.00000000000E+00  0.00000000000E+00 -0.17428227744E+04  0.17428227744E+04  0.25500000920E-02 0.  1.
    10030    2    1    2    0    0  0.00000000000E+00  0.00000000000E+00 -0.31086204844E+03  0.31747835003E+04  0.31595276642E+04 0.  0.
        5    1    3    3  502    0 -0.85742545743E+03  0.58392964174E+03 -0.13526028966E+04  0.17046140113E+04  0.46999998093E+01 0.  1.
       -5    1    3    3    0  502  0.85742545743E+03 -0.58392964174E+03  0.10417408482E+04  0.14701694890E+04  0.46999998093E+01 0. -1.
</event>
<event>
 5   0  0.2933646E-06  0.3035815E+04  0.7818609E-02  0.8233577E-01
       -1   -1    0    0    0  501  0.00000000000E+00  0.00000000000E+00  0.14403376992E+04  0.14403376992E+04  0.50400001928E-02 0. -1.
        1   -1    0    0  501    0  0.00000000000E+00  0.00000000000E+00 -0.15996549651E+04  0.15996549651E+04  0.50400001928E-02 0.  1.
    10030    2    1    2    0    0  0.00000000000E+00  0.00000000000E+00 -0.15931726590E+03  0.30399926644E+04  0.30358151143E+04 0.  0.
        2    1    3    3  502    0  0.99450294229E+02 -0.35814501209E+03  0.13940611985E+04  0.14427629174E+04  0.25500000920E-02 0. -1.
       -2    1    3    3    0  502 -0.99450294229E+02  0.35814501209E+03 -0.15533784644E+04  0.15972297469E+04  0.25500000920E-02 0.  1.
</event>
<event>
 5   0  0.7510251E-06  0.3213124E+04  0.7818609E-02  0.8185360E-01
        2   -1    0    0  501    0  0.00000000000E+00  0.00000000000E+00  0.14633564027E+04  0.14633564027E+04  0.25500000920E-02 0. -1.
       -2   -1    0    0    0  501  0.00000000000E+00  0.00000000000E+00 -0.17637818533E+04  0.17637818533E+04  0.25500000920E-02 0.  1.
    10030    2    1    2    0    0  0.00000000000E+00  0.00000000000E+00 -0.30042545054E+03  0.32271382560E+04  0.32131240051E+04 0.  0.
        3    1    3    3  502    0 -0.36238284325E+02  0.13570139302E+04 -0.10131700002E+04  0.16939048024E+04  0.10100000352E+00 0.  1.
       -3    1    3    3    0  502  0.36238284325E+02 -0.13570139302E+04  0.71274454967E+03  0.15332334536E+04  0.10100000352E+00 0. -1.
</event>
<event>
 5   0  0.7941434E-06  0.1932419E+04  0.7818609E-02  0.8638886E-01
        2   -1    0    0  501    0  0.00000000000E+00  0.00000000000E+00  0.17199575868E+04  0.17199575868E+04  0.25500000920E-02 0. -1.
       -2   -1    0    0    0  501  0.00000000000E+00  0.00000000000E+00 -0.54278117952E+03  0.54278117953E+03  0.25500000920E-02 0.  1.
    10030    2    1    2    0    0  0.00000000000E+00  0.00000000000E+00  0.11771764073E+04  0.22627387663E+04  0.19324188031E+04 0.  0.
        4    1    3    3  502    0  0.15760744815E+03 -0.95271908426E+03  0.62644464937E+03  0.11510639743E+04  0.12699999809E+01 0. -1.
       -4    1    3    3    0  502 -0.15760744815E+03  0.95271908426E+03  0.55073175789E+03  0.11116747920E+04  0.12699999809E+01 0.  1.
</event>
<event>
 5   0  0.7510251E-06  0.1980365E+04  0.7818609E-02  0.8615856E-01
        2   -1    0    0  501    0  0.00000000000E+00  0.00000000000E+00  0.23152343835E+04  0.23152343835E+04  0.25500000920E-02 0. -1.
       -2   -1    0    0    0  501  0.00000000000E+00  0.00000000000E+00 -0.42348271487E+03  0.42348271488E+03  0.25500000920E-02 0.  1.
    10030    2    1    2    0    0  0.00000000000E+00  0.00000000000E+00  0.18917516686E+04  0.27387170984E+04  0.19803653625E+04 0.  0.
        3    1    3    3  502    0  0.99365506807E+02 -0.71652397624E+03  0.18809503745E+04  0.20152554265E+04  0.10100000352E+00 0. -1.
       -3    1    3    3    0  502 -0.99365506807E+02  0.71652397624E+03  0.10801294082E+02  0.72346167184E+03  0.10100000352E+00 0.  1.
</event>
<event>
 5   0  0.7941434E-06  0.3199056E+04  0.7818609E-02  0.8189066E-01
        2   -1    0    0  501    0  0.00000000000E+00  0.00000000000E+00  0.19366486716E+04  0.19366486716E+04  0.25500000920E-02 0.  1.
       -2   -1    0    0    0  501  0.00000000000E+00  0.00000000000E+00 -0.13210917515E+04  0.13210917515E+04  0.25500000920E-02 0. -1.
    10030    2    1    2    0    0  0.00000000000E+00  0.00000000000E+00  0.61555692010E+03  0.32577404230E+04  0.31990564768E+04 0.  0.
        4    1    3    3  502    0 -0.10205449479E+04 -0.11448772648E+04 -0.15468101423E+03  0.15414875190E+04  0.12699999809E+01 0. -1.
       -4    1    3    3    0  502  0.10205449479E+04  0.11448772648E+04  0.77023793433E+03  0.17162529040E+04  0.12699999809E+01 0.  1.
</event>
<event>
 5   0  0.7971763E-06  0.3216693E+04  0.7818609E-02  0.8184422E-01
        2   -1    0    0  501    0  0.00000000000E+00  0.00000000000E+00  0.19162710637E+04  0.19162710637E+04  0.25500000920E-02 0. -1.
       -2   -1    0    0    0  501  0.00000000000E+00  0.00000000000E+00 -0.13499022525E+04  0.13499022525E+04  0.25500000920E-02 0.  1.
    10030    2    1    2    0    0  0.00000000000E+00  0.00000000000E+00  0.56636881118E+03  0.32661733161E+04  0.32166931002E+04 0.  0.
        1    1    3    3  502    0  0.17609025877E+03  0.52083703321E+03 -0.12515214318E+04  0.13669619193E+04  0.50400001928E-02 0.  1.
       -1    1    3    3    0  502 -0.17609025877E+03 -0.52083703321E+03  0.18178902430E+04  0.18992113969E+04  0.50400001928E-02 0. -1.
</event>
<event>
 5   0  0.2635798E-06  0.1644736E+04  0.7818609E-02  0.8793526E-01
       -1   -1    0    0    0  501  0.00000000000E+00  0.00000000000E+00  0.74315146989E+03  0.74315146991E+03  0.50400001928E-02 0. -1.
        1   -1    0    0  501    0  0.00000000000E+00  0.00000000000E+00 -0.91002902426E+03  0.91002902427E+03  0.50400001928E-02 0.  1.
    10030    2    1    2    0    0  0.00000000000E+00  0.00000000000E+00 -0.16687755436E+03  0.16531804942E+04  0.16447363400E+04 0.  0.
        1    1    3    3  502    0  0.79606756519E+03 -0.20628746970E+03 -0.86820350785E+02  0.82693159441E+03  0.50400001928E-02 0.  1.
       -1    1    3    3    0  502 -0.79606756519E+03  0.20628746970E+03 -0.80057203578E+02  0.82624889977E+03  0.50400001928E-02 0. -1.
</event>
<event>
 5   0  0.7510251E-06  0.1757116E+04  0.7818609E-02  0.8729443E-01
        2   -1    0    0  501    0  0.00000000000E+00  0.00000000000E+00  0.95498241882E+03  0.95498241882E+03  0.25500000920E-02 0.  1.
       -2   -1    0    0    0  501  0.00000000000E+00  0.00000000000E+00 -0.80824999452E+03  0.80824999453E+03  0.25500000920E-02 0. -1.
    10030    2    1    2    0    0  0.00000000000E+00  0.00000000000E+00  0.14673242429E+03  0.17632324133E+04  0.17571164273E+04 0.  0.
        3    1    3    3  502    0 -0.38392604393E+03  0.54453003652E+03  0.64803075260E+03  0.92943855870E+03  0.10100000352E+00 0.  1.
       -3    1    3    3    0  502  0.38392604393E+03 -0.54453003652E+03 -0.50129832831E+03  0.83379385465E+03  0.10100000352E+00 0. -1.
</event>
<event>
 5   0  0.8237664E-06  0.3163062E+04  0.7818609E-02  0.8198641E-01
        2   -1    0    0  501    0  0.00000000000E+00  0.00000000000E+00  0.10562388555E+04  0.10562388555E+04  0.25500000920E-02 0.  1.
       -2   -1    0    0    0  501  0.00000000000E+00  0.00000000000E+00 -0.23680636113E+04  0.23680636113E+04  0.25500000920E-02 0. -1.
    10030    2    1    2    0    0  0.00000000000E+00  0.00000000000E+00 -0.13118247558E+04  0.34243024667E+04  0.31630623126E+04 0.  0.
        5    1    3    3  502    0 -0.59329896534E+03  0.36920419966E+03 -0.21918579544E+04  0.23005605373E+04  0.46999998093E+01 0. -1.
       -5    1    3    3    0  502  0.59329896534E+03 -0.36920419966E+03  0.88003319862E+03  0.11237419294E+04  0.46999998093E+01 0.  1.
</event>
<event>
 5   0  0.2788054E-06  0.2645448E+04  0.7818609E-02  0.8352925E-01
        1   -1    0    0  501    0  0.00000000000E+00  0.00000000000E+00  0.13608184987E+04  0.13608184987E+04  0.50400001928E-02 0. -1.
       -1   -1    0    0    0  501  0.00000000000E+00  0.00000000000E+00 -0.12856958673E+04  0.12856958673E+04  0.50400001928E-02 0.  1.
    10030    2    1    2    0    0  0.00000000000E+00  0.00000000000E+00  0.75122631415E+02  0.26465143660E+04  0.26454479544E+04 0.  0.
        3    1    3    3  502    0  0.87546726180E+03 -0.92001652609E+03  0.40747431688E+03  0.13337573482E+04  0.10100000352E+00 0.  1.
       -3    1    3    3    0  502 -0.87546726180E+03  0.92001652609E+03 -0.33235168547E+03  0.13127570178E+04  0.10100000352E+00 0. -1.
</event>
<event>
 5   0  0.3938696E-06  0.2425168E+04  0.7818609E-02  0.8430141E-01
       -1   -1    0    0    0  501  0.00000000000E+00  0.00000000000E+00  0.63866917584E+03  0.63866917586E+03  0.50400001928E-02 0.  1.
        1   -1    0    0  501    0  0.00000000000E+00  0.00000000000E+00 -0.23022248821E+04  0.23022248821E+04  0.50400001928E-02 0. -1.
    10030    2    1    2    0    0  0.00000000000E+00  0.00000000000E+00 -0.16635557063E+04  0.29408940580E+04  0.24251680916E+04 0.  0.
        4    1    3    3  502    0 -0.77660080653E+03  0.93186324231E+02 -0.19554105416E+04  0.21060447533E+04  0.12699999809E+01 0. -1.
       -4    1    3    3    0  502  0.77660080653E+03 -0.93186324231E+02  0.29185483534E+03  0.83484930469E+03  0.12699999809E+01 0.  1.
</event>
<event>
 5   0  0.7941434E-06  0.1984868E+04  0.7818609E-02  0.8613728E-01
       -2   -1    0    0    0  501  0.00000000000E+00  0.00000000000E+00  0.75370516818E+03  0.75370516819E+03  0.25500000920E-02 0. -1.
        2   -1    0    0  501    0  0.00000000000E+00  0.00000000000E+00 -0.13067776183E+04  0.13067776183E+04  0.25500000920E-02 0.  1.
    10030    2    1    2    0    0  0.00000000000E+00  0.00000000000E+00 -0.55307245013E+03  0.20604827865E+04  0.19848677987E+04 0.  0.
        4    1    3    3  502    0 -0.10353486426E+03 -0.96995036533E+03 -0.46625585937E+03  0.10811657221E+04  0.12699999809E+01 0. -1.
       -4    1    3    3    0  502  0.10353486426E+03  0.96995036533E+03 -0.86816590757E+02  0.97931706441E+03  0.12699999809E+01 0.  1.
</event>
<event>
 5   0  0.2788054E-06  0.1931948E+04  0.7818609E-02  0.8639115E-01
        1   -1    0    0  501    0  0.00000000000E+00  0.00000000000E+00  0.96046708767E+03  0.96046708768E+03  0.50400001928E-02 0.  1.
       -1   -1    0    0    0  501  0.00000000000E+00  0.00000000000E+00 -0.97151211238E+03  0.97151211239E+03  0.50400001928E-02 0. -1.
    10030    2    1    2    0    0  0.00000000000E+00  0.00000000000E+00 -0.11045024710E+02  0.19319792001E+04  0.19319476279E+04 0.  0.
        3    1    3    3  502    0 -0.79694225020E+03 -0.24083050930E+03 -0.49541735679E+03  0.96879030341E+03  0.10100000352E+00 0. -1.
       -3    1    3    3    0  502  0.79694225020E+03  0.24083050930E+03  0.48437233208E+03  0.96318889666E+03  0.10100000352E+00 0.  1.
</event>
<event>
 5   0  0.8237664E-06  0.3132963E+04  0.7818609E-02  0.8206749E-01
       -2   -1    0    0    0  501  0.00000000000E+00  0.00000000000E+00  0.18355716581E+04  0.18355716581E+04  0.25500000920E-02 0. -1.
        2   -1    0    0  501    0  0.00000000000E+00  0.00000000000E+00 -0.13368395528E+04  0.13368395528E+04  0.25500000920E-02 0.  1.
    10030    2    1    2    0    0  0.00000000000E+00  0.00000000000E+00  0.49873210537E+03  0.31724112109E+04  0.31329633222E+04 0.  0.
        5    1    3    3  502    0  0.24318081780E+03 -0.63691305160E+03  0.16774599033E+04  0.18107150418E+04  0.46999998093E+01 0. -1.
       -5    1    3    3    0  502 -0.24318081780E+03  0.63691305160E+03 -0.11787277979E+04  0.13616961691E+04  0.46999998093E+01 0.  1.
</event>
<event>
 5   0  0.7952307E-06  0.2358099E+04  0.7818609E-02  0.8455359E-01
       -2   -1    0    0    0  501  0.00000000000E+00  0.00000000000E+00  0.48736190256E+03  0.48736190257E+03  0.25500000920E-02 0. -1.
        2   -1    0    0  501    0  0.00000000000E+00  0.00000000000E+00 -0.28524126722E+04  0.28524126722E+04  0.25500000920E-02 0.  1.
    10030    2    1    2    0    0  0.00000000000E+00  0.00000000000E+00 -0.23650507696E+04  0.33397745748E+04  0.23580986127E+04 0.  0.
        2    1    3    3  502    0  0.50753382057E+02 -0.11576223766E+04 -0.87387666490E+03  0.14513186756E+04  0.25500000920E-02 0. -1.
       -2    1    3    3    0  502 -0.50753382057E+02  0.11576223766E+04 -0.14911741047E+04  0.18884558992E+04  0.25500000920E-02 0.  1.
</event>
<event>
 5   0  0.8237664E-06  0.2750256E+04  0.7818609E-02  0.8318880E-01
       -2   -1    0    0    0  501  0.00000000000E+00  0.00000000000E+00  0.84288371796E+03  0.84288371796E+03  0.25500000920E-02 0. -1.
        2   -1    0    0  501    0  0.00000000000E+00  0.00000000000E+00 -0.22434619353E+04  0.22434619353E+04  0.25500000920E-02 0.  1.
    10030    2    1    2    0    0  0.00000000000E+00  0.00000000000E+00 -0.14005782173E+04  0.30863456533E+04  0.27502563787E+04 0.  0.
        5    1    3    3  502    0 -0.83768255773E+03 -0.11320683869E+03  0.51688858060E+03  0.99081973668E+03  0.46999998093E+01 0. -1.
       -5    1    3    3    0  502  0.83768255773E+03  0.11320683869E+03 -0.19174667979E+04  0.20955259166E+04  0.46999998093E+01 0.  1.
</event>
<event>
 5   0  0.4142886E-06  0.3191058E+04  0.7818609E-02  0.8191183E-01
        1   -1    0    0  501    0  0.00000000000E+00  0.00000000000E+00  0.99853163750E+03  0.99853163751E+03  0.50400001928E-02 0. -1.
       -1   -1    0    0    0  501  0.00000000000E+00  0.00000000000E+00 -0.25494568537E+04  0.25494568537E+04  0.50400001928E-02 0.  1.
    10030    2    1    2    0    0  0.00000000000E+00  0.00000000000E+00 -0.15509252162E+04  0.35479884912E+04  0.31910583366E+04 0.  0.
        5    1    3    3  502    0  0.81423040492E+03 -0.12087149881E+04 -0.14975067691E+04  0.20896199866E+04  0.46999998093E+01 0.  1.
       -5    1    3    3    0  502 -0.81423040492E+03  0.12087149881E+04 -0.53418447126E+02  0.14583685046E+04  0.46999998093E+01 0. -1.
</event>
<event>
 5   0  0.3938696E-06  0.2932607E+04  0.7818609E-02  0.8263241E-01
        1   -1    0    0  501    0  0.00000000000E+00  0.00000000000E+00  0.19994586701E+04  0.19994586701E+04  0.50400001928E-02 0. -1.
       -1   -1    0    0    0  501  0.00000000000E+00  0.00000000000E+00 -0.10753142604E+04  0.10753142604E+04  0.50400001928E-02 0.  1.
    10030    2    1    2    0    0  0.00000000000E+00  0.00000000000E+00  0.92414440974E+03  0.30747729305E+04  0.29326073184E+04 0.  0.
        4    1    3    3  502    0  0.47773063636E+03 -0.84346207415E+03 -0.69143893833E+03  0.11906906608E+04  0.12699999809E+01 0.  1.
       -4    1    3    3    0  502 -0.47773063636E+03  0.84346207415E+03  0.16155833481E+04  0.18840822697E+04  0.12699999809E+01 0. -1.
</event>
<event>
 5   0  0.7510251E-06  0.3445047E+04  0.7818609E-02  0.8126938E-01
        2   -1    0    0  501    0  0.00000000000E+00  0.00000000000E+00  0.14833619066E+04  0.14833619066E+04  0.25500000920E-02 0. -1.
       -2   -1    0    0    0  501  0.00000000000E+00  0.00000000000E+00 -0.20002454606E+04  0.20002454606E+04  0.25500000920E-02 0.  1.
    10030    2    1    2    0    0  0.00000000000E+00  0.00000000000E+00 -0.51688355396E+03  0.34836073672E+04  0.34450474133E+04 0.  0.
        3    1    3    3  502    0  0.20813769839E+03  0.66037864860E+03  0.13364458501E+04  0.15051607161E+04  0.10100000352E+00 0. -1.
       -3    1    3    3    0  502 -0.20813769839E+03 -0.66037864860E+03 -0.18533294040E+04  0.19784466510E+04  0.10100000352E+00 0.  1.
</event>
<event>
 5   0  0.2933646E-06  0.3188445E+04  0.7818609E-02  0.8191875E-01
       -1   -1    0    0    0  501  0.00000000000E+00  0.00000000000E+00  0.11315461480E+04  0.11315461480E+04  0.50400001928E-02 0.  1.
        1   -1    0    0  501    0  0.00000000000E+00  0.00000000000E+00 -0.22460821682E+04  0.22460821682E+04  0.50400001928E-02 0. -1.
    10030    2    1    2    0    0  0.00000000000E+00  0.00000000000E+00 -0.11145360202E+04  0.33776283162E+04  0.31884451543E+04 0.  0.
        2    1    3    3  502    0  0.52402997265E+03 -0.96611247624E+03  0.66605172907E+03  0.12851480984E+04  0.25500000920E-02 0.  1.
       -2    1    3    3    0  502 -0.52402997265E+03  0.96611247624E+03 -0.17805877493E+04  0.20924802178E+04  0.25500000920E-02 0. -1.
</event>
<event>
 5   0  0.7941434E-06  0.3217197E+04  0.7818609E-02  0.8184290E-01
       -2   -1    0    0    0  501  0.00000000000E+00  0.00000000000E+00  0.21468625172E+04  0.21468625172E+04  0.25500000920E-02 0.  1.
        2   -1    0    0  501    0  0.00000000000E+00  0.00000000000E+00 -0.12052889253E+04  0.12052889253E+04  0.25500000920E-02 0. -1.
    10030    2    1    2    0    0  0.00000000000E+00  0.00000000000E+00  0.94157359191E+03  0.33521514425E+04  0.32171972996E+04 0.  0.
        4    1    3    3  502    0 -0.71259666439E+03 -0.10080659622E+04  0.15453562470E+04  0.19779076150E+04  0.12699999809E+01 0.  1.
       -4    1    3    3    0  502  0.71259666439E+03  0.10080659622E+04 -0.60378265511E+03  0.13742438276E+04  0.12699999809E+01 0. -1.
</event>
<event>
 5   0  0.3938696E-06  0.2960859E+04  0.7818609E-02  0.8254997E-01
        1   -1    0    0  501    0  0.00000000000E+00  0.00000000000E+00  0.15724596449E+04  0.15724596449E+04  0.50400001928E-02 0. -1.
       -1   -1    0    0    0  501  0.00000000000E+00  0.00000000000E+00 -0.13937854286E+04  0.13937854286E+04  0.50400001928E-02 0.  1.
    10030    2    1    2    0    0  0.00000000000E+00  0.00000000000E+00  0.17867421626E+03  0.29662450735E+04  0.29608588890E+04 0.  0.
        4    1    3    3  502    0 -0.51601665444E+03  0.13286837202E+04 -0.31138567363E+03  0.14589846698E+04  0.12699999809E+01 0.  1.
       -4    1    3    3    0  502  0.51601665444E+03 -0.13286837202E+04  0.49005988989E+03  0.15072604037E+04  0.12699999809E+01 0. -1.
</event>
<event>
 5   0  0.2635798E-06  0.3227175E+04  0.7818609E-02  0.8181677E-01
       -1   -1    0    0    0  501  0.00000000000E+00  0.00000000000E+00  0.15246088556E+04  0.15246088556E+04  0.50400001928E-02 0.  1.
        1   -1    0    0  501    0  0.00000000000E+00  0.00000000000E+00 -0.17077589499E+04  0.17077589499E+04  0.50400001928E-02 0. -1.
    10030    2    1    2    0    0  0.00000000000E+00  0.00000000000E+00 -0.18315009432E+03  0.32323678055E+04  0.32271748749E+04 0.  0.
        1    1    3    3  502    0 -0.84230150436E+02  0.41028840604E+03 -0.16523614120E+04  0.17046200546E+04  0.50400001928E-02 0. -1.
       -1    1    3    3    0  502  0.84230150436E+02 -0.41028840604E+03  0.14692113177E+04  0.15277477510E+04  0.50400001928E-02 0.  1.
</event>
<event>
 5   0  0.4142886E-06  0.3083402E+04  0.7818609E-02  0.8220308E-01
       -1   -1    0    0    0  501  0.00000000000E+00  0.00000000000E+00  0.88122795385E+03  0.88122795387E+03  0.50400001928E-02 0. -1.
        1   -1    0    0  501    0  0.00000000000E+00  0.00000000000E+00 -0.26971933212E+04  0.26971933212E+04  0.50400001928E-02 0.  1.
    10030    2    1    2    0    0  0.00000000000E+00  0.00000000000E+00 -0.18159653673E+04  0.35784212750E+04  0.30834021156E+04 0.  0.
        5    1    3    3  502    0 -0.44993018121E+03  0.14313144392E+04 -0.49648564232E+03  0.15803854830E+04  0.46999998093E+01 0. -1.
       -5    1    3    3    0  502  0.44993018121E+03 -0.14313144392E+04 -0.13194797250E+04  0.19980357921E+04  0.46999998093E+01 0.  1.
</event>
<event>
 5   0  0.2788054E-06  0.3100256E+04  0.7818609E-02  0.8215668E-01
        1   -1    0    0  501    0  0.00000000000E+00  0.00000000000E+00  0.16922865601E+04  0.16922865601E+04  0.50400001928E-02 0. -1.
       -1   -1    0    0    0  501  0.00000000000E+00  0.00000000000E+00 -0.14199112811E+04  0.14199112812E+04  0.50400001928E-02 0.  1.
    10030    2    1    2    0    0  0.00000000000E+00  0.00000000000E+00  0.27237527899E+03  0.31121978413E+04  0.31002559750E+04 0.  0.
        3    1    3    3  502    0 -0.52376174604E+03  0.14368323040E+04 -0.11793431252E+03  0.15338585166E+04  0.10100000352E+00 0.  1.
       -3    1    3    3    0  502  0.52376174604E+03 -0.14368323040E+04  0.39030959152E+03  0.15783393247E+04  0.10100000352E+00 0. -1.
</event>
<event>
 5   0  0.7952307E-06  0.3120180E+04  0.7818609E-02  0.8210221E-01
        2   -1    0    0  501    0  0.00000000000E+00  0.00000000000E+00  0.21122357472E+04  0.21122357472E+04  0.25500000920E-02 0. -1.
       -2   -1    0    0    0  501  0.00000000000E+00  0.00000000000E+00 -0.11522772673E+04  0.11522772673E+04  0.25500000920E-02 0.  1.
    10030    2    1    2    0    0  0.00000000000E+00  0.00000000000E+00  0.95995847991E+03  0.32645130145E+04  0.31201802735E+04 0.  0.
        2    1    3    3  502    0 -0.12770370847E+04  0.68314783193E+02 -0.45488043640E+03  0.13573528785E+04  0.25500000920E-02 0.  1.
       -2    1    3    3    0  502  0.12770370847E+04 -0.68314783193E+02  0.14148389163E+04  0.19071601360E+04  0.25500000920E-02 0. -1.
</event>
<event>
 5   0  0.3938696E-06  0.3094439E+04  0.7818609E-02  0.8217266E-01
       -1   -1    0    0    0  501  0.00000000000E+00  0.00000000000E+00  0.17076595549E+04  0.17076595549E+04  0.50400001928E-02 0. -1.
        1   -1    0    0  501    0  0.00000000000E+00  0.00000000000E+00 -0.14018529691E+04  0.14018529691E+04  0.50400001928E-02 0.  1.
    10030    2    1    2    0    0  0.00000000000E+00  0.00000000000E+00  0.30580658582E+03  0.31095125239E+04  0.30944386355E+04 0.  0.
        4    1    3    3  502    0 -0.89051593588E+03  0.39212935654E+03 -0.10559121467E+04  0.14358746946E+04  0.12699999809E+01 0.  1.
       -4    1    3    3    0  502  0.89051593588E+03 -0.39212935654E+03  0.13617187325E+04  0.16736378293E+04  0.12699999809E+01 0. -1.
</event>
<event>
 5   0  0.8237664E-06  0.3216789E+04  0.7818609E-02  0.8184397E-01
       -2   -1    0    0    0  501  0.00000000000E+00  0.00000000000E+00  0.16078764167E+04  0.16078764167E+04  0.25500000920E-02 0. -1.
        2   -1    0    0  501    0  0.00000000000E+00  0.00000000000E+00 -0.16089127049E+04  0.16089127049E+04  0.25500000920E-02 0.  1.
    10030    2    1    2    0    0  0.00000000000E+00  0.00000000000E+00 -0.10362882013E+01  0.32167891216E+04  0.32167889547E+04 0.  0.
        5    1    3    3  502    0  0.59429731768E+03 -0.14484043870E+04  0.36805498133E+03  0.16082758250E+04  0.46999998093E+01 0. -1.
       -5    1    3    3    0  502 -0.59429731768E+03  0.14484043870E+04 -0.36909126953E+03  0.16085132966E+04  0.46999998093E+01 0.  1.
</event>
<event>
 5   0  0.7941434E-06  0.1719320E+04  0.7818609E-02  0.8750422E-01
        2   -1    0    0  501    0  0.00000000000E+00  0.00000000000E+00  0.10562973372E+04  0.10562973372E+04  0.25500000920E-02 0. -1.
       -2   -1    0    0    0  501  0.00000000000E+00  0.00000000000E+00 -0.69962777471E+03  0.69962777472E+03  0.25500000920E-02 0.  1.
    10030    2    1    2    0    0  0.00000000000E+00  0.00000000000E+00  0.35666956246E+03  0.17559251119E+04  0.17193195811E+04 0.  0.
        4    1    3    3  502    0 -0.68147186504E+03 -0.51769788294E+03  0.95375155940E+02  0.86111151085E+03  0.12699999809E+01 0. -1.
       -4    1    3    3    0  502  0.68147186504E+03  0.51769788294E+03  0.26129440652E+03  0.89481360105E+03  0.12699999809E+01 0.  1.
</event>
<event>
 5   0  0.2788054E-06  0.3163453E+04  0.7818609E-02  0.8198536E-01
       -1   -1    0    0    0  501  0.00000000000E+00  0.00000000000E+00  0.94013797068E+03  0.94013797070E+03  0.50400001928E-02 0.  1.
        1   -1    0    0  501    0  0.00000000000E+00  0.00000000000E+00 -0.26611606082E+04  0.26611606083E+04  0.50400001928E-02 0. -1.
    10030    2    1    2    0    0  0.00000000000E+00  0.00000000000E+00 -0.17210226376E+04  0.36012985789E+04  0.31634526290E+04 0.  0.
        3    1    3    3  502    0  0.12291806064E+03 -0.11052782885E+04 -0.21409588807E+04  0.24125616849E+04  0.10100000352E+00 0. -1.
       -3    1    3    3    0  502 -0.12291806064E+03  0.11052782885E+04  0.41993624310E+03  0.11887368940E+04  0.10100000352E+00 0.  1.
</event>
<event>
 5   0  0.8237664E-06  0.3138372E+04  0.7818609E-02  0.8205285E-01
       -2   -1    0    0    0  501  0.00000000000E+00  0.00000000000E+00  0.10829955039E+04  0.10829955039E+04  0.25500000920E-02 0.  1.
        2   -1    0    0  501    0  0.00000000000E+00  0.00000000000E+00 -0.22736430344E+04  0.22736430344E+04  0.25500000920E-02 0. -1.
    10030    2    1    2    0    0  0.00000000000E+00  0.00000000000E+00 -0.11906475304E+04  0.33566385383E+04  0.31383723066E+04 0.  0.
        5    1    3    3  502    0 -0.14639353161E+04 -0.49955576162E+03 -0.31303507096E+03  0.15781874459E+04  0.46999998093E+01 0.  1.
       -5    1    3    3    0  502  0.14639353161E+04  0.49955576162E+03 -0.87761245949E+03  0.17784510923E+04  0.46999998093E+01 0. -1.
</event>
<event>
 5   0  0.7971763E-06  0.3021106E+04  0.7818609E-02  0.8237730E-01
       -2   -1    0    0    0  501  0.00000000000E+00  0.00000000000E+00  0.11717187239E+04  0.11717187239E+04  0.25500000920E-02 0. -1.
        2   -1    0    0  501    0  0.00000000000E+00  0.00000000000E+00 -0.19473699913E+04  0.19473699913E+04  0.25500000920E-02 0.  1.
    10030    2    1    2    0    0  0.00000000000E+00  0.00000000000E+00 -0.77565126748E+03  0.31190887152E+04  0.30211056792E+04 0.  0.
        1    1    3    3  502    0 -0.56690237485E+03 -0.50966547513E+03 -0.17342038321E+04  0.18943600847E+04  0.50400001928E-02 0.  1.
       -1    1    3    3    0  502  0.56690237485E+03  0.50966547513E+03  0.95855256465E+03  0.12247286305E+04  0.50400001928E-02 0. -1.
</event>
<event>
 5   0  0.7510251E-06  0.3237608E+04  0.7818609E-02  0.8178955E-01
        2   -1    0    0  501    0  0.00000000000E+00  0.00000000000E+00  0.10389131478E+04  0.10389131478E+04  0.25500000920E-02 0. -1.
       -2   -1    0    0    0  501  0.00000000000E+00  0.00000000000E+00 -0.25223734877E+04  0.25223734877E+04  0.25500000920E-02 0.  1.
    10030    2    1    2    0    0  0.00000000000E+00  0.00000000000E+00 -0.14834603399E+04  0.35612866355E+04  0.32376083643E+04 0.  0.
        3    1    3    3  502    0 -0.16230068827E+03 -0.15804715212E+04 -0.40039188836E+03  0.16384582439E+04  0.10100000352E+00 0. -1.
       -3    1    3    3    0  502  0.16230068827E+03  0.15804715212E+04 -0.10830684515E+04  0.19228283916E+04  0.10100000352E+00 0.  1.
</event>
<event>
 5   0  0.2635798E-06  0.1586192E+04  0.7818609E-02  0.8829076E-01
        1   -1    0    0  501    0  0.00000000000E+00  0.00000000000E+00  0.59249769009E+03  0.59249769011E+03  0.50400001928E-02 0. -1.
       -1   -1    0    0    0  501  0.00000000000E+00  0.00000000000E+00 -0.10616090380E+04  0.10616090380E+04  0.50400001928E-02 0.  1.
    10030    2    1    2    0    0  0.00000000000E+00  0.00000000000E+00 -0.46911134792E+03  0.16541067281E+04  0.15861915431E+04 0.  0.
        1    1    3    3  502    0  0.94854176449E+02  0.33883407935E+03 -0.97575914322E+03  0.10372616612E+04  0.50400001928E-02 0.  1.
       -1    1    3    3    0  502 -0.94854176449E+02 -0.33883407935E+03  0.50664779531E+03  0.61684506696E+03  0.50400001928E-02 0. -1.
</event>
<event>
 5   0  0.2933646E-06  0.3224546E+04  0.7818609E-02  0.8182365E-01
       -1   -1    0    0    0  501  0.00000000000E+00  0.00000000000E+00  0.10823080868E+04  0.10823080868E+04  0.50400001928E-02 0.  1.
        1   -1    0    0  501    0  0.00000000000E+00  0.00000000000E+00 -0.24017412862E+04  0.24017412862E+04  0.50400001928E-02 0. -1.
    10030    2    1    2    0    0  0.00000000000E+00  0.00000000000E+00 -0.13194331994E+04  0.34840493730E+04  0.32245458696E+04 0.  0.
        2    1    3    3  502    0 -0.48320057224E+03  0.98811974875E+02 -0.23182328692E+04  0.23701160806E+04  0.25500000920E-02 0. -1.
       -2    1    3    3    0  502  0.48320057224E+03 -0.98811974875E+02  0.99879966982E+03  0.11139332924E+04  0.25500000920E-02 0.  1.
</event>
<event>
 5   0  0.7971763E-06  0.2167037E+04  0.7818609E-02  0.8532275E-01
        2   -1    0    0  501    0  0.00000000000E+00  0.00000000000E+00  0.23835441655E+04  0.23835441655E+04  0.25500000920E-02 0.  1.
       -2   -1    0    0    0  501  0.00000000000E+00  0.00000000000E+00 -0.49254907233E+03  0.49254907234E+03  0.25500000920E-02 0. -1.
    10030    2    1    2    0    0  0.00000000000E+00  0.00000000000E+00  0.18909950932E+04  0.28760932379E+04  0.21670371179E+04 0.  0.
        1    1    3    3  502    0 -0.31661899035E+03 -0.54118280298E+03 -0.22731997298E+03  0.66693386586E+03  0.50400001928E-02 0. -1.
       -1    1    3    3    0  502  0.31661899035E+03  0.54118280298E+03  0.21183150662E+04  0.22091593720E+04  0.50400001928E-02 0.  1.
</event>
<event>
 5   0  0.7510251E-06  0.3318982E+04  0.7818609E-02  0.8158082E-01
        2   -1    0    0  501    0  0.00000000000E+00  0.00000000000E+00  0.28424669262E+04  0.28424669262E+04  0.25500000920E-02 0. -1.
       -2   -1    0    0    0  501  0.00000000000E+00  0.00000000000E+00 -0.96884491707E+03  0.96884491708E+03  0.25500000920E-02 0.  1.
    10030    2    1    2    0    0  0.00000000000E+00  0.00000000000E+00  0.18736220091E+04  0.38113118432E+04  0.33189815506E+04 0.  0.
        3    1    3    3  502    0 -0.18220390684E+03  0.12107864009E+04 -0.34948499575E+03  0.12733191842E+04  0.10100000352E+00 0.  1.
       -3    1    3    3    0  502  0.18220390684E+03 -0.12107864009E+04  0.22231070048E+04  0.25379926591E+04  0.10100000352E+00 0. -1.
</event>
<event>
 5   0  0.7510251E-06  0.3143509E+04  0.7818609E-02  0.8203898E-01
        2   -1    0    0  501    0  0.00000000000E+00  0.00000000000E+00  0.18300750276E+04  0.18300750276E+04  0.25500000920E-02 0. -1.
       -2   -1    0    0    0  501  0.00000000000E+00  0.00000000000E+00 -0.13498964017E+04  0.13498964017E+04  0.25500000920E-02 0.  1.
    10030    2    1    2    0    0  0.00000000000E+00  0.00000000000E+00  0.48017862594E+03  0.31799714292E+04  0.31435086731E+04 0.  0.
        3    1    3    3  502    0 -0.57892561941E+03 -0.79748826252E+03  0.14787386561E+04  0.17770229107E+04  0.10100000352E+00 0. -1.
       -3    1    3    3    0  502  0.57892561941E+03  0.79748826252E+03 -0.99856003020E+03  0.14029485186E+04  0.10100000352E+00 0.  1.
</event>
<event>
 5   0  0.3938696E-06  0.3277379E+04  0.7818609E-02  0.8168675E-01
       -1   -1    0    0    0  501  0.00000000000E+00  0.00000000000E+00  0.23879059675E+04  0.23879059676E+04  0.50400001928E-02 0. -1.
        1   -1    0    0  501    0  0.00000000000E+00  0.00000000000E+00 -0.11245431495E+04  0.11245431495E+04  0.50400001928E-02 0.  1.
    10030    2    1    2    0    0  0.00000000000E+00  0.00000000000E+00  0.12633628180E+04  0.35124491171E+04  0.32773790123E+04 0.  0.
        4    1    3    3  502    0  0.95145888502E+03  0.89148521849E+03 -0.43212744160E+03  0.13735922406E+04  0.12699999809E+01 0.  1.
       -4    1    3    3    0  502 -0.95145888502E+03 -0.89148521849E+03  0.16954902596E+04  0.21388568765E+04  0.12699999809E+01 0. -1.
</event>
<event>
 5   0  0.3938696E-06  0.3155428E+04  0.7818609E-02  0.8200689E-01
        1   -1    0    0  501    0  0.00000000000E+00  0.00000000000E+00  0.33148917417E+04  0.33148917418E+04  0.50400001928E-02 0. -1.
       -1   -1    0    0    0  501  0.00000000000E+00  0.00000000000E+00 -0.75090896728E+03  0.75090896730E+03  0.50400001928E-02 0.  1.
    10030    2    1    2    0    0  0.00000000000E+00  0.00000000000E+00  0.25639827745E+04  0.40658007090E+04  0.31554282971E+04 0.  0.
        4    1    3    3  502    0 -0.10891327622E+04 -0.18466837121E+03 -0.16943812512E+03  0.11175971869E+04  0.12699999809E+01 0.  1.
       -4    1    3    3    0  502  0.10891327622E+04  0.18466837121E+03  0.27334208996E+04  0.29482035222E+04  0.12699999809E+01 0. -1.
</event>
<event>
 5   0  0.7510251E-06  0.3218184E+04  0.7818609E-02  0.8184031E-01
       -2   -1    0    0    0  501  0.00000000000E+00  0.00000000000E+00  0.11483902076E+04  0.11483902076E+04  0.25500000920E-02 0. -1.
        2   -1    0    0  501    0  0.00000000000E+00  0.00000000000E+00 -0.22546142455E+04  0.22546142455E+04  0.25500000920E-02 0.  1.
    10030    2    1    2    0    0  0.00000000000E+00  0.00000000000E+00 -0.11062240380E+04  0.34030044531E+04  0.32181839111E+04 0.  0.
        3    1    3    3  502    0 -0.21575979688E+03 -0.15608662549E+04 -0.89790745005E+03  0.18135858278E+04  0.10100000352E+00 0.  1.
       -3    1    3    3    0  502  0.21575979688E+03  0.15608662549E+04 -0.20831658795E+03  0.15894186253E+04  0.10100000352E+00 0. -1.
</event>
<event>
 5   0  0.4142886E-06  0.2211802E+04  0.7818609E-02  0.8513532E-01
        1   -1    0    0  501    0  0.00000000000E+00  0.00000000000E+00  0.11043293506E+04  0.11043293506E+04  0.50400001928E-02 0. -1.
       -1   -1    0    0    0  501  0.00000000000E+00  0.00000000000E+00 -0.11074747544E+04  0.11074747544E+04  0.50400001928E-02 0.  1.
    10030    2    1    2    0    0  0.00000000000E+00  0.00000000000E+00 -0.31454037585E+01  0.22118041050E+04  0.22118018685E+04 0.  0.
        5    1    3    3  502    0  0.36943190347E+03  0.68034528464E+03 -0.79128556738E+03  0.11070251021E+04  0.46999998093E+01 0.  1.
       -5    1    3    3    0  502 -0.36943190347E+03 -0.68034528464E+03  0.78814016362E+03  0.11047790029E+04  0.46999998093E+01 0. -1.
</event>
<event>
 5   0  0.2635798E-06  0.1646436E+04  0.7818609E-02  0.8792518E-01
       -1   -1    0    0    0  501  0.00000000000E+00  0.00000000000E+00  0.53096081850E+03  0.53096081852E+03  0.50400001928E-02 0. -1.
        1   -1    0    0  501    0  0.00000000000E+00  0.00000000000E+00 -0.12763422803E+04  0.12763422803E+04  0.50400001928E-02 0.  1.
    10030    2    1    2    0    0  0.00000000000E+00  0.00000000000E+00 -0.74538146180E+03  0.18073030988E+04  0.16464358376E+04 0.  0.
        1    1    3    3  502    0  0.12282511187E+03  0.80268376683E+03 -0.22419372059E+03  0.84240730174E+03  0.50400001928E-02 0.  1.
       -1    1    3    3    0  502 -0.12282511187E+03 -0.80268376683E+03 -0.52118774120E+03  0.96489579709E+03  0.50400001928E-02 0. -1.
</event>
<event>
 5   0  0.3938696E-06  0.3077518E+04  0.7818609E-02  0.8221935E-01
       -1   -1    0    0    0  501  0.00000000000E+00  0.00000000000E+00  0.10295830343E+04  0.10295830343E+04  0.50400001928E-02 0. -1.
        1   -1    0    0  501    0  0.00000000000E+00  0.00000000000E+00 -0.22997457386E+04  0.22997457386E+04  0.50400001928E-02 0.  1.
    10030    2    1    2    0    0  0.00000000000E+00  0.00000000000E+00 -0.12701627043E+04  0.33293287729E+04  0.30775179582E+04 0.  0.
        4    1    3    3  502    0  0.17605782082E+03  0.15282680952E+04 -0.67220940290E+03  0.16788290030E+04  0.12699999809E+01 0.  1.
       -4    1    3    3    0  502 -0.17605782082E+03 -0.15282680952E+04 -0.59795330141E+03  0.16504997699E+04  0.12699999809E+01 0. -1.
</event>
<event>
 5   0  0.7952307E-06  0.3104622E+04  0.7818609E-02  0.8214471E-01
       -2   -1    0    0    0  501  0.00000000000E+00  0.00000000000E+00  0.21375463540E+04  0.21375463540E+04  0.25500000920E-02 0. -1.
        2   -1    0    0  501    0  0.00000000000E+00  0.00000000000E+00 -0.11273064223E+04  0.11273064223E+04  0.25500000920E-02 0.  1.
    10030    2    1    2    0    0  0.00000000000E+00  0.00000000000E+00  0.10102399318E+04  0.32648527763E+04  0.31046221881E+04 0.  0.
        2    1    3    3  502    0  0.74072250145E+03  0.12486176945E+04  0.10829832045E+04  0.18112339972E+04  0.25500000920E-02 0. -1.
       -2    1    3    3    0  502 -0.74072250145E+03 -0.12486176945E+04 -0.72743272750E+02  0.14536187791E+04  0.25500000920E-02 0.  1.
</event>
<event>
 5   0  0.7952307E-06  0.3218652E+04  0.7818609E-02  0.8183909E-01
        2   -1    0    0  501    0  0.00000000000E+00  0.00000000000E+00  0.87603322426E+03  0.87603322427E+03  0.25500000920E-02 0. -1.
       -2   -1    0    0    0  501  0.00000000000E+00  0.00000000000E+00 -0.29564292374E+04  0.29564292374E+04  0.25500000920E-02 0.  1.
    10030    2    1    2    0    0  0.00000000000E+00  0.00000000000E+00 -0.20803960131E+04  0.38324624616E+04  0.32186520391E+04 0.  0.
        2    1    3    3  502    0  0.61406227119E+03  0.12629688870E+04 -0.10432621245E+03  0.14082069596E+04  0.25500000920E-02 0. -1.
       -2    1    3    3    0  502 -0.61406227119E+03 -0.12629688870E+04 -0.19760698007E+04  0.24242555021E+04  0.25500000920E-02 0.  1.
</event>
<event>
 5   0  0.7952307E-06  0.3165581E+04  0.7818609E-02  0.8197967E-01
        2   -1    0    0  501    0  0.00000000000E+00  0.00000000000E+00  0.18560044349E+04  0.18560044349E+04  0.25500000920E-02 0.  1.
       -2   -1    0    0    0  501  0.00000000000E+00  0.00000000000E+00 -0.13497949583E+04  0.13497949583E+04  0.25500000920E-02 0. -1.
    10030    2    1    2    0    0  0.00000000000E+00  0.00000000000E+00  0.50620947659E+03  0.32057993932E+04  0.31655807864E+04 0.  0.
        2    1    3    3  502    0  0.12504722328E+04  0.31059336518E+03  0.11840645299E+04  0.17499022414E+04  0.25500000920E-02 0.  1.
       -2    1    3    3    0  502 -0.12504722328E+04 -0.31059336518E+03 -0.67785505332E+03  0.14558971518E+04  0.25500000920E-02 0. -1.
</event>
<event>
 5   0  0.2933646E-06  0.3210194E+04  0.7818609E-02  0.8186130E-01
        1   -1    0    0  501    0  0.00000000000E+00  0.00000000000E+00  0.28984242736E+04  0.28984242736E+04  0.50400001928E-02 0.  1.
       -1   -1    0    0    0  501  0.00000000000E+00  0.00000000000E+00 -0.88887478310E+03  0.88887478311E+03  0.50400001928E-02 0. -1.
    10030    2    1    2    0    0  0.00000000000E+00  0.00000000000E+00  0.20095494905E+04  0.37872990568E+04  0.32101939179E+04 0.  0.
        2    1    3    3  502    0 -0.77948381217E+02  0.96396932632E+03 -0.50654279834E+03  0.10917410035E+04  0.25500000920E-02 0. -1.
       -2    1    3    3    0  502  0.77948381217E+02 -0.96396932632E+03  0.25160922889E+04  0.26955580532E+04  0.25500000920E-02 0.  1.
</event>
<event>
 5   0  0.3938696E-06  0.1882643E+04  0.7818609E-02  0.8663544E-01
       -1   -1    0    0    0  501  0.00000000000E+00  0.00000000000E+00  0.14198329942E+04  0.14198329942E+04  0.50400001928E-02 0.  1.
        1   -1    0    0  501    0  0.00000000000E+00  0.00000000000E+00 -0.62407789713E+03  0.62407789715E+03  0.50400001928E-02 0. -1.
    10030    2    1    2    0    0  0.00000000000E+00  0.00000000000E+00  0.79575509708E+03  0.20439108914E+04  0.18826432369E+04 0.  0.
        4    1    3    3  502    0 -0.13874127318E+03 -0.87421657127E+03  0.50159334502E+02  0.88657843765E+03  0.12699999809E+01 0.  1.
       -4    1    3    3    0  502  0.13874127318E+03  0.87421657127E+03  0.74559576257E+03  0.11573324537E+04  0.12699999809E+01 0. -1.
</event>
<event>
 5   0  0.2788054E-06  0.3250896E+04  0.7818609E-02  0.8175503E-01
       -1   -1    0    0    0  501  0.00000000000E+00  0.00000000000E+00  0.14756792932E+04  0.14756792932E+04  0.50400001928E-02 0.  1.
        1   -1    0    0  501    0  0.00000000000E+00  0.00000000000E+00 -0.17904172982E+04  0.17904172982E+04  0.50400001928E-02 0. -1.
    10030    2    1    2    0    0  0.00000000000E+00  0.00000000000E+00 -0.31473800505E+03  0.32660965914E+04  0.32508963276E+04 0.  0.
        3    1    3    3  502    0  0.28983971073E+03 -0.98071652903E+03  0.11119741571E+04  0.15107278062E+04  0.10100000352E+00 0.  1.
       -3    1    3    3    0  502 -0.28983971073E+03  0.98071652903E+03 -0.14267121622E+04  0.17553687852E+04  0.10100000352E+00 0. -1.
</event>
<event>
 5   0  0.8237664E-06  0.2902059E+04  0.7818609E-02  0.8272265E-01
        2   -1    0    0  501    0  0.00000000000E+00  0.00000000000E+00  0.19209424931E+04  0.19209424931E+04  0.25500000920E-02 0. -1.
       -2   -1    0    0    0  501  0.00000000000E+00  0.00000000000E+00 -0.10960699368E+04  0.10960699368E+04  0.25500000920E-02 0.  1.
    10030    2    1    2    0    0  0.00000000000E+00  0.00000000000E+00  0.82487255637E+03  0.30170124299E+04  0.29020594873E+04 0.  0.
        5    1    3    3  502    0  0.45440810019E+03  0.13595610247E+04  0.64622698920E+03  0.15724262504E+04  0.46999998093E+01 0.  1.
       -5    1    3    3    0  502 -0.45440810019E+03 -0.13595610247E+04  0.17864556717E+03  0.14445861795E+04  0.46999998093E+01 0. -1.
</event>
<event>
 5   0  0.3938696E-06  0.3176608E+04  0.7818609E-02  0.8195022E-01
       -1   -1    0    0    0  501  0.00000000000E+00  0.00000000000E+00  0.15606096822E+04  0.15606096822E+04  0.50400001928E-02 0.  1.
        1   -1    0    0  501    0  0.00000000000E+00  0.00000000000E+00 -0.16164902802E+04  0.16164902802E+04  0.50400001928E-02 0. -1.
    10030    2    1    2    0    0  0.00000000000E+00  0.00000000000E+00 -0.55880598021E+02  0.31770999624E+04  0.31766084949E+04 0.  0.
        4    1    3    3  502    0  0.31034673115E+03  0.95454615192E+03 -0.12590796957E+04  0.16102039444E+04  0.12699999809E+01 0. -1.
       -4    1    3    3    0  502 -0.31034673115E+03 -0.95454615192E+03  0.12031990977E+04  0.15668960180E+04  0.12699999809E+01 0.  1.
</event>
<event>
 5   0  0.8237664E-06  0.3166378E+04  0.7818609E-02  0.8197754E-01
       -2   -1    0    0    0  501  0.00000000000E+00  0.00000000000E+00  0.19623332873E+04  0.19623332873E+04  0.25500000920E-02 0. -1.
        2   -1    0    0  501    0  0.00000000000E+00  0.00000000000E+00 -0.12772991416E+04  0.12772991416E+04  0.25500000920E-02 0.  1.
    10030    2    1    2    0    0  0.00000000000E+00  0.00000000000E+00  0.68503414563E+03  0.32396324289E+04  0.31663775034E+04 0.  0.
        5    1    3    3  502    0  0.84480970757E+03 -0.94896929578E+03 -0.62390897314E+03  0.14154612899E+04  0.46999998093E+01 0.  1.
       -5    1    3    3    0  502 -0.84480970757E+03  0.94896929578E+03  0.13089431188E+04  0.18241711390E+04  0.46999998093E+01 0. -1.
</event>
<event>
 5   0  0.2635798E-06  0.2866664E+04  0.7818609E-02  0.8282865E-01
       -1   -1    0    0    0  501  0.00000000000E+00  0.00000000000E+00  0.16953780703E+04  0.16953780704E+04  0.50400001928E-02 0.  1.
        1   -1    0    0  501    0  0.00000000000E+00  0.00000000000E+00 -0.12117893365E+04  0.12117893365E+04  0.50400001928E-02 0. -1.
    10030    2    1    2    0    0  0.00000000000E+00  0.00000000000E+00  0.48358873382E+03  0.29071674069E+04  0.28666643103E+04 0.  0.
        1    1    3    3  502    0  0.10498594019E+04 -0.66583566352E+03  0.96524528773E+03  0.15739251444E+04  0.50400001928E-02 0.  1.
       -1    1    3    3    0  502 -0.10498594019E+04  0.66583566352E+03 -0.48165655391E+03  0.13332422625E+04  0.50400001928E-02 0. -1.
</event>
<event>
 5   0  0.2788054E-06  0.3037459E+04  0.7818609E-02  0.8233115E-01
        1   -1    0    0  501    0  0.00000000000E+00  0.00000000000E+00  0.16201188279E+04  0.16201188279E+04  0.50400001928E-02 0.  1.
       -1   -1    0    0    0  501  0.00000000000E+00  0.00000000000E+00 -0.14236849185E+04  0.14236849185E+04  0.50400001928E-02 0. -1.
    10030    2    1    2    0    0  0.00000000000E+00  0.00000000000E+00  0.19643390941E+03  0.30438037464E+04  0.30374586361E+04 0.  0.
        3    1    3    3  502    0 -0.63890644442E+03 -0.38712307290E+03  0.14232775575E+04  0.16074155450E+04  0.10100000352E+00 0.  1.
       -3    1    3    3    0  502  0.63890644442E+03  0.38712307290E+03 -0.12268436481E+04  0.14363882015E+04  0.10100000352E+00 0. -1.
</event>
<event>
 5   0  0.2788054E-06  0.3216722E+04  0.7818609E-02  0.8184415E-01
        1   -1    0    0  501    0  0.00000000000E+00  0.00000000000E+00  0.19184379352E+04  0.19184379352E+04  0.50400001928E-02 0. -1.
       -1   -1    0    0    0  501  0.00000000000E+00  0.00000000000E+00 -0.13484020273E+04  0.13484020273E+04  0.50400001928E-02 0.  1.
    10030    2    1    2    0    0  0.00000000000E+00  0.00000000000E+00  0.57003590787E+03  0.32668399625E+04  0.32167223076E+04 0.  0.
        3    1    3    3  502    0  0.51613151333E+03  0.67934842307E+03 -0.10996466442E+04  0.13918077351E+04  0.10100000352E+00 0.  1.
       -3    1    3    3    0  502 -0.51613151333E+03 -0.67934842307E+03  0.16696825521E+04  0.18750322275E+04  0.10100000352E+00 0. -1.
</event>
<event>
 5   0  0.7941434E-06  0.2822835E+04  0.7818609E-02  0.8296214E-01
        2   -1    0    0  501    0  0.00000000000E+00  0.00000000000E+00  0.18445231171E+04  0.18445231171E+04  0.25500000920E-02 0. -1.
       -2   -1    0    0    0  501  0.00000000000E+00  0.00000000000E+00 -0.10800079626E+04  0.10800079626E+04  0.25500000920E-02 0.  1.
    10030    2    1    2    0    0  0.00000000000E+00  0.00000000000E+00  0.76451515454E+03  0.29245310797E+04  0.28228352085E+04 0.  0.
        4    1    3    3  502    0  0.71580968530E+03 -0.56668347200E+03  0.14974108147E+04  0.17537828896E+04  0.12699999809E+01 0. -1.
       -4    1    3    3    0  502 -0.71580968530E+03  0.56668347200E+03 -0.73289566016E+03  0.11707481901E+04  0.12699999809E+01 0.  1.
</event>
<event>
 5   0  0.7952307E-06  0.2753181E+04  0.7818609E-02  0.8317953E-01
        2   -1    0    0  501    0  0.00000000000E+00  0.00000000000E+00  0.16932641383E+04  0.16932641383E+04  0.25500000920E-02 0.  1.
       -2   -1    0    0    0  501  0.00000000000E+00  0.00000000000E+00 -0.11191411665E+04  0.11191411665E+04  0.25500000920E-02 0. -1.
    10030    2    1    2    0    0  0.00000000000E+00  0.00000000000E+00  0.57412297176E+03  0.28124053048E+04  0.27531811440E+04 0.  0.
        2    1    3    3  502    0  0.40619059600E+03  0.12508318496E+04  0.70254222505E+03  0.14910186767E+04  0.25500000920E-02 0.  1.
       -2    1    3    3    0  502 -0.40619059600E+03 -0.12508318496E+04 -0.12841925328E+03  0.13213866281E+04  0.25500000920E-02 0. -1.
</event>
<event>
 5   0  0.2788054E-06  0.3135974E+04  0.7818609E-02  0.8205934E-01
        1   -1    0    0  501    0  0.00000000000E+00  0.00000000000E+00  0.17579232767E+04  0.17579232767E+04  0.50400001928E-02 0. -1.
       -1   -1    0    0    0  501  0.00000000000E+00  0.00000000000E+00 -0.13985728826E+04  0.13985728826E+04  0.50400001928E-02 0.  1.
    10030    2    1    2    0    0  0.00000000000E+00  0.00000000000E+00  0.35935039413E+03  0.31564961594E+04  0.31359743778E+04 0.  0.
        3    1    3    3  502    0 -0.16611375659E+03 -0.10512106745E+04  0.13387079352E+04  0.17101978272E+04  0.10100000352E+00 0. -1.
       -3    1    3    3    0  502  0.16611375659E+03  0.10512106745E+04 -0.97935754103E+03  0.14462983322E+04  0.10100000352E+00 0.  1.
</event>
<event>
 5   0  0.7510251E-06  0.3202436E+04  0.7818609E-02  0.8188174E-01
        2   -1    0    0  501    0  0.00000000000E+00  0.00000000000E+00  0.18226641361E+04  0.18226641362E+04  0.25500000920E-02 0. -1.
       -2   -1    0    0    0  501  0.00000000000E+00  0.00000000000E+00 -0.14066770747E+04  0.14066770747E+04  0.25500000920E-02 0.  1.
    10030    2    1    2    0    0  0.00000000000E+00  0.00000000000E+00  0.41598706144E+03  0.32293412109E+04  0.32024364819E+04 0.  0.
        3    1    3    3  502    0 -0.13581199329E+04  0.44936462122E+03 -0.51741195745E+03  0.15212276158E+04  0.10100000352E+00 0.  1.
       -3    1    3    3    0  502  0.13581199329E+04 -0.44936462122E+03  0.93339901888E+03  0.17081135951E+04  0.10100000352E+00 0. -1.
</event>
<event>
 5   0  0.2635798E-06  0.3270808E+04  0.7818609E-02  0.8170363E-01
       -1   -1    0    0    0  501  0.00000000000E+00  0.00000000000E+00  0.29594708556E+04  0.29594708556E+04  0.50400001928E-02 0. -1.
        1   -1    0    0  501    0  0.00000000000E+00  0.00000000000E+00 -0.90372440475E+03  0.90372440476E+03  0.50400001928E-02 0.  1.
    10030    2    1    2    0    0  0.00000000000E+00  0.00000000000E+00  0.20557464509E+04  0.38631952604E+04  0.32708078741E+04 0.  0.
        1    1    3    3  502    0  0.30848092026E+03  0.11778054409E+04 -0.26173822406E+03  0.12453485587E+04  0.50400001928E-02 0.  1.
       -1    1    3    3    0  502 -0.30848092026E+03 -0.11778054409E+04  0.23174846749E+04  0.26178467016E+04  0.50400001928E-02 0. -1.
</event>
<event>
 5   0  0.3938696E-06  0.1838169E+04  0.7818609E-02  0.8686261E-01
        1   -1    0    0  501    0  0.00000000000E+00  0.00000000000E+00  0.14460821257E+04  0.14460821257E+04  0.50400001928E-02 0.  1.
       -1   -1    0    0    0  501  0.00000000000E+00  0.00000000000E+00 -0.58414144375E+03  0.58414144377E+03  0.50400001928E-02 0. -1.
    10030    2    1    2    0    0  0.00000000000E+00  0.00000000000E+00  0.86194068198E+03  0.20302235695E+04  0.18381691987E+04 0.  0.
        4    1    3    3  502    0 -0.19693213899E+03 -0.71935965182E+03 -0.16222386217E+03  0.76326847858E+03  0.12699999809E+01 0. -1.
       -4    1    3    3    0  502  0.19693213899E+03  0.71935965182E+03  0.10241645441E+04  0.12669550909E+04  0.12699999809E+01 0.  1.
</event>
<event>
 5   0  0.2580875E-06  0.3233782E+04  0.7818609E-02  0.8179952E-01
        3   -1    0    0  501    0  0.00000000000E+00  0.00000000000E+00  0.20037466396E+04  0.20037466422E+04  0.10100000352E+00 0. -1.
       -3   -1    0    0    0  501  0.00000000000E+00  0.00000000000E+00 -0.13047243597E+04  0.13047243636E+04  0.10100000352E+00 0.  1.
    10030    2    1    2    0    0  0.00000000000E+00  0.00000000000E+00  0.69902227992E+03  0.33084710058E+04  0.32337823440E+04 0.  0.
        5    1    3    3  502    0  0.48557454730E+03  0.80111837332E+03 -0.99878149247E+03  0.13693647610E+04  0.46999998093E+01 0.  1.
       -5    1    3    3    0  502 -0.48557454730E+03 -0.80111837332E+03  0.16978037724E+04  0.19391062448E+04  0.46999998093E+01 0. -1.
</event>
<event>
 5   0  0.7510251E-06  0.3022470E+04  0.7818609E-02  0.8237343E-01
        2   -1    0    0  501    0  0.00000000000E+00  0.00000000000E+00  0.16976958271E+04  0.16976958271E+04  0.25500000920E-02 0.  1.
       -2   -1    0    0    0  501  0.00000000000E+00  0.00000000000E+00 -0.13452533236E+04  0.13452533236E+04  0.25500000920E-02 0. -1.
    10030    2    1    2    0    0  0.00000000000E+00  0.00000000000E+00  0.35244250348E+03  0.30429491507E+04  0.30224698204E+04 0.  0.
        3    1    3    3  502    0 -0.13782178797E+04 -0.61451866812E+03  0.25871069242E+03  0.15310287228E+04  0.10100000352E+00 0. -1.
       -3    1    3    3    0  502  0.13782178797E+04  0.61451866812E+03  0.93731811056E+02  0.15119204278E+04  0.10100000352E+00 0.  1.
</event>
<event>
 5   0  0.2635798E-06  0.3047077E+04  0.7818609E-02  0.8230414E-01
       -1   -1    0    0    0  501  0.00000000000E+00  0.00000000000E+00  0.19491176804E+04  0.19491176804E+04  0.50400001928E-02 0.  1.
        1   -1    0    0  501    0  0.00000000000E+00  0.00000000000E+00 -0.11908825202E+04  0.11908825202E+04  0.50400001928E-02 0. -1.
    10030    2    1    2    0    0  0.00000000000E+00  0.00000000000E+00  0.75823516018E+03  0.31400002007E+04  0.30470774033E+04 0.  0.
        1    1    3    3  502    0  0.92400094705E+03  0.24263012895E+03 -0.84388723779E+03  0.12746736052E+04  0.50400001928E-02 0. -1.
       -1    1    3    3    0  502 -0.92400094705E+03 -0.24263012895E+03  0.16021223980E+04  0.18653265955E+04  0.50400001928E-02 0.  1.
</event>
<event>
 5   0  0.7971763E-06  0.3227465E+04  0.7818609E-02  0.8181601E-01
       -2   -1    0    0    0  501  0.00000000000E+00  0.00000000000E+00  0.99051187155E+03  0.99051187155E+03  0.25500000920E-02 0. -1.
        2   -1    0    0  501    0  0.00000000000E+00  0.00000000000E+00 -0.26290769806E+04  0.26290769806E+04  0.25500000920E-02 0.  1.
    10030    2    1    2    0    0  0.00000000000E+00  0.00000000000E+00 -0.16385651090E+04  0.36195888521E+04  0.32274646151E+04 0.  0.
        1    1    3    3  502    0 -0.11989335631E+04  0.10481984402E+04 -0.52689603134E+03  0.16774328859E+04  0.50400001928E-02 0. -1.
       -1    1    3    3    0  502  0.11989335631E+04 -0.10481984402E+04 -0.11116690777E+04  0.19421559662E+04  0.50400001928E-02 0.  1.
</event>
<event>
 5   0  0.2635798E-06  0.2914636E+04  0.7818609E-02  0.8268536E-01
       -1   -1    0    0    0  501  0.00000000000E+00  0.00000000000E+00  0.19601128015E+04  0.19601128015E+04  0.50400001928E-02 0. -1.
        1   -1    0    0  501    0  0.00000000000E+00  0.00000000000E+00 -0.10834969742E+04  0.10834969742E+04  0.50400001928E-02 0.  1.
    10030    2    1    2    0    0  0.00000000000E+00  0.00000000000E+00  0.87661582728E+03  0.30436097756E+04  0.29146363680E+04 0.  0.
        1    1    3    3  502    0  0.65230483080E+03  0.12748560525E+04  0.72048114885E+03  0.16030759910E+04  0.50400001928E-02 0. -1.
       -1    1    3    3    0  502 -0.65230483080E+03 -0.12748560525E+04  0.15613467843E+03  0.14405337847E+04  0.50400001928E-02 0.  1.
</event>
<event>
 5   0  0.2580875E-06  0.3147344E+04  0.7818609E-02  0.8202864E-01
        3   -1    0    0  501    0  0.00000000000E+00  0.00000000000E+00  0.19117364460E+04  0.19117364487E+04  0.10100000352E+00 0.  1.
       -3   -1    0    0    0  501  0.00000000000E+00  0.00000000000E+00 -0.12953893340E+04  0.12953893379E+04  0.10100000352E+00 0. -1.
    10030    2    1    2    0    0  0.00000000000E+00  0.00000000000E+00  0.61634711198E+03  0.32071257866E+04  0.31473436496E+04 0.  0.
        4    1    3    3  502    0  0.14292656389E+04  0.43850907034E+03  0.80877986130E+03  0.16997696750E+04  0.12699999809E+01 0.  1.
       -4    1    3    3    0  502 -0.14292656389E+04 -0.43850907034E+03 -0.19243274932E+03  0.15073561116E+04  0.12699999809E+01 0. -1.
</event>
<event>
 5   0  0.2933646E-06  0.3158041E+04  0.7818609E-02  0.8199987E-01
        1   -1    0    0  501    0  0.00000000000E+00  0.00000000000E+00  0.17588071176E+04  0.17588071176E+04  0.50400001928E-02 0.  1.
       -1   -1    0    0    0  501  0.00000000000E+00  0.00000000000E+00 -0.14176121291E+04  0.14176121291E+04  0.50400001928E-02 0. -1.
    10030    2    1    2    0    0  0.00000000000E+00  0.00000000000E+00  0.34119498849E+03  0.31764192467E+04  0.31580413567E+04 0.  0.
        2    1    3    3  502    0  0.56436744144E+03  0.12648707904E+04 -0.59203489337E+03  0.15062914858E+04  0.25500000920E-02 0. -1.
       -2    1    3    3    0  502 -0.56436744144E+03 -0.12648707904E+04  0.93322988186E+03  0.16701277609E+04  0.25500000920E-02 0.  1.
</event>
<event>
 5   0  0.3938696E-06  0.1578627E+04  0.7818609E-02  0.8833787E-01
       -1   -1    0    0    0  501  0.00000000000E+00  0.00000000000E+00  0.14169018166E+04  0.14169018166E+04  0.50400001928E-02 0.  1.
        1   -1    0    0  501    0  0.00000000000E+00  0.00000000000E+00 -0.43970301439E+03  0.43970301442E+03  0.50400001928E-02 0. -1.
    10030    2    1    2    0    0  0.00000000000E+00  0.00000000000E+00  0.97719880223E+03  0.18566048311E+04  0.15786272516E+04 0.  0.
        4    1    3    3  502    0 -0.30824442517E+03 -0.18019930855E+03  0.13164919374E+04  0.13640524369E+04  0.12699999809E+01 0.  1.
       -4    1    3    3    0  502  0.30824442517E+03  0.18019930855E+03 -0.33929313522E+03  0.49255239412E+03  0.12699999809E+01 0. -1.
</event>
<event>
 5   0  0.4142886E-06  0.2585553E+04  0.7818609E-02  0.8373125E-01
        1   -1    0    0  501    0  0.00000000000E+00  0.00000000000E+00  0.14987971890E+04  0.14987971890E+04  0.50400001928E-02 0.  1.
       -1   -1    0    0    0  501  0.00000000000E+00  0.00000000000E+00 -0.11150748821E+04  0.11150748821E+04  0.50400001928E-02 0. -1.
    10030    2    1    2    0    0  0.00000000000E+00  0.00000000000E+00  0.38372230682E+03  0.26138720711E+04  0.25855530154E+04 0.  0.
        5    1    3    3  502    0  0.18257816605E+03  0.61408970434E+03  0.13270166828E+04  0.14735794238E+04  0.46999998093E+01 0.  1.
       -5    1    3    3    0  502 -0.18257816605E+03 -0.61408970434E+03 -0.94329437602E+03  0.11402926473E+04  0.46999998093E+01 0. -1.
</event>
<event>
 5   0  0.7952307E-06  0.3212460E+04  0.7818609E-02  0.8185534E-01
       -2   -1    0    0    0  501  0.00000000000E+00  0.00000000000E+00  0.12975064473E+04  0.12975064473E+04  0.25500000920E-02 0. -1.
        2   -1    0    0  501    0  0.00000000000E+00  0.00000000000E+00 -0.19884104170E+04  0.19884104170E+04  0.25500000920E-02 0.  1.
    10030    2    1    2    0    0  0.00000000000E+00  0.00000000000E+00 -0.69090396975E+03  0.32859168643E+04  0.32124603256E+04 0.  0.
        2    1    3    3  502    0 -0.20731063684E+03  0.15907641084E+04 -0.26319429428E+03  0.16256627526E+04  0.25500000920E-02 0. -1.
       -2    1    3    3    0  502  0.20731063684E+03 -0.15907641084E+04 -0.42770967547E+03  0.16602541117E+04  0.25500000920E-02 0.  1.
</event>
<event>
 5   0  0.2635798E-06  0.3198201E+04  0.7818609E-02  0.8189293E-01
       -1   -1    0    0    0  501  0.00000000000E+00  0.00000000000E+00  0.12777469443E+04  0.12777469443E+04  0.50400001928E-02 0.  1.
        1   -1    0    0  501    0  0.00000000000E+00  0.00000000000E+00 -0.20012740097E+04  0.20012740097E+04  0.50400001928E-02 0. -1.
    10030    2    1    2    0    0  0.00000000000E+00  0.00000000000E+00 -0.72352706545E+03  0.32790209540E+04  0.31982005882E+04 0.  0.
        1    1    3    3  502    0  0.76629039430E+03 -0.13955288292E+04 -0.51528070605E+03  0.16733845606E+04  0.50400001928E-02 0. -1.
       -1    1    3    3    0  502 -0.76629039430E+03  0.13955288292E+04 -0.20824635940E+03  0.16056363934E+04  0.50400001928E-02 0.  1.
</event>
<event>
 5   0  0.2635798E-06  0.2456231E+04  0.7818609E-02  0.8418746E-01
       -1   -1    0    0    0  501  0.00000000000E+00  0.00000000000E+00  0.10559658422E+04  0.10559658422E+04  0.50400001928E-02 0. -1.
        1   -1    0    0  501    0  0.00000000000E+00  0.00000000000E+00 -0.14283300261E+04  0.14283300261E+04  0.50400001928E-02 0.  1.
    10030    2    1    2    0    0  0.00000000000E+00  0.00000000000E+00 -0.37236418387E+03  0.24842958684E+04  0.24562310307E+04 0.  0.
        1    1    3    3  502    0 -0.25309536553E+03 -0.36178107781E+03  0.97291600734E+03  0.10684139505E+04  0.50400001928E-02 0. -1.
       -1    1    3    3    0  502  0.25309536553E+03  0.36178107781E+03 -0.13452801912E+04  0.14158819178E+04  0.50400001928E-02 0.  1.
</event>
<event>
 5   0  0.2788054E-06  0.3067813E+04  0.7818609E-02  0.8224627E-01
        1   -1    0    0  501    0  0.00000000000E+00  0.00000000000E+00  0.24162199732E+04  0.24162199732E+04  0.50400001928E-02 0.  1.
       -1   -1    0    0    0  501  0.00000000000E+00  0.00000000000E+00 -0.97378099670E+03  0.97378099671E+03  0.50400001928E-02 0. -1.
    10030    2    1    2    0    0  0.00000000000E+00  0.00000000000E+00  0.14424389765E+04  0.33900009699E+04  0.30678129628E+04 0.  0.
        3    1    3    3  502    0 -0.78268001035E+03 -0.46206352753E+03 -0.64417751461E+03  0.11140266526E+04  0.10100000352E+00 0. -1.
       -3    1    3    3    0  502  0.78268001035E+03  0.46206352753E+03  0.20866164911E+04  0.22759743173E+04  0.10100000352E+00 0.  1.
</event>
<event>
 5   0  0.7941434E-06  0.3465362E+04  0.7818609E-02  0.8122048E-01
        2   -1    0    0  501    0  0.00000000000E+00  0.00000000000E+00  0.18616219514E+04  0.18616219514E+04  0.25500000920E-02 0. -1.
       -2   -1    0    0    0  501  0.00000000000E+00  0.00000000000E+00 -0.16126704032E+04  0.16126704032E+04  0.25500000920E-02 0.  1.
    10030    2    1    2    0    0  0.00000000000E+00  0.00000000000E+00  0.24895154823E+03  0.34742923546E+04  0.34653615240E+04 0.  0.
        4    1    3    3  502    0  0.17125580979E+04 -0.23752585608E+03  0.10572950483E+02  0.17289844335E+04  0.12699999809E+01 0.  1.
       -4    1    3    3    0  502 -0.17125580979E+04  0.23752585608E+03  0.23837859774E+03  0.17453079212E+04  0.12699999809E+01 0. -1.
</event>
<event>
 5   0  0.4583071E-06  0.1610116E+04  0.7818609E-02  0.8814358E-01
       -1   -1    0    0    0  501  0.00000000000E+00  0.00000000000E+00  0.47129779929E+03  0.47129779932E+03  0.50400001928E-02 0.  1.
        1   -1    0    0  501    0  0.00000000000E+00  0.00000000000E+00 -0.13751776503E+04  0.13751776503E+04  0.50400001928E-02 0. -1.
    10030    2    1    2    0    0  0.00000000000E+00  0.00000000000E+00 -0.90387985102E+03  0.18464754496E+04  0.16101157726E+04 0.  0.
        3    1    3    3  502    0 -0.33492639515E+03  0.36240442369E+03  0.27752151921E+03  0.56615444916E+03  0.10100000352E+00 0.  1.
       -3    1    3    3    0  502  0.33492639515E+03 -0.36240442369E+03 -0.11814013702E+04  0.12803210005E+04  0.10100000352E+00 0. -1.
</event>
<event>
 5   0  0.7941434E-06  0.3286801E+04  0.7818609E-02  0.8166262E-01
        2   -1    0    0  501    0  0.00000000000E+00  0.00000000000E+00  0.23471835183E+04  0.23471835183E+04  0.25500000920E-02 0.  1.
       -2   -1    0    0    0  501  0.00000000000E+00  0.00000000000E+00 -0.11506405113E+04  0.11506405113E+04  0.25500000920E-02 0. -1.
    10030    2    1    2    0    0  0.00000000000E+00  0.00000000000E+00  0.11965430070E+04  0.34978240295E+04  0.32868005376E+04 0.  0.
        4    1    3    3  502    0 -0.15770591837E+04  0.43640263561E+03  0.76036577896E+03  0.18043615657E+04  0.12699999809E+01 0.  1.
       -4    1    3    3    0  502  0.15770591837E+04 -0.43640263561E+03  0.43617722803E+03  0.16934624638E+04  0.12699999809E+01 0. -1.
</event>
<event>
 5   0  0.7510251E-06  0.2285948E+04  0.7818609E-02  0.8483482E-01
        2   -1    0    0  501    0  0.00000000000E+00  0.00000000000E+00  0.22933884734E+04  0.22933884734E+04  0.25500000920E-02 0.  1.
       -2   -1    0    0    0  501  0.00000000000E+00  0.00000000000E+00 -0.56963280159E+03  0.56963280159E+03  0.25500000920E-02 0. -1.
    10030    2    1    2    0    0  0.00000000000E+00  0.00000000000E+00  0.17237556718E+04  0.28630212750E+04  0.22859477695E+04 0.  0.
        3    1    3    3  502    0  0.43240644650E+03 -0.28259936270E+03 -0.41509391084E+03  0.66267691962E+03  0.10100000352E+00 0. -1.
       -3    1    3    3    0  502 -0.43240644650E+03  0.28259936270E+03  0.21388495826E+04  0.22003443553E+04  0.10100000352E+00 0.  1.
</event>
<event>
 5   0  0.7971763E-06  0.1845577E+04  0.7818609E-02  0.8682430E-01
       -2   -1    0    0    0  501  0.00000000000E+00  0.00000000000E+00  0.55019893740E+03  0.55019893740E+03  0.25500000920E-02 0. -1.
        2   -1    0    0  501    0  0.00000000000E+00  0.00000000000E+00 -0.15476929839E+04  0.15476929839E+04  0.25500000920E-02 0.  1.
    10030    2    1    2    0    0  0.00000000000E+00  0.00000000000E+00 -0.99749404655E+03  0.20978919213E+04  0.18455774546E+04 0.  0.
        1    1    3    3  502    0  0.20194318512E+03  0.31571428818E+03  0.45979425853E+03  0.59318405405E+03  0.50400001928E-02 0. -1.
       -1    1    3    3    0  502 -0.20194318512E+03 -0.31571428818E+03 -0.14572883051E+04  0.15047078673E+04  0.50400001928E-02 0.  1.
</event>
<event>
 5   0  0.7941434E-06  0.3207735E+04  0.7818609E-02  0.8186777E-01
        2   -1    0    0  501    0  0.00000000000E+00  0.00000000000E+00  0.17691121001E+04  0.17691121001E+04  0.25500000920E-02 0.  1.
       -2   -1    0    0    0  501  0.00000000000E+00  0.00000000000E+00 -0.14540573374E+04  0.14540573374E+04  0.25500000920E-02 0. -1.
    10030    2    1    2    0    0  0.00000000000E+00  0.00000000000E+00  0.31505476263E+03  0.32231694375E+04  0.32077346710E+04 0.  0.
        4    1    3    3  502    0 -0.29149012604E+03 -0.83750009911E+03  0.15003769359E+04  0.17428440757E+04  0.12699999809E+01 0.  1.
       -4    1    3    3    0  502  0.29149012604E+03  0.83750009911E+03 -0.11853221732E+04  0.14803253618E+04  0.12699999809E+01 0. -1.
</event>
<event>
 5   0  0.2788054E-06  0.3160687E+04  0.7818609E-02  0.8199277E-01
       -1   -1    0    0    0  501  0.00000000000E+00  0.00000000000E+00  0.11443594328E+04  0.11443594328E+04  0.50400001928E-02 0.  1.
        1   -1    0    0  501    0  0.00000000000E+00  0.00000000000E+00 -0.21824313655E+04  0.21824313655E+04  0.50400001928E-02 0. -1.
    10030    2    1    2    0    0  0.00000000000E+00  0.00000000000E+00 -0.10380719327E+04  0.33267907982E+04  0.31606872161E+04 0.  0.
        3    1    3    3  502    0 -0.82921621301E+03  0.13416173892E+04 -0.62402337852E+03  0.16961550442E+04  0.10100000352E+00 0. -1.
       -3    1    3    3    0  502  0.82921621301E+03 -0.13416173892E+04 -0.41404855416E+03  0.16306357540E+04  0.10100000352E+00 0.  1.
</event>
<event>
 5   0  0.7510251E-06  0.3287330E+04  0.7818609E-02  0.8166127E-01
        2   -1    0    0  501    0  0.00000000000E+00  0.00000000000E+00  0.27670943948E+04  0.27670943948E+04  0.25500000920E-02 0.  1.
       -2   -1    0    0    0  501  0.00000000000E+00  0.00000000000E+00 -0.97634327698E+03  0.97634327698E+03  0.25500000920E-02 0. -1.
    10030    2    1    2    0    0  0.00000000000E+00  0.00000000000E+00  0.17907511178E+04  0.37434376718E+04  0.32873296209E+04 0.  0.
        3    1    3    3  502    0  0.13362815835E+04  0.13881344809E+03  0.19737135321E+04  0.23875641899E+04  0.10100000352E+00 0.  1.
       -3    1    3    3    0  502 -0.13362815835E+04 -0.13881344809E+03 -0.18296241421E+03  0.13558734820E+04  0.10100000352E+00 0. -1.
</event>
<event>
 5   0  0.2788054E-06  0.2189989E+04  0.7818609E-02  0.8522607E-01
       -1   -1    0    0    0  501  0.00000000000E+00  0.00000000000E+00  0.70727474944E+03  0.70727474946E+03  0.50400001928E-02 0. -1.
        1   -1    0    0  501    0  0.00000000000E+00  0.00000000000E+00 -0.16952572544E+04  0.16952572544E+04  0.50400001928E-02 0.  1.
    10030    2    1    2    0    0  0.00000000000E+00  0.00000000000E+00 -0.98798250494E+03  0.24025320039E+04  0.21899887213E+04 0.  0.
        3    1    3    3  502    0 -0.11188455067E+03  0.10445431499E+04 -0.83287935974E+03  0.13406254446E+04  0.10100000352E+00 0.  1.
       -3    1    3    3    0  502  0.11188455067E+03 -0.10445431499E+04 -0.15510314520E+03  0.10619065592E+04  0.10100000352E+00 0. -1.
</event>
<event>
 5   0  0.7941434E-06  0.3249127E+04  0.7818609E-02  0.8175962E-01
       -2   -1    0    0    0  501  0.00000000000E+00  0.00000000000E+00  0.11175900216E+04  0.11175900216E+04  0.25500000920E-02 0. -1.
        2   -1    0    0  501    0  0.00000000000E+00  0.00000000000E+00 -0.23615161032E+04  0.23615161032E+04  0.25500000920E-02 0.  1.
    10030    2    1    2    0    0  0.00000000000E+00  0.00000000000E+00 -0.12439260815E+04  0.34791061248E+04  0.32491271645E+04 0.  0.
        4    1    3    3  502    0 -0.52125085273E+02  0.10615472272E+04 -0.19375898898E+04  0.22099447355E+04  0.12699999809E+01 0.  1.
       -4    1    3    3    0  502  0.52125085273E+02 -0.10615472272E+04  0.69366380827E+03  0.12691613893E+04  0.12699999809E+01 0. -1.
</event>
<event>
 5   0  0.7952307E-06  0.3190197E+04  0.7818609E-02  0.8191411E-01
       -2   -1    0    0    0  501  0.00000000000E+00  0.00000000000E+00  0.14273953070E+04  0.14273953070E+04  0.25500000920E-02 0.  1.
        2   -1    0    0  501    0  0.00000000000E+00  0.00000000000E+00 -0.17825047252E+04  0.17825047252E+04  0.25500000920E-02 0. -1.
    10030    2    1    2    0    0  0.00000000000E+00  0.00000000000E+00 -0.35510941822E+03  0.32099000322E+04  0.31901967836E+04 0.  0.
        2    1    3    3  502    0  0.13841134022E+04 -0.76368030084E+03  0.36742790142E+02  0.15812424054E+04  0.25500000920E-02 0. -1.
       -2    1    3    3    0  502 -0.13841134022E+04  0.76368030084E+03 -0.39185220836E+03  0.16286576268E+04  0.25500000920E-02 0.  1.
</event>
<event>
 5   0  0.7971763E-06  0.3120526E+04  0.7818609E-02  0.8210127E-01
        2   -1    0    0  501    0  0.00000000000E+00  0.00000000000E+00  0.18170839072E+04  0.18170839072E+04  0.25500000920E-02 0. -1.
       -2   -1    0    0    0  501  0.00000000000E+00  0.00000000000E+00 -0.13397406561E+04  0.13397406561E+04  0.25500000920E-02 0.  1.
    10030    2    1    2    0    0  0.00000000000E+00  0.00000000000E+00  0.47734325108E+03  0.31568245633E+04  0.31205263569E+04 0.  0.
        1    1    3    3  502    0 -0.24575890012E+03  0.15293264496E+04  0.48914795314E+02  0.15497191629E+04  0.50400001928E-02 0. -1.
       -1    1    3    3    0  502  0.24575890012E+03 -0.15293264496E+04  0.42842845577E+03  0.16071054005E+04  0.50400001928E-02 0.  1.
</event>
<event>
 5   0  0.7510251E-06  0.3185278E+04  0.7818609E-02  0.8192716E-01
       -2   -1    0    0    0  501  0.00000000000E+00  0.00000000000E+00  0.14850672290E+04  0.14850672290E+04  0.25500000920E-02 0.  1.
        2   -1    0    0  501    0  0.00000000000E+00  0.00000000000E+00 -0.17080027464E+04  0.17080027464E+04  0.25500000920E-02 0. -1.
    10030    2    1    2    0    0  0.00000000000E+00  0.00000000000E+00 -0.22293551736E+03  0.31930699754E+04  0.31852779506E+04 0.  0.
        3    1    3    3  502    0  0.86994592270E+03  0.75456870549E+03  0.99136850016E+03  0.15195365586E+04  0.10100000352E+00 0.  1.
       -3    1    3    3    0  502 -0.86994592270E+03 -0.75456870549E+03 -0.12143040175E+04  0.16735334167E+04  0.10100000352E+00 0. -1.
</event>
<event>
 5   0  0.7952307E-06  0.3173115E+04  0.7818609E-02  0.8195954E-01
       -2   -1    0    0    0  501  0.00000000000E+00  0.00000000000E+00  0.28804597715E+04  0.28804597715E+04  0.25500000920E-02 0.  1.
        2   -1    0    0  501    0  0.00000000000E+00  0.00000000000E+00 -0.87387583249E+03  0.87387583249E+03  0.25500000920E-02 0. -1.
    10030    2    1    2    0    0  0.00000000000E+00  0.00000000000E+00  0.20065839390E+04  0.37543356040E+04  0.31731146722E+04 0.  0.
        2    1    3    3  502    0  0.97119400780E+03  0.10836151397E+04  0.25524689441E+03  0.14773593161E+04  0.25500000920E-02 0. -1.
       -2    1    3    3    0  502 -0.97119400780E+03 -0.10836151397E+04  0.17513370446E+04  0.22769762878E+04  0.25500000920E-02 0.  1.
</event>
<event>
 5   0  0.2933646E-06  0.3134802E+04  0.7818609E-02  0.8206251E-01
       -1   -1    0    0    0  501  0.00000000000E+00  0.00000000000E+00  0.10585301108E+04  0.10585301108E+04  0.50400001928E-02 0. -1.
        1   -1    0    0  501    0  0.00000000000E+00  0.00000000000E+00 -0.23209029688E+04  0.23209029688E+04  0.50400001928E-02 0.  1.
    10030    2    1    2    0    0  0.00000000000E+00  0.00000000000E+00 -0.12623728580E+04  0.33794330796E+04  0.31348018609E+04 0.  0.
        2    1    3    3  502    0 -0.72169484450E+03  0.37087385449E+03  0.81449115012E+03  0.11496898269E+04  0.25500000920E-02 0. -1.
       -2    1    3    3    0  502  0.72169484450E+03 -0.37087385449E+03 -0.20768640082E+04  0.22297432527E+04  0.25500000920E-02 0.  1.
</event>
<event>
 5   0  0.2933646E-06  0.1576244E+04  0.7818609E-02  0.8835276E-01
        1   -1    0    0  501    0  0.00000000000E+00  0.00000000000E+00  0.14120222900E+04  0.14120222900E+04  0.50400001928E-02 0.  1.
       -1   -1    0    0    0  501  0.00000000000E+00  0.00000000000E+00 -0.43989148850E+03  0.43989148853E+03  0.50400001928E-02 0. -1.
    10030    2    1    2    0    0  0.00000000000E+00  0.00000000000E+00  0.97213080149E+03  0.18519137785E+04  0.15762443808E+04 0.  0.
        2    1    3    3  502    0 -0.33052455925E+02 -0.42752323979E+03 -0.29084522341E+03  0.51813080336E+03  0.25500000920E-02 0. -1.
       -2    1    3    3    0  502  0.33052455925E+02  0.42752323979E+03  0.12629760249E+04  0.13337829752E+04  0.25500000920E-02 0.  1.
</event>
<event>
 5   0  0.3938696E-06  0.2569206E+04  0.7818609E-02  0.8378737E-01
        1   -1    0    0  501    0  0.00000000000E+00  0.00000000000E+00  0.14210342974E+04  0.14210342974E+04  0.50400001928E-02 0.  1.
       -1   -1    0    0    0  501  0.00000000000E+00  0.00000000000E+00 -0.11612701618E+04  0.11612701618E+04  0.50400001928E-02 0. -1.
    10030    2    1    2    0    0  0.00000000000E+00  0.00000000000E+00  0.25976413562E+03  0.25823044592E+04  0.25692058916E+04 0.  0.
        4    1    3    3  502    0 -0.40874858803E+03  0.74322939239E+03  0.10995481546E+04  0.13886947451E+04  0.12699999809E+01 0.  1.
       -4    1    3    3    0  502  0.40874858803E+03 -0.74322939239E+03 -0.83978401901E+03  0.11936097140E+04  0.12699999809E+01 0. -1.
</event>
<event>
 5   0  0.2580875E-06  0.3327852E+04  0.7818609E-02  0.8155844E-01
       -3   -1    0    0    0  501  0.00000000000E+00  0.00000000000E+00  0.20330025450E+04  0.20330025475E+04  0.10100000352E+00 0.  1.
        3   -1    0    0  501    0  0.00000000000E+00  0.00000000000E+00 -0.13618529485E+04  0.13618529522E+04  0.10100000352E+00 0. -1.
    10030    2    1    2    0    0  0.00000000000E+00  0.00000000000E+00  0.67114959651E+03  0.33948554997E+04  0.33278524731E+04 0.  0.
        1    1    3    3  502    0 -0.12821571152E+04 -0.70356884002E+03  0.11450976051E+04  0.18574672288E+04  0.50400001928E-02 0.  1.
       -1    1    3    3    0  502  0.12821571152E+04  0.70356884002E+03 -0.47394800862E+03  0.15373882709E+04  0.50400001928E-02 0. -1.
</event>
<event>
 5   0  0.7510251E-06  0.1985091E+04  0.7818609E-02  0.8613623E-01
       -2   -1    0    0    0  501  0.00000000000E+00  0.00000000000E+00  0.83957755223E+03  0.83957755223E+03  0.25500000920E-02 0. -1.
        2   -1    0    0  501    0  0.00000000000E+00  0.00000000000E+00 -0.11733834612E+04  0.11733834612E+04  0.25500000920E-02 0.  1.
    10030    2    1    2    0    0  0.00000000000E+00  0.00000000000E+00 -0.33380590897E+03  0.20129610134E+04  0.19850908434E+04 0.  0.
        3    1    3    3  502    0 -0.33120918193E+03  0.87878561396E+03  0.15882758399E+03  0.95246516427E+03  0.10100000352E+00 0.  1.
       -3    1    3    3    0  502  0.33120918193E+03 -0.87878561396E+03 -0.49263349296E+03  0.10604958492E+04  0.10100000352E+00 0. -1.
</event>
<event>
 5   0  0.7510251E-06  0.3162928E+04  0.7818609E-02  0.8198677E-01
       -2   -1    0    0    0  501  0.00000000000E+00  0.00000000000E+00  0.19681676649E+04  0.19681676649E+04  0.25500000920E-02 0. -1.
        2   -1    0    0  501    0  0.00000000000E+00  0.00000000000E+00 -0.12707398455E+04  0.12707398455E+04  0.25500000920E-02 0.  1.
    10030    2    1    2    0    0  0.00000000000E+00  0.00000000000E+00  0.69742781939E+03  0.32389075104E+04  0.31629284370E+04 0.  0.
        3    1    3    3  502    0  0.69343537825E+03  0.78611719612E+03  0.15613027659E+04  0.18805582169E+04  0.10100000352E+00 0. -1.
       -3    1    3    3    0  502 -0.69343537825E+03 -0.78611719612E+03 -0.86387494655E+03  0.13583492936E+04  0.10100000352E+00 0.  1.
</event>
<event>
 5   0  0.7971763E-06  0.1729401E+04  0.7818609E-02  0.8744771E-01
        2   -1    0    0  501    0  0.00000000000E+00  0.00000000000E+00  0.13304691832E+04  0.13304691832E+04  0.25500000920E-02 0.  1.
       -2   -1    0    0    0  501  0.00000000000E+00  0.00000000000E+00 -0.56198739709E+03  0.56198739710E+03  0.25500000920E-02 0. -1.
    10030    2    1    2    0    0  0.00000000000E+00  0.00000000000E+00  0.76848178615E+03  0.18924565803E+04  0.17294009520E+04 0.  0.
        1    1    3    3  502    0  0.24723848606E+02 -0.13041960717E+02  0.13299746448E+04  0.13302683629E+04  0.50400001928E-02 0.  1.
       -1    1    3    3    0  502 -0.24723848606E+02  0.13041960717E+02 -0.56149285869E+03  0.56218821743E+03  0.50400001928E-02 0. -1.
</event>
<event>
 5   0  0.2933646E-06  0.1614785E+04  0.7818609E-02  0.8811516E-01
        1   -1    0    0  501    0  0.00000000000E+00  0.00000000000E+00  0.80596665630E+03  0.80596665632E+03  0.50400001928E-02 0. -1.
       -1   -1    0    0    0  501  0.00000000000E+00  0.00000000000E+00 -0.80882090557E+03  0.80882090558E+03  0.50400001928E-02 0.  1.
    10030    2    1    2    0    0  0.00000000000E+00  0.00000000000E+00 -0.28542492614E+01  0.16147875619E+04  0.16147850394E+04 0.  0.
        2    1    3    3  502    0 -0.17442466849E+03  0.28793755558E+03 -0.73528839390E+03  0.80869093176E+03  0.25500000920E-02 0.  1.
       -2    1    3    3    0  502  0.17442466849E+03 -0.28793755558E+03  0.73243414464E+03  0.80609663015E+03  0.25500000920E-02 0. -1.
</event>
<event>
 5   0  0.7510251E-06  0.1789684E+04  0.7818609E-02  0.8711805E-01
       -2   -1    0    0    0  501  0.00000000000E+00  0.00000000000E+00  0.25358061903E+03  0.25358061905E+03  0.25500000920E-02 0.  1.
        2   -1    0    0  501    0  0.00000000000E+00  0.00000000000E+00 -0.31577405582E+04  0.31577405582E+04  0.25500000920E-02 0. -1.
    10030    2    1    2    0    0  0.00000000000E+00  0.00000000000E+00 -0.29041599392E+04  0.34113211772E+04  0.17896835536E+04 0.  0.
        3    1    3    3  502    0 -0.78603045021E+03 -0.59345002187E+02 -0.64479168751E+03  0.10183918835E+04  0.10100000352E+00 0.  1.
       -3    1    3    3    0  502  0.78603045021E+03  0.59345002187E+02 -0.22593682516E+04  0.23929292937E+04  0.10100000352E+00 0. -1.
</event>
<event>
 5   0  0.7941434E-06  0.3427058E+04  0.7818609E-02  0.8131297E-01
       -2   -1    0    0    0  501  0.00000000000E+00  0.00000000000E+00  0.17005369688E+04  0.17005369688E+04  0.25500000920E-02 0.  1.
        2   -1    0    0  501    0  0.00000000000E+00  0.00000000000E+00 -0.17266202861E+04  0.17266202861E+04  0.25500000920E-02 0. -1.
    10030    2    1    2    0    0  0.00000000000E+00  0.00000000000E+00 -0.26083317277E+02  0.34271572549E+04  0.34270579964E+04 0.  0.
        4    1    3    3  502    0  0.16946308410E+04  0.95647901538E+02  0.22203494004E+03  0.17117895127E+04  0.12699999809E+01 0.  1.
       -4    1    3    3    0  502 -0.16946308410E+04 -0.95647901538E+02 -0.24811825732E+03  0.17153677422E+04  0.12699999809E+01 0. -1.
</event>
<event>
 5   0  0.8237664E-06  0.3279992E+04  0.7818609E-02  0.8168005E-01
        2   -1    0    0  501    0  0.00000000000E+00  0.00000000000E+00  0.16325574630E+04  0.16325574630E+04  0.25500000920E-02 0. -1.
       -2   -1    0    0    0  501  0.00000000000E+00  0.00000000000E+00 -0.16474685866E+04  0.16474685866E+04  0.25500000920E-02 0.  1.
    10030    2    1    2    0    0  0.00000000000E+00  0.00000000000E+00 -0.14911123591E+02  0.32800260496E+04  0.32799921561E+04 0.  0.
        5    1    3    3  502    0 -0.65665634782E+03 -0.29701499527E+02 -0.15099641185E+04  0.16468434860E+04  0.46999998093E+01 0.  1.
       -5    1    3    3    0  502  0.65665634782E+03  0.29701499527E+02  0.14950529949E+04  0.16331825635E+04  0.46999998093E+01 0. -1.
</event>
<event>
 5   0  0.2788054E-06  0.3147680E+04  0.7818609E-02  0.8202773E-01
       -1   -1    0    0    0  501  0.00000000000E+00  0.00000000000E+00  0.28735755119E+04  0.28735755119E+04  0.50400001928E-02 0. -1.
        1   -1    0    0  501    0  0.00000000000E+00  0.00000000000E+00 -0.86198265359E+03  0.86198265361E+03  0.50400001928E-02 0.  1.
    10030    2    1    2    0    0  0.00000000000E+00  0.00000000000E+00  0.20115928583E+04  0.37355581655E+04  0.31476799361E+04 0.  0.
        3    1    3    3  502    0  0.14694681012E+04  0.35546294907E+03  0.48675527705E+03  0.15882761468E+04  0.10100000352E+00 0.  1.
       -3    1    3    3    0  502 -0.14694681012E+04 -0.35546294907E+03  0.15248375813E+04  0.21472820187E+04  0.10100000352E+00 0. -1.
</event>
<event>
 5   0  0.2788054E-06  0.1873694E+04  0.7818609E-02  0.8668062E-01
        1   -1    0    0  501    0  0.00000000000E+00  0.00000000000E+00  0.93867244658E+03  0.93867244659E+03  0.50400001928E-02 0.  1.
       -1   -1    0    0    0  501  0.00000000000E+00  0.00000000000E+00 -0.93502560061E+03  0.93502560063E+03  0.50400001928E-02 0. -1.
    10030    2    1    2    0    0  0.00000000000E+00  0.00000000000E+00  0.36468459668E+01  0.18736980472E+04  0.18736944982E+04 0.  0.
        3    1    3    3  502    0 -0.65292982085E+03  0.40333465205E+03 -0.53547319816E+03  0.93580326385E+03  0.10100000352E+00 0. -1.
       -3    1    3    3    0  502  0.65292982085E+03 -0.40333465205E+03  0.53912004412E+03  0.93789478337E+03  0.10100000352E+00 0.  1.
</event>
<event>
 5   0  0.2635798E-06  0.2237636E+04  0.7818609E-02  0.8502924E-01
       -1   -1    0    0    0  501  0.00000000000E+00  0.00000000000E+00  0.11761672512E+04  0.11761672512E+04  0.50400001928E-02 0. -1.
        1   -1    0    0  501    0  0.00000000000E+00  0.00000000000E+00 -0.10642650732E+04  0.10642650732E+04  0.50400001928E-02 0.  1.
    10030    2    1    2    0    0  0.00000000000E+00  0.00000000000E+00  0.11190217800E+03  0.22404323244E+04  0.22376360077E+04 0.  0.
        1    1    3    3  502    0 -0.89666054957E+03 -0.42996654793E+03 -0.45741018489E+03  0.10945754660E+04  0.50400001928E-02 0.  1.
       -1    1    3    3    0  502  0.89666054957E+03  0.42996654793E+03  0.56931236289E+03  0.11458568585E+04  0.50400001928E-02 0. -1.
</event>
<event>
 5   0  0.4142886E-06  0.3208457E+04  0.7818609E-02  0.8186587E-01
       -1   -1    0    0    0  501  0.00000000000E+00  0.00000000000E+00  0.82959369584E+03  0.82959369586E+03  0.50400001928E-02 0.  1.
        1   -1    0    0  501    0  0.00000000000E+00  0.00000000000E+00 -0.31021794003E+04  0.31021794003E+04  0.50400001928E-02 0. -1.
    10030    2    1    2    0    0  0.00000000000E+00  0.00000000000E+00 -0.22725857044E+04  0.39317730961E+04  0.32084566220E+04 0.  0.
        5    1    3    3  502    0  0.13110173955E+03  0.96397057782E+03  0.42685235278E+03  0.10623803284E+04  0.46999998093E+01 0.  1.
       -5    1    3    3    0  502 -0.13110173955E+03 -0.96397057782E+03 -0.26994380572E+04  0.28693927678E+04  0.46999998093E+01 0. -1.
</event>
<event>
 5   0  0.7510251E-06  0.2240569E+04  0.7818609E-02  0.8501730E-01
       -2   -1    0    0    0  501  0.00000000000E+00  0.00000000000E+00  0.14342870550E+04  0.14342870550E+04  0.25500000920E-02 0. -1.
        2   -1    0    0  501    0  0.00000000000E+00  0.00000000000E+00 -0.87502490783E+03  0.87502490783E+03  0.25500000920E-02 0.  1.
    10030    2    1    2    0    0  0.00000000000E+00  0.00000000000E+00  0.55926214713E+03  0.23093119628E+04  0.22405685868E+04 0.  0.
        3    1    3    3  502    0  0.15682076037E+03  0.88966630599E+03  0.96248207906E+03  0.13200267609E+04  0.10100000352E+00 0. -1.
       -3    1    3    3    0  502 -0.15682076037E+03 -0.88966630599E+03 -0.40321993193E+03  0.98928520185E+03  0.10100000352E+00 0.  1.
</event>
<event>
 5   0  0.2933646E-06  0.3177426E+04  0.7818609E-02  0.8194805E-01
       -1   -1    0    0    0  501  0.00000000000E+00  0.00000000000E+00  0.11621998133E+04  0.11621998133E+04  0.50400001928E-02 0. -1.
        1   -1    0    0  501    0  0.00000000000E+00  0.00000000000E+00 -0.21717506555E+04  0.21717506555E+04  0.50400001928E-02 0.  1.
    10030    2    1    2    0    0  0.00000000000E+00  0.00000000000E+00 -0.10095508422E+04  0.33339504688E+04  0.31774255027E+04 0.  0.
        2    1    3    3  502    0 -0.69182552238E+03 -0.38783559948E+03  0.93961581369E+03  0.12296002940E+04  0.25500000920E-02 0. -1.
       -2    1    3    3    0  502  0.69182552238E+03  0.38783559948E+03 -0.19491666559E+04  0.21043501748E+04  0.25500000920E-02 0.  1.
</event>
<event>
 5   0  0.3938696E-06  0.2844758E+04  0.7818609E-02  0.8289506E-01
       -1   -1    0    0    0  501  0.00000000000E+00  0.00000000000E+00  0.19511575442E+04  0.19511575442E+04  0.50400001928E-02 0.  1.
        1   -1    0    0  501    0  0.00000000000E+00  0.00000000000E+00 -0.10369035639E+04  0.10369035640E+04  0.50400001928E-02 0. -1.
    10030    2    1    2    0    0  0.00000000000E+00  0.00000000000E+00  0.91425398024E+03  0.29880611082E+04  0.28447581348E+04 0.  0.
        4    1    3    3  502    0 -0.91738704731E+03  0.52107376553E+03  0.14591443805E+04  0.18006167832E+04  0.12699999809E+01 0.  1.
       -4    1    3    3    0  502  0.91738704731E+03 -0.52107376553E+03 -0.54489040029E+03  0.11874443250E+04  0.12699999809E+01 0. -1.
</event>
<event>
 5   0  0.2788054E-06  0.3216381E+04  0.7818609E-02  0.8184504E-01
       -1   -1    0    0    0  501  0.00000000000E+00  0.00000000000E+00  0.88354824722E+03  0.88354824724E+03  0.50400001928E-02 0. -1.
        1   -1    0    0  501    0  0.00000000000E+00  0.00000000000E+00 -0.29271482709E+04  0.29271482709E+04  0.50400001928E-02 0.  1.
    10030    2    1    2    0    0  0.00000000000E+00  0.00000000000E+00 -0.20436000237E+04  0.38106965181E+04  0.32163810248E+04 0.  0.
        3    1    3    3  502    0  0.10651237632E+04 -0.10456285258E+04 -0.31246630057E+03  0.15249468332E+04  0.10100000352E+00 0. -1.
       -3    1    3    3    0  502 -0.10651237632E+04  0.10456285258E+04 -0.17311337231E+04  0.22857496850E+04  0.10100000352E+00 0.  1.
</event>
<event>
 5   0  0.2635798E-06  0.2315236E+04  0.7818609E-02  0.8471938E-01
       -1   -1    0    0    0  501  0.00000000000E+00  0.00000000000E+00  0.63430065082E+03  0.63430065084E+03  0.50400001928E-02 0. -1.
        1   -1    0    0  501    0  0.00000000000E+00  0.00000000000E+00 -0.21126872406E+04  0.21126872406E+04  0.50400001928E-02 0.  1.
    10030    2    1    2    0    0  0.00000000000E+00  0.00000000000E+00 -0.14783865898E+04  0.27469878915E+04  0.23152355316E+04 0.  0.
        1    1    3    3  502    0 -0.94078952548E+03  0.48342558970E+03 -0.12973370266E+04  0.16738783088E+04  0.50400001928E-02 0.  1.
       -1    1    3    3    0  502  0.94078952548E+03 -0.48342558970E+03 -0.18104956316E+03  0.10731095826E+04  0.50400001928E-02 0. -1.
</event>
<event>
 5   0  0.7952307E-06  0.3319190E+04  0.7818609E-02  0.8158030E-01
        2   -1    0    0  501    0  0.00000000000E+00  0.00000000000E+00  0.17658149905E+04  0.17658149905E+04  0.25500000920E-02 0. -1.
       -2   -1    0    0    0  501  0.00000000000E+00  0.00000000000E+00 -0.15597644144E+04  0.15597644144E+04  0.25500000920E-02 0.  1.
    10030    2    1    2    0    0  0.00000000000E+00  0.00000000000E+00  0.20605057611E+03  0.33255794049E+04  0.33191898919E+04 0.  0.
        2    1    3    3  502    0 -0.15556111156E+04 -0.45908107297E+03 -0.24918236837E+03  0.16409671622E+04  0.25500000920E-02 0.  1.
       -2    1    3    3    0  502  0.15556111156E+04  0.45908107297E+03  0.45523294449E+03  0.16846122428E+04  0.25500000920E-02 0. -1.
</event>
<event>
 5   0  0.8237664E-06  0.3065905E+04  0.7818609E-02  0.8225158E-01
        2   -1    0    0  501    0  0.00000000000E+00  0.00000000000E+00  0.17736992632E+04  0.17736992632E+04  0.25500000920E-02 0. -1.
       -2   -1    0    0    0  501  0.00000000000E+00  0.00000000000E+00 -0.13248827301E+04  0.13248827301E+04  0.25500000920E-02 0.  1.
    10030    2    1    2    0    0  0.00000000000E+00  0.00000000000E+00  0.44881653316E+03  0.30985819933E+04  0.30659051011E+04 0.  0.
        5    1    3    3  502    0  0.12520491038E+03  0.70397652131E+03  0.15948332297E+04  0.17477912727E+04  0.46999998093E+01 0. -1.
       -5    1    3    3    0  502 -0.12520491038E+03 -0.70397652131E+03 -0.11460166966E+04  0.13507907207E+04  0.46999998093E+01 0.  1.
</event>
<event>
 5   0  0.7510251E-06  0.3348314E+04  0.7818609E-02  0.8150710E-01
       -2   -1    0    0    0  501  0.00000000000E+00  0.00000000000E+00  0.24894594666E+04  0.24894594666E+04  0.25500000920E-02 0. -1.
        2   -1    0    0  501    0  0.00000000000E+00  0.00000000000E+00 -0.11258673629E+04  0.11258673629E+04  0.25500000920E-02 0.  1.
    10030    2    1    2    0    0  0.00000000000E+00  0.00000000000E+00  0.13635921037E+04  0.36153268296E+04  0.33483137038E+04 0.  0.
        3    1    3    3  502    0  0.45498220801E+03  0.16026528099E+04  0.50340484560E+03  0.17403796389E+04  0.10100000352E+00 0.  1.
       -3    1    3    3    0  502 -0.45498220801E+03 -0.16026528099E+04  0.86018725809E+03  0.18749471907E+04  0.10100000352E+00 0. -1.
</event>
<event>
 5   0  0.8237664E-06  0.3206947E+04  0.7818609E-02  0.8186985E-01
        2   -1    0    0  501    0  0.00000000000E+00  0.00000000000E+00  0.77407910993E+03  0.77407910994E+03  0.25500000920E-02 0. -1.
       -2   -1    0    0    0  501  0.00000000000E+00  0.00000000000E+00 -0.33215307660E+04  0.33215307660E+04  0.25500000920E-02 0.  1.
    10030    2    1    2    0    0  0.00000000000E+00  0.00000000000E+00 -0.25474516560E+04  0.40956098759E+04  0.32069471957E+04 0.  0.
        5    1    3    3  502    0  0.15225117673E+03  0.44934722468E+03 -0.32298296428E+04  0.32644930634E+04  0.46999998093E+01 0.  1.
       -5    1    3    3    0  502 -0.15225117673E+03 -0.44934722468E+03  0.68237798682E+03  0.83111681251E+03  0.46999998093E+01 0. -1.
</event>
<event>
 5   0  0.3938696E-06  0.3222057E+04  0.7818609E-02  0.8183016E-01
       -1   -1    0    0    0  501  0.00000000000E+00  0.00000000000E+00  0.14889676138E+04  0.14889676138E+04  0.50400001928E-02 0. -1.
        1   -1    0    0  501    0  0.00000000000E+00  0.00000000000E+00 -0.17430958805E+04  0.17430958805E+04  0.50400001928E-02 0.  1.
    10030    2    1    2    0    0  0.00000000000E+00  0.00000000000E+00 -0.25412826667E+03  0.32320634943E+04  0.32220573016E+04 0.  0.
        4    1    3    3  502    0 -0.36812234190E+02 -0.68395134167E+03  0.13356367922E+04  0.15010235948E+04  0.12699999809E+01 0. -1.
       -4    1    3    3    0  502  0.36812234190E+02  0.68395134167E+03 -0.15897650589E+04  0.17310398995E+04  0.12699999809E+01 0.  1.
</event>
<event>
 5   0  0.4142886E-06  0.1822484E+04  0.7818609E-02  0.8694433E-01
       -1   -1    0    0    0  501  0.00000000000E+00  0.00000000000E+00  0.11548671658E+04  0.11548671659E+04  0.50400001928E-02 0.  1.
        1   -1    0    0  501    0  0.00000000000E+00  0.00000000000E+00 -0.71901059658E+03  0.71901059659E+03  0.50400001928E-02 0. -1.
    10030    2    1    2    0    0  0.00000000000E+00  0.00000000000E+00  0.43585656927E+03  0.18738777624E+04  0.18224837227E+04 0.  0.
        5    1    3    3  502    0 -0.12239104250E+03 -0.54496358006E+03 -0.52235769904E+03  0.76475128415E+03  0.46999998093E+01 0. -1.
       -5    1    3    3    0  502  0.12239104250E+03  0.54496358006E+03  0.95821426831E+03  0.11091264783E+04  0.46999998093E+01 0.  1.
</event>
<event>
 5   0  0.2788054E-06  0.1864842E+04  0.7818609E-02  0.8672557E-01
        1   -1    0    0  501    0  0.00000000000E+00  0.00000000000E+00  0.14862175551E+04  0.14862175551E+04  0.50400001928E-02 0.  1.
       -1   -1    0    0    0  501  0.00000000000E+00  0.00000000000E+00 -0.58498121496E+03  0.58498121498E+03  0.50400001928E-02 0. -1.
    10030    2    1    2    0    0  0.00000000000E+00  0.00000000000E+00  0.90123634010E+03  0.20711987700E+04  0.18648424610E+04 0.  0.
        3    1    3    3  502    0  0.38937078271E+03 -0.76160950790E+03  0.86283576476E+03  0.12149667551E+04  0.10100000352E+00 0.  1.
       -3    1    3    3    0  502 -0.38937078271E+03  0.76160950790E+03  0.38400575333E+02  0.85623201490E+03  0.10100000352E+00 0. -1.
</event>
<event>
 5   0  0.4142886E-06  0.3108058E+04  0.7818609E-02  0.8213530E-01
       -1   -1    0    0    0  501  0.00000000000E+00  0.00000000000E+00  0.97693247350E+03  0.97693247351E+03  0.50400001928E-02 0.  1.
        1   -1    0    0  501    0  0.00000000000E+00  0.00000000000E+00 -0.24720303656E+04  0.24720303656E+04  0.50400001928E-02 0. -1.
    10030    2    1    2    0    0  0.00000000000E+00  0.00000000000E+00 -0.14950978921E+04  0.34489628391E+04  0.31080583905E+04 0.  0.
        5    1    3    3  502    0  0.70914243312E+03  0.40544300786E+03 -0.22145653802E+04  0.23604213472E+04  0.46999998093E+01 0. -1.
       -5    1    3    3    0  502 -0.70914243312E+03 -0.40544300786E+03  0.71946748814E+03  0.10885414919E+04  0.46999998093E+01 0.  1.
</event>
<event>
 5   0  0.7952307E-06  0.3132637E+04  0.7818609E-02  0.8206838E-01
        2   -1    0    0  501    0  0.00000000000E+00  0.00000000000E+00  0.29178997364E+04  0.29178997364E+04  0.25500000920E-02 0.  1.
       -2   -1    0    0    0  501  0.00000000000E+00  0.00000000000E+00 -0.84079431409E+03  0.84079431409E+03  0.25500000920E-02 0. -1.
    10030    2    1    2    0    0  0.00000000000E+00  0.00000000000E+00  0.20771054223E+04  0.37586940505E+04  0.31326369132E+04 0.  0.
        2    1    3    3  502    0  0.20874779315E+03  0.10390378898E+04  0.24223797655E+04  0.26440686651E+04  0.25500000920E-02 0.  1.
       -2    1    3    3    0  502 -0.20874779315E+03 -0.10390378898E+04 -0.34527434317E+03  0.11146253854E+04  0.25500000920E-02 0. -1.
</event>
<event>
 5   0  0.7510251E-06  0.2891375E+04  0.7818609E-02  0.8275448E-01
        2   -1    0    0  501    0  0.00000000000E+00  0.00000000000E+00  0.22646086559E+04  0.22646086560E+04  0.25500000920E-02 0.  1.
       -2   -1    0    0    0  501  0.00000000000E+00  0.00000000000E+00 -0.92290218768E+03  0.92290218768E+03  0.25500000920E-02 0. -1.
    10030    2    1    2    0    0  0.00000000000E+00  0.00000000000E+00  0.13417064683E+04  0.31875108436E+04  0.28913749551E+04 0.  0.
        3    1    3    3  502    0  0.92002835186E+03  0.11057994339E+04  0.82972313658E+03  0.16606279083E+04  0.10100000352E+00 0.  1.
       -3    1    3    3    0  502 -0.92002835186E+03 -0.11057994339E+04  0.51198333170E+03  0.15268829354E+04  0.10100000352E+00 0. -1.
</event>
<event>
 5   0  0.7510251E-06  0.2054904E+04  0.7818609E-02  0.8581373E-01
        2   -1    0    0  501    0  0.00000000000E+00  0.00000000000E+00  0.14819094140E+04  0.14819094140E+04  0.25500000920E-02 0.  1.
       -2   -1    0    0    0  501  0.00000000000E+00  0.00000000000E+00 -0.71236303073E+03  0.71236303073E+03  0.25500000920E-02 0. -1.
    10030    2    1    2    0    0  0.00000000000E+00  0.00000000000E+00  0.76954638324E+03  0.21942724447E+04  0.20549038726E+04 0.  0.
        3    1    3    3  502    0  0.49758226762E+03  0.34881674621E+03 -0.49990737068E+03  0.78687268662E+03  0.10100000352E+00 0. -1.
       -3    1    3    3    0  502 -0.49758226762E+03 -0.34881674621E+03  0.12694537539E+04  0.14073997581E+04  0.10100000352E+00 0.  1.
</event>
<event>
 5   0  0.2933646E-06  0.2078742E+04  0.7818609E-02  0.8570666E-01
        1   -1    0    0  501    0  0.00000000000E+00  0.00000000000E+00  0.67838104299E+03  0.67838104301E+03  0.50400001928E-02 0.  1.
       -1   -1    0    0    0  501  0.00000000000E+00  0.00000000000E+00 -0.15924565001E+04  0.15924565001E+04  0.50400001928E-02 0. -1.
    10030    2    1    2    0    0  0.00000000000E+00  0.00000000000E+00 -0.91407545709E+03  0.22708375431E+04  0.20787422173E+04 0.  0.
        2    1    3    3  502    0 -0.10363859122E+04  0.47576467690E+01 -0.54287293906E+03  0.11699698382E+04  0.25500000920E-02 0. -1.
       -2    1    3    3    0  502  0.10363859122E+04 -0.47576467690E+01 -0.37120251803E+03  0.11008677049E+04  0.25500000920E-02 0.  1.
</event>
<event>
 5   0  0.7941434E-06  0.3236953E+04  0.7818609E-02  0.8179126E-01
       -2   -1    0    0    0  501  0.00000000000E+00  0.00000000000E+00  0.14962292781E+04  0.14962292781E+04  0.25500000920E-02 0.  1.
        2   -1    0    0  501    0  0.00000000000E+00  0.00000000000E+00 -0.17507112995E+04  0.17507112995E+04  0.25500000920E-02 0. -1.
    10030    2    1    2    0    0  0.00000000000E+00  0.00000000000E+00 -0.25448202142E+03  0.32469405776E+04  0.32369525816E+04 0.  0.
        4    1    3    3  502    0 -0.37878228061E+03 -0.81786267887E+03 -0.14756688675E+04  0.17291545902E+04  0.12699999809E+01 0. -1.
       -4    1    3    3    0  502  0.37878228061E+03  0.81786267887E+03  0.12211868461E+04  0.15177859874E+04  0.12699999809E+01 0.  1.
</event>
<event>
 5   0  0.7510251E-06  0.3135469E+04  0.7818609E-02  0.8206071E-01
        2   -1    0    0  501    0  0.00000000000E+00  0.00000000000E+00  0.11874527483E+04  0.11874527483E+04  0.25500000920E-02 0. -1.
       -2   -1    0    0    0  501  0.00000000000E+00  0.00000000000E+00 -0.20698018659E+04  0.20698018659E+04  0.25500000920E-02 0.  1.
    10030    2    1    2    0    0  0.00000000000E+00  0.00000000000E+00 -0.88234911756E+03  0.32572546142E+04  0.31354692880E+04 0.  0.
        3    1    3    3  502    0 -0.88353057033E+02 -0.14836139209E+04 -0.95942552485E+03  0.17690149454E+04  0.10100000352E+00 0.  1.
       -3    1    3    3    0  502  0.88353057033E+02  0.14836139209E+04  0.77076407289E+02  0.14882396688E+04  0.10100000352E+00 0. -1.
</event>
<event>
 5   0  0.7510251E-06  0.1997194E+04  0.7818609E-02  0.8607934E-01
        2   -1    0    0  501    0  0.00000000000E+00  0.00000000000E+00  0.17469332328E+04  0.17469332328E+04  0.25500000920E-02 0. -1.
       -2   -1    0    0    0  501  0.00000000000E+00  0.00000000000E+00 -0.57082654290E+03  0.57082654291E+03  0.25500000920E-02 0.  1.
    10030    2    1    2    0    0  0.00000000000E+00  0.00000000000E+00  0.11761066899E+04  0.23177597757E+04  0.19971938894E+04 0.  0.
        3    1    3    3  502    0  0.36616884169E+03  0.34120567087E+03  0.15908659642E+04  0.16677396250E+04  0.10100000352E+00 0. -1.
       -3    1    3    3    0  502 -0.36616884169E+03 -0.34120567087E+03 -0.41475927434E+03  0.65002015070E+03  0.10100000352E+00 0.  1.
</event>
<event>
 5   0  0.7510251E-06  0.3031179E+04  0.7818609E-02  0.8234883E-01
       -2   -1    0    0    0  501  0.00000000000E+00  0.00000000000E+00  0.20753176254E+04  0.20753176254E+04  0.25500000920E-02 0.  1.
        2   -1    0    0  501    0  0.00000000000E+00  0.00000000000E+00 -0.11068240175E+04  0.11068240175E+04  0.25500000920E-02 0. -1.
    10030    2    1    2    0    0  0.00000000000E+00  0.00000000000E+00  0.96849360792E+03  0.31821416429E+04  0.30311789071E+04 0.  0.
        3    1    3    3  502    0 -0.21980057611E+03  0.14165925400E+04  0.10006440413E+04  0.17482377485E+04  0.10100000352E+00 0.  1.
       -3    1    3    3    0  502  0.21980057611E+03 -0.14165925400E+04 -0.32150433396E+02  0.14339038944E+04  0.10100000352E+00 0. -1.
</event>
<event>
 5   0  0.8237664E-06  0.2657422E+04  0.7818609E-02  0.8348954E-01
        2   -1    0    0  501    0  0.00000000000E+00  0.00000000000E+00  0.15465374442E+04  0.15465374442E+04  0.25500000920E-02 0. -1.
       -2   -1    0    0    0  501  0.00000000000E+00  0.00000000000E+00 -0.11415650868E+04  0.11415650868E+04  0.25500000920E-02 0.  1.
    10030    2    1    2    0    0  0.00000000000E+00  0.00000000000E+00  0.40497235741E+03  0.26881025310E+04  0.26574221732E+04 0.  0.
        5    1    3    3  502    0 -0.73311546393E+03  0.35784137292E+03  0.12633758795E+04  0.15038781315E+04  0.46999998093E+01 0. -1.
       -5    1    3    3    0  502  0.73311546393E+03 -0.35784137292E+03 -0.85840352205E+03  0.11842243995E+04  0.46999998093E+01 0.  1.
</event>
<event>
 5   0  0.4142886E-06  0.3159614E+04  0.7818609E-02  0.8199565E-01
        1   -1    0    0  501    0  0.00000000000E+00  0.00000000000E+00  0.13767212527E+04  0.13767212527E+04  0.50400001928E-02 0.  1.
       -1   -1    0    0    0  501  0.00000000000E+00  0.00000000000E+00 -0.18128510479E+04  0.18128510479E+04  0.50400001928E-02 0. -1.
    10030    2    1    2    0    0  0.00000000000E+00  0.00000000000E+00 -0.43612979524E+03  0.31895723006E+04  0.31596142585E+04 0.  0.
        5    1    3    3  502    0  0.85676414393E+03  0.44787516949E+03  0.10432343332E+04  0.14223209658E+04  0.46999998093E+01 0.  1.
       -5    1    3    3    0  502 -0.85676414393E+03 -0.44787516949E+03 -0.14793641285E+04  0.17672513348E+04  0.46999998093E+01 0. -1.
</event>
<event>
 5   0  0.2933646E-06  0.3241468E+04  0.7818609E-02  0.8177951E-01
        1   -1    0    0  501    0  0.00000000000E+00  0.00000000000E+00  0.19137569513E+04  0.19137569513E+04  0.50400001928E-02 0.  1.
       -1   -1    0    0    0  501  0.00000000000E+00  0.00000000000E+00 -0.13725769010E+04  0.13725769010E+04  0.50400001928E-02 0. -1.
    10030    2    1    2    0    0  0.00000000000E+00  0.00000000000E+00  0.54118005032E+03  0.32863338523E+04  0.32414679301E+04 0.  0.
        2    1    3    3  502    0  0.37614432416E+03 -0.10411751992E+04  0.14707178113E+04  0.18407990733E+04  0.25500000920E-02 0.  1.
       -2    1    3    3    0  502 -0.37614432416E+03  0.10411751992E+04 -0.92953776094E+03  0.14455347789E+04  0.25500000920E-02 0. -1.
</event>
<event>
 5   0  0.3938696E-06  0.2927159E+04  0.7818609E-02  0.8264843E-01
       -1   -1    0    0    0  501  0.00000000000E+00  0.00000000000E+00  0.90517843849E+03  0.90517843850E+03  0.50400001928E-02 0.  1.
        1   -1    0    0  501    0  0.00000000000E+00  0.00000000000E+00 -0.23664555771E+04  0.23664555771E+04  0.50400001928E-02 0. -1.
    10030    2    1    2    0    0  0.00000000000E+00  0.00000000000E+00 -0.14612771386E+04  0.32716340156E+04  0.29271587344E+04 0.  0.
        4    1    3    3  502    0  0.13725438936E+03  0.73045648371E+03  0.67855360860E+03  0.10064005438E+04  0.12699999809E+01 0.  1.
       -4    1    3    3    0  502 -0.13725438936E+03 -0.73045648371E+03 -0.21398307472E+04  0.22652334717E+04  0.12699999809E+01 0. -1.
</event>
<event>
 5   0  0.7510251E-06  0.3237655E+04  0.7818609E-02  0.8178943E-01
       -2   -1    0    0    0  501  0.00000000000E+00  0.00000000000E+00  0.12424964655E+04  0.12424964656E+04  0.25500000920E-02 0.  1.
        2   -1    0    0  501    0  0.00000000000E+00  0.00000000000E+00 -0.21091422037E+04  0.21091422037E+04  0.25500000920E-02 0. -1.
    10030    2    1    2    0    0  0.00000000000E+00  0.00000000000E+00 -0.86664573816E+03  0.33516386693E+04  0.32376545421E+04 0.  0.
        3    1    3    3  502    0  0.71981925788E+03 -0.43950241185E+03 -0.18637433650E+04  0.20456885088E+04  0.10100000352E+00 0. -1.
       -3    1    3    3    0  502 -0.71981925788E+03  0.43950241185E+03  0.99709762685E+03  0.13059501605E+04  0.10100000352E+00 0.  1.
</event>
<event>
 5   0  0.7510251E-06  0.3333414E+04  0.7818609E-02  0.8154445E-01
       -2   -1    0    0    0  501  0.00000000000E+00  0.00000000000E+00  0.15766541458E+04  0.15766541458E+04  0.25500000920E-02 0.  1.
        2   -1    0    0  501    0  0.00000000000E+00  0.00000000000E+00 -0.17619033825E+04  0.17619033825E+04  0.25500000920E-02 0. -1.
    10030    2    1    2    0    0  0.00000000000E+00  0.00000000000E+00 -0.18524923672E+03  0.33385575283E+04  0.33334140292E+04 0.  0.
        3    1    3    3  502    0  0.14540485118E+04 -0.62810541325E+03 -0.61221097990E+03  0.16981094720E+04  0.10100000352E+00 0. -1.
       -3    1    3    3    0  502 -0.14540485118E+04  0.62810541325E+03  0.42696174318E+03  0.16404480563E+04  0.10100000352E+00 0.  1.
</event>
<event>
 5   0  0.7971763E-06  0.2958065E+04  0.7818609E-02  0.8255808E-01
       -2   -1    0    0    0  501  0.00000000000E+00  0.00000000000E+00  0.91255293929E+03  0.91255293930E+03  0.25500000920E-02 0.  1.
        2   -1    0    0  501    0  0.00000000000E+00  0.00000000000E+00 -0.23971617521E+04  0.23971617521E+04  0.25500000920E-02 0. -1.
    10030    2    1    2    0    0  0.00000000000E+00  0.00000000000E+00 -0.14846088128E+04  0.33097146914E+04  0.29580649099E+04 0.  0.
        1    1    3    3  502    0  0.17418782744E+03  0.35223451108E+03 -0.23376877501E+04  0.23704840364E+04  0.50400001928E-02 0. -1.
       -1    1    3    3    0  502 -0.17418782744E+03 -0.35223451108E+03  0.85307893727E+03  0.93923065498E+03  0.50400001928E-02 0.  1.
</event>
<event>
 5   0  0.2635798E-06  0.1866630E+04  0.7818609E-02  0.8671647E-01
        1   -1    0    0  501    0  0.00000000000E+00  0.00000000000E+00  0.12507921875E+04  0.12507921875E+04  0.50400001928E-02 0. -1.
       -1   -1    0    0    0  501  0.00000000000E+00  0.00000000000E+00 -0.69642038916E+03  0.69642038918E+03  0.50400001928E-02 0.  1.
    10030    2    1    2    0    0  0.00000000000E+00  0.00000000000E+00  0.55437179829E+03  0.19472125766E+04  0.18666303137E+04 0.  0.
        1    1    3    3  502    0 -0.54462878664E+03 -0.26135423062E+03 -0.46496965781E+03  0.76231445730E+03  0.50400001928E-02 0.  1.
       -1    1    3    3    0  502  0.54462878664E+03  0.26135423062E+03  0.10193414561E+04  0.11848981193E+04  0.50400001928E-02 0. -1.
</event>
<event>
 5   0  0.7952307E-06  0.3555918E+04  0.7818609E-02  0.8100664E-01
       -2   -1    0    0    0  501  0.00000000000E+00  0.00000000000E+00  0.15956474837E+04  0.15956474837E+04  0.25500000920E-02 0.  1.
        2   -1    0    0  501    0  0.00000000000E+00  0.00000000000E+00 -0.19811010647E+04  0.19811010647E+04  0.25500000920E-02 0. -1.
    10030    2    1    2    0    0  0.00000000000E+00  0.00000000000E+00 -0.38545358095E+03  0.35767485484E+04  0.35559184068E+04 0.  0.
        2    1    3    3  502    0  0.19133722729E+03 -0.48269812221E+03 -0.19031382106E+04  0.19726992828E+04  0.25500000920E-02 0. -1.
       -2    1    3    3    0  502 -0.19133722729E+03  0.48269812221E+03  0.15176846296E+04  0.16040492657E+04  0.25500000920E-02 0.  1.
</event>
<event>
 5   0  0.7510251E-06  0.2908846E+04  0.7818609E-02  0.8270250E-01
       -2   -1    0    0    0  501  0.00000000000E+00  0.00000000000E+00  0.17552838406E+04  0.17552838406E+04  0.25500000920E-02 0. -1.
        2   -1    0    0  501    0  0.00000000000E+00  0.00000000000E+00 -0.12051305792E+04  0.12051305792E+04  0.25500000920E-02 0.  1.
    10030    2    1    2    0    0  0.00000000000E+00  0.00000000000E+00  0.55015326142E+03  0.29604144198E+04  0.29088459784E+04 0.  0.
        3    1    3    3  502    0 -0.29268469524E+03 -0.12938185984E+04 -0.33191551648E+03  0.13674058713E+04  0.10100000352E+00 0.  1.
       -3    1    3    3    0  502  0.29268469524E+03  0.12938185984E+04  0.88206877791E+03  0.15930085485E+04  0.10100000352E+00 0. -1.
</event>
<event>
 5   0  0.2635798E-06  0.2479624E+04  0.7818609E-02  0.8410281E-01
       -1   -1    0    0    0  501  0.00000000000E+00  0.00000000000E+00  0.82535427939E+03  0.82535427941E+03  0.50400001928E-02 0. -1.
        1   -1    0    0  501    0  0.00000000000E+00  0.00000000000E+00 -0.18623927608E+04  0.18623927608E+04  0.50400001928E-02 0.  1.
    10030    2    1    2    0    0  0.00000000000E+00  0.00000000000E+00 -0.10370384814E+04  0.26877470402E+04  0.24796240320E+04 0.  0.
        1    1    3    3  502    0  0.11255499846E+04 -0.12046492589E+03 -0.10666930050E+04  0.15553805107E+04  0.50400001928E-02 0.  1.
       -1    1    3    3    0  502 -0.11255499846E+04  0.12046492589E+03  0.29654523606E+02  0.11323665295E+04  0.50400001928E-02 0. -1.
</event>
<event>
 5   0  0.7941434E-06  0.2694681E+04  0.7818609E-02  0.8336733E-01
        2   -1    0    0  501    0  0.00000000000E+00  0.00000000000E+00  0.18728143762E+04  0.18728143762E+04  0.25500000920E-02 0.  1.
       -2   -1    0    0    0  501  0.00000000000E+00  0.00000000000E+00 -0.96930415460E+03  0.96930415460E+03  0.25500000920E-02 0. -1.
    10030    2    1    2    0    0  0.00000000000E+00  0.00000000000E+00  0.90351022161E+03  0.28421185308E+04  0.26946812469E+04 0.  0.
        4    1    3    3  502    0 -0.90390732198E+03  0.43625980640E+03  0.13997983048E+04  0.17224424438E+04  0.12699999809E+01 0.  1.
       -4    1    3    3    0  502  0.90390732198E+03 -0.43625980640E+03 -0.49628808314E+03  0.11196760870E+04  0.12699999809E+01 0. -1.
</event>
<event>
 5   0  0.8237664E-06  0.1953617E+04  0.7818609E-02  0.8628619E-01
       -2   -1    0    0    0  501  0.00000000000E+00  0.00000000000E+00  0.49563719888E+03  0.49563719889E+03  0.25500000920E-02 0. -1.
        2   -1    0    0  501    0  0.00000000000E+00  0.00000000000E+00 -0.19251068754E+04  0.19251068754E+04  0.25500000920E-02 0.  1.
    10030    2    1    2    0    0  0.00000000000E+00  0.00000000000E+00 -0.14294696765E+04  0.24207440743E+04  0.19536167273E+04 0.  0.
        5    1    3    3  502    0  0.45598651947E+03 -0.46497395628E+03 -0.16168266196E+04  0.17430647991E+04  0.46999998093E+01 0.  1.
       -5    1    3    3    0  502 -0.45598651947E+03  0.46497395628E+03  0.18735694306E+03  0.67767927522E+03  0.46999998093E+01 0. -1.
</event>
<event>
 5   0  0.7941434E-06  0.3301495E+04  0.7818609E-02  0.8162515E-01
        2   -1    0    0  501    0  0.00000000000E+00  0.00000000000E+00  0.33091410259E+04  0.33091410259E+04  0.25500000920E-02 0. -1.
       -2   -1    0    0    0  501  0.00000000000E+00  0.00000000000E+00 -0.82346688459E+03  0.82346688460E+03  0.25500000920E-02 0.  1.
    10030    2    1    2    0    0  0.00000000000E+00  0.00000000000E+00  0.24856741413E+04  0.41326079105E+04  0.33014954498E+04 0.  0.
        4    1    3    3  502    0  0.50073584188E+03  0.14236854560E+03 -0.71802637327E+03  0.88688706820E+03  0.12699999809E+01 0.  1.
       -4    1    3    3    0  502 -0.50073584188E+03 -0.14236854560E+03  0.32037005145E+04  0.32457208423E+04  0.12699999809E+01 0. -1.
</event>
<event>
 5   0  0.7510251E-06  0.3237408E+04  0.7818609E-02  0.8179007E-01
       -2   -1    0    0    0  501  0.00000000000E+00  0.00000000000E+00  0.16431564068E+04  0.16431564068E+04  0.25500000920E-02 0. -1.
        2   -1    0    0  501    0  0.00000000000E+00  0.00000000000E+00 -0.15946150821E+04  0.15946150821E+04  0.25500000920E-02 0.  1.
    10030    2    1    2    0    0  0.00000000000E+00  0.00000000000E+00  0.48541324737E+02  0.32377714889E+04  0.32374075978E+04 0.  0.
        3    1    3    3  502    0 -0.15058434501E+04  0.43532405964E+03 -0.37966883755E+03  0.16128298018E+04  0.10100000352E+00 0.  1.
       -3    1    3    3    0  502  0.15058434501E+04 -0.43532405964E+03  0.42821016229E+03  0.16249416871E+04  0.10100000352E+00 0. -1.
</event>
<event>
 5   0  0.7510251E-06  0.3178327E+04  0.7818609E-02  0.8194564E-01
       -2   -1    0    0    0  501  0.00000000000E+00  0.00000000000E+00  0.15410071383E+04  0.15410071383E+04  0.25500000920E-02 0.  1.
        2   -1    0    0  501    0  0.00000000000E+00  0.00000000000E+00 -0.16388250903E+04  0.16388250903E+04  0.25500000920E-02 0. -1.
    10030    2    1    2    0    0  0.00000000000E+00  0.00000000000E+00 -0.97817952015E+02  0.31798322286E+04  0.31783273353E+04 0.  0.
        3    1    3    3  502    0 -0.12058192742E+04  0.62217787092E+03 -0.87654653400E+03  0.16153758886E+04  0.10100000352E+00 0. -1.
       -3    1    3    3    0  502  0.12058192742E+04 -0.62217787092E+03  0.77872858199E+03  0.15644563400E+04  0.10100000352E+00 0.  1.
</event>
<event>
 5   0  0.7941434E-06  0.2258886E+04  0.7818609E-02  0.8494310E-01
        2   -1    0    0  501    0  0.00000000000E+00  0.00000000000E+00  0.14844639980E+04  0.14844639980E+04  0.25500000920E-02 0.  1.
       -2   -1    0    0    0  501  0.00000000000E+00  0.00000000000E+00 -0.85932821719E+03  0.85932821720E+03  0.25500000920E-02 0. -1.
    10030    2    1    2    0    0  0.00000000000E+00  0.00000000000E+00  0.62513578077E+03  0.23437922152E+04  0.22588862750E+04 0.  0.
        4    1    3    3  502    0  0.43547058790E+03 -0.58722829394E+03 -0.58070306523E+03  0.93364306080E+03  0.12699999809E+01 0. -1.
       -4    1    3    3    0  502 -0.43547058790E+03  0.58722829394E+03  0.12058388460E+04  0.14101491544E+04  0.12699999809E+01 0.  1.
</event>
<event>
 5   0  0.7510251E-06  0.3114630E+04  0.7818609E-02  0.8211734E-01
       -2   -1    0    0    0  501  0.00000000000E+00  0.00000000000E+00  0.16650909555E+04  0.16650909555E+04  0.25500000920E-02 0. -1.
        2   -1    0    0  501    0  0.00000000000E+00  0.00000000000E+00 -0.14565152982E+04  0.14565152982E+04  0.25500000920E-02 0.  1.
    10030    2    1    2    0    0  0.00000000000E+00  0.00000000000E+00  0.20857565734E+03  0.31216062537E+04  0.31146302828E+04 0.  0.
        3    1    3    3  502    0 -0.23238947262E+03  0.18326613878E+03 -0.14280705636E+04  0.14584158836E+04  0.10100000352E+00 0.  1.
       -3    1    3    3    0  502  0.23238947262E+03 -0.18326613878E+03  0.16366462209E+04  0.16631903701E+04  0.10100000352E+00 0. -1.
</event>
<event>
 5   0  0.4142886E-06  0.3207515E+04  0.7818609E-02  0.8186835E-01
       -1   -1    0    0    0  501  0.00000000000E+00  0.00000000000E+00  0.19832099045E+04  0.19832099045E+04  0.50400001928E-02 0.  1.
        1   -1    0    0  501    0  0.00000000000E+00  0.00000000000E+00 -0.12969070036E+04  0.12969070036E+04  0.50400001928E-02 0. -1.
    10030    2    1    2    0    0  0.00000000000E+00  0.00000000000E+00  0.68630290088E+03  0.32801169081E+04  0.32075154340E+04 0.  0.
        5    1    3    3  502    0 -0.31378293042E+03  0.21443161168E+03  0.19364860718E+04  0.19734338194E+04  0.46999998093E+01 0.  1.
       -5    1    3    3    0  502  0.31378293042E+03 -0.21443161168E+03 -0.12501831709E+04  0.13066830887E+04  0.46999998093E+01 0. -1.
</event>
<event>
 5   0  0.7971763E-06  0.3160382E+04  0.7818609E-02  0.8199359E-01
       -2   -1    0    0    0  501  0.00000000000E+00  0.00000000000E+00  0.11224725759E+04  0.11224725759E+04  0.25500000920E-02 0.  1.
        2   -1    0    0  501    0  0.00000000000E+00  0.00000000000E+00 -0.22245562726E+04  0.22245562726E+04  0.25500000920E-02 0. -1.
    10030    2    1    2    0    0  0.00000000000E+00  0.00000000000E+00 -0.11020836967E+04  0.33470288485E+04  0.31603818817E+04 0.  0.
        1    1    3    3  502    0  0.19280243275E+03 -0.15124650590E+04 -0.99062133801E+03  0.18182557488E+04  0.50400001928E-02 0. -1.
       -1    1    3    3    0  502 -0.19280243275E+03  0.15124650590E+04 -0.11146235871E+03  0.15287730996E+04  0.50400001928E-02 0.  1.
</event>
<event>
 5   0  0.2788054E-06  0.3187572E+04  0.7818609E-02  0.8192107E-01
       -1   -1    0    0    0  501  0.00000000000E+00  0.00000000000E+00  0.11307169780E+04  0.11307169780E+04  0.50400001928E-02 0. -1.
        1   -1    0    0  501    0  0.00000000000E+00  0.00000000000E+00 -0.22464976565E+04  0.22464976565E+04  0.50400001928E-02 0.  1.
    10030    2    1    2    0    0  0.00000000000E+00  0.00000000000E+00 -0.11157806785E+04  0.33772146345E+04  0.31875715153E+04 0.  0.
        3    1    3    3  502    0 -0.94292156818E+03 -0.12841381687E+04 -0.60575687930E+03  0.17044216987E+04  0.10100000352E+00 0. -1.
       -3    1    3    3    0  502  0.94292156818E+03  0.12841381687E+04 -0.51002379920E+03  0.16727929358E+04  0.10100000352E+00 0.  1.
</event>
<event>
 5   0  0.7941434E-06  0.1623986E+04  0.7818609E-02  0.8805947E-01
       -2   -1    0    0    0  501  0.00000000000E+00  0.00000000000E+00  0.57840149490E+03  0.57840149490E+03  0.25500000920E-02 0.  1.
        2   -1    0    0  501    0  0.00000000000E+00  0.00000000000E+00 -0.11399214993E+04  0.11399214993E+04  0.25500000920E-02 0. -1.
    10030    2    1    2    0    0  0.00000000000E+00  0.00000000000E+00 -0.56152000439E+03  0.17183229942E+04  0.16239855902E+04 0.  0.
        4    1    3    3  502    0  0.69123199785E+03  0.38430644184E+03 -0.47539557420E+03  0.92276523610E+03  0.12699999809E+01 0. -1.
       -4    1    3    3    0  502 -0.69123199785E+03 -0.38430644184E+03 -0.86124430190E+02  0.79555775809E+03  0.12699999809E+01 0.  1.
</event>
<event>
 5   0  0.7941434E-06  0.3045531E+04  0.7818609E-02  0.8230847E-01
       -2   -1    0    0    0  501  0.00000000000E+00  0.00000000000E+00  0.11251968959E+04  0.11251968959E+04  0.25500000920E-02 0.  1.
        2   -1    0    0  501    0  0.00000000000E+00  0.00000000000E+00 -0.20608079058E+04  0.20608079058E+04  0.25500000920E-02 0. -1.
    10030    2    1    2    0    0  0.00000000000E+00  0.00000000000E+00 -0.93561100992E+03  0.31860048018E+04  0.30455309283E+04 0.  0.
        4    1    3    3  502    0  0.63121852415E+03 -0.13850056974E+04 -0.51614776734E+03  0.16071987238E+04  0.12699999809E+01 0.  1.
       -4    1    3    3    0  502 -0.63121852415E+03  0.13850056974E+04 -0.41946324258E+03  0.15788060780E+04  0.12699999809E+01 0. -1.
</event>
<event>
 5   0  0.7941434E-06  0.3019514E+04  0.7818609E-02  0.8238180E-01
        2   -1    0    0  501    0  0.00000000000E+00  0.00000000000E+00  0.14810753850E+04  0.14810753850E+04  0.25500000920E-02 0. -1.
       -2   -1    0    0    0  501  0.00000000000E+00  0.00000000000E+00 -0.15389945170E+04  0.15389945170E+04  0.25500000920E-02 0.  1.
    10030    2    1    2    0    0  0.00000000000E+00  0.00000000000E+00 -0.57919132010E+02  0.30200699019E+04  0.30195144621E+04 0.  0.
        4    1    3    3  502    0 -0.77794909493E+03  0.66380034256E+03  0.10818885119E+04  0.14887310214E+04  0.12699999809E+01 0. -1.
       -4    1    3    3    0  502  0.77794909493E+03 -0.66380034256E+03 -0.11398076439E+04  0.15313388805E+04  0.12699999809E+01 0.  1.
</event>
<event>
 5   0  0.7971763E-06  0.3117145E+04  0.7818609E-02  0.8211048E-01
       -2   -1    0    0    0  501  0.00000000000E+00  0.00000000000E+00  0.92956587704E+03  0.92956587704E+03  0.25500000920E-02 0.  1.
        2   -1    0    0  501    0  0.00000000000E+00  0.00000000000E+00 -0.26132072536E+04  0.26132072536E+04  0.25500000920E-02 0. -1.
    10030    2    1    2    0    0  0.00000000000E+00  0.00000000000E+00 -0.16836413765E+04  0.35427731306E+04  0.31171450352E+04 0.  0.
        1    1    3    3  502    0 -0.13115838842E+04 -0.12037696603E+03  0.10527285353E+03  0.13212968148E+04  0.50400001928E-02 0.  1.
       -1    1    3    3    0  502  0.13115838842E+04  0.12037696603E+03 -0.17889142301E+04  0.22214763158E+04  0.50400001928E-02 0. -1.
</event>
<event>
 5   0  0.2635798E-06  0.3328957E+04  0.7818609E-02  0.8155566E-01
        1   -1    0    0  501    0  0.00000000000E+00  0.00000000000E+00  0.98391369622E+03  0.98391369623E+03  0.50400001928E-02 0. -1.
       -1   -1    0    0    0  501  0.00000000000E+00  0.00000000000E+00 -0.28157837813E+04  0.28157837813E+04  0.50400001928E-02 0.  1.
    10030    2    1    2    0    0  0.00000000000E+00  0.00000000000E+00 -0.18318700851E+04  0.37996974776E+04  0.33289567303E+04 0.  0.
        1    1    3    3  502    0 -0.16427179845E+03  0.67914613574E+03 -0.26402784682E+04  0.27311710103E+04  0.50400001928E-02 0.  1.
       -1    1    3    3    0  502  0.16427179845E+03 -0.67914613574E+03  0.80840838311E+03  0.10685264673E+04  0.50400001928E-02 0. -1.
</event>
<event>
 5   0  0.4142886E-06  0.3294682E+04  0.7818609E-02  0.8164250E-01
        1   -1    0    0  501    0  0.00000000000E+00  0.00000000000E+00  0.20969994038E+04  0.20969994038E+04  0.50400001928E-02 0. -1.
       -1   -1    0    0    0  501  0.00000000000E+00  0.00000000000E+00 -0.12941022834E+04  0.12941022834E+04  0.50400001928E-02 0.  1.
    10030    2    1    2    0    0  0.00000000000E+00  0.00000000000E+00  0.80289712037E+03  0.33911016872E+04  0.32946816032E+04 0.  0.
        5    1    3    3  502    0  0.53048922924E+03  0.87092027517E+03 -0.93016336261E+03  0.13802705964E+04  0.46999998093E+01 0.  1.
       -5    1    3    3    0  502 -0.53048922924E+03 -0.87092027517E+03  0.17330604830E+04  0.20108310908E+04  0.46999998093E+01 0. -1.
</event>
<event>
 5   0  0.7941434E-06  0.3190575E+04  0.7818609E-02  0.8191311E-01
        2   -1    0    0  501    0  0.00000000000E+00  0.00000000000E+00  0.19870974546E+04  0.19870974546E+04  0.25500000920E-02 0. -1.
       -2   -1    0    0    0  501  0.00000000000E+00  0.00000000000E+00 -0.12807334374E+04  0.12807334374E+04  0.25500000920E-02 0.  1.
    10030    2    1    2    0    0  0.00000000000E+00  0.00000000000E+00  0.70636401726E+03  0.32678308920E+04  0.31905749661E+04 0.  0.
        4    1    3    3  502    0  0.35974368759E+03  0.12461060623E+04  0.13045132763E+04  0.18395522119E+04  0.12699999809E+01 0. -1.
       -4    1    3    3    0  502 -0.35974368759E+03 -0.12461060623E+04 -0.59814925901E+03  0.14282786802E+04  0.12699999809E+01 0.  1.
</event>
<event>
 5   0  0.7971763E-06  0.2836473E+04  0.7818609E-02  0.8292034E-01
        2   -1    0    0  501    0  0.00000000000E+00  0.00000000000E+00  0.28211061925E+04  0.28211061925E+04  0.25500000920E-02 0.  1.
       -2   -1    0    0    0  501  0.00000000000E+00  0.00000000000E+00 -0.71298092754E+03  0.71298092755E+03  0.25500000920E-02 0. -1.
    10030    2    1    2    0    0  0.00000000000E+00  0.00000000000E+00  0.21081252649E+04  0.35340871200E+04  0.28364730986E+04 0.  0.
        1    1    3    3  502    0 -0.87124907619E+03 -0.92027413637E+03  0.18473832496E+04  0.22402688030E+04  0.50400001928E-02 0.  1.
       -1    1    3    3    0  502  0.87124907619E+03  0.92027413637E+03  0.26074201534E+03  0.12938183170E+04  0.50400001928E-02 0. -1.
</event>
<event>
 5   0  0.7952307E-06  0.3148677E+04  0.7818609E-02  0.8202505E-01
       -2   -1    0    0    0  501  0.00000000000E+00  0.00000000000E+00  0.10653947907E+04  0.10653947907E+04  0.25500000920E-02 0. -1.
        2   -1    0    0  501    0  0.00000000000E+00  0.00000000000E+00 -0.23264062272E+04  0.23264062272E+04  0.25500000920E-02 0.  1.
    10030    2    1    2    0    0  0.00000000000E+00  0.00000000000E+00 -0.12610114365E+04  0.33918010179E+04  0.31486765954E+04 0.  0.
        2    1    3    3  502    0 -0.15233648654E+04 -0.34356802319E+03 -0.41543586333E+03  0.16159413530E+04  0.25500000920E-02 0. -1.
       -2    1    3    3    0  502  0.15233648654E+04  0.34356802319E+03 -0.84557557313E+03  0.17758596649E+04  0.25500000920E-02 0.  1.
</event>
<event>
 5   0  0.8237664E-06  0.3167532E+04  0.7818609E-02  0.8197445E-01
       -2   -1    0    0    0  501  0.00000000000E+00  0.00000000000E+00  0.12545723744E+04  0.12545723744E+04  0.25500000920E-02 0.  1.
        2   -1    0    0  501    0  0.00000000000E+00  0.00000000000E+00 -0.19993381029E+04  0.19993381029E+04  0.25500000920E-02 0. -1.
    10030    2    1    2    0    0  0.00000000000E+00  0.00000000000E+00 -0.74476572848E+03  0.32539104773E+04  0.31675317526E+04 0.  0.
        5    1    3    3  502    0 -0.11901239467E+03 -0.82999141232E+03 -0.17526158614E+04  0.19428675051E+04  0.46999998093E+01 0. -1.
       -5    1    3    3    0  502  0.11901239467E+03  0.82999141232E+03  0.10078501329E+04  0.13110429722E+04  0.46999998093E+01 0.  1.
</event>
<event>
 5   0  0.7952307E-06  0.3228288E+04  0.7818609E-02  0.8181386E-01
       -2   -1    0    0    0  501  0.00000000000E+00  0.00000000000E+00  0.75649509512E+03  0.75649509513E+03  0.25500000920E-02 0.  1.
        2   -1    0    0  501    0  0.00000000000E+00  0.00000000000E+00 -0.34441217366E+04  0.34441217366E+04  0.25500000920E-02 0. -1.
    10030    2    1    2    0    0  0.00000000000E+00  0.00000000000E+00 -0.26876266415E+04  0.42006168318E+04  0.32282882156E+04 0.  0.
        2    1    3    3  502    0  0.20623422282E+03 -0.35794817282E+02  0.73876067329E+03  0.76784188216E+03  0.25500000920E-02 0.  1.
       -2    1    3    3    0  502 -0.20623422282E+03  0.35794817282E+02 -0.34263873148E+04  0.34327749496E+04  0.25500000920E-02 0. -1.
</event>
<event>
 5   0  0.2788054E-06  0.2954876E+04  0.7818609E-02  0.8256735E-01
        1   -1    0    0  501    0  0.00000000000E+00  0.00000000000E+00  0.21694329973E+04  0.21694329973E+04  0.50400001928E-02 0. -1.
       -1   -1    0    0    0  501  0.00000000000E+00  0.00000000000E+00 -0.10061723443E+04  0.10061723443E+04  0.50400001928E-02 0.  1.
    10030    2    1    2    0    0  0.00000000000E+00  0.00000000000E+00  0.11632606530E+04  0.31756053416E+04  0.29548762984E+04 0.  0.
        3    1    3    3  502    0 -0.28904437459E+03  0.58021821001E+03  0.20084431901E+04  0.21104605848E+04  0.10100000352E+00 0. -1.
       -3    1    3    3    0  502  0.28904437459E+03 -0.58021821001E+03 -0.84518253713E+03  0.10651447568E+04  0.10100000352E+00 0.  1.
</event>
<event>
 5   0  0.7971763E-06  0.3217534E+04  0.7818609E-02  0.8184202E-01
        2   -1    0    0  501    0  0.00000000000E+00  0.00000000000E+00  0.11438124949E+04  0.11438124949E+04  0.25500000920E-02 0. -1.
       -2   -1    0    0    0  501  0.00000000000E+00  0.00000000000E+00 -0.22627228670E+04  0.22627228670E+04  0.25500000920E-02 0.  1.
    10030    2    1    2    0    0  0.00000000000E+00  0.00000000000E+00 -0.11189103721E+04  0.34065353619E+04  0.32175336441E+04 0.  0.
        1    1    3    3  502    0  0.64064337691E+03 -0.11691570086E+04 -0.15127801248E+04  0.20163967252E+04  0.50400001928E-02 0. -1.
       -1    1    3    3    0  502 -0.64064337691E+03  0.11691570086E+04  0.39386975277E+03  0.13901386367E+04  0.50400001928E-02 0.  1.
</event>
<event>
 5   0  0.3938696E-06  0.1906850E+04  0.7818609E-02  0.8651454E-01
       -1   -1    0    0    0  501  0.00000000000E+00  0.00000000000E+00  0.12144408626E+04  0.12144408626E+04  0.50400001928E-02 0.  1.
        1   -1    0    0  501    0  0.00000000000E+00  0.00000000000E+00 -0.74850879756E+03  0.74850879758E+03  0.50400001928E-02 0. -1.
    10030    2    1    2    0    0  0.00000000000E+00  0.00000000000E+00  0.46593206502E+03  0.19629496602E+04  0.19068504606E+04 0.  0.
        4    1    3    3  502    0 -0.19887688236E+03  0.42613649238E+03 -0.62081576006E+03  0.77881842898E+03  0.12699999809E+01 0. -1.
       -4    1    3    3    0  502  0.19887688236E+03 -0.42613649238E+03  0.10867478251E+04  0.11841312312E+04  0.12699999809E+01 0.  1.
</event>
<event>
 5   0  0.3938696E-06  0.3155416E+04  0.7818609E-02  0.8200692E-01
        1   -1    0    0  501    0  0.00000000000E+00  0.00000000000E+00  0.20519937627E+04  0.20519937627E+04  0.50400001928E-02 0. -1.
       -1   -1    0    0    0  501  0.00000000000E+00  0.00000000000E+00 -0.12130456861E+04  0.12130456861E+04  0.50400001928E-02 0.  1.
    10030    2    1    2    0    0  0.00000000000E+00  0.00000000000E+00  0.83894807659E+03  0.32650394488E+04  0.31554157772E+04 0.  0.
        4    1    3    3  502    0 -0.10541789985E+04  0.34479669150E+02  0.16335562140E+04  0.19444767228E+04  0.12699999809E+01 0. -1.
       -4    1    3    3    0  502  0.10541789985E+04 -0.34479669150E+02 -0.79460813737E+03  0.13205627260E+04  0.12699999809E+01 0.  1.
</event>
<event>
 5   0  0.7510251E-06  0.3124030E+04  0.7818609E-02  0.8209174E-01
       -2   -1    0    0    0  501  0.00000000000E+00  0.00000000000E+00  0.15063762586E+04  0.15063762586E+04  0.25500000920E-02 0.  1.
        2   -1    0    0  501    0  0.00000000000E+00  0.00000000000E+00 -0.16197093034E+04  0.16197093034E+04  0.25500000920E-02 0. -1.
    10030    2    1    2    0    0  0.00000000000E+00  0.00000000000E+00 -0.11333304484E+03  0.31260855620E+04  0.31240304995E+04 0.  0.
        3    1    3    3  502    0  0.37574410820E+03  0.10629201992E+04  0.10252054773E+04  0.15238206147E+04  0.10100000352E+00 0.  1.
       -3    1    3    3    0  502 -0.37574410820E+03 -0.10629201992E+04 -0.11385385222E+04  0.16022649473E+04  0.10100000352E+00 0. -1.
</event>
<event>
 5   0  0.8237664E-06  0.1655643E+04  0.7818609E-02  0.8787075E-01
       -2   -1    0    0    0  501  0.00000000000E+00  0.00000000000E+00  0.41513471234E+03  0.41513471235E+03  0.25500000920E-02 0.  1.
        2   -1    0    0  501    0  0.00000000000E+00  0.00000000000E+00 -0.16507622507E+04  0.16507622507E+04  0.25500000920E-02 0. -1.
    10030    2    1    2    0    0  0.00000000000E+00  0.00000000000E+00 -0.12356275383E+04  0.20658969630E+04  0.16556433337E+04 0.  0.
        5    1    3    3  502    0 -0.27674599779E+03  0.58380086291E+03 -0.12636042086E+04  0.14192002962E+04  0.46999998093E+01 0. -1.
       -5    1    3    3    0  502  0.27674599779E+03 -0.58380086291E+03  0.27976670222E+02  0.64669666684E+03  0.46999998093E+01 0.  1.
</event>
<event>
 5   0  0.8237664E-06  0.3198233E+04  0.7818609E-02  0.8189284E-01
        2   -1    0    0  501    0  0.00000000000E+00  0.00000000000E+00  0.16832713827E+04  0.16832713827E+04  0.25500000920E-02 0.  1.
       -2   -1    0    0    0  501  0.00000000000E+00  0.00000000000E+00 -0.15191691497E+04  0.15191691497E+04  0.25500000920E-02 0. -1.
    10030    2    1    2    0    0  0.00000000000E+00  0.00000000000E+00  0.16410223300E+03  0.32024405323E+04  0.31982332342E+04 0.  0.
        5    1    3    3  502    0 -0.60314109285E+02 -0.78969776853E+03  0.14730839770E+04  0.16725007775E+04  0.46999998093E+01 0.  1.
       -5    1    3    3    0  502  0.60314109285E+02  0.78969776853E+03 -0.13089817440E+04  0.15299397548E+04  0.46999998093E+01 0. -1.
</event>
<event>
 5   0  0.7971763E-06  0.1692245E+04  0.7818609E-02  0.8765799E-01
       -2   -1    0    0    0  501  0.00000000000E+00  0.00000000000E+00  0.77586275988E+03  0.77586275989E+03  0.25500000920E-02 0.  1.
        2   -1    0    0  501    0  0.00000000000E+00  0.00000000000E+00 -0.92274524747E+03  0.92274524748E+03  0.25500000920E-02 0. -1.
    10030    2    1    2    0    0  0.00000000000E+00  0.00000000000E+00 -0.14688248759E+03  0.16986080074E+04  0.16922454602E+04 0.  0.
        1    1    3    3  502    0  0.43143702315E+03  0.15497952891E+03  0.64040569821E+03  0.78757603929E+03  0.50400001928E-02 0.  1.
       -1    1    3    3    0  502 -0.43143702315E+03 -0.15497952891E+03 -0.78728818581E+03  0.91103196808E+03  0.50400001928E-02 0. -1.
</event>
<event>
 5   0  0.2635798E-06  0.2776998E+04  0.7818609E-02  0.8310445E-01
        1   -1    0    0  501    0  0.00000000000E+00  0.00000000000E+00  0.19620978370E+04  0.19620978370E+04  0.50400001928E-02 0. -1.
       -1   -1    0    0    0  501  0.00000000000E+00  0.00000000000E+00 -0.98258579224E+03  0.98258579225E+03  0.50400001928E-02 0.  1.
    10030    2    1    2    0    0  0.00000000000E+00  0.00000000000E+00  0.97951204472E+03  0.29446836292E+04  0.27769979889E+04 0.  0.
        1    1    3    3  502    0  0.21475886821E+03  0.11231760524E+02  0.19443312410E+04  0.19561880018E+04  0.50400001928E-02 0. -1.
       -1    1    3    3    0  502 -0.21475886821E+03 -0.11231760524E+02 -0.96481919624E+03  0.98849562739E+03  0.50400001928E-02 0.  1.
</event>
<event>
 5   0  0.8237664E-06  0.2057803E+04  0.7818609E-02  0.8580063E-01
        2   -1    0    0  501    0  0.00000000000E+00  0.00000000000E+00  0.18891319915E+04  0.18891319915E+04  0.25500000920E-02 0. -1.
       -2   -1    0    0    0  501  0.00000000000E+00  0.00000000000E+00 -0.56038356565E+03  0.56038356566E+03  0.25500000920E-02 0.  1.
    10030    2    1    2    0    0  0.00000000000E+00  0.00000000000E+00  0.13287484259E+04  0.24495155572E+04  0.20578032184E+04 0.  0.
        5    1    3    3  502    0  0.43037746698E+02 -0.32501246656E+03  0.18252788520E+04  0.18544946289E+04  0.46999998093E+01 0. -1.
       -5    1    3    3    0  502 -0.43037746698E+02  0.32501246656E+03 -0.49653042611E+03  0.59502092830E+03  0.46999998093E+01 0.  1.
</event>
<event>
 5   0  0.7952307E-06  0.2565169E+04  0.7818609E-02  0.8380130E-01
       -2   -1    0    0    0  501  0.00000000000E+00  0.00000000000E+00  0.11382170184E+04  0.11382170184E+04  0.25500000920E-02 0.  1.
        2   -1    0    0  501    0  0.00000000000E+00  0.00000000000E+00 -0.14452634470E+04  0.14452634470E+04  0.25500000920E-02 0. -1.
    10030    2    1    2    0    0  0.00000000000E+00  0.00000000000E+00 -0.30704642859E+03  0.25834804654E+04  0.25651693523E+04 0.  0.
        2    1    3    3  502    0 -0.96175582818E+03 -0.27135378975E+03  0.65621621792E+03  0.11955027716E+04  0.25500000920E-02 0.  1.
       -2    1    3    3    0  502  0.96175582818E+03  0.27135378975E+03 -0.96326264652E+03  0.13879776938E+04  0.25500000920E-02 0. -1.
</event>
<event>
 5   0  0.7510251E-06  0.3837807E+04  0.7818609E-02  0.8038090E-01
        2   -1    0    0  501    0  0.00000000000E+00  0.00000000000E+00  0.18339176181E+04  0.18339176181E+04  0.25500000920E-02 0.  1.
       -2   -1    0    0    0  501  0.00000000000E+00  0.00000000000E+00 -0.20078274282E+04  0.20078274282E+04  0.25500000920E-02 0. -1.
    10030    2    1    2    0    0  0.00000000000E+00  0.00000000000E+00 -0.17390981004E+03  0.38417450463E+04  0.38378067146E+04 0.  0.
        3    1    3    3  502    0 -0.79184575279E+03  0.17361549848E+04  0.11557982603E+03  0.19117040916E+04  0.10100000352E+00 0.  1.
       -3    1    3    3    0  502  0.79184575279E+03 -0.17361549848E+04 -0.28948963607E+03  0.19300409547E+04  0.10100000352E+00 0. -1.
</event>
<event>
 5   0  0.2635798E-06  0.3127572E+04  0.7818609E-02  0.8208212E-01
       -1   -1    0    0    0  501  0.00000000000E+00  0.00000000000E+00  0.10839922368E+04  0.10839922368E+04  0.50400001928E-02 0.  1.
        1   -1    0    0  501    0  0.00000000000E+00  0.00000000000E+00 -0.22559444412E+04  0.22559444412E+04  0.50400001928E-02 0. -1.
    10030    2    1    2    0    0  0.00000000000E+00  0.00000000000E+00 -0.11719522044E+04  0.33399366779E+04  0.31275717487E+04 0.  0.
        1    1    3    3  502    0  0.10344982693E+04  0.11725800672E+04 -0.56761635432E+03  0.16635260770E+04  0.50400001928E-02 0.  1.
       -1    1    3    3    0  502 -0.10344982693E+04 -0.11725800672E+04 -0.60433585008E+03  0.16764106009E+04  0.50400001928E-02 0. -1.
</event>
<event>
 5   0  0.7510251E-06  0.2943359E+04  0.7818609E-02  0.8260092E-01
        2   -1    0    0  501    0  0.00000000000E+00  0.00000000000E+00  0.11309319297E+04  0.11309319297E+04  0.25500000920E-02 0. -1.
       -2   -1    0    0    0  501  0.00000000000E+00  0.00000000000E+00 -0.19150939871E+04  0.19150939871E+04  0.25500000920E-02 0.  1.
    10030    2    1    2    0    0  0.00000000000E+00  0.00000000000E+00 -0.78416205736E+03  0.30460259168E+04  0.29433592634E+04 0.  0.
        3    1    3    3  502    0  0.29984387455E+03  0.75815930671E+02 -0.18810822633E+04  0.19063380854E+04  0.10100000352E+00 0.  1.
       -3    1    3    3    0  502 -0.29984387455E+03 -0.75815930671E+02  0.10969202060E+04  0.11396878313E+04  0.10100000352E+00 0. -1.
</event>
<event>
 5   0  0.8237664E-06  0.1641007E+04  0.7818609E-02  0.8795744E-01
        2   -1    0    0  501    0  0.00000000000E+00  0.00000000000E+00  0.14075902116E+04  0.14075902116E+04  0.25500000920E-02 0.  1.
       -2   -1    0    0    0  501  0.00000000000E+00  0.00000000000E+00 -0.47828290668E+03  0.47828290669E+03  0.25500000920E-02 0. -1.
    10030    2    1    2    0    0  0.00000000000E+00  0.00000000000E+00  0.92930730492E+03  0.18858731183E+04  0.16410074196E+04 0.  0.
        5    1    3    3  502    0 -0.18959442371E+03 -0.56645901572E+03 -0.18175635846E+03  0.62440317570E+03  0.46999998093E+01 0. -1.
       -5    1    3    3    0  502  0.18959442371E+03  0.56645901572E+03  0.11110636634E+04  0.12614699426E+04  0.46999998093E+01 0.  1.
</event>
<event>
 5   0  0.2635798E-06  0.1576098E+04  0.7818609E-02  0.8835368E-01
       -1   -1    0    0    0  501  0.00000000000E+00  0.00000000000E+00  0.34224761317E+03  0.34224761320E+03  0.50400001928E-02 0. -1.
        1   -1    0    0  501    0  0.00000000000E+00  0.00000000000E+00 -0.18145382870E+04  0.18145382870E+04  0.50400001928E-02 0.  1.
    10030    2    1    2    0    0  0.00000000000E+00  0.00000000000E+00 -0.14722906738E+04  0.21567859002E+04  0.15760982175E+04 0.  0.
        1    1    3    3  502    0  0.35864487802E+03  0.35244944116E+03  0.94184594808E+02  0.51158332169E+03  0.50400001928E-02 0. -1.
       -1    1    3    3    0  502 -0.35864487802E+03 -0.35244944116E+03 -0.15664752686E+04  0.16452025785E+04  0.50400001928E-02 0.  1.
</event>
<event>
 5   0  0.2933646E-06  0.2025539E+04  0.7818609E-02  0.8594773E-01
        1   -1    0    0  501    0  0.00000000000E+00  0.00000000000E+00  0.27088913739E+04  0.27088913739E+04  0.50400001928E-02 0. -1.
       -1   -1    0    0    0  501  0.00000000000E+00  0.00000000000E+00 -0.37864280377E+03  0.37864280381E+03  0.50400001928E-02 0.  1.
    10030    2    1    2    0    0  0.00000000000E+00  0.00000000000E+00  0.23302485701E+04  0.30875341777E+04  0.20255391628E+04 0.  0.
        2    1    3    3  502    0 -0.21872841764E+03 -0.30054027832E+03 -0.27090742981E+03  0.45995370975E+03  0.25500000920E-02 0.  1.
       -2    1    3    3    0  502  0.21872841764E+03  0.30054027832E+03  0.26011560000E+04  0.26275804680E+04  0.25500000920E-02 0. -1.
</event>
<event>
 5   0  0.7941434E-06  0.3211705E+04  0.7818609E-02  0.8185733E-01
        2   -1    0    0  501    0  0.00000000000E+00  0.00000000000E+00  0.23276126394E+04  0.23276126394E+04  0.25500000920E-02 0. -1.
       -2   -1    0    0    0  501  0.00000000000E+00  0.00000000000E+00 -0.11078998824E+04  0.11078998824E+04  0.25500000920E-02 0.  1.
    10030    2    1    2    0    0  0.00000000000E+00  0.00000000000E+00  0.12197127571E+04  0.34355125218E+04  0.32117046996E+04 0.  0.
        4    1    3    3  502    0 -0.34847603071E+03  0.63900414964E+03 -0.92132531667E+03  0.11741395996E+04  0.12699999809E+01 0.  1.
       -4    1    3    3    0  502  0.34847603071E+03 -0.63900414964E+03  0.21410380738E+04  0.22613729222E+04  0.12699999809E+01 0. -1.
</event>
<event>
 5   0  0.7941434E-06  0.3036088E+04  0.7818609E-02  0.8233500E-01
       -2   -1    0    0    0  501  0.00000000000E+00  0.00000000000E+00  0.84843118546E+03  0.84843118546E+03  0.25500000920E-02 0. -1.
        2   -1    0    0  501    0  0.00000000000E+00  0.00000000000E+00 -0.27161404716E+04  0.27161404716E+04  0.25500000920E-02 0.  1.
    10030    2    1    2    0    0  0.00000000000E+00  0.00000000000E+00 -0.18677092861E+04  0.35645716571E+04  0.30360884573E+04 0.  0.
        4    1    3    3  502    0  0.66138865056E+03 -0.10286846072E+04  0.12204215677E+03  0.12290333068E+04  0.12699999809E+01 0. -1.
       -4    1    3    3    0  502 -0.66138865056E+03  0.10286846072E+04 -0.19897514429E+04  0.23355383503E+04  0.12699999809E+01 0.  1.
</event>
<event>
 5   0  0.7952307E-06  0.1792653E+04  0.7818609E-02  0.8710216E-01
       -2   -1    0    0    0  501  0.00000000000E+00  0.00000000000E+00  0.44449978778E+03  0.44449978779E+03  0.25500000920E-02 0.  1.
        2   -1    0    0  501    0  0.00000000000E+00  0.00000000000E+00 -0.18074283841E+04  0.18074283841E+04  0.25500000920E-02 0. -1.
    10030    2    1    2    0    0  0.00000000000E+00  0.00000000000E+00 -0.13629285964E+04  0.22519281719E+04  0.17926533777E+04 0.  0.
        2    1    3    3  502    0 -0.81026771995E+03  0.22539226461E+02 -0.20088061375E+03  0.83510167987E+03  0.25500000920E-02 0.  1.
       -2    1    3    3    0  502  0.81026771995E+03 -0.22539226461E+02 -0.11620479826E+04  0.14168264921E+04  0.25500000920E-02 0. -1.
</event>
<event>
 5   0  0.7971763E-06  0.3246487E+04  0.7818609E-02  0.8176647E-01
        2   -1    0    0  501    0  0.00000000000E+00  0.00000000000E+00  0.17773554634E+04  0.17773554634E+04  0.25500000920E-02 0.  1.
       -2   -1    0    0    0  501  0.00000000000E+00  0.00000000000E+00 -0.14824945662E+04  0.14824945662E+04  0.25500000920E-02 0. -1.
    10030    2    1    2    0    0  0.00000000000E+00  0.00000000000E+00  0.29486089714E+03  0.32598500296E+04  0.32464872196E+04 0.  0.
        1    1    3    3  502    0  0.46223762644E+03  0.14010240752E+04  0.82726059199E+03  0.16914172074E+04  0.50400001928E-02 0.  1.
       -1    1    3    3    0  502 -0.46223762644E+03 -0.14010240752E+04 -0.53239969486E+03  0.15684328222E+04  0.50400001928E-02 0. -1.
</event>
<event>
 5   0  0.7941434E-06  0.1980763E+04  0.7818609E-02  0.8615668E-01
       -2   -1    0    0    0  501  0.00000000000E+00  0.00000000000E+00  0.89715760408E+03  0.89715760409E+03  0.25500000920E-02 0. -1.
        2   -1    0    0  501    0  0.00000000000E+00  0.00000000000E+00 -0.10932921221E+04  0.10932921221E+04  0.25500000920E-02 0.  1.
    10030    2    1    2    0    0  0.00000000000E+00  0.00000000000E+00 -0.19613451803E+03  0.19904497262E+04  0.19807628236E+04 0.  0.
        4    1    3    3  502    0 -0.91010845353E+03 -0.36434887416E+03 -0.23949012393E+03  0.10091603597E+04  0.12699999809E+01 0.  1.
       -4    1    3    3    0  502  0.91010845353E+03  0.36434887416E+03  0.43355605900E+02  0.98128936647E+03  0.12699999809E+01 0. -1.
</event>
<event>
 5   0  0.7510251E-06  0.3258980E+04  0.7818609E-02  0.8173412E-01
        2   -1    0    0  501    0  0.00000000000E+00  0.00000000000E+00  0.17333920070E+04  0.17333920070E+04  0.25500000920E-02 0. -1.
       -2   -1    0    0    0  501  0.00000000000E+00  0.00000000000E+00 -0.15318160868E+04  0.15318160868E+04  0.25500000920E-02 0.  1.
    10030    2    1    2    0    0  0.00000000000E+00  0.00000000000E+00  0.20157592019E+03  0.32652080938E+04  0.32589800620E+04 0.  0.
        3    1    3    3  502    0  0.13116620624E+04  0.93309062666E+03  0.35449562981E+03  0.16482665577E+04  0.10100000352E+00 0.  1.
       -3    1    3    3    0  502 -0.13116620624E+04 -0.93309062666E+03 -0.15291970962E+03  0.16169415361E+04  0.10100000352E+00 0. -1.
</event>
<event>
 5   0  0.2788054E-06  0.3247053E+04  0.7818609E-02  0.8176500E-01
        1   -1    0    0  501    0  0.00000000000E+00  0.00000000000E+00  0.19864012418E+04  0.19864012418E+04  0.50400001928E-02 0.  1.
       -1   -1    0    0    0  501  0.00000000000E+00  0.00000000000E+00 -0.13269416235E+04  0.13269416235E+04  0.50400001928E-02 0. -1.
    10030    2    1    2    0    0  0.00000000000E+00  0.00000000000E+00  0.65945961833E+03  0.33133428652E+04  0.32470531185E+04 0.  0.
        3    1    3    3  502    0 -0.24624216896E+03 -0.15222397117E+04  0.84802601388E+03  0.17598287065E+04  0.10100000352E+00 0.  1.
       -3    1    3    3    0  502  0.24624216896E+03  0.15222397117E+04 -0.18856639555E+03  0.15535141588E+04  0.10100000352E+00 0. -1.
</event>
<event>
 5   0  0.3368028E-06  0.1615294E+04  0.7818609E-02  0.8811207E-01
       -1   -1    0    0    0  501  0.00000000000E+00  0.00000000000E+00  0.42907423405E+03  0.42907423408E+03  0.50400001928E-02 0. -1.
        1   -1    0    0  501    0  0.00000000000E+00  0.00000000000E+00 -0.15202353634E+04  0.15202353634E+04  0.50400001928E-02 0.  1.
    10030    2    1    2    0    0  0.00000000000E+00  0.00000000000E+00 -0.10911611294E+04  0.19493095975E+04  0.16152941827E+04 0.  0.
        3    1    3    3  502    0  0.53691267054E+03  0.41153678885E+03 -0.13149768917E+02  0.67661707855E+03  0.10100000352E+00 0. -1.
       -3    1    3    3    0  502 -0.53691267054E+03 -0.41153678885E+03 -0.10780113604E+04  0.12726925190E+04  0.10100000352E+00 0.  1.
</event>
<event>
 5   0  0.3938696E-06  0.3023793E+04  0.7818609E-02  0.8236969E-01
        1   -1    0    0  501    0  0.00000000000E+00  0.00000000000E+00  0.14044760261E+04  0.14044760261E+04  0.50400001928E-02 0.  1.
       -1   -1    0    0    0  501  0.00000000000E+00  0.00000000000E+00 -0.16275329382E+04  0.16275329382E+04  0.50400001928E-02 0. -1.
    10030    2    1    2    0    0  0.00000000000E+00  0.00000000000E+00 -0.22305691215E+03  0.30320089643E+04  0.30237929780E+04 0.  0.
        4    1    3    3  502    0  0.10214806461E+04 -0.95809245933E+03  0.45963800277E+03  0.14739852704E+04  0.12699999809E+01 0.  1.
       -4    1    3    3    0  502 -0.10214806461E+04  0.95809245933E+03 -0.68269491492E+03  0.15580236939E+04  0.12699999809E+01 0. -1.
</event>
<event>
 5   0  0.3771223E-06  0.1602077E+04  0.7818609E-02  0.8819273E-01
       -1   -1    0    0    0  501  0.00000000000E+00  0.00000000000E+00  0.57825425327E+03  0.57825425330E+03  0.50400001928E-02 0.  1.
        1   -1    0    0  501    0  0.00000000000E+00  0.00000000000E+00 -0.11096549314E+04  0.11096549314E+04  0.50400001928E-02 0. -1.
    10030    2    1    2    0    0  0.00000000000E+00  0.00000000000E+00 -0.53140067814E+03  0.16879091847E+04  0.16020770066E+04 0.  0.
        3    1    3    3  502    0 -0.38744177514E+03  0.44088758715E+03  0.30863817111E+03  0.66313688217E+03  0.10100000352E+00 0.  1.
       -3    1    3    3    0  502  0.38744177514E+03 -0.44088758715E+03 -0.84003884925E+03  0.10247723025E+04  0.10100000352E+00 0. -1.
</event>
<event>
 5   0  0.7971763E-06  0.3030826E+04  0.7818609E-02  0.8234983E-01
        2   -1    0    0  501    0  0.00000000000E+00  0.00000000000E+00  0.25529444432E+04  0.25529444432E+04  0.25500000920E-02 0. -1.
       -2   -1    0    0    0  501  0.00000000000E+00  0.00000000000E+00 -0.89954023067E+03  0.89954023067E+03  0.25500000920E-02 0.  1.
    10030    2    1    2    0    0  0.00000000000E+00  0.00000000000E+00  0.16534042125E+04  0.34524846739E+04  0.30308257841E+04 0.  0.
        1    1    3    3  502    0 -0.19288260083E+03  0.25759176745E+03 -0.86016971291E+03  0.91839487771E+03  0.50400001928E-02 0.  1.
       -1    1    3    3    0  502  0.19288260083E+03 -0.25759176745E+03  0.25135739255E+04  0.25340897962E+04  0.50400001928E-02 0. -1.
</event>
<event>
 5   0  0.7941434E-06  0.3135161E+04  0.7818609E-02  0.8206154E-01
        2   -1    0    0  501    0  0.00000000000E+00  0.00000000000E+00  0.19018752084E+04  0.19018752084E+04  0.25500000920E-02 0.  1.
       -2   -1    0    0    0  501  0.00000000000E+00  0.00000000000E+00 -0.12920451781E+04  0.12920451781E+04  0.25500000920E-02 0. -1.
    10030    2    1    2    0    0  0.00000000000E+00  0.00000000000E+00  0.60983003028E+03  0.31939203864E+04  0.31351610436E+04 0.  0.
        4    1    3    3  502    0 -0.56476936169E+03 -0.69348272466E+03  0.16164536575E+04  0.18473783481E+04  0.12699999809E+01 0.  1.
       -4    1    3    3    0  502  0.56476936169E+03  0.69348272466E+03 -0.10066236272E+04  0.13465420384E+04  0.12699999809E+01 0. -1.
</event>
<event>
 5   0  0.7952307E-06  0.3051972E+04  0.7818609E-02  0.8229044E-01
       -2   -1    0    0    0  501  0.00000000000E+00  0.00000000000E+00  0.13209847206E+04  0.13209847206E+04  0.25500000920E-02 0.  1.
        2   -1    0    0  501    0  0.00000000000E+00  0.00000000000E+00 -0.17628006687E+04  0.17628006687E+04  0.25500000920E-02 0. -1.
    10030    2    1    2    0    0  0.00000000000E+00  0.00000000000E+00 -0.44181594808E+03  0.30837853892E+04  0.30519716570E+04 0.  0.
        2    1    3    3  502    0  0.87566452047E+03 -0.11639948012E+04 -0.68057926651E+03  0.16077501011E+04  0.25500000920E-02 0. -1.
       -2    1    3    3    0  502 -0.87566452047E+03  0.11639948012E+04  0.23876331843E+03  0.14760352881E+04  0.25500000920E-02 0.  1.
</event>
<event>
 5   0  0.3640535E-06  0.1589310E+04  0.7818609E-02  0.8827142E-01
        1   -1    0    0  501    0  0.00000000000E+00  0.00000000000E+00  0.15576354748E+04  0.15576354748E+04  0.50400001928E-02 0.  1.
       -1   -1    0    0    0  501  0.00000000000E+00  0.00000000000E+00 -0.40540706375E+03  0.40540706378E+03  0.50400001928E-02 0. -1.
    10030    2    1    2    0    0  0.00000000000E+00  0.00000000000E+00  0.11522284110E+04  0.19630425385E+04  0.15893098178E+04 0.  0.
        3    1    3    3  502    0 -0.52130610248E+03 -0.48568429238E+03  0.14147485045E+03  0.72640514030E+03  0.10100000352E+00 0. -1.
       -3    1    3    3    0  502  0.52130610248E+03  0.48568429238E+03  0.10107535606E+04  0.12366373982E+04  0.10100000352E+00 0.  1.
</event>
<event>
 5   0  0.7971763E-06  0.3233425E+04  0.7818609E-02  0.8180045E-01
        2   -1    0    0  501    0  0.00000000000E+00  0.00000000000E+00  0.18314945521E+04  0.18314945521E+04  0.25500000920E-02 0.  1.
       -2   -1    0    0    0  501  0.00000000000E+00  0.00000000000E+00 -0.14271182756E+04  0.14271182756E+04  0.25500000920E-02 0. -1.
    10030    2    1    2    0    0  0.00000000000E+00  0.00000000000E+00  0.40437627652E+03  0.32586128278E+04  0.32334250244E+04 0.  0.
        1    1    3    3  502    0 -0.69454111684E+03  0.10077561532E+04 -0.86235447989E+03  0.14972024166E+04  0.50400001928E-02 0. -1.
       -1    1    3    3    0  502  0.69454111684E+03 -0.10077561532E+04  0.12667307564E+04  0.17614104112E+04  0.50400001928E-02 0.  1.
</event>
<event>
 5   0  0.3938696E-06  0.3196197E+04  0.7818609E-02  0.8189822E-01
       -1   -1    0    0    0  501  0.00000000000E+00  0.00000000000E+00  0.93145845482E+03  0.93145845483E+03  0.50400001928E-02 0. -1.
        1   -1    0    0  501    0  0.00000000000E+00  0.00000000000E+00 -0.27418489919E+04  0.27418489919E+04  0.50400001928E-02 0.  1.
    10030    2    1    2    0    0  0.00000000000E+00  0.00000000000E+00 -0.18103905371E+04  0.36733074467E+04  0.31961967558E+04 0.  0.
        4    1    3    3  502    0  0.56921931757E+03 -0.36399833539E+03 -0.25696254573E+04  0.26569685778E+04  0.12699999809E+01 0.  1.
       -4    1    3    3    0  502 -0.56921931757E+03  0.36399833539E+03  0.75923492019E+03  0.10163388690E+04  0.12699999809E+01 0. -1.
</event>
<event>
 5   0  0.2788054E-06  0.3219750E+04  0.7818609E-02  0.8183621E-01
        1   -1    0    0  501    0  0.00000000000E+00  0.00000000000E+00  0.15685102013E+04  0.15685102013E+04  0.50400001928E-02 0. -1.
       -1   -1    0    0    0  501  0.00000000000E+00  0.00000000000E+00 -0.16523306323E+04  0.16523306323E+04  0.50400001928E-02 0.  1.
    10030    2    1    2    0    0  0.00000000000E+00  0.00000000000E+00 -0.83820430911E+02  0.32208408336E+04  0.32197499609E+04 0.  0.
        3    1    3    3  502    0  0.81451011422E+03  0.66491743822E+03  0.11775825996E+04  0.15786838553E+04  0.10100000352E+00 0. -1.
       -3    1    3    3    0  502 -0.81451011422E+03 -0.66491743822E+03 -0.12614030305E+04  0.16421569783E+04  0.10100000352E+00 0.  1.
</event>
<event>
 5   0  0.2635798E-06  0.2140741E+04  0.7818609E-02  0.8543506E-01
        1   -1    0    0  501    0  0.00000000000E+00  0.00000000000E+00  0.39278274489E+03  0.39278274492E+03  0.50400001928E-02 0. -1.
       -1   -1    0    0    0  501  0.00000000000E+00  0.00000000000E+00 -0.29168615043E+04  0.29168615043E+04  0.50400001928E-02 0.  1.
    10030    2    1    2    0    0  0.00000000000E+00  0.00000000000E+00 -0.25240787594E+04  0.33096442493E+04  0.21407408701E+04 0.  0.
        1    1    3    3  502    0 -0.10404204056E+04 -0.19222948403E+03 -0.15126011390E+04  0.18459114282E+04  0.50400001928E-02 0.  1.
       -1    1    3    3    0  502  0.10404204056E+04  0.19222948403E+03 -0.10114776204E+04  0.14637328211E+04  0.50400001928E-02 0. -1.
</event>
<event>
 5   0  0.2788054E-06  0.1737451E+04  0.7818609E-02  0.8740288E-01
        1   -1    0    0  501    0  0.00000000000E+00  0.00000000000E+00  0.11378218646E+04  0.11378218646E+04  0.50400001928E-02 0.  1.
       -1   -1    0    0    0  501  0.00000000000E+00  0.00000000000E+00 -0.66327110457E+03  0.66327110459E+03  0.50400001928E-02 0. -1.
    10030    2    1    2    0    0  0.00000000000E+00  0.00000000000E+00  0.47455075999E+03  0.18010929692E+04  0.17374514266E+04 0.  0.
        3    1    3    3  502    0 -0.36085075452E+03 -0.74730577677E+03 -0.29049914034E+02  0.83037527584E+03  0.10100000352E+00 0. -1.
       -3    1    3    3    0  502  0.36085075452E+03  0.74730577677E+03  0.50360067402E+03  0.97071769331E+03  0.10100000352E+00 0.  1.
</event>
<event>
 5   0  0.7941434E-06  0.2580230E+04  0.7818609E-02  0.8374948E-01
        2   -1    0    0  501    0  0.00000000000E+00  0.00000000000E+00  0.19733251561E+04  0.19733251561E+04  0.25500000920E-02 0.  1.
       -2   -1    0    0    0  501  0.00000000000E+00  0.00000000000E+00 -0.84344748116E+03  0.84344748116E+03  0.25500000920E-02 0. -1.
    10030    2    1    2    0    0  0.00000000000E+00  0.00000000000E+00  0.11298776749E+04  0.28167726373E+04  0.25802295498E+04 0.  0.
        4    1    3    3  502    0 -0.99508382514E+03  0.39280244279E+03  0.13520880981E+04  0.17241314962E+04  0.12699999809E+01 0.  1.
       -4    1    3    3    0  502  0.99508382514E+03 -0.39280244279E+03 -0.22221042318E+03  0.10926411411E+04  0.12699999809E+01 0. -1.
</event>
<event>
 5   0  0.7971763E-06  0.3294766E+04  0.7818609E-02  0.8164228E-01
        2   -1    0    0  501    0  0.00000000000E+00  0.00000000000E+00  0.15149512382E+04  0.15149512382E+04  0.25500000920E-02 0. -1.
       -2   -1    0    0    0  501  0.00000000000E+00  0.00000000000E+00 -0.17913919356E+04  0.17913919356E+04  0.25500000920E-02 0.  1.
    10030    2    1    2    0    0  0.00000000000E+00  0.00000000000E+00 -0.27644069748E+03  0.33063431738E+04  0.32947664142E+04 0.  0.
        1    1    3    3  502    0 -0.15603712608E+04  0.52585013226E+03 -0.87104177587E+02  0.16488978049E+04  0.50400001928E-02 0. -1.
       -1    1    3    3    0  502  0.15603712608E+04 -0.52585013226E+03 -0.18933651989E+03  0.16574453689E+04  0.50400001928E-02 0.  1.
</event>
<event>
 5   0  0.2635798E-06  0.2690318E+04  0.7818609E-02  0.8338153E-01
        1   -1    0    0  501    0  0.00000000000E+00  0.00000000000E+00  0.80145105714E+03  0.80145105716E+03  0.50400001928E-02 0. -1.
       -1   -1    0    0    0  501  0.00000000000E+00  0.00000000000E+00 -0.22577214959E+04  0.22577214959E+04  0.50400001928E-02 0.  1.
    10030    2    1    2    0    0  0.00000000000E+00  0.00000000000E+00 -0.14562704388E+04  0.30591725531E+04  0.26903184047E+04 0.  0.
        1    1    3    3  502    0 -0.38045806871E+02  0.12609191799E+04 -0.12591624496E+04  0.17823733436E+04  0.50400001928E-02 0.  1.
       -1    1    3    3    0  502  0.38045806871E+02 -0.12609191799E+04 -0.19710798919E+03  0.12767992094E+04  0.50400001928E-02 0. -1.
</event>
<event>
 5   0  0.8237664E-06  0.3056748E+04  0.7818609E-02  0.8227709E-01
        2   -1    0    0  501    0  0.00000000000E+00  0.00000000000E+00  0.17427220566E+04  0.17427220566E+04  0.25500000920E-02 0.  1.
       -2   -1    0    0    0  501  0.00000000000E+00  0.00000000000E+00 -0.13403894921E+04  0.13403894921E+04  0.25500000920E-02 0. -1.
    10030    2    1    2    0    0  0.00000000000E+00  0.00000000000E+00  0.40233256449E+03  0.30831115487E+04  0.30567475083E+04 0.  0.
        5    1    3    3  502    0 -0.11425887980E+04 -0.41026453914E+02 -0.82183588879E+03  0.14080584680E+04  0.46999998093E+01 0. -1.
       -5    1    3    3    0  502  0.11425887980E+04  0.41026453914E+02  0.12241684533E+04  0.16750530807E+04  0.46999998093E+01 0.  1.
</event>
<event>
 5   0  0.3938696E-06  0.3183252E+04  0.7818609E-02  0.8193254E-01
        1   -1    0    0  501    0  0.00000000000E+00  0.00000000000E+00  0.25836550105E+04  0.25836550105E+04  0.50400001928E-02 0. -1.
       -1   -1    0    0    0  501  0.00000000000E+00  0.00000000000E+00 -0.98049989437E+03  0.98049989438E+03  0.50400001928E-02 0.  1.
    10030    2    1    2    0    0  0.00000000000E+00  0.00000000000E+00  0.16031551161E+04  0.35641549048E+04  0.31832520886E+04 0.  0.
        4    1    3    3  502    0  0.12946261574E+04 -0.92116703879E+03  0.69734553349E+03  0.17351939393E+04  0.12699999809E+01 0.  1.
       -4    1    3    3    0  502 -0.12946261574E+04  0.92116703879E+03  0.90580958260E+03  0.18289609656E+04  0.12699999809E+01 0. -1.
</event>
<event>
 5   0  0.2635798E-06  0.2981714E+04  0.7818609E-02  0.8248972E-01
        1   -1    0    0  501    0  0.00000000000E+00  0.00000000000E+00  0.15484576330E+04  0.15484576331E+04  0.50400001928E-02 0.  1.
       -1   -1    0    0    0  501  0.00000000000E+00  0.00000000000E+00 -0.14353993127E+04  0.14353993127E+04  0.50400001928E-02 0. -1.
    10030    2    1    2    0    0  0.00000000000E+00  0.00000000000E+00  0.11305832033E+03  0.29838569458E+04  0.29817142870E+04 0.  0.
        1    1    3    3  502    0 -0.14021512505E+04 -0.56996430373E+02  0.56025784302E+03  0.15110147494E+04  0.50400001928E-02 0.  1.
       -1    1    3    3    0  502  0.14021512505E+04  0.56996430373E+02 -0.44719952269E+03  0.14728421964E+04  0.50400001928E-02 0. -1.
</event>
<event>
 5   0  0.2788054E-06  0.3175242E+04  0.7818609E-02  0.8195387E-01
       -1   -1    0    0    0  501  0.00000000000E+00  0.00000000000E+00  0.84048867003E+03  0.84048867004E+03  0.50400001928E-02 0.  1.
        1   -1    0    0  501    0  0.00000000000E+00  0.00000000000E+00 -0.29988979715E+04  0.29988979715E+04  0.50400001928E-02 0. -1.
    10030    2    1    2    0    0  0.00000000000E+00  0.00000000000E+00 -0.21584093014E+04  0.38393866415E+04  0.31752415767E+04 0.  0.
        3    1    3    3  502    0  0.11907319729E+04 -0.91317522312E+03 -0.17061162181E+04  0.22721276767E+04  0.10100000352E+00 0. -1.
       -3    1    3    3    0  502 -0.11907319729E+04  0.91317522312E+03 -0.45229308338E+03  0.15672589648E+04  0.10100000352E+00 0.  1.
</event>
<event>
 5   0  0.2788054E-06  0.3268047E+04  0.7818609E-02  0.8171074E-01
        1   -1    0    0  501    0  0.00000000000E+00  0.00000000000E+00  0.20276019787E+04  0.20276019787E+04  0.50400001928E-02 0.  1.
       -1   -1    0    0    0  501  0.00000000000E+00  0.00000000000E+00 -0.13168426175E+04  0.13168426176E+04  0.50400001928E-02 0. -1.
    10030    2    1    2    0    0  0.00000000000E+00  0.00000000000E+00  0.71075936115E+03  0.33444445963E+04  0.32680469378E+04 0.  0.
        3    1    3    3  502    0  0.11739704954E+04  0.44402499197E+03 -0.71534271329E+03  0.14446730167E+04  0.10100000352E+00 0. -1.
       -3    1    3    3    0  502 -0.11739704954E+04 -0.44402499197E+03  0.14261020744E+04  0.18997715795E+04  0.10100000352E+00 0.  1.
</event>
<event>
 5   0  0.8237664E-06  0.3443677E+04  0.7818609E-02  0.8127269E-01
       -2   -1    0    0    0  501  0.00000000000E+00  0.00000000000E+00  0.17677236740E+04  0.17677236740E+04  0.25500000920E-02 0. -1.
        2   -1    0    0  501    0  0.00000000000E+00  0.00000000000E+00 -0.16771447541E+04  0.16771447541E+04  0.25500000920E-02 0.  1.
    10030    2    1    2    0    0  0.00000000000E+00  0.00000000000E+00  0.90578919915E+02  0.34448684282E+04  0.34436773871E+04 0.  0.
        5    1    3    3  502    0 -0.15169698602E+04 -0.65153601526E+03 -0.44376577074E+03  0.17095750598E+04  0.46999998093E+01 0.  1.
       -5    1    3    3    0  502  0.15169698602E+04  0.65153601526E+03  0.53434469066E+03  0.17352933684E+04  0.46999998093E+01 0. -1.
</event>
<event>
 5   0  0.7971763E-06  0.3190053E+04  0.7818609E-02  0.8191449E-01
       -2   -1    0    0    0  501  0.00000000000E+00  0.00000000000E+00  0.12701980281E+04  0.12701980281E+04  0.25500000920E-02 0. -1.
        2   -1    0    0  501    0  0.00000000000E+00  0.00000000000E+00 -0.20029237726E+04  0.20029237726E+04  0.25500000920E-02 0.  1.
    10030    2    1    2    0    0  0.00000000000E+00  0.00000000000E+00 -0.73272574451E+03  0.32731218007E+04  0.31900531822E+04 0.  0.
        1    1    3    3  502    0  0.14513859811E+04  0.20539340692E+03  0.27882134341E+03  0.14921290357E+04  0.50400001928E-02 0.  1.
       -1    1    3    3    0  502 -0.14513859811E+04 -0.20539340692E+03 -0.10115470879E+04  0.17809927649E+04  0.50400001928E-02 0. -1.
</event>
<event>
 5   0  0.2635798E-06  0.3185896E+04  0.7818609E-02  0.8192552E-01
       -1   -1    0    0    0  501  0.00000000000E+00  0.00000000000E+00  0.73552346251E+03  0.73552346253E+03  0.50400001928E-02 0. -1.
        1   -1    0    0  501    0  0.00000000000E+00  0.00000000000E+00 -0.34499020252E+04  0.34499020252E+04  0.50400001928E-02 0.  1.
    10030    2    1    2    0    0  0.00000000000E+00  0.00000000000E+00 -0.27143785627E+04  0.41854254877E+04  0.31858963467E+04 0.  0.
        1    1    3    3  502    0  0.78901848304E+03 -0.89303778478E+03 -0.27459123662E+04  0.29933428428E+04  0.50400001928E-02 0.  1.
       -1    1    3    3    0  502 -0.78901848304E+03  0.89303778478E+03  0.31533803494E+02  0.11920826450E+04  0.50400001928E-02 0. -1.
</event>
<event>
 5   0  0.2788054E-06  0.1850479E+04  0.7818609E-02  0.8679907E-01
        1   -1    0    0  501    0  0.00000000000E+00  0.00000000000E+00  0.20716290041E+04  0.20716290041E+04  0.50400001928E-02 0.  1.
       -1   -1    0    0    0  501  0.00000000000E+00  0.00000000000E+00 -0.41323414253E+03  0.41323414256E+03  0.50400001928E-02 0. -1.
    10030    2    1    2    0    0  0.00000000000E+00  0.00000000000E+00  0.16583948615E+04  0.24848631466E+04  0.18504786788E+04 0.  0.
        3    1    3    3  502    0 -0.35085631432E+03 -0.37463379003E+02 -0.31933854175E+03  0.47589996061E+03  0.10100000352E+00 0. -1.
       -3    1    3    3    0  502  0.35085631432E+03  0.37463379003E+02  0.19777334033E+04  0.20089631860E+04  0.10100000352E+00 0.  1.
</event>
<event>
 5   0  0.8237664E-06  0.3258081E+04  0.7818609E-02  0.8173644E-01
        2   -1    0    0  501    0  0.00000000000E+00  0.00000000000E+00  0.18275537557E+04  0.18275537557E+04  0.25500000920E-02 0.  1.
       -2   -1    0    0    0  501  0.00000000000E+00  0.00000000000E+00 -0.14520899678E+04  0.14520899678E+04  0.25500000920E-02 0. -1.
    10030    2    1    2    0    0  0.00000000000E+00  0.00000000000E+00  0.37546378794E+03  0.32796437235E+04  0.32580807076E+04 0.  0.
        5    1    3    3  502    0 -0.15904691187E+04  0.33824210458E+03  0.28713077852E+03  0.16512013544E+04  0.46999998093E+01 0.  1.
       -5    1    3    3    0  502  0.15904691187E+04 -0.33824210458E+03  0.88333009429E+02  0.16284423691E+04  0.46999998093E+01 0. -1.
</event>
<event>
 5   0  0.4142886E-06  0.3186516E+04  0.7818609E-02  0.8192387E-01
        1   -1    0    0  501    0  0.00000000000E+00  0.00000000000E+00  0.29059700302E+04  0.29059700303E+04  0.50400001928E-02 0. -1.
       -1   -1    0    0    0  501  0.00000000000E+00  0.00000000000E+00 -0.87353650631E+03  0.87353650632E+03  0.50400001928E-02 0.  1.
    10030    2    1    2    0    0  0.00000000000E+00  0.00000000000E+00  0.20324335239E+04  0.37795065366E+04  0.31865159078E+04 0.  0.
        5    1    3    3  502    0 -0.68525442258E+03  0.11268775237E+04  0.20764427464E+04  0.24598908809E+04  0.46999998093E+01 0. -1.
       -5    1    3    3    0  502  0.68525442258E+03 -0.11268775237E+04 -0.44009222447E+02  0.13196156557E+04  0.46999998093E+01 0.  1.
</event>
<event>
 5   0  0.2788054E-06  0.3199264E+04  0.7818609E-02  0.8189012E-01
        1   -1    0    0  501    0  0.00000000000E+00  0.00000000000E+00  0.11245349043E+04  0.11245349043E+04  0.50400001928E-02 0. -1.
       -1   -1    0    0    0  501  0.00000000000E+00  0.00000000000E+00 -0.22754495080E+04  0.22754495080E+04  0.50400001928E-02 0.  1.
    10030    2    1    2    0    0  0.00000000000E+00  0.00000000000E+00 -0.11509146037E+04  0.33999844123E+04  0.31992639121E+04 0.  0.
        3    1    3    3  502    0 -0.24490213593E+03  0.12271874362E+04 -0.16343941533E+04  0.20584485221E+04  0.10100000352E+00 0.  1.
       -3    1    3    3    0  502  0.24490213593E+03 -0.12271874362E+04  0.48347954960E+03  0.13415358902E+04  0.10100000352E+00 0. -1.
</event>
<event>
 5   0  0.7941434E-06  0.3124646E+04  0.7818609E-02  0.8209006E-01
        2   -1    0    0  501    0  0.00000000000E+00  0.00000000000E+00  0.11902407696E+04  0.11902407696E+04  0.25500000920E-02 0. -1.
       -2   -1    0    0    0  501  0.00000000000E+00  0.00000000000E+00 -0.20507225206E+04  0.20507225206E+04  0.25500000920E-02 0.  1.
    10030    2    1    2    0    0  0.00000000000E+00  0.00000000000E+00 -0.86048175103E+03  0.32409632901E+04  0.31246462526E+04 0.  0.
        4    1    3    3  502    0 -0.50168325560E+03  0.24066835887E+03 -0.19444640959E+04  0.20225107122E+04  0.12699999809E+01 0.  1.
       -4    1    3    3    0  502  0.50168325560E+03 -0.24066835887E+03  0.10839823448E+04  0.12184525780E+04  0.12699999809E+01 0. -1.
</event>
<event>
 5   0  0.7952307E-06  0.3173548E+04  0.7818609E-02  0.8195838E-01
       -2   -1    0    0    0  501  0.00000000000E+00  0.00000000000E+00  0.16396914466E+04  0.16396914466E+04  0.25500000920E-02 0.  1.
        2   -1    0    0  501    0  0.00000000000E+00  0.00000000000E+00 -0.15355644714E+04  0.15355644714E+04  0.25500000920E-02 0. -1.
    10030    2    1    2    0    0  0.00000000000E+00  0.00000000000E+00  0.10412697515E+03  0.31752559180E+04  0.31735481276E+04 0.  0.
        2    1    3    3  502    0  0.37033559354E+03 -0.13610002353E+04  0.77935343616E+03  0.16114781633E+04  0.25500000920E-02 0.  1.
       -2    1    3    3    0  502 -0.37033559354E+03  0.13610002353E+04 -0.67522646100E+03  0.15637777547E+04  0.25500000920E-02 0. -1.
</event>
<event>
 5   0  0.2933646E-06  0.2997577E+04  0.7818609E-02  0.8244423E-01
       -1   -1    0    0    0  501  0.00000000000E+00  0.00000000000E+00  0.93438726855E+03  0.93438726857E+03  0.50400001928E-02 0.  1.
        1   -1    0    0  501    0  0.00000000000E+00  0.00000000000E+00 -0.24041073216E+04  0.24041073216E+04  0.50400001928E-02 0. -1.
    10030    2    1    2    0    0  0.00000000000E+00  0.00000000000E+00 -0.14697200531E+04  0.33384945902E+04  0.29975772041E+04 0.  0.
        2    1    3    3  502    0 -0.11950781859E+04  0.20083013394E+03  0.24738671131E+03  0.12368285241E+04  0.25500000920E-02 0. -1.
       -2    1    3    3    0  502  0.11950781859E+04 -0.20083013394E+03 -0.17171067644E+04  0.21016660661E+04  0.25500000920E-02 0.  1.
</event>
<event>
 5   0  0.7952307E-06  0.3144531E+04  0.7818609E-02  0.8203622E-01
        2   -1    0    0  501    0  0.00000000000E+00  0.00000000000E+00  0.23795278813E+04  0.23795278813E+04  0.25500000920E-02 0. -1.
       -2   -1    0    0    0  501  0.00000000000E+00  0.00000000000E+00 -0.10388692460E+04  0.10388692460E+04  0.25500000920E-02 0.  1.
    10030    2    1    2    0    0  0.00000000000E+00  0.00000000000E+00  0.13406586353E+04  0.34183971272E+04  0.31445307031E+04 0.  0.
        2    1    3    3  502    0 -0.44958505377E+03  0.92836862127E+03 -0.61961688656E+03  0.12032955180E+04  0.25500000920E-02 0.  1.
       -2    1    3    3    0  502  0.44958505377E+03 -0.92836862127E+03  0.19602755219E+04  0.22151016092E+04  0.25500000920E-02 0. -1.
</event>
<event>
 5   0  0.2933646E-06  0.2052757E+04  0.7818609E-02  0.8582345E-01
        1   -1    0    0  501    0  0.00000000000E+00  0.00000000000E+00  0.14454775882E+04  0.14454775882E+04  0.50400001928E-02 0.  1.
       -1   -1    0    0    0  501  0.00000000000E+00  0.00000000000E+00 -0.72879228426E+03  0.72879228428E+03  0.50400001928E-02 0. -1.
    10030    2    1    2    0    0  0.00000000000E+00  0.00000000000E+00  0.71668530395E+03  0.21742698725E+04  0.20527570859E+04 0.  0.
        2    1    3    3  502    0 -0.33041340404E+03 -0.37890038376E+03 -0.58945298750E+03  0.77472146147E+03  0.25500000920E-02 0. -1.
       -2    1    3    3    0  502  0.33041340404E+03  0.37890038376E+03  0.13061382915E+04  0.13995484110E+04  0.25500000920E-02 0.  1.
</event>
<event>
 5   0  0.2788054E-06  0.3152742E+04  0.7818609E-02  0.8201411E-01
       -1   -1    0    0    0  501  0.00000000000E+00  0.00000000000E+00  0.31076073240E+04  0.31076073240E+04  0.50400001928E-02 0.  1.
        1   -1    0    0  501    0  0.00000000000E+00  0.00000000000E+00 -0.79963295747E+03  0.79963295748E+03  0.50400001928E-02 0. -1.
    10030    2    1    2    0    0  0.00000000000E+00  0.00000000000E+00  0.23079743665E+04  0.39072402815E+04  0.31527418132E+04 0.  0.
        3    1    3    3  502    0  0.67199017494E+03 -0.10873219246E+04  0.22973219290E+04  0.26289784744E+04  0.10100000352E+00 0.  1.
       -3    1    3    3    0  502 -0.67199017494E+03  0.10873219246E+04  0.10652437495E+02  0.12782618071E+04  0.10100000352E+00 0. -1.
</event>
<event>
 5   0  0.7952307E-06  0.3208270E+04  0.7818609E-02  0.8186636E-01
       -2   -1    0    0    0  501  0.00000000000E+00  0.00000000000E+00  0.12325381861E+04  0.12325381861E+04  0.25500000920E-02 0.  1.
        2   -1    0    0  501    0  0.00000000000E+00  0.00000000000E+00 -0.20877645887E+04  0.20877645887E+04  0.25500000920E-02 0. -1.
    10030    2    1    2    0    0  0.00000000000E+00  0.00000000000E+00 -0.85522640264E+03  0.33203027748E+04  0.32082702998E+04 0.  0.
        2    1    3    3  502    0 -0.48670747750E+03 -0.13840189305E+04 -0.10990018904E+04  0.18330842108E+04  0.25500000920E-02 0. -1.
       -2    1    3    3    0  502  0.48670747750E+03  0.13840189305E+04  0.24377548775E+03  0.14872185640E+04  0.25500000920E-02 0.  1.
</event>
<event>
 5   0  0.7941434E-06  0.3225727E+04  0.7818609E-02  0.8182056E-01
        2   -1    0    0  501    0  0.00000000000E+00  0.00000000000E+00  0.13209419476E+04  0.13209419476E+04  0.25500000920E-02 0. -1.
       -2   -1    0    0    0  501  0.00000000000E+00  0.00000000000E+00 -0.19692978531E+04  0.19692978531E+04  0.25500000920E-02 0.  1.
    10030    2    1    2    0    0  0.00000000000E+00  0.00000000000E+00 -0.64835590545E+03  0.32902398007E+04  0.32257266725E+04 0.  0.
        4    1    3    3  502    0 -0.89059949551E+03  0.10939733725E+04  0.47336865392E+03  0.14879599109E+04  0.12699999809E+01 0.  1.
       -4    1    3    3    0  502  0.89059949551E+03 -0.10939733725E+04 -0.11217245594E+04  0.18022798898E+04  0.12699999809E+01 0. -1.
</event>
<event>
 5   0  0.7971763E-06  0.3215592E+04  0.7818609E-02  0.8184712E-01
       -2   -1    0    0    0  501  0.00000000000E+00  0.00000000000E+00  0.14358293607E+04  0.14358293607E+04  0.25500000920E-02 0. -1.
        2   -1    0    0  501    0  0.00000000000E+00  0.00000000000E+00 -0.18003584612E+04  0.18003584612E+04  0.25500000920E-02 0.  1.
    10030    2    1    2    0    0  0.00000000000E+00  0.00000000000E+00 -0.36452910048E+03  0.32361878219E+04  0.32155917268E+04 0.  0.
        1    1    3    3  502    0 -0.33279807373E+03  0.83419833200E+03 -0.15243600034E+04  0.17692695767E+04  0.50400001928E-02 0.  1.
       -1    1    3    3    0  502  0.33279807373E+03 -0.83419833200E+03  0.11598309029E+04  0.14669182453E+04  0.50400001928E-02 0. -1.
</event>
<event>
 5   0  0.7971763E-06  0.2291302E+04  0.7818609E-02  0.8481359E-01
       -2   -1    0    0    0  501  0.00000000000E+00  0.00000000000E+00  0.10180659424E+04  0.10180659424E+04  0.25500000920E-02 0. -1.
        2   -1    0    0  501    0  0.00000000000E+00  0.00000000000E+00 -0.12892250849E+04  0.12892250849E+04  0.25500000920E-02 0.  1.
    10030    2    1    2    0    0  0.00000000000E+00  0.00000000000E+00 -0.27115914247E+03  0.23072910273E+04  0.22913019452E+04 0.  0.
        1    1    3    3  502    0  0.59389993991E+03 -0.94597873648E+03  0.12099886532E+03  0.11234917151E+04  0.50400001928E-02 0. -1.
       -1    1    3    3    0  502 -0.59389993991E+03  0.94597873648E+03 -0.39215800779E+03  0.11837993122E+04  0.50400001928E-02 0.  1.
</event>
<event>
 5   0  0.2933646E-06  0.3244733E+04  0.7818609E-02  0.8177102E-01
        1   -1    0    0  501    0  0.00000000000E+00  0.00000000000E+00  0.23754501213E+04  0.23754501213E+04  0.50400001928E-02 0.  1.
       -1   -1    0    0    0  501  0.00000000000E+00  0.00000000000E+00 -0.11080312615E+04  0.11080312615E+04  0.50400001928E-02 0. -1.
    10030    2    1    2    0    0  0.00000000000E+00  0.00000000000E+00  0.12674188597E+04  0.34834813828E+04  0.32447329595E+04 0.  0.
        2    1    3    3  502    0  0.65257269475E+03 -0.11089598641E+04  0.16945620827E+04  0.21277179687E+04  0.25500000920E-02 0.  1.
       -2    1    3    3    0  502 -0.65257269475E+03  0.11089598641E+04 -0.42714322300E+03  0.13557634141E+04  0.25500000920E-02 0. -1.
</event>
<event>
 5   0  0.2933646E-06  0.1695211E+04  0.7818609E-02  0.8764100E-01
       -1   -1    0    0    0  501  0.00000000000E+00  0.00000000000E+00  0.46164289230E+03  0.46164289233E+03  0.50400001928E-02 0. -1.
        1   -1    0    0  501    0  0.00000000000E+00  0.00000000000E+00 -0.15562573814E+04  0.15562573814E+04  0.50400001928E-02 0.  1.
    10030    2    1    2    0    0  0.00000000000E+00  0.00000000000E+00 -0.10946144890E+04  0.20179002737E+04  0.16952110886E+04 0.  0.
        2    1    3    3  502    0  0.84204741260E+03 -0.86807075674E+02 -0.59858710068E+03  0.10367670088E+04  0.25500000920E-02 0.  1.
       -2    1    3    3    0  502 -0.84204741260E+03  0.86807075674E+02 -0.49602738836E+03  0.98113326488E+03  0.25500000920E-02 0. -1.
</event>
<event>
 5   0  0.7971763E-06  0.2537741E+04  0.7818609E-02  0.8389662E-01
       -2   -1    0    0    0  501  0.00000000000E+00  0.00000000000E+00  0.13110304523E+04  0.13110304523E+04  0.25500000920E-02 0.  1.
        2   -1    0    0  501    0  0.00000000000E+00  0.00000000000E+00 -0.12280665873E+04  0.12280665873E+04  0.25500000920E-02 0. -1.
    10030    2    1    2    0    0  0.00000000000E+00  0.00000000000E+00  0.82963864999E+02  0.25390970396E+04  0.25377412740E+04 0.  0.
        1    1    3    3  502    0 -0.35176198991E+03  0.16623643238E+03 -0.11669139524E+04  0.12300647224E+04  0.50400001928E-02 0. -1.
       -1    1    3    3    0  502  0.35176198991E+03 -0.16623643238E+03  0.12498778174E+04  0.13090323172E+04  0.50400001928E-02 0.  1.
</event>
<event>
 5   0  0.8237664E-06  0.3256826E+04  0.7818609E-02  0.8173969E-01
        2   -1    0    0  501    0  0.00000000000E+00  0.00000000000E+00  0.13330665825E+04  0.13330665825E+04  0.25500000920E-02 0.  1.
       -2   -1    0    0    0  501  0.00000000000E+00  0.00000000000E+00 -0.19891944681E+04  0.19891944681E+04  0.25500000920E-02 0. -1.
    10030    2    1    2    0    0  0.00000000000E+00  0.00000000000E+00 -0.65612788560E+03  0.33222610507E+04  0.32568258607E+04 0.  0.
        5    1    3    3  502    0 -0.13264481918E+04 -0.87116712045E+03  0.44387764123E+02  0.15875734065E+04  0.46999998093E+01 0. -1.
       -5    1    3    3    0  502  0.13264481918E+04  0.87116712045E+03 -0.70051564972E+03  0.17346876442E+04  0.46999998093E+01 0.  1.
</event>
<event>
 5   0  0.7941434E-06  0.3239336E+04  0.7818609E-02  0.8178505E-01
       -2   -1    0    0    0  501  0.00000000000E+00  0.00000000000E+00  0.14595032245E+04  0.14595032245E+04  0.25500000920E-02 0.  1.
        2   -1    0    0  501    0  0.00000000000E+00  0.00000000000E+00 -0.17974092891E+04  0.17974092891E+04  0.25500000920E-02 0. -1.
    10030    2    1    2    0    0  0.00000000000E+00  0.00000000000E+00 -0.33790606456E+03  0.32569125136E+04  0.32393361376E+04 0.  0.
        4    1    3    3  502    0 -0.51014842432E+03  0.51321565764E+03  0.12879369883E+04  0.14773032948E+04  0.12699999809E+01 0.  1.
       -4    1    3    3    0  502  0.51014842432E+03 -0.51321565764E+03 -0.16258430529E+04  0.17796092188E+04  0.12699999809E+01 0. -1.
</event>
<event>
 5   0  0.2788054E-06  0.3118264E+04  0.7818609E-02  0.8210743E-01
       -1   -1    0    0    0  501  0.00000000000E+00  0.00000000000E+00  0.11047537856E+04  0.11047537856E+04  0.50400001928E-02 0. -1.
        1   -1    0    0  501    0  0.00000000000E+00  0.00000000000E+00 -0.22003928501E+04  0.22003928501E+04  0.50400001928E-02 0.  1.
    10030    2    1    2    0    0  0.00000000000E+00  0.00000000000E+00 -0.10956390645E+04  0.33051466357E+04  0.31182638317E+04 0.  0.
        3    1    3    3  502    0  0.10683675365E+04 -0.99098738011E+03  0.39871382862E+02  0.14577568103E+04  0.10100000352E+00 0. -1.
       -3    1    3    3    0  502 -0.10683675365E+04  0.99098738011E+03 -0.11355104474E+04  0.18473898254E+04  0.10100000352E+00 0.  1.
</event>
<event>
 5   0  0.7510251E-06  0.3100032E+04  0.7818609E-02  0.8215729E-01
        2   -1    0    0  501    0  0.00000000000E+00  0.00000000000E+00  0.23609401173E+04  0.23609401173E+04  0.25500000920E-02 0.  1.
       -2   -1    0    0    0  501  0.00000000000E+00  0.00000000000E+00 -0.10176242057E+04  0.10176242057E+04  0.25500000920E-02 0. -1.
    10030    2    1    2    0    0  0.00000000000E+00  0.00000000000E+00  0.13433159116E+04  0.33785643230E+04  0.31000321363E+04 0.  0.
        3    1    3    3  502    0 -0.86554302844E+03  0.10702878002E+04 -0.10502162467E+03  0.13804746507E+04  0.10100000352E+00 0. -1.
       -3    1    3    3    0  502  0.86554302844E+03 -0.10702878002E+04  0.14483375363E+04  0.19980896723E+04  0.10100000352E+00 0.  1.
</event>
<event>
 5   0  0.7971763E-06  0.3305745E+04  0.7818609E-02  0.8161435E-01
        2   -1    0    0  501    0  0.00000000000E+00  0.00000000000E+00  0.16034973792E+04  0.16034973792E+04  0.25500000920E-02 0.  1.
       -2   -1    0    0    0  501  0.00000000000E+00  0.00000000000E+00 -0.17037675888E+04  0.17037675888E+04  0.25500000920E-02 0. -1.
    10030    2    1    2    0    0  0.00000000000E+00  0.00000000000E+00 -0.10027020966E+03  0.33072649680E+04  0.33057446141E+04 0.  0.
        1    1    3    3  502    0  0.62714995098E+03  0.71412923998E+03  0.13027771956E+04  0.16126146637E+04  0.50400001928E-02 0.  1.
       -1    1    3    3    0  502 -0.62714995098E+03 -0.71412923998E+03 -0.14030474052E+04  0.16946503043E+04  0.50400001928E-02 0. -1.
</event>
<event>
 5   0  0.3938696E-06  0.3783097E+04  0.7818609E-02  0.8049792E-01
       -1   -1    0    0    0  501  0.00000000000E+00  0.00000000000E+00  0.12486153686E+04  0.12486153686E+04  0.50400001928E-02 0. -1.
        1   -1    0    0  501    0  0.00000000000E+00  0.00000000000E+00 -0.28655382203E+04  0.28655382203E+04  0.50400001928E-02 0.  1.
    10030    2    1    2    0    0  0.00000000000E+00  0.00000000000E+00 -0.16169228517E+04  0.41141535888E+04  0.37830966475E+04 0.  0.
        4    1    3    3  502    0  0.15989180136E+03  0.47697846292E+03 -0.27914537187E+04  0.28364219219E+04  0.12699999809E+01 0.  1.
       -4    1    3    3    0  502 -0.15989180136E+03 -0.47697846292E+03  0.11745308670E+04  0.12777316669E+04  0.12699999809E+01 0. -1.
</event>
<event>
 5   0  0.7510251E-06  0.3221082E+04  0.7818609E-02  0.8183271E-01
       -2   -1    0    0    0  501  0.00000000000E+00  0.00000000000E+00  0.19463042804E+04  0.19463042804E+04  0.25500000920E-02 0. -1.
        2   -1    0    0  501    0  0.00000000000E+00  0.00000000000E+00 -0.13327016784E+04  0.13327016784E+04  0.25500000920E-02 0.  1.
    10030    2    1    2    0    0  0.00000000000E+00  0.00000000000E+00  0.61360260196E+03  0.32790059588E+04  0.32210824151E+04 0.  0.
        3    1    3    3  502    0 -0.33205067831E+03 -0.12861295235E+04  0.12339237332E+04  0.18129960270E+04  0.10100000352E+00 0.  1.
       -3    1    3    3    0  502  0.33205067831E+03  0.12861295235E+04 -0.62032113121E+03  0.14660099319E+04  0.10100000352E+00 0. -1.
</event>
<event>
 5   0  0.7971763E-06  0.3206756E+04  0.7818609E-02  0.8187035E-01
        2   -1    0    0  501    0  0.00000000000E+00  0.00000000000E+00  0.18738640912E+04  0.18738640913E+04  0.25500000920E-02 0.  1.
       -2   -1    0    0    0  501  0.00000000000E+00  0.00000000000E+00 -0.13719355847E+04  0.13719355847E+04  0.25500000920E-02 0. -1.
    10030    2    1    2    0    0  0.00000000000E+00  0.00000000000E+00  0.50192850657E+03  0.32457996759E+04  0.32067558857E+04 0.  0.
        1    1    3    3  502    0  0.27021715293E+03 -0.92257393132E+03 -0.10478824408E+04  0.14220469676E+04  0.50400001928E-02 0. -1.
       -1    1    3    3    0  502 -0.27021715293E+03  0.92257393132E+03  0.15498109473E+04  0.18237527083E+04  0.50400001928E-02 0.  1.
</event>
<event>
 5   0  0.2933646E-06  0.3176897E+04  0.7818609E-02  0.8194945E-01
        1   -1    0    0  501    0  0.00000000000E+00  0.00000000000E+00  0.21182920342E+04  0.21182920342E+04  0.50400001928E-02 0.  1.
       -1   -1    0    0    0  501  0.00000000000E+00  0.00000000000E+00 -0.11911337594E+04  0.11911337594E+04  0.50400001928E-02 0. -1.
    10030    2    1    2    0    0  0.00000000000E+00  0.00000000000E+00  0.92715827478E+03  0.33094257936E+04  0.31768973255E+04 0.  0.
        2    1    3    3  502    0  0.73314109106E+03  0.34022027259E+03  0.18880756281E+04  0.20537953332E+04  0.25500000920E-02 0.  1.
       -2    1    3    3    0  502 -0.73314109106E+03 -0.34022027259E+03 -0.96091735329E+03  0.12556304604E+04  0.25500000920E-02 0. -1.
</event>
<event>
 5   0  0.8237664E-06  0.3146012E+04  0.7818609E-02  0.8203223E-01
        2   -1    0    0  501    0  0.00000000000E+00  0.00000000000E+00  0.17322248906E+04  0.17322248906E+04  0.25500000920E-02 0. -1.
       -2   -1    0    0    0  501  0.00000000000E+00  0.00000000000E+00 -0.14284216461E+04  0.14284216461E+04  0.25500000920E-02 0.  1.
    10030    2    1    2    0    0  0.00000000000E+00  0.00000000000E+00  0.30380324448E+03  0.31606465367E+04  0.31460117798E+04 0.  0.
        5    1    3    3  502    0 -0.24365575680E+03  0.12674390601E+04 -0.75147846757E+03  0.14934898312E+04  0.46999998093E+01 0. -1.
       -5    1    3    3    0  502  0.24365575680E+03 -0.12674390601E+04  0.10552817120E+04  0.16671567055E+04  0.46999998093E+01 0.  1.
</event>
<event>
 5   0  0.2788054E-06  0.3184625E+04  0.7818609E-02  0.8192889E-01
       -1   -1    0    0    0  501  0.00000000000E+00  0.00000000000E+00  0.16808850147E+04  0.16808850147E+04  0.50400001928E-02 0. -1.
        1   -1    0    0  501    0  0.00000000000E+00  0.00000000000E+00 -0.15084073862E+04  0.15084073862E+04  0.50400001928E-02 0.  1.
    10030    2    1    2    0    0  0.00000000000E+00  0.00000000000E+00  0.17247762849E+03  0.31892924009E+04  0.31846251720E+04 0.  0.
        3    1    3    3  502    0 -0.12587583211E+03 -0.15746560722E+04 -0.11423670599E+03  0.15838044406E+04  0.10100000352E+00 0.  1.
       -3    1    3    3    0  502  0.12587583211E+03  0.15746560722E+04  0.28671433447E+03  0.16054879603E+04  0.10100000352E+00 0. -1.
</event>
<event>
 5   0  0.7971763E-06  0.3223709E+04  0.7818609E-02  0.8182583E-01
        2   -1    0    0  501    0  0.00000000000E+00  0.00000000000E+00  0.13318319177E+04  0.13318319177E+04  0.25500000920E-02 0. -1.
       -2   -1    0    0    0  501  0.00000000000E+00  0.00000000000E+00 -0.19507534582E+04  0.19507534582E+04  0.25500000920E-02 0.  1.
    10030    2    1    2    0    0  0.00000000000E+00  0.00000000000E+00 -0.61892154046E+03  0.32825853758E+04  0.32237094901E+04 0.  0.
        1    1    3    3  502    0  0.11631299025E+04 -0.50130123627E+03  0.70569299958E+03  0.14498885162E+04  0.50400001928E-02 0. -1.
       -1    1    3    3    0  502 -0.11631299025E+04  0.50130123627E+03 -0.13246145400E+04  0.18326968597E+04  0.50400001928E-02 0.  1.
</event>
<event>
 5   0  0.7952307E-06  0.1580492E+04  0.7818609E-02  0.8832623E-01
       -2   -1    0    0    0  501  0.00000000000E+00  0.00000000000E+00  0.60037142359E+03  0.60037142360E+03  0.25500000920E-02 0. -1.
        2   -1    0    0  501    0  0.00000000000E+00  0.00000000000E+00 -0.10401712825E+04  0.10401712825E+04  0.25500000920E-02 0.  1.
    10030    2    1    2    0    0  0.00000000000E+00  0.00000000000E+00 -0.43979985890E+03  0.16405427061E+04  0.15804924722E+04 0.  0.
        2    1    3    3  502    0  0.15715579912E+03  0.43625073241E+03  0.44431645203E+03  0.64220694194E+03  0.25500000920E-02 0. -1.
       -2    1    3    3    0  502 -0.15715579912E+03 -0.43625073241E+03 -0.88411631093E+03  0.99833576415E+03  0.25500000920E-02 0.  1.
</event>
<event>
 5   0  0.4798337E-06  0.1583440E+04  0.7818609E-02  0.8830787E-01
        1   -1    0    0  501    0  0.00000000000E+00  0.00000000000E+00  0.12918878582E+04  0.12918878582E+04  0.50400001928E-02 0.  1.
       -1   -1    0    0    0  501  0.00000000000E+00  0.00000000000E+00 -0.48519708668E+03  0.48519708670E+03  0.50400001928E-02 0. -1.
    10030    2    1    2    0    0  0.00000000000E+00  0.00000000000E+00  0.80669077151E+03  0.17770849449E+04  0.15834395791E+04 0.  0.
        5    1    3    3  502    0 -0.63896478766E+03  0.43433575330E+03  0.20936507145E+03  0.80048695780E+03  0.46999998093E+01 0.  1.
       -5    1    3    3    0  502  0.63896478766E+03 -0.43433575330E+03  0.59732570007E+03  0.97659798711E+03  0.46999998093E+01 0. -1.
</event>
<event>
 5   0  0.7510251E-06  0.3081761E+04  0.7818609E-02  0.8220761E-01
        2   -1    0    0  501    0  0.00000000000E+00  0.00000000000E+00  0.20763484181E+04  0.20763484181E+04  0.25500000920E-02 0. -1.
       -2   -1    0    0    0  501  0.00000000000E+00  0.00000000000E+00 -0.11435042604E+04  0.11435042604E+04  0.25500000920E-02 0.  1.
    10030    2    1    2    0    0  0.00000000000E+00  0.00000000000E+00  0.93284415778E+03  0.32198526785E+04  0.30817613549E+04 0.  0.
        3    1    3    3  502    0 -0.22220497681E+03  0.32043092129E+03 -0.10911015664E+04  0.11586861807E+04  0.10100000352E+00 0.  1.
       -3    1    3    3    0  502  0.22220497681E+03 -0.32043092129E+03  0.20239457242E+04  0.20611664978E+04  0.10100000352E+00 0. -1.
</event>
<event>
 5   0  0.8237664E-06  0.2948355E+04  0.7818609E-02  0.8258634E-01
        2   -1    0    0  501    0  0.00000000000E+00  0.00000000000E+00  0.14916640697E+04  0.14916640697E+04  0.25500000920E-02 0. -1.
       -2   -1    0    0    0  501  0.00000000000E+00  0.00000000000E+00 -0.14568962580E+04  0.14568962580E+04  0.25500000920E-02 0.  1.
    10030    2    1    2    0    0  0.00000000000E+00  0.00000000000E+00  0.34767811716E+02  0.29485603277E+04  0.29483553390E+04 0.  0.
        5    1    3    3  502    0  0.13779089616E+04 -0.17391937422E+03 -0.47691421006E+03  0.14684516706E+04  0.46999998093E+01 0. -1.
       -5    1    3    3    0  502 -0.13779089616E+04  0.17391937422E+03  0.51168202178E+03  0.14801086570E+04  0.46999998093E+01 0.  1.
</event>
<event>
 5   0  0.7971763E-06  0.3198529E+04  0.7818609E-02  0.8189206E-01
        2   -1    0    0  501    0  0.00000000000E+00  0.00000000000E+00  0.24079888272E+04  0.24079888272E+04  0.25500000920E-02 0. -1.
       -2   -1    0    0    0  501  0.00000000000E+00  0.00000000000E+00 -0.10621503979E+04  0.10621503979E+04  0.25500000920E-02 0.  1.
    10030    2    1    2    0    0  0.00000000000E+00  0.00000000000E+00  0.13458384294E+04  0.34701392251E+04  0.31985285935E+04 0.  0.
        1    1    3    3  502    0  0.11896860958E+04  0.35658789512E+03  0.17660176709E+04  0.21590105020E+04  0.50400001928E-02 0. -1.
       -1    1    3    3    0  502 -0.11896860958E+04 -0.35658789512E+03 -0.42017924153E+03  0.13111287231E+04  0.50400001928E-02 0.  1.
</event>
<event>
 5   0  0.2635798E-06  0.3150047E+04  0.7818609E-02  0.8202136E-01
       -1   -1    0    0    0  501  0.00000000000E+00  0.00000000000E+00  0.10011996168E+04  0.10011996168E+04  0.50400001928E-02 0. -1.
        1   -1    0    0  501    0  0.00000000000E+00  0.00000000000E+00 -0.24777268476E+04  0.24777268476E+04  0.50400001928E-02 0.  1.
    10030    2    1    2    0    0  0.00000000000E+00  0.00000000000E+00 -0.14765272308E+04  0.34789264644E+04  0.31500470919E+04 0.  0.
        1    1    3    3  502    0  0.53079739133E+03 -0.14820301832E+04 -0.68260517814E+03  0.17158406581E+04  0.50400001928E-02 0.  1.
       -1    1    3    3    0  502 -0.53079739133E+03  0.14820301832E+04 -0.79392205263E+03  0.17630858063E+04  0.50400001928E-02 0. -1.
</event>
<event>
 5   0  0.7510251E-06  0.2068743E+04  0.7818609E-02  0.8575139E-01
        2   -1    0    0  501    0  0.00000000000E+00  0.00000000000E+00  0.21497670619E+04  0.21497670619E+04  0.25500000920E-02 0.  1.
       -2   -1    0    0    0  501  0.00000000000E+00  0.00000000000E+00 -0.49769327647E+03  0.49769327648E+03  0.25500000920E-02 0. -1.
    10030    2    1    2    0    0  0.00000000000E+00  0.00000000000E+00  0.16520737854E+04  0.26474603384E+04  0.20687432056E+04 0.  0.
        3    1    3    3  502    0  0.63918324180E+03 -0.81295923473E+03  0.79839122034E+03  0.13064786584E+04  0.10100000352E+00 0. -1.
       -3    1    3    3    0  502 -0.63918324180E+03  0.81295923473E+03  0.85368256510E+03  0.13409816800E+04  0.10100000352E+00 0.  1.
</event>
<event>
 5   0  0.7941434E-06  0.3248137E+04  0.7818609E-02  0.8176219E-01
        2   -1    0    0  501    0  0.00000000000E+00  0.00000000000E+00  0.22636978380E+04  0.22636978380E+04  0.25500000920E-02 0.  1.
       -2   -1    0    0    0  501  0.00000000000E+00  0.00000000000E+00 -0.11651723437E+04  0.11651723438E+04  0.25500000920E-02 0. -1.
    10030    2    1    2    0    0  0.00000000000E+00  0.00000000000E+00  0.10985254943E+04  0.34288701818E+04  0.32481367677E+04 0.  0.
        4    1    3    3  502    0  0.15182669944E+04  0.18747979060E+03 -0.26341255159E+02  0.15300257556E+04  0.12699999809E+01 0.  1.
       -4    1    3    3    0  502 -0.15182669944E+04 -0.18747979060E+03  0.11248667494E+04  0.18988444262E+04  0.12699999809E+01 0. -1.
</event>
<event>
 5   0  0.7952307E-06  0.2332411E+04  0.7818609E-02  0.8465250E-01
        2   -1    0    0  501    0  0.00000000000E+00  0.00000000000E+00  0.69150616116E+03  0.69150616117E+03  0.25500000920E-02 0.  1.
       -2   -1    0    0    0  501  0.00000000000E+00  0.00000000000E+00 -0.19667731796E+04  0.19667731796E+04  0.25500000920E-02 0. -1.
    10030    2    1    2    0    0  0.00000000000E+00  0.00000000000E+00 -0.12752670185E+04  0.26582793408E+04  0.23324114314E+04 0.  0.
        2    1    3    3  502    0 -0.50022146842E+03 -0.10193851474E+04 -0.94060892692E+03  0.14744872837E+04  0.25500000920E-02 0. -1.
       -2    1    3    3    0  502  0.50022146842E+03  0.10193851474E+04 -0.33465809154E+03  0.11837920571E+04  0.25500000920E-02 0.  1.
</event>
<event>
 5   0  0.7952307E-06  0.3240255E+04  0.7818609E-02  0.8178266E-01
       -2   -1    0    0    0  501  0.00000000000E+00  0.00000000000E+00  0.11273465158E+04  0.11273465158E+04  0.25500000920E-02 0. -1.
        2   -1    0    0  501    0  0.00000000000E+00  0.00000000000E+00 -0.23283105335E+04  0.23283105335E+04  0.25500000920E-02 0.  1.
    10030    2    1    2    0    0  0.00000000000E+00  0.00000000000E+00 -0.12009640177E+04  0.34556570493E+04  0.32402547848E+04 0.  0.
        2    1    3    3  502    0 -0.60715647403E+03  0.14651431604E+04 -0.24752920460E+03  0.16051648425E+04  0.25500000920E-02 0. -1.
       -2    1    3    3    0  502  0.60715647403E+03 -0.14651431604E+04 -0.95343481309E+03  0.18504922068E+04  0.25500000920E-02 0.  1.
</event>
<event>
 5   0  0.7971763E-06  0.3211251E+04  0.7818609E-02  0.8185852E-01
       -2   -1    0    0    0  501  0.00000000000E+00  0.00000000000E+00  0.11186531134E+04  0.11186531134E+04  0.25500000920E-02 0. -1.
        2   -1    0    0  501    0  0.00000000000E+00  0.00000000000E+00 -0.23045864184E+04  0.23045864184E+04  0.25500000920E-02 0.  1.
    10030    2    1    2    0    0  0.00000000000E+00  0.00000000000E+00 -0.11859333050E+04  0.34232395318E+04  0.32112507047E+04 0.  0.
        1    1    3    3  502    0 -0.52088270709E+02 -0.51222756388E+02 -0.23028138310E+04  0.23039723304E+04  0.50400001928E-02 0.  1.
       -1    1    3    3    0  502  0.52088270709E+02  0.51222756388E+02  0.11168805261E+04  0.11192672014E+04  0.50400001928E-02 0. -1.
</event>
<event>
 5   0  0.2635798E-06  0.1739366E+04  0.7818609E-02  0.8739226E-01
       -1   -1    0    0    0  501  0.00000000000E+00  0.00000000000E+00  0.10047589830E+04  0.10047589830E+04  0.50400001928E-02 0. -1.
        1   -1    0    0  501    0  0.00000000000E+00  0.00000000000E+00 -0.75276612536E+03  0.75276612538E+03  0.50400001928E-02 0.  1.
    10030    2    1    2    0    0  0.00000000000E+00  0.00000000000E+00  0.25199285767E+03  0.17575251084E+04  0.17393660070E+04 0.  0.
        1    1    3    3  502    0 -0.38495754821E+03 -0.76934275606E+02  0.91013785072E+03  0.99119226390E+03  0.50400001928E-02 0. -1.
       -1    1    3    3    0  502  0.38495754821E+03  0.76934275606E+02 -0.65814499305E+03  0.76633284452E+03  0.50400001928E-02 0.  1.
</event>
<event>
 5   0  0.7971763E-06  0.2787478E+04  0.7818609E-02  0.8307167E-01
       -2   -1    0    0    0  501  0.00000000000E+00  0.00000000000E+00  0.14407772028E+04  0.14407772028E+04  0.25500000920E-02 0. -1.
        2   -1    0    0  501    0  0.00000000000E+00  0.00000000000E+00 -0.13482364811E+04  0.13482364811E+04  0.25500000920E-02 0.  1.
    10030    2    1    2    0    0  0.00000000000E+00  0.00000000000E+00  0.92540721701E+02  0.27890136838E+04  0.27874779897E+04 0.  0.
        1    1    3    3  502    0 -0.83778609192E+03  0.96536452173E+03  0.60217900369E+03  0.14129521394E+04  0.50400001928E-02 0. -1.
       -1    1    3    3    0  502  0.83778609192E+03 -0.96536452173E+03 -0.50963828199E+03  0.13760615444E+04  0.50400001928E-02 0.  1.
</event>
<event>
 5   0  0.2933646E-06  0.3045673E+04  0.7818609E-02  0.8230808E-01
       -1   -1    0    0    0  501  0.00000000000E+00  0.00000000000E+00  0.18933854331E+04  0.18933854331E+04  0.50400001928E-02 0.  1.
        1   -1    0    0  501    0  0.00000000000E+00  0.00000000000E+00 -0.12248065340E+04  0.12248065340E+04  0.50400001928E-02 0. -1.
    10030    2    1    2    0    0  0.00000000000E+00  0.00000000000E+00  0.66857889910E+03  0.31181919671E+04  0.30456728976E+04 0.  0.
        2    1    3    3  502    0 -0.86015894836E+03 -0.12364667631E+04  0.56392304602E+03  0.16083322649E+04  0.25500000920E-02 0. -1.
       -2    1    3    3    0  502  0.86015894836E+03  0.12364667631E+04  0.10465585308E+03  0.15098597022E+04  0.25500000920E-02 0.  1.
</event>
<event>
 5   0  0.4142886E-06  0.2420545E+04  0.7818609E-02  0.8431852E-01
       -1   -1    0    0    0  501  0.00000000000E+00  0.00000000000E+00  0.48120180463E+03  0.48120180465E+03  0.50400001928E-02 0.  1.
        1   -1    0    0  501    0  0.00000000000E+00  0.00000000000E+00 -0.30439607019E+04  0.30439607019E+04  0.50400001928E-02 0. -1.
    10030    2    1    2    0    0  0.00000000000E+00  0.00000000000E+00 -0.25627588973E+04  0.35251625066E+04  0.24205448833E+04 0.  0.
        5    1    3    3  502    0 -0.64272695052E+02 -0.85675125684E+03 -0.25227710337E+04  0.26650608762E+04  0.46999998093E+01 0. -1.
       -5    1    3    3    0  502  0.64272695052E+02  0.85675125684E+03 -0.39987863647E+02  0.86010163042E+03  0.46999998093E+01 0.  1.
</event>
<event>
 5   0  0.3938696E-06  0.2781648E+04  0.7818609E-02  0.8308989E-01
       -1   -1    0    0    0  501  0.00000000000E+00  0.00000000000E+00  0.15841769929E+04  0.15841769929E+04  0.50400001928E-02 0. -1.
        1   -1    0    0  501    0  0.00000000000E+00  0.00000000000E+00 -0.12210704863E+04  0.12210704863E+04  0.50400001928E-02 0.  1.
    10030    2    1    2    0    0  0.00000000000E+00  0.00000000000E+00  0.36310650662E+03  0.28052474792E+04  0.27816482676E+04 0.  0.
        4    1    3    3  502    0 -0.11953509408E+04  0.40713429884E+02  0.89741253285E+03  0.14952833585E+04  0.12699999809E+01 0. -1.
       -4    1    3    3    0  502  0.11953509408E+04 -0.40713429884E+02 -0.53430602623E+03  0.13099641207E+04  0.12699999809E+01 0.  1.
</event>
<event>
 5   0  0.7971763E-06  0.3231312E+04  0.7818609E-02  0.8180596E-01
       -2   -1    0    0    0  501  0.00000000000E+00  0.00000000000E+00  0.16455868024E+04  0.16455868024E+04  0.25500000920E-02 0.  1.
        2   -1    0    0  501    0  0.00000000000E+00  0.00000000000E+00 -0.15862698589E+04  0.15862698589E+04  0.25500000920E-02 0. -1.
    10030    2    1    2    0    0  0.00000000000E+00  0.00000000000E+00  0.59316943427E+02  0.32318566613E+04  0.32313122689E+04 0.  0.
        1    1    3    3  502    0 -0.41036846600E+03  0.10279635091E+04  0.12068161850E+04  0.16375336816E+04  0.50400001928E-02 0.  1.
       -1    1    3    3    0  502  0.41036846600E+03 -0.10279635091E+04 -0.11474992416E+04  0.15943229797E+04  0.50400001928E-02 0. -1.
</event>
<event>
 5   0  0.2933646E-06  0.3228797E+04  0.7818609E-02  0.8181253E-01
       -1   -1    0    0    0  501  0.00000000000E+00  0.00000000000E+00  0.15201468761E+04  0.15201468761E+04  0.50400001928E-02 0.  1.
        1   -1    0    0  501    0  0.00000000000E+00  0.00000000000E+00 -0.17144938983E+04  0.17144938983E+04  0.50400001928E-02 0. -1.
    10030    2    1    2    0    0  0.00000000000E+00  0.00000000000E+00 -0.19434702215E+03  0.32346407744E+04  0.32287970166E+04 0.  0.
        2    1    3    3  502    0  0.15632612022E+04 -0.36509254007E+03 -0.26837574079E+03  0.16276067361E+04  0.25500000920E-02 0.  1.
       -2    1    3    3    0  502 -0.15632612022E+04  0.36509254007E+03  0.74028718643E+02  0.16070340383E+04  0.25500000920E-02 0. -1.
</event>
<event>
 5   0  0.4142886E-06  0.2223154E+04  0.7818609E-02  0.8508852E-01
        1   -1    0    0  501    0  0.00000000000E+00  0.00000000000E+00  0.13381743898E+04  0.13381743898E+04  0.50400001928E-02 0.  1.
       -1   -1    0    0    0  501  0.00000000000E+00  0.00000000000E+00 -0.92334977250E+03  0.92334977252E+03  0.50400001928E-02 0. -1.
    10030    2    1    2    0    0  0.00000000000E+00  0.00000000000E+00  0.41482461734E+03  0.22615241624E+04  0.22231536325E+04 0.  0.
        5    1    3    3  502    0  0.87774954565E+03 -0.42252453235E+03  0.75201174274E+03  0.12306563275E+04  0.46999998093E+01 0.  1.
       -5    1    3    3    0  502 -0.87774954565E+03  0.42252453235E+03 -0.33718712540E+03  0.10308678348E+04  0.46999998093E+01 0. -1.
</event>
<event>
 5   0  0.7971763E-06  0.2880426E+04  0.7818609E-02  0.8278725E-01
        2   -1    0    0  501    0  0.00000000000E+00  0.00000000000E+00  0.13366587109E+04  0.13366587109E+04  0.25500000920E-02 0. -1.
       -2   -1    0    0    0  501  0.00000000000E+00  0.00000000000E+00 -0.15517901611E+04  0.15517901611E+04  0.25500000920E-02 0.  1.
    10030    2    1    2    0    0  0.00000000000E+00  0.00000000000E+00 -0.21513145024E+03  0.28884488720E+04  0.28804262437E+04 0.  0.
        1    1    3    3  502    0  0.94633481580E+01  0.42954640225E+03  0.12708953082E+04  0.13415567641E+04  0.50400001928E-02 0. -1.
       -1    1    3    3    0  502 -0.94633481580E+01 -0.42954640225E+03 -0.14860267585E+04  0.15468921079E+04  0.50400001928E-02 0.  1.
</event>
<event>
 5   0  0.4142886E-06  0.3188057E+04  0.7818609E-02  0.8191978E-01
        1   -1    0    0  501    0  0.00000000000E+00  0.00000000000E+00  0.14751248367E+04  0.14751248368E+04  0.50400001928E-02 0.  1.
       -1   -1    0    0    0  501  0.00000000000E+00  0.00000000000E+00 -0.17225163480E+04  0.17225163480E+04  0.50400001928E-02 0. -1.
    10030    2    1    2    0    0  0.00000000000E+00  0.00000000000E+00 -0.24739151123E+03  0.31976411847E+04  0.31880568669E+04 0.  0.
        5    1    3    3  502    0  0.12790540258E+03  0.70147882707E+03  0.13062381979E+04  0.14881910685E+04  0.46999998093E+01 0.  1.
       -5    1    3    3    0  502 -0.12790540258E+03 -0.70147882707E+03 -0.15536297091E+04  0.17094501162E+04  0.46999998093E+01 0. -1.
</event>
<event>
 5   0  0.7952307E-06  0.2917595E+04  0.7818609E-02  0.8267662E-01
        2   -1    0    0  501    0  0.00000000000E+00  0.00000000000E+00  0.15696614142E+04  0.15696614142E+04  0.25500000920E-02 0.  1.
       -2   -1    0    0    0  501  0.00000000000E+00  0.00000000000E+00 -0.13557633774E+04  0.13557633774E+04  0.25500000920E-02 0. -1.
    10030    2    1    2    0    0  0.00000000000E+00  0.00000000000E+00  0.21389803676E+03  0.29254247916E+04  0.29175945299E+04 0.  0.
        2    1    3    3  502    0 -0.53911346036E+03 -0.24573817937E+03  0.14435904256E+04  0.15604434924E+04  0.25500000920E-02 0.  1.
       -2    1    3    3    0  502  0.53911346036E+03  0.24573817937E+03 -0.12296923889E+04  0.13649812992E+04  0.25500000920E-02 0. -1.
</event>
<event>
 5   0  0.2933646E-06  0.2500172E+04  0.7818609E-02  0.8402924E-01
        1   -1    0    0  501    0  0.00000000000E+00  0.00000000000E+00  0.20604045027E+04  0.20604045028E+04  0.50400001928E-02 0.  1.
       -1   -1    0    0    0  501  0.00000000000E+00  0.00000000000E+00 -0.75845043565E+03  0.75845043567E+03  0.50400001928E-02 0. -1.
    10030    2    1    2    0    0  0.00000000000E+00  0.00000000000E+00  0.13019540671E+04  0.28188549384E+04  0.25001717483E+04 0.  0.
        2    1    3    3  502    0  0.34332066010E+03 -0.56768068985E+03  0.18455491036E+04  0.19611685126E+04  0.25500000920E-02 0.  1.
       -2    1    3    3    0  502 -0.34332066010E+03  0.56768068985E+03 -0.54359503647E+03  0.85768642578E+03  0.25500000920E-02 0. -1.
</event>
<event>
 5   0  0.8237664E-06  0.2976204E+04  0.7818609E-02  0.8250559E-01
       -2   -1    0    0    0  501  0.00000000000E+00  0.00000000000E+00  0.11061181744E+04  0.11061181744E+04  0.25500000920E-02 0. -1.
        2   -1    0    0  501    0  0.00000000000E+00  0.00000000000E+00 -0.20019987563E+04  0.20019987563E+04  0.25500000920E-02 0.  1.
    10030    2    1    2    0    0  0.00000000000E+00  0.00000000000E+00 -0.89588058195E+03  0.31081169307E+04  0.29762037628E+04 0.  0.
        5    1    3    3  502    0 -0.12527199994E+04  0.68060413567E+03 -0.25446694995E+01  0.14256780673E+04  0.46999998093E+01 0. -1.
       -5    1    3    3    0  502  0.12527199994E+04 -0.68060413567E+03 -0.89333591246E+03  0.16824388633E+04  0.46999998093E+01 0.  1.
</event>
<event>
 5   0  0.7941434E-06  0.1631675E+04  0.7818609E-02  0.8801322E-01
        2   -1    0    0  501    0  0.00000000000E+00  0.00000000000E+00  0.88652415588E+03  0.88652415589E+03  0.25500000920E-02 0.  1.
       -2   -1    0    0    0  501  0.00000000000E+00  0.00000000000E+00 -0.75078706969E+03  0.75078706970E+03  0.25500000920E-02 0. -1.
    10030    2    1    2    0    0  0.00000000000E+00  0.00000000000E+00  0.13573708619E+03  0.16373112256E+04  0.16316750574E+04 0.  0.
        4    1    3    3  502    0  0.32862252669E+03 -0.27925206443E+03 -0.62706591023E+03  0.76104385498E+03  0.12699999809E+01 0. -1.
       -4    1    3    3    0  502 -0.32862252669E+03  0.27925206443E+03  0.76280299642E+03  0.87626737060E+03  0.12699999809E+01 0.  1.
</event>
<event>
 5   0  0.7941434E-06  0.2890846E+04  0.7818609E-02  0.8275606E-01
        2   -1    0    0  501    0  0.00000000000E+00  0.00000000000E+00  0.15273567634E+04  0.15273567634E+04  0.25500000920E-02 0.  1.
       -2   -1    0    0    0  501  0.00000000000E+00  0.00000000000E+00 -0.13678846600E+04  0.13678846600E+04  0.25500000920E-02 0. -1.
    10030    2    1    2    0    0  0.00000000000E+00  0.00000000000E+00  0.15947210344E+03  0.28952414234E+04  0.28908461647E+04 0.  0.
        4    1    3    3  502    0  0.47699853619E+03  0.39859320219E+03 -0.12271779039E+04  0.13756348953E+04  0.12699999809E+01 0. -1.
       -4    1    3    3    0  502 -0.47699853619E+03 -0.39859320219E+03  0.13866500074E+04  0.15196065281E+04  0.12699999809E+01 0.  1.
</event>
<event>
 5   0  0.7971763E-06  0.3160142E+04  0.7818609E-02  0.8199424E-01
        2   -1    0    0  501    0  0.00000000000E+00  0.00000000000E+00  0.16321094670E+04  0.16321094670E+04  0.25500000920E-02 0. -1.
       -2   -1    0    0    0  501  0.00000000000E+00  0.00000000000E+00 -0.15296915650E+04  0.15296915650E+04  0.25500000920E-02 0.  1.
    10030    2    1    2    0    0  0.00000000000E+00  0.00000000000E+00  0.10241790202E+03  0.31618010319E+04  0.31601418226E+04 0.  0.
        1    1    3    3  502    0 -0.80685772456E+03  0.11476172216E+04  0.77862534410E+03  0.16044631817E+04  0.50400001928E-02 0. -1.
       -1    1    3    3    0  502  0.80685772456E+03 -0.11476172216E+04 -0.67620744208E+03  0.15573378502E+04  0.50400001928E-02 0.  1.
</event>
<event>
 5   0  0.8237664E-06  0.3739379E+04  0.7818609E-02  0.8059291E-01
       -2   -1    0    0    0  501  0.00000000000E+00  0.00000000000E+00  0.15120050474E+04  0.15120050474E+04  0.25500000920E-02 0. -1.
        2   -1    0    0  501    0  0.00000000000E+00  0.00000000000E+00 -0.23119883179E+04  0.23119883179E+04  0.25500000920E-02 0.  1.
    10030    2    1    2    0    0  0.00000000000E+00  0.00000000000E+00 -0.79998327046E+03  0.38239933653E+04  0.37393785613E+04 0.  0.
        5    1    3    3  502    0  0.57795809892E+02 -0.10275151361E+03 -0.23081776557E+04  0.23111911235E+04  0.46999998093E+01 0.  1.
       -5    1    3    3    0  502 -0.57795809892E+02  0.10275151361E+03  0.15081943852E+04  0.15128022418E+04  0.46999998093E+01 0. -1.
</event>
<event>
 5   0  0.4142886E-06  0.3174084E+04  0.7818609E-02  0.8195695E-01
       -1   -1    0    0    0  501  0.00000000000E+00  0.00000000000E+00  0.14332295125E+04  0.14332295125E+04  0.50400001928E-02 0.  1.
        1   -1    0    0  501    0  0.00000000000E+00  0.00000000000E+00 -0.17573617094E+04  0.17573617094E+04  0.50400001928E-02 0. -1.
    10030    2    1    2    0    0  0.00000000000E+00  0.00000000000E+00 -0.32413219694E+03  0.31905912219E+04  0.31740842245E+04 0.  0.
        5    1    3    3  502    0 -0.10429367299E+03  0.85241524826E+03  0.11794875501E+04  0.14590071612E+04  0.46999998093E+01 0.  1.
       -5    1    3    3    0  502  0.10429367299E+03 -0.85241524826E+03 -0.15036197470E+04  0.17315840607E+04  0.46999998093E+01 0. -1.
</event>
<event>
 5   0  0.7941434E-06  0.2079079E+04  0.7818609E-02  0.8570516E-01
       -2   -1    0    0    0  501  0.00000000000E+00  0.00000000000E+00  0.59041983927E+03  0.59041983928E+03  0.25500000920E-02 0.  1.
        2   -1    0    0  501    0  0.00000000000E+00  0.00000000000E+00 -0.18302953003E+04  0.18302953003E+04  0.25500000920E-02 0. -1.
    10030    2    1    2    0    0  0.00000000000E+00  0.00000000000E+00 -0.12398754610E+04  0.24207151396E+04  0.20790792741E+04 0.  0.
        4    1    3    3  502    0 -0.55980918054E+03  0.59796477108E+03 -0.13651874717E+04  0.15920699206E+04  0.12699999809E+01 0. -1.
       -4    1    3    3    0  502  0.55980918054E+03 -0.59796477108E+03  0.12531201071E+03  0.82864521902E+03  0.12699999809E+01 0.  1.
</event>
<event>
 5   0  0.7971763E-06  0.2315295E+04  0.7818609E-02  0.8471915E-01
        2   -1    0    0  501    0  0.00000000000E+00  0.00000000000E+00  0.14117130634E+04  0.14117130634E+04  0.25500000920E-02 0.  1.
       -2   -1    0    0    0  501  0.00000000000E+00  0.00000000000E+00 -0.94930616752E+03  0.94930616752E+03  0.25500000920E-02 0. -1.
    10030    2    1    2    0    0  0.00000000000E+00  0.00000000000E+00  0.46240689584E+03  0.23610192309E+04  0.23152951586E+04 0.  0.
        1    1    3    3  502    0 -0.46329819552E+03  0.52195064583E+03 -0.71065481529E+03  0.99604616418E+03  0.50400001928E-02 0. -1.
       -1    1    3    3    0  502  0.46329819552E+03 -0.52195064583E+03  0.11730617111E+04  0.13649730667E+04  0.50400001928E-02 0.  1.
</event>
<event>
 5   0  0.2788054E-06  0.3188350E+04  0.7818609E-02  0.8191901E-01
       -1   -1    0    0    0  501  0.00000000000E+00  0.00000000000E+00  0.20140074568E+04  0.20140074568E+04  0.50400001928E-02 0.  1.
        1   -1    0    0  501    0  0.00000000000E+00  0.00000000000E+00 -0.12618593724E+04  0.12618593724E+04  0.50400001928E-02 0. -1.
    10030    2    1    2    0    0  0.00000000000E+00  0.00000000000E+00  0.75214808442E+03  0.32758668292E+04  0.31883501598E+04 0.  0.
        3    1    3    3  502    0  0.13407920646E+04 -0.77766181108E+03 -0.68666789134E+01  0.15500091659E+04  0.10100000352E+00 0. -1.
       -3    1    3    3    0  502 -0.13407920646E+04  0.77766181108E+03  0.75901476334E+03  0.17258576633E+04  0.10100000352E+00 0.  1.
</event>
<event>
 5   0  0.7510251E-06  0.3001911E+04  0.7818609E-02  0.8243185E-01
        2   -1    0    0  501    0  0.00000000000E+00  0.00000000000E+00  0.15875923333E+04  0.15875923333E+04  0.25500000920E-02 0. -1.
       -2   -1    0    0    0  501  0.00000000000E+00  0.00000000000E+00 -0.14190462310E+04  0.14190462310E+04  0.25500000920E-02 0.  1.
    10030    2    1    2    0    0  0.00000000000E+00  0.00000000000E+00  0.16854610232E+03  0.30066385643E+04  0.30019106696E+04 0.  0.
        3    1    3    3  502    0  0.94813397898E+03  0.10997205063E+04 -0.29648838302E+03  0.14819745631E+04  0.10100000352E+00 0.  1.
       -3    1    3    3    0  502 -0.94813397898E+03 -0.10997205063E+04  0.46503448534E+03  0.15246640013E+04  0.10100000352E+00 0. -1.
</event>
<event>
 5   0  0.2788054E-06  0.3232444E+04  0.7818609E-02  0.8180301E-01
       -1   -1    0    0    0  501  0.00000000000E+00  0.00000000000E+00  0.12117078945E+04  0.12117078945E+04  0.50400001928E-02 0.  1.
        1   -1    0    0  501    0  0.00000000000E+00  0.00000000000E+00 -0.21557788082E+04  0.21557788082E+04  0.50400001928E-02 0. -1.
    10030    2    1    2    0    0  0.00000000000E+00  0.00000000000E+00 -0.94407091365E+03  0.33674867027E+04  0.32324444005E+04 0.  0.
        3    1    3    3  502    0 -0.10366432380E+04  0.28516879464E+03  0.78511969728E+03  0.13313013910E+04  0.10100000352E+00 0.  1.
       -3    1    3    3    0  502  0.10366432380E+04 -0.28516879464E+03 -0.17291906109E+04  0.20361853117E+04  0.10100000352E+00 0. -1.
</event>
<event>
 5   0  0.2580875E-06  0.3260920E+04  0.7818609E-02  0.8172911E-01
       -3   -1    0    0    0  501  0.00000000000E+00  0.00000000000E+00  0.13204875542E+04  0.13204875581E+04  0.10100000352E+00 0.  1.
        3   -1    0    0  501    0  0.00000000000E+00  0.00000000000E+00 -0.20131961721E+04  0.20131961747E+04  0.10100000352E+00 0. -1.
    10030    2    1    2    0    0  0.00000000000E+00  0.00000000000E+00 -0.69270861795E+03  0.33336837327E+04  0.32609204223E+04 0.  0.
        4    1    3    3  502    0 -0.84542512918E+03 -0.11178681109E+03 -0.17670242953E+04  0.19620439376E+04  0.12699999809E+01 0. -1.
       -4    1    3    3    0  502  0.84542512918E+03  0.11178681109E+03  0.10743156773E+04  0.13716397951E+04  0.12699999809E+01 0.  1.
</event>
<event>
 5   0  0.2635798E-06  0.3229226E+04  0.7818609E-02  0.8181141E-01
       -1   -1    0    0    0  501  0.00000000000E+00  0.00000000000E+00  0.85801228615E+03  0.85801228616E+03  0.50400001928E-02 0.  1.
        1   -1    0    0  501    0  0.00000000000E+00  0.00000000000E+00 -0.30383883609E+04  0.30383883610E+04  0.50400001928E-02 0. -1.
    10030    2    1    2    0    0  0.00000000000E+00  0.00000000000E+00 -0.21803760748E+04  0.38964006471E+04  0.32292256309E+04 0.  0.
        1    1    3    3  502    0  0.11928894812E+03  0.13904676659E+04 -0.20699517803E+04  0.24964636100E+04  0.50400001928E-02 0. -1.
       -1    1    3    3    0  502 -0.11928894812E+03 -0.13904676659E+04 -0.11042429447E+03  0.13999370371E+04  0.50400001928E-02 0.  1.
</event>
<event>
 5   0  0.2635798E-06  0.3202361E+04  0.7818609E-02  0.8188194E-01
        1   -1    0    0  501    0  0.00000000000E+00  0.00000000000E+00  0.21006760986E+04  0.21006760986E+04  0.50400001928E-02 0. -1.
       -1   -1    0    0    0  501  0.00000000000E+00  0.00000000000E+00 -0.12204545715E+04  0.12204545715E+04  0.50400001928E-02 0.  1.
    10030    2    1    2    0    0  0.00000000000E+00  0.00000000000E+00  0.88022152713E+03  0.33211306700E+04  0.32023614710E+04 0.  0.
        1    1    3    3  502    0 -0.11808468144E+04  0.10665669097E+04  0.25512619402E+03  0.16115376344E+04  0.50400001928E-02 0. -1.
       -1    1    3    3    0  502  0.11808468144E+04 -0.10665669097E+04  0.62509533311E+03  0.17095930357E+04  0.50400001928E-02 0.  1.
</event>
<event>
 5   0  0.7510251E-06  0.3172188E+04  0.7818609E-02  0.8196201E-01
       -2   -1    0    0    0  501  0.00000000000E+00  0.00000000000E+00  0.10841844508E+04  0.10841844508E+04  0.25500000920E-02 0.  1.
        2   -1    0    0  501    0  0.00000000000E+00  0.00000000000E+00 -0.23203564757E+04  0.23203564757E+04  0.25500000920E-02 0. -1.
    10030    2    1    2    0    0  0.00000000000E+00  0.00000000000E+00 -0.12361720249E+04  0.34045409266E+04  0.31721881479E+04 0.  0.
        3    1    3    3  502    0 -0.11300005754E+03 -0.16707097414E+03  0.10703644954E+04  0.10892024085E+04  0.10100000352E+00 0.  1.
       -3    1    3    3    0  502  0.11300005754E+03  0.16707097414E+03 -0.23065365203E+04  0.23153385181E+04  0.10100000352E+00 0. -1.
</event>
<event>
 5   0  0.2788054E-06  0.3176679E+04  0.7818609E-02  0.8195003E-01
       -1   -1    0    0    0  501  0.00000000000E+00  0.00000000000E+00  0.14281578863E+04  0.14281578863E+04  0.50400001928E-02 0.  1.
        1   -1    0    0  501    0  0.00000000000E+00  0.00000000000E+00 -0.17664871364E+04  0.17664871364E+04  0.50400001928E-02 0. -1.
    10030    2    1    2    0    0  0.00000000000E+00  0.00000000000E+00 -0.33832925004E+03  0.31946450227E+04  0.31766791056E+04 0.  0.
        3    1    3    3  502    0  0.12103395890E+04 -0.46353979434E+03 -0.10925248295E+04  0.16951110804E+04  0.10100000352E+00 0. -1.
       -3    1    3    3    0  502 -0.12103395890E+04  0.46353979434E+03  0.75419557946E+03  0.14995339423E+04  0.10100000352E+00 0.  1.
</event>
<event>
 5   0  0.2933646E-06  0.3228774E+04  0.7818609E-02  0.8181259E-01
       -1   -1    0    0    0  501  0.00000000000E+00  0.00000000000E+00  0.88332448612E+03  0.88332448614E+03  0.50400001928E-02 0.  1.
        1   -1    0    0  501    0  0.00000000000E+00  0.00000000000E+00 -0.29504967396E+04  0.29504967396E+04  0.50400001928E-02 0. -1.
    10030    2    1    2    0    0  0.00000000000E+00  0.00000000000E+00 -0.20671722534E+04  0.38338212257E+04  0.32287743906E+04 0.  0.
        2    1    3    3  502    0 -0.88786185912E+03  0.52163314549E+03 -0.25098952327E+04  0.27129271827E+04  0.25500000920E-02 0. -1.
       -2    1    3    3    0  502  0.88786185912E+03 -0.52163314549E+03  0.44272297926E+03  0.11208940430E+04  0.25500000920E-02 0.  1.
</event>
<event>
 5   0  0.4142886E-06  0.3255765E+04  0.7818609E-02  0.8174243E-01
        1   -1    0    0  501    0  0.00000000000E+00  0.00000000000E+00  0.15055885996E+04  0.15055885996E+04  0.50400001928E-02 0.  1.
       -1   -1    0    0    0  501  0.00000000000E+00  0.00000000000E+00 -0.17601096704E+04  0.17601096704E+04  0.50400001928E-02 0. -1.
    10030    2    1    2    0    0  0.00000000000E+00  0.00000000000E+00 -0.25452107080E+03  0.32656982700E+04  0.32557647666E+04 0.  0.
        5    1    3    3  502    0 -0.18296039970E+03  0.92576149903E+03  0.12032367200E+04  0.15291532151E+04  0.46999998093E+01 0.  1.
       -5    1    3    3    0  502  0.18296039970E+03 -0.92576149903E+03 -0.14577577908E+04  0.17365450549E+04  0.46999998093E+01 0. -1.
</event>
<event>
 5   0  0.7971763E-06  0.3154163E+04  0.7818609E-02  0.8201029E-01
       -2   -1    0    0    0  501  0.00000000000E+00  0.00000000000E+00  0.11084780848E+04  0.11084780848E+04  0.25500000920E-02 0.  1.
        2   -1    0    0  501    0  0.00000000000E+00  0.00000000000E+00 -0.22437843073E+04  0.22437843073E+04  0.25500000920E-02 0. -1.
    10030    2    1    2    0    0  0.00000000000E+00  0.00000000000E+00 -0.11353062225E+04  0.33522623921E+04  0.31541627933E+04 0.  0.
        1    1    3    3  502    0 -0.88013517996E+03 -0.19496116176E+03  0.80765940879E+03  0.12103559436E+04  0.50400001928E-02 0.  1.
       -1    1    3    3    0  502  0.88013517996E+03  0.19496116176E+03 -0.19429656313E+04  0.21419064485E+04  0.50400001928E-02 0. -1.
</event>
<event>
 5   0  0.7510251E-06  0.3278804E+04  0.7818609E-02  0.8168310E-01
       -2   -1    0    0    0  501  0.00000000000E+00  0.00000000000E+00  0.12398888955E+04  0.12398888955E+04  0.25500000920E-02 0. -1.
        2   -1    0    0  501    0  0.00000000000E+00  0.00000000000E+00 -0.21676447315E+04  0.21676447315E+04  0.25500000920E-02 0.  1.
    10030    2    1    2    0    0  0.00000000000E+00  0.00000000000E+00 -0.92775583600E+03  0.34075336269E+04  0.32788038257E+04 0.  0.
        3    1    3    3  502    0  0.11219470435E+04  0.11894069305E+04 -0.58765304201E+03  0.17374665818E+04  0.10100000352E+00 0.  1.
       -3    1    3    3    0  502 -0.11219470435E+04 -0.11894069305E+04 -0.34010279400E+03  0.16700670452E+04  0.10100000352E+00 0. -1.
</event>
<event>
 5   0  0.2635798E-06  0.1703521E+04  0.7818609E-02  0.8759359E-01
        1   -1    0    0  501    0  0.00000000000E+00  0.00000000000E+00  0.11776847486E+04  0.11776847486E+04  0.50400001928E-02 0. -1.
       -1   -1    0    0    0  501  0.00000000000E+00  0.00000000000E+00 -0.61603575764E+03  0.61603575766E+03  0.50400001928E-02 0.  1.
    10030    2    1    2    0    0  0.00000000000E+00  0.00000000000E+00  0.56164899094E+03  0.17937205063E+04  0.17035209613E+04 0.  0.
        1    1    3    3  502    0 -0.65837099043E+03  0.50360738269E+03  0.74427282946E+02  0.83223324700E+03  0.50400001928E-02 0.  1.
       -1    1    3    3    0  502  0.65837099043E+03 -0.50360738269E+03  0.48722170800E+03  0.96148725925E+03  0.50400001928E-02 0. -1.
</event>
<event>
 5   0  0.2933646E-06  0.3216197E+04  0.7818609E-02  0.8184553E-01
       -1   -1    0    0    0  501  0.00000000000E+00  0.00000000000E+00  0.31789563642E+04  0.31789563642E+04  0.50400001928E-02 0. -1.
        1   -1    0    0  501    0  0.00000000000E+00  0.00000000000E+00 -0.81346857137E+03  0.81346857139E+03  0.50400001928E-02 0.  1.
    10030    2    1    2    0    0  0.00000000000E+00  0.00000000000E+00  0.23654877928E+04  0.39924249356E+04  0.32161971905E+04 0.  0.
        2    1    3    3  502    0  0.91103411779E+03 -0.11984252809E+04  0.48077771165E+03  0.15803017199E+04  0.25500000920E-02 0.  1.
       -2    1    3    3    0  502 -0.91103411779E+03  0.11984252809E+04  0.18847100812E+04  0.24121232157E+04  0.25500000920E-02 0. -1.
</event>
<event>
 5   0  0.3938696E-06  0.3265800E+04  0.7818609E-02  0.8171653E-01
       -1   -1    0    0    0  501  0.00000000000E+00  0.00000000000E+00  0.96324879512E+03  0.96324879514E+03  0.50400001928E-02 0. -1.
        1   -1    0    0  501    0  0.00000000000E+00  0.00000000000E+00 -0.27680928705E+04  0.27680928705E+04  0.50400001928E-02 0.  1.
    10030    2    1    2    0    0  0.00000000000E+00  0.00000000000E+00 -0.18048440754E+04  0.37313416657E+04  0.32657998238E+04 0.  0.
        4    1    3    3  502    0 -0.74643399291E+03  0.14521177650E+04 -0.87560736012E+03  0.18527006156E+04  0.12699999809E+01 0. -1.
       -4    1    3    3    0  502  0.74643399291E+03 -0.14521177650E+04 -0.92923671528E+03  0.18786410501E+04  0.12699999809E+01 0.  1.
</event>
<event>
 5   0  0.2788054E-06  0.3282116E+04  0.7818609E-02  0.8167461E-01
       -1   -1    0    0    0  501  0.00000000000E+00  0.00000000000E+00  0.22771440361E+04  0.22771440361E+04  0.50400001928E-02 0.  1.
        1   -1    0    0  501    0  0.00000000000E+00  0.00000000000E+00 -0.11826532788E+04  0.11826532788E+04  0.50400001928E-02 0. -1.
    10030    2    1    2    0    0  0.00000000000E+00  0.00000000000E+00  0.10944907573E+04  0.34597973149E+04  0.32821163054E+04 0.  0.
        3    1    3    3  502    0 -0.68466405455E+03  0.21079336847E+03  0.21036134062E+04  0.22222484300E+04  0.10100000352E+00 0.  1.
       -3    1    3    3    0  502  0.68466405455E+03 -0.21079336847E+03 -0.10091226489E+04  0.12375488849E+04  0.10100000352E+00 0. -1.
</event>
<event>
 5   0  0.2635798E-06  0.3148458E+04  0.7818609E-02  0.8202563E-01
        1   -1    0    0  501    0  0.00000000000E+00  0.00000000000E+00  0.16908526127E+04  0.16908526127E+04  0.50400001928E-02 0. -1.
       -1   -1    0    0    0  501  0.00000000000E+00  0.00000000000E+00 -0.14656496394E+04  0.14656496394E+04  0.50400001928E-02 0.  1.
    10030    2    1    2    0    0  0.00000000000E+00  0.00000000000E+00  0.22520297338E+03  0.31565022521E+04  0.31484583669E+04 0.  0.
        1    1    3    3  502    0  0.44163966013E+03 -0.79737150311E+03 -0.11741692339E+04  0.14864455231E+04  0.50400001928E-02 0.  1.
       -1    1    3    3    0  502 -0.44163966013E+03  0.79737150311E+03  0.13993722073E+04  0.16700567290E+04  0.50400001928E-02 0. -1.
</event>
<event>
 5   0  0.7941434E-06  0.2778415E+04  0.7818609E-02  0.8310001E-01
        2   -1    0    0  501    0  0.00000000000E+00  0.00000000000E+00  0.17043623873E+04  0.17043623873E+04  0.25500000920E-02 0. -1.
       -2   -1    0    0    0  501  0.00000000000E+00  0.00000000000E+00 -0.11323277319E+04  0.11323277319E+04  0.25500000920E-02 0.  1.
    10030    2    1    2    0    0  0.00000000000E+00  0.00000000000E+00  0.57203465539E+03  0.28366901192E+04  0.27784145093E+04 0.  0.
        4    1    3    3  502    0 -0.12779914557E+03  0.12044672770E+04  0.98059601285E+03  0.15584107919E+04  0.12699999809E+01 0. -1.
       -4    1    3    3    0  502  0.12779914557E+03 -0.12044672770E+04 -0.40856135746E+03  0.12782793273E+04  0.12699999809E+01 0.  1.
</event>
<event>
 5   0  0.7941434E-06  0.2393792E+04  0.7818609E-02  0.8441831E-01
       -2   -1    0    0    0  501  0.00000000000E+00  0.00000000000E+00  0.12360024561E+04  0.12360024561E+04  0.25500000920E-02 0. -1.
        2   -1    0    0  501    0  0.00000000000E+00  0.00000000000E+00 -0.11590267642E+04  0.11590267642E+04  0.25500000920E-02 0.  1.
    10030    2    1    2    0    0  0.00000000000E+00  0.00000000000E+00  0.76975691935E+02  0.23950292203E+04  0.23937919101E+04 0.  0.
        4    1    3    3  502    0  0.40938765577E+01 -0.76840474872E+03 -0.87964419870E+03  0.11680060560E+04  0.12699999809E+01 0.  1.
       -4    1    3    3    0  502 -0.40938765577E+01  0.76840474872E+03  0.95661989064E+03  0.12270231643E+04  0.12699999809E+01 0. -1.
</event>
<event>
 5   0  0.2788054E-06  0.3188831E+04  0.7818609E-02  0.8191773E-01
        1   -1    0    0  501    0  0.00000000000E+00  0.00000000000E+00  0.17400416413E+04  0.17400416413E+04  0.50400001928E-02 0.  1.
       -1   -1    0    0    0  501  0.00000000000E+00  0.00000000000E+00 -0.14609773833E+04  0.14609773833E+04  0.50400001928E-02 0. -1.
    10030    2    1    2    0    0  0.00000000000E+00  0.00000000000E+00  0.27906425806E+03  0.32010190246E+04  0.31888314373E+04 0.  0.
        3    1    3    3  502    0  0.25363762495E+03 -0.15398117751E+04 -0.18853360655E+03  0.15719088010E+04  0.10100000352E+00 0.  1.
       -3    1    3    3    0  502 -0.25363762495E+03  0.15398117751E+04  0.46759786461E+03  0.16291102236E+04  0.10100000352E+00 0. -1.
</event>
<event>
 5   0  0.3938696E-06  0.3001187E+04  0.7818609E-02  0.8243392E-01
       -1   -1    0    0    0  501  0.00000000000E+00  0.00000000000E+00  0.10046419420E+04  0.10046419420E+04  0.50400001928E-02 0.  1.
        1   -1    0    0  501    0  0.00000000000E+00  0.00000000000E+00 -0.22413770118E+04  0.22413770118E+04  0.50400001928E-02 0. -1.
    10030    2    1    2    0    0  0.00000000000E+00  0.00000000000E+00 -0.12367350698E+04  0.32460189538E+04  0.30011873343E+04 0.  0.
        4    1    3    3  502    0  0.10519988032E+04 -0.18580195808E+03 -0.17581662330E+04  0.20572734299E+04  0.12699999809E+01 0. -1.
       -4    1    3    3    0  502 -0.10519988032E+04  0.18580195808E+03  0.52143116321E+03  0.11887455239E+04  0.12699999809E+01 0.  1.
</event>
<event>
 5   0  0.7941434E-06  0.3196281E+04  0.7818609E-02  0.8189800E-01
        2   -1    0    0  501    0  0.00000000000E+00  0.00000000000E+00  0.12216202935E+04  0.12216202935E+04  0.25500000920E-02 0.  1.
       -2   -1    0    0    0  501  0.00000000000E+00  0.00000000000E+00 -0.20907099728E+04  0.20907099728E+04  0.25500000920E-02 0. -1.
    10030    2    1    2    0    0  0.00000000000E+00  0.00000000000E+00 -0.86908967921E+03  0.33123302663E+04  0.31962814210E+04 0.  0.
        4    1    3    3  502    0  0.96226598659E+03 -0.68600075228E+03  0.68038870719E+03  0.13636287130E+04  0.12699999809E+01 0.  1.
       -4    1    3    3    0  502 -0.96226598659E+03  0.68600075228E+03 -0.15494783864E+04  0.19487015533E+04  0.12699999809E+01 0. -1.
</event>
<event>
 5   0  0.7941434E-06  0.3173965E+04  0.7818609E-02  0.8195727E-01
        2   -1    0    0  501    0  0.00000000000E+00  0.00000000000E+00  0.16089465855E+04  0.16089465855E+04  0.25500000920E-02 0.  1.
       -2   -1    0    0    0  501  0.00000000000E+00  0.00000000000E+00 -0.15653178079E+04  0.15653178079E+04  0.25500000920E-02 0. -1.
    10030    2    1    2    0    0  0.00000000000E+00  0.00000000000E+00  0.43628777644E+02  0.31742643934E+04  0.31739645507E+04 0.  0.
        4    1    3    3  502    0 -0.69919041612E+03  0.10193476918E+04 -0.97355556326E+03  0.15734513028E+04  0.12699999809E+01 0. -1.
       -4    1    3    3    0  502  0.69919041612E+03 -0.10193476918E+04  0.10171843409E+04  0.16008130906E+04  0.12699999809E+01 0.  1.
</event>
<event>
 5   0  0.8237664E-06  0.3259349E+04  0.7818609E-02  0.8173317E-01
        2   -1    0    0  501    0  0.00000000000E+00  0.00000000000E+00  0.17351200048E+04  0.17351200048E+04  0.25500000920E-02 0. -1.
       -2   -1    0    0    0  501  0.00000000000E+00  0.00000000000E+00 -0.15306370911E+04  0.15306370911E+04  0.25500000920E-02 0.  1.
    10030    2    1    2    0    0  0.00000000000E+00  0.00000000000E+00  0.20448291375E+03  0.32657570959E+04  0.32593490373E+04 0.  0.
        5    1    3    3  502    0  0.10316096289E+03  0.74197470807E+03 -0.13478939775E+04  0.15420794131E+04  0.46999998093E+01 0.  1.
       -5    1    3    3    0  502 -0.10316096289E+03 -0.74197470807E+03  0.15523768912E+04  0.17236776828E+04  0.46999998093E+01 0. -1.
</event>
<event>
 5   0  0.7971763E-06  0.3126260E+04  0.7818609E-02  0.8208568E-01
       -2   -1    0    0    0  501  0.00000000000E+00  0.00000000000E+00  0.12087327177E+04  0.12087327177E+04  0.25500000920E-02 0. -1.
        2   -1    0    0  501    0  0.00000000000E+00  0.00000000000E+00 -0.20214361327E+04  0.20214361327E+04  0.25500000920E-02 0.  1.
    10030    2    1    2    0    0  0.00000000000E+00  0.00000000000E+00 -0.81270341499E+03  0.32301688504E+04  0.31262603797E+04 0.  0.
        1    1    3    3  502    0  0.92698827064E+03  0.11768266602E+04 -0.86744391033E+03  0.17310942145E+04  0.50400001928E-02 0.  1.
       -1    1    3    3    0  502 -0.92698827064E+03 -0.11768266602E+04  0.54740495342E+02  0.14990746359E+04  0.50400001928E-02 0. -1.
</event>
<event>
 5   0  0.8237664E-06  0.3291155E+04  0.7818609E-02  0.8165150E-01
        2   -1    0    0  501    0  0.00000000000E+00  0.00000000000E+00  0.18958556106E+04  0.18958556106E+04  0.25500000920E-02 0.  1.
       -2   -1    0    0    0  501  0.00000000000E+00  0.00000000000E+00 -0.14283397618E+04  0.14283397618E+04  0.25500000920E-02 0. -1.
    10030    2    1    2    0    0  0.00000000000E+00  0.00000000000E+00  0.46751584875E+03  0.33241953724E+04  0.32911553906E+04 0.  0.
        5    1    3    3  502    0  0.68538332095E+03 -0.13505784907E+04 -0.41620144479E+03  0.15706872027E+04  0.46999998093E+01 0. -1.
       -5    1    3    3    0  502 -0.68538332095E+03  0.13505784907E+04  0.88371729353E+03  0.17535081697E+04  0.46999998093E+01 0.  1.
</event>
<event>
 5   0  0.2933646E-06  0.3232975E+04  0.7818609E-02  0.8180163E-01
        1   -1    0    0  501    0  0.00000000000E+00  0.00000000000E+00  0.15739920507E+04  0.15739920507E+04  0.50400001928E-02 0.  1.
       -1   -1    0    0    0  501  0.00000000000E+00  0.00000000000E+00 -0.16601300641E+04  0.16601300641E+04  0.50400001928E-02 0. -1.
    10030    2    1    2    0    0  0.00000000000E+00  0.00000000000E+00 -0.86138013407E+02  0.32341221148E+04  0.32329748060E+04 0.  0.
        2    1    3    3  502    0 -0.12965306839E+04  0.62749473134E+03 -0.77701191553E+03  0.16366089848E+04  0.25500000920E-02 0. -1.
       -2    1    3    3    0  502  0.12965306839E+04 -0.62749473134E+03  0.69087390213E+03  0.15975131301E+04  0.25500000920E-02 0.  1.
</event>
<event>
 5   0  0.8237664E-06  0.3278612E+04  0.7818609E-02  0.8168359E-01
        2   -1    0    0  501    0  0.00000000000E+00  0.00000000000E+00  0.18536759243E+04  0.18536759243E+04  0.25500000920E-02 0. -1.
       -2   -1    0    0    0  501  0.00000000000E+00  0.00000000000E+00 -0.14497273553E+04  0.14497273553E+04  0.25500000920E-02 0.  1.
    10030    2    1    2    0    0  0.00000000000E+00  0.00000000000E+00  0.40394856905E+03  0.33034032796E+04  0.32786123255E+04 0.  0.
        5    1    3    3  502    0 -0.11558194573E+04  0.10880570982E+04  0.61435593885E+03  0.17021287191E+04  0.46999998093E+01 0. -1.
       -5    1    3    3    0  502  0.11558194573E+04 -0.10880570982E+04 -0.21040736979E+03  0.16012745605E+04  0.46999998093E+01 0.  1.
</event>
<event>
 5   0  0.2788054E-06  0.1583500E+04  0.7818609E-02  0.8830749E-01
       -1   -1    0    0    0  501  0.00000000000E+00  0.00000000000E+00  0.15296121292E+04  0.15296121292E+04  0.50400001928E-02 0.  1.
        1   -1    0    0  501    0  0.00000000000E+00  0.00000000000E+00 -0.40982151602E+03  0.40982151605E+03  0.50400001928E-02 0. -1.
    10030    2    1    2    0    0  0.00000000000E+00  0.00000000000E+00  0.11197906132E+04  0.19394336452E+04  0.15834998727E+04 0.  0.
        3    1    3    3  502    0  0.46368236121E+03  0.27862580805E+03  0.12679754030E+04  0.13785482602E+04  0.10100000352E+00 0.  1.
       -3    1    3    3    0  502 -0.46368236121E+03 -0.27862580805E+03 -0.14818478981E+03  0.56088538503E+03  0.10100000352E+00 0. -1.
</event>
<event>
 5   0  0.3938696E-06  0.2695830E+04  0.7818609E-02  0.8336359E-01
        1   -1    0    0  501    0  0.00000000000E+00  0.00000000000E+00  0.20491648796E+04  0.20491648796E+04  0.50400001928E-02 0. -1.
       -1   -1    0    0    0  501  0.00000000000E+00  0.00000000000E+00 -0.88664143341E+03  0.88664143342E+03  0.50400001928E-02 0.  1.
    10030    2    1    2    0    0  0.00000000000E+00  0.00000000000E+00  0.11625234462E+04  0.29358063130E+04  0.26958297321E+04 0.  0.
        4    1    3    3  502    0 -0.13155882248E+04 -0.21430152487E+03  0.79954214749E+03  0.15543380518E+04  0.12699999809E+01 0.  1.
       -4    1    3    3    0  502  0.13155882248E+04  0.21430152487E+03  0.36298129872E+03  0.13814682613E+04  0.12699999809E+01 0. -1.
</event>
<event>
 5   0  0.4142886E-06  0.3227645E+04  0.7818609E-02  0.8181554E-01
        1   -1    0    0  501    0  0.00000000000E+00  0.00000000000E+00  0.26503731196E+04  0.26503731196E+04  0.50400001928E-02 0. -1.
       -1   -1    0    0    0  501  0.00000000000E+00  0.00000000000E+00 -0.98266265373E+03  0.98266265374E+03  0.50400001928E-02 0.  1.
    10030    2    1    2    0    0  0.00000000000E+00  0.00000000000E+00  0.16677104658E+04  0.36330357733E+04  0.32276447655E+04 0.  0.
        5    1    3    3  502    0 -0.23983163262E+03  0.15848719476E+04  0.10446229480E+04  0.19132687986E+04  0.46999998093E+01 0.  1.
       -5    1    3    3    0  502  0.23983163262E+03 -0.15848719476E+04  0.62308751783E+03  0.17197669747E+04  0.46999998093E+01 0. -1.
</event>
<event>
 5   0  0.2788054E-06  0.2798841E+04  0.7818609E-02  0.8303628E-01
       -1   -1    0    0    0  501  0.00000000000E+00  0.00000000000E+00  0.25855812634E+04  0.25855812634E+04  0.50400001928E-02 0.  1.
        1   -1    0    0  501    0  0.00000000000E+00  0.00000000000E+00 -0.75742236150E+03  0.75742236152E+03  0.50400001928E-02 0. -1.
    10030    2    1    2    0    0  0.00000000000E+00  0.00000000000E+00  0.18281589019E+04  0.33430036249E+04  0.27988405217E+04 0.  0.
        3    1    3    3  502    0  0.19814254422E+03 -0.89878891524E+03  0.21732176200E+04  0.23600755955E+04  0.10100000352E+00 0.  1.
       -3    1    3    3    0  502 -0.19814254422E+03  0.89878891524E+03 -0.34505871813E+03  0.98292802948E+03  0.10100000352E+00 0. -1.
</event>
<event>
 5   0  0.7952307E-06  0.2950400E+04  0.7818609E-02  0.8258038E-01
        2   -1    0    0  501    0  0.00000000000E+00  0.00000000000E+00  0.17501538064E+04  0.17501538064E+04  0.25500000920E-02 0.  1.
       -2   -1    0    0    0  501  0.00000000000E+00  0.00000000000E+00 -0.12434418273E+04  0.12434418273E+04  0.25500000920E-02 0. -1.
    10030    2    1    2    0    0  0.00000000000E+00  0.00000000000E+00  0.50671197906E+03  0.29935956337E+04  0.29503995981E+04 0.  0.
        2    1    3    3  502    0 -0.85357797001E+03  0.66930629202E+03  0.12678182310E+04  0.16685111118E+04  0.25500000920E-02 0.  1.
       -2    1    3    3    0  502  0.85357797001E+03 -0.66930629202E+03 -0.76110625193E+03  0.13250845219E+04  0.25500000920E-02 0. -1.
</event>
<event>
 5   0  0.4142886E-06  0.3203673E+04  0.7818609E-02  0.8187848E-01
        1   -1    0    0  501    0  0.00000000000E+00  0.00000000000E+00  0.13207370262E+04  0.13207370262E+04  0.50400001928E-02 0.  1.
       -1   -1    0    0    0  501  0.00000000000E+00  0.00000000000E+00 -0.19427643689E+04  0.19427643689E+04  0.50400001928E-02 0. -1.
    10030    2    1    2    0    0  0.00000000000E+00  0.00000000000E+00 -0.62202734271E+03  0.32635013951E+04  0.32036734136E+04 0.  0.
        5    1    3    3  502    0  0.44745600485E+03 -0.11488138152E+04  0.73076184327E+03  0.14331870150E+04  0.46999998093E+01 0.  1.
       -5    1    3    3    0  502 -0.44745600485E+03  0.11488138152E+04 -0.13527891860E+04  0.18303143801E+04  0.46999998093E+01 0. -1.
</event>
<event>
 5   0  0.2933646E-06  0.2035845E+04  0.7818609E-02  0.8590043E-01
        1   -1    0    0  501    0  0.00000000000E+00  0.00000000000E+00  0.14041734055E+04  0.14041734055E+04  0.50400001928E-02 0. -1.
       -1   -1    0    0    0  501  0.00000000000E+00  0.00000000000E+00 -0.73791893216E+03  0.73791893218E+03  0.50400001928E-02 0.  1.
    10030    2    1    2    0    0  0.00000000000E+00  0.00000000000E+00  0.66625447332E+03  0.21420923377E+04  0.20358449253E+04 0.  0.
        2    1    3    3  502    0  0.69815909335E+03  0.21758480577E+03 -0.41192085102E+03  0.83931403827E+03  0.25500000920E-02 0.  1.
       -2    1    3    3    0  502 -0.69815909335E+03 -0.21758480577E+03  0.10781753243E+04  0.13027782994E+04  0.25500000920E-02 0. -1.
</event>
<event>
 5   0  0.2788054E-06  0.3399456E+04  0.7818609E-02  0.8138040E-01
        1   -1    0    0  501    0  0.00000000000E+00  0.00000000000E+00  0.96648146775E+03  0.96648146776E+03  0.50400001928E-02 0. -1.
       -1   -1    0    0    0  501  0.00000000000E+00  0.00000000000E+00 -0.29892709599E+04  0.29892709600E+04  0.50400001928E-02 0.  1.
    10030    2    1    2    0    0  0.00000000000E+00  0.00000000000E+00 -0.20227894922E+04  0.39557524277E+04  0.33994558299E+04 0.  0.
        3    1    3    3  502    0  0.73192667124E+03 -0.61290137672E+03  0.62504880926E+03  0.11410743945E+04  0.10100000352E+00 0. -1.
       -3    1    3    3    0  502 -0.73192667124E+03  0.61290137672E+03 -0.26478383015E+04  0.28146780332E+04  0.10100000352E+00 0.  1.
</event>
<event>
 5   0  0.7971763E-06  0.3222265E+04  0.7818609E-02  0.8182962E-01
       -2   -1    0    0    0  501  0.00000000000E+00  0.00000000000E+00  0.13980129847E+04  0.13980129847E+04  0.25500000920E-02 0.  1.
        2   -1    0    0  501    0  0.00000000000E+00  0.00000000000E+00 -0.18567409766E+04  0.18567409766E+04  0.25500000920E-02 0. -1.
    10030    2    1    2    0    0  0.00000000000E+00  0.00000000000E+00 -0.45872799184E+03  0.32547539613E+04  0.32222650384E+04 0.  0.
        1    1    3    3  502    0 -0.81038321307E+03  0.13575191041E+04  0.83873890261E+02  0.15832289473E+04  0.50400001928E-02 0.  1.
       -1    1    3    3    0  502  0.81038321307E+03 -0.13575191041E+04 -0.54260188210E+03  0.16715250140E+04  0.50400001928E-02 0. -1.
</event>
<event>
 5   0  0.7952307E-06  0.3317778E+04  0.7818609E-02  0.8158387E-01
        2   -1    0    0  501    0  0.00000000000E+00  0.00000000000E+00  0.17050491517E+04  0.17050491517E+04  0.25500000920E-02 0.  1.
       -2   -1    0    0    0  501  0.00000000000E+00  0.00000000000E+00 -0.16139782267E+04  0.16139782267E+04  0.25500000920E-02 0. -1.
    10030    2    1    2    0    0  0.00000000000E+00  0.00000000000E+00  0.91070925031E+02  0.33190273784E+04  0.33177776938E+04 0.  0.
        2    1    3    3  502    0 -0.12539589750E+04  0.30815182076E+02  0.11315545781E+04  0.16893130112E+04  0.25500000920E-02 0.  1.
       -2    1    3    3    0  502  0.12539589750E+04 -0.30815182076E+02 -0.10404836531E+04  0.16297143672E+04  0.25500000920E-02 0. -1.
</event>
<event>
 5   0  0.4142886E-06  0.3194025E+04  0.7818609E-02  0.8190397E-01
       -1   -1    0    0    0  501  0.00000000000E+00  0.00000000000E+00  0.15582605922E+04  0.15582605923E+04  0.50400001928E-02 0. -1.
        1   -1    0    0  501    0  0.00000000000E+00  0.00000000000E+00 -0.16367280616E+04  0.16367280617E+04  0.50400001928E-02 0.  1.
    10030    2    1    2    0    0  0.00000000000E+00  0.00000000000E+00 -0.78467469403E+02  0.31949886539E+04  0.31940249459E+04 0.  0.
        5    1    3    3  502    0  0.50654109387E+03  0.15012842014E+04 -0.23926560712E+03  0.16024070188E+04  0.46999998093E+01 0.  1.
       -5    1    3    3    0  502 -0.50654109387E+03 -0.15012842014E+04  0.16079813772E+03  0.15925816351E+04  0.46999998093E+01 0. -1.
</event>
<event>
 5   0  0.7971763E-06  0.2814255E+04  0.7818609E-02  0.8298856E-01
        2   -1    0    0  501    0  0.00000000000E+00  0.00000000000E+00  0.71940553090E+03  0.71940553091E+03  0.25500000920E-02 0. -1.
       -2   -1    0    0    0  501  0.00000000000E+00  0.00000000000E+00 -0.27522828962E+04  0.27522828962E+04  0.25500000920E-02 0.  1.
    10030    2    1    2    0    0  0.00000000000E+00  0.00000000000E+00 -0.20328773653E+04  0.34716884271E+04  0.28142548130E+04 0.  0.
        1    1    3    3  502    0 -0.10871826375E+03  0.14014048271E+04 -0.10968827017E+04  0.17829489088E+04  0.50400001928E-02 0. -1.
       -1    1    3    3    0  502  0.10871826375E+03 -0.14014048271E+04 -0.93599466360E+03  0.16887395183E+04  0.50400001928E-02 0.  1.
</event>
<event>
 5   0  0.2788054E-06  0.3152680E+04  0.7818609E-02  0.8201427E-01
       -1   -1    0    0    0  501  0.00000000000E+00  0.00000000000E+00  0.95450687814E+03  0.95450687815E+03  0.50400001928E-02 0. -1.
        1   -1    0    0  501    0  0.00000000000E+00  0.00000000000E+00 -0.26032790543E+04  0.26032790543E+04  0.50400001928E-02 0.  1.
    10030    2    1    2    0    0  0.00000000000E+00  0.00000000000E+00 -0.16487721762E+04  0.35577859325E+04  0.31526799794E+04 0.  0.
        3    1    3    3  502    0  0.13444642484E+03 -0.15655085870E+04 -0.68184329037E+03  0.17128348606E+04  0.10100000352E+00 0. -1.
       -3    1    3    3    0  502 -0.13444642484E+03  0.15655085870E+04 -0.96692888581E+03  0.18449510718E+04  0.10100000352E+00 0.  1.
</event>
<event>
 5   0  0.2788054E-06  0.2299039E+04  0.7818609E-02  0.8478300E-01
        1   -1    0    0  501    0  0.00000000000E+00  0.00000000000E+00  0.17860420917E+04  0.17860420917E+04  0.50400001928E-02 0. -1.
       -1   -1    0    0    0  501  0.00000000000E+00  0.00000000000E+00 -0.73984564146E+03  0.73984564148E+03  0.50400001928E-02 0.  1.
    10030    2    1    2    0    0  0.00000000000E+00  0.00000000000E+00  0.10461964502E+04  0.25258877332E+04  0.22990393272E+04 0.  0.
        3    1    3    3  502    0 -0.37439335956E+03 -0.20125131474E+02  0.17169749916E+04  0.17574352166E+04  0.10100000352E+00 0. -1.
       -3    1    3    3    0  502  0.37439335956E+03  0.20125131474E+02 -0.67077854132E+03  0.76845251662E+03  0.10100000352E+00 0.  1.
</event>
<event>
 5   0  0.7941434E-06  0.3196348E+04  0.7818609E-02  0.8189782E-01
       -2   -1    0    0    0  501  0.00000000000E+00  0.00000000000E+00  0.10752814535E+04  0.10752814535E+04  0.25500000920E-02 0.  1.
        2   -1    0    0  501    0  0.00000000000E+00  0.00000000000E+00 -0.23753405916E+04  0.23753405916E+04  0.25500000920E-02 0. -1.
    10030    2    1    2    0    0  0.00000000000E+00  0.00000000000E+00 -0.13000591381E+04  0.34506220451E+04  0.31963477182E+04 0.  0.
        4    1    3    3  502    0 -0.39189929249E+03 -0.14571366572E+04 -0.12185400741E+04  0.19395034979E+04  0.12699999809E+01 0.  1.
       -4    1    3    3    0  502  0.39189929249E+03  0.14571366572E+04 -0.81519064037E+02  0.15111185473E+04  0.12699999809E+01 0. -1.
</event>
<event>
 5   0  0.2933646E-06  0.3353814E+04  0.7818609E-02  0.8149336E-01
        1   -1    0    0  501    0  0.00000000000E+00  0.00000000000E+00  0.12549646907E+04  0.12549646907E+04  0.50400001928E-02 0.  1.
       -1   -1    0    0    0  501  0.00000000000E+00  0.00000000000E+00 -0.22407136893E+04  0.22407136893E+04  0.50400001928E-02 0. -1.
    10030    2    1    2    0    0  0.00000000000E+00  0.00000000000E+00 -0.98574899868E+03  0.34956783800E+04  0.33538136872E+04 0.  0.
        2    1    3    3  502    0 -0.80008765374E+03 -0.34323780579E+03 -0.19866988470E+04  0.21690838512E+04  0.25500000920E-02 0. -1.
       -2    1    3    3    0  502  0.80008765374E+03  0.34323780579E+03  0.10009498483E+04  0.13265945288E+04  0.25500000920E-02 0.  1.
</event>
<event>
 5   0  0.7971763E-06  0.3148522E+04  0.7818609E-02  0.8202546E-01
       -2   -1    0    0    0  501  0.00000000000E+00  0.00000000000E+00  0.13334755421E+04  0.13334755421E+04  0.25500000920E-02 0. -1.
        2   -1    0    0  501    0  0.00000000000E+00  0.00000000000E+00 -0.18585252481E+04  0.18585252481E+04  0.25500000920E-02 0.  1.
    10030    2    1    2    0    0  0.00000000000E+00  0.00000000000E+00 -0.52504970605E+03  0.31920007902E+04  0.31485221693E+04 0.  0.
        1    1    3    3  502    0  0.81077745648E+03 -0.28268962704E+03 -0.16002246776E+04  0.18160375899E+04  0.50400001928E-02 0.  1.
       -1    1    3    3    0  502 -0.81077745648E+03  0.28268962704E+03  0.10751749715E+04  0.13759632003E+04  0.50400001928E-02 0. -1.
</event>
<event>
 5   0  0.8237664E-06  0.3157333E+04  0.7818609E-02  0.8200177E-01
        2   -1    0    0  501    0  0.00000000000E+00  0.00000000000E+00  0.17916415723E+04  0.17916415723E+04  0.25500000920E-02 0. -1.
       -2   -1    0    0    0  501  0.00000000000E+00  0.00000000000E+00 -0.13910083111E+04  0.13910083111E+04  0.25500000920E-02 0.  1.
    10030    2    1    2    0    0  0.00000000000E+00  0.00000000000E+00  0.40063326129E+03  0.31826498834E+04  0.31573332530E+04 0.  0.
        5    1    3    3  502    0  0.26429286596E+03  0.16393655763E+02 -0.13684549139E+04  0.13938473419E+04  0.46999998093E+01 0.  1.
       -5    1    3    3    0  502 -0.26429286596E+03 -0.16393655763E+02  0.17690881752E+04  0.17888025415E+04  0.46999998093E+01 0. -1.
</event>
<event>
 5   0  0.7941434E-06  0.2740923E+04  0.7818609E-02  0.8321848E-01
       -2   -1    0    0    0  501  0.00000000000E+00  0.00000000000E+00  0.17190574681E+04  0.17190574681E+04  0.25500000920E-02 0. -1.
        2   -1    0    0  501    0  0.00000000000E+00  0.00000000000E+00 -0.10925551010E+04  0.10925551010E+04  0.25500000920E-02 0.  1.
    10030    2    1    2    0    0  0.00000000000E+00  0.00000000000E+00  0.62650236712E+03  0.28116125691E+04  0.27409232063E+04 0.  0.
        4    1    3    3  502    0  0.44267055342E+03 -0.12721730097E+04  0.57231556088E+03  0.14635327464E+04  0.12699999809E+01 0. -1.
       -4    1    3    3    0  502 -0.44267055342E+03  0.12721730097E+04  0.54186806249E+02  0.13480798227E+04  0.12699999809E+01 0.  1.
</event>
<event>
 5   0  0.2788054E-06  0.3144112E+04  0.7818609E-02  0.8203735E-01
       -1   -1    0    0    0  501  0.00000000000E+00  0.00000000000E+00  0.15724863802E+04  0.15724863802E+04  0.50400001928E-02 0.  1.
        1   -1    0    0  501    0  0.00000000000E+00  0.00000000000E+00 -0.15716260505E+04  0.15716260505E+04  0.50400001928E-02 0. -1.
    10030    2    1    2    0    0  0.00000000000E+00  0.00000000000E+00  0.86032975919E+00  0.31441124307E+04  0.31441123130E+04 0.  0.
        3    1    3    3  502    0 -0.65426226183E+03 -0.75368088616E+03  0.12150357280E+04  0.15723885703E+04  0.10100000352E+00 0.  1.
       -3    1    3    3    0  502  0.65426226183E+03  0.75368088616E+03 -0.12141753983E+04  0.15717238604E+04  0.10100000352E+00 0. -1.
</event>
<event>
 5   0  0.2788054E-06  0.3295550E+04  0.7818609E-02  0.8164029E-01
        1   -1    0    0  501    0  0.00000000000E+00  0.00000000000E+00  0.31861363776E+04  0.31861363776E+04  0.50400001928E-02 0. -1.
       -1   -1    0    0    0  501  0.00000000000E+00  0.00000000000E+00 -0.85218014753E+03  0.85218014755E+03  0.50400001928E-02 0.  1.
    10030    2    1    2    0    0  0.00000000000E+00  0.00000000000E+00  0.23339562300E+04  0.40383165251E+04  0.32955498287E+04 0.  0.
        3    1    3    3  502    0  0.23467647051E+02 -0.15041804436E+04  0.19908638233E+04  0.24953252915E+04  0.10100000352E+00 0. -1.
       -3    1    3    3    0  502 -0.23467647051E+02  0.15041804436E+04  0.34309240670E+03  0.15429912336E+04  0.10100000352E+00 0.  1.
</event>
<event>
 5   0  0.7510251E-06  0.2995974E+04  0.7818609E-02  0.8244881E-01
       -2   -1    0    0    0  501  0.00000000000E+00  0.00000000000E+00  0.11402722408E+04  0.11402722408E+04  0.25500000920E-02 0.  1.
        2   -1    0    0  501    0  0.00000000000E+00  0.00000000000E+00 -0.19679210050E+04  0.19679210050E+04  0.25500000920E-02 0. -1.
    10030    2    1    2    0    0  0.00000000000E+00  0.00000000000E+00 -0.82764876418E+03  0.31081932458E+04  0.29959744285E+04 0.  0.
        3    1    3    3  502    0 -0.28386085100E+03  0.34718696730E+03 -0.18966433751E+04  0.19489412191E+04  0.10100000352E+00 0. -1.
       -3    1    3    3    0  502  0.28386085100E+03 -0.34718696730E+03  0.10689946109E+04  0.11592520267E+04  0.10100000352E+00 0.  1.
</event>
<event>
 5   0  0.7941434E-06  0.3238758E+04  0.7818609E-02  0.8178656E-01
        2   -1    0    0  501    0  0.00000000000E+00  0.00000000000E+00  0.22871212912E+04  0.22871212912E+04  0.25500000920E-02 0.  1.
       -2   -1    0    0    0  501  0.00000000000E+00  0.00000000000E+00 -0.11465889676E+04  0.11465889676E+04  0.25500000920E-02 0. -1.
    10030    2    1    2    0    0  0.00000000000E+00  0.00000000000E+00  0.11405323236E+04  0.34337102589E+04  0.32387578114E+04 0.  0.
        4    1    3    3  502    0  0.56210508246E+03  0.12822604990E+04  0.14330268687E+04  0.20034274956E+04  0.12699999809E+01 0.  1.
       -4    1    3    3    0  502 -0.56210508246E+03 -0.12822604990E+04 -0.29249454509E+03  0.14302827632E+04  0.12699999809E+01 0. -1.
</event>
<event>
 5   0  0.3938696E-06  0.1590803E+04  0.7818609E-02  0.8826218E-01
        1   -1    0    0  501    0  0.00000000000E+00  0.00000000000E+00  0.84253375400E+03  0.84253375401E+03  0.50400001928E-02 0.  1.
       -1   -1    0    0    0  501  0.00000000000E+00  0.00000000000E+00 -0.75090544272E+03  0.75090544274E+03  0.50400001928E-02 0. -1.
    10030    2    1    2    0    0  0.00000000000E+00  0.00000000000E+00  0.91628311277E+02  0.15934391968E+04  0.15908025416E+04 0.  0.
        4    1    3    3  502    0 -0.50196210529E+02 -0.32997757539E+03  0.76899189398E+03  0.83830484057E+03  0.12699999809E+01 0.  1.
       -4    1    3    3    0  502  0.50196210529E+02  0.32997757539E+03 -0.67736358271E+03  0.75513435618E+03  0.12699999809E+01 0. -1.
</event>
<event>
 5   0  0.2635798E-06  0.2207547E+04  0.7818609E-02  0.8515294E-01
       -1   -1    0    0    0  501  0.00000000000E+00  0.00000000000E+00  0.99245348810E+03  0.99245348811E+03  0.50400001928E-02 0.  1.
        1   -1    0    0  501    0  0.00000000000E+00  0.00000000000E+00 -0.12275794120E+04  0.12275794121E+04  0.50400001928E-02 0. -1.
    10030    2    1    2    0    0  0.00000000000E+00  0.00000000000E+00 -0.23512592395E+03  0.22200329002E+04  0.22075465743E+04 0.  0.
        1    1    3    3  502    0  0.45401165739E+03 -0.10049953821E+04 -0.70682053634E+02  0.11050512458E+04  0.50400001928E-02 0. -1.
       -1    1    3    3    0  502 -0.45401165739E+03  0.10049953821E+04 -0.16444387032E+03  0.11149816544E+04  0.50400001928E-02 0.  1.
</event>
<event>
 5   0  0.2933646E-06  0.1760628E+04  0.7818609E-02  0.8727522E-01
        1   -1    0    0  501    0  0.00000000000E+00  0.00000000000E+00  0.19818821519E+04  0.19818821519E+04  0.50400001928E-02 0. -1.
       -1   -1    0    0    0  501  0.00000000000E+00  0.00000000000E+00 -0.39101840676E+03  0.39101840679E+03  0.50400001928E-02 0.  1.
    10030    2    1    2    0    0  0.00000000000E+00  0.00000000000E+00  0.15908637451E+04  0.23729005587E+04  0.17606276170E+04 0.  0.
        2    1    3    3  502    0  0.84360247170E+03  0.20971517303E+03  0.98270151157E+03  0.13120014653E+04  0.25500000920E-02 0. -1.
       -2    1    3    3    0  502 -0.84360247170E+03 -0.20971517303E+03  0.60816223355E+03  0.10608990934E+04  0.25500000920E-02 0.  1.
</event>
<event>
 5   0  0.7941434E-06  0.3152730E+04  0.7818609E-02  0.8201414E-01
       -2   -1    0    0    0  501  0.00000000000E+00  0.00000000000E+00  0.11810595463E+04  0.11810595463E+04  0.25500000920E-02 0. -1.
        2   -1    0    0  501    0  0.00000000000E+00  0.00000000000E+00 -0.21039812709E+04  0.21039812709E+04  0.25500000920E-02 0.  1.
    10030    2    1    2    0    0  0.00000000000E+00  0.00000000000E+00 -0.92292172458E+03  0.32850408171E+04  0.31527303501E+04 0.  0.
        4    1    3    3  502    0  0.12890321338E+04  0.89575788562E+03 -0.61223863055E+03  0.16848809410E+04  0.12699999809E+01 0.  1.
       -4    1    3    3    0  502 -0.12890321338E+04 -0.89575788562E+03 -0.31068309403E+03  0.16001598762E+04  0.12699999809E+01 0. -1.
</event>
<event>
 5   0  0.7941434E-06  0.3170144E+04  0.7818609E-02  0.8196747E-01
       -2   -1    0    0    0  501  0.00000000000E+00  0.00000000000E+00  0.16318269099E+04  0.16318269099E+04  0.25500000920E-02 0. -1.
        2   -1    0    0  501    0  0.00000000000E+00  0.00000000000E+00 -0.15396563851E+04  0.15396563851E+04  0.25500000920E-02 0.  1.
    10030    2    1    2    0    0  0.00000000000E+00  0.00000000000E+00  0.92170524820E+02  0.31714832950E+04  0.31701436694E+04 0.  0.
        4    1    3    3  502    0 -0.78180141128E+03  0.67529621808E+02 -0.13316958269E+04  0.15457001924E+04  0.12699999809E+01 0.  1.
       -4    1    3    3    0  502  0.78180141128E+03 -0.67529621808E+02  0.14238663517E+04  0.16257831026E+04  0.12699999809E+01 0. -1.
</event>
<event>
 5   0  0.8237664E-06  0.3204246E+04  0.7818609E-02  0.8187697E-01
       -2   -1    0    0    0  501  0.00000000000E+00  0.00000000000E+00  0.14328794735E+04  0.14328794735E+04  0.25500000920E-02 0. -1.
        2   -1    0    0  501    0  0.00000000000E+00  0.00000000000E+00 -0.17913567024E+04  0.17913567024E+04  0.25500000920E-02 0.  1.
    10030    2    1    2    0    0  0.00000000000E+00  0.00000000000E+00 -0.35847722889E+03  0.32242361759E+04  0.32042460883E+04 0.  0.
        5    1    3    3  502    0  0.21600095593E+03 -0.83627535588E+03 -0.15370133586E+04  0.17630782848E+04  0.46999998093E+01 0.  1.
       -5    1    3    3    0  502 -0.21600095593E+03  0.83627535588E+03  0.11785361297E+04  0.14611578911E+04  0.46999998093E+01 0. -1.
</event>
<event>
 5   0  0.4142886E-06  0.3275158E+04  0.7818609E-02  0.8169245E-01
        1   -1    0    0  501    0  0.00000000000E+00  0.00000000000E+00  0.20965185996E+04  0.20965185996E+04  0.50400001928E-02 0. -1.
       -1   -1    0    0    0  501  0.00000000000E+00  0.00000000000E+00 -0.12791040203E+04  0.12791040203E+04  0.50400001928E-02 0.  1.
    10030    2    1    2    0    0  0.00000000000E+00  0.00000000000E+00  0.81741457928E+03  0.33756226199E+04  0.32751582370E+04 0.  0.
        5    1    3    3  502    0 -0.12017813425E+04  0.40152450679E+03 -0.66048688605E+03  0.14289035451E+04  0.46999998093E+01 0.  1.
       -5    1    3    3    0  502  0.12017813425E+04 -0.40152450679E+03  0.14779014653E+04  0.19467190747E+04  0.46999998093E+01 0. -1.
</event>
<event>
 5   0  0.2933646E-06  0.2822180E+04  0.7818609E-02  0.8296415E-01
       -1   -1    0    0    0  501  0.00000000000E+00  0.00000000000E+00  0.18520484707E+04  0.18520484707E+04  0.50400001928E-02 0. -1.
        1   -1    0    0  501    0  0.00000000000E+00  0.00000000000E+00 -0.10751200276E+04  0.10751200276E+04  0.50400001928E-02 0.  1.
    10030    2    1    2    0    0  0.00000000000E+00  0.00000000000E+00  0.77692844310E+03  0.29271684983E+04  0.28221795853E+04 0.  0.
        2    1    3    3  502    0 -0.15563630779E+02 -0.45917842149E+03  0.17722973846E+04  0.18308809543E+04  0.25500000920E-02 0. -1.
       -2    1    3    3    0  502  0.15563630779E+02  0.45917842149E+03 -0.99536894149E+03  0.10962875440E+04  0.25500000920E-02 0.  1.
</event>
<event>
 5   0  0.7971763E-06  0.3063941E+04  0.7818609E-02  0.8225704E-01
        2   -1    0    0  501    0  0.00000000000E+00  0.00000000000E+00  0.11507855431E+04  0.11507855431E+04  0.25500000920E-02 0.  1.
       -2   -1    0    0    0  501  0.00000000000E+00  0.00000000000E+00 -0.20394190908E+04  0.20394190908E+04  0.25500000920E-02 0. -1.
    10030    2    1    2    0    0  0.00000000000E+00  0.00000000000E+00 -0.88863354769E+03  0.31902046340E+04  0.30639412567E+04 0.  0.
        1    1    3    3  502    0 -0.85322379056E+02  0.32007379162E+03 -0.20016845297E+04  0.20289081046E+04  0.50400001928E-02 0. -1.
       -1    1    3    3    0  502  0.85322379056E+02 -0.32007379162E+03  0.11130509820E+04  0.11612965293E+04  0.50400001928E-02 0.  1.
</event>
<event>
 5   0  0.3938696E-06  0.3055206E+04  0.7818609E-02  0.8228140E-01
       -1   -1    0    0    0  501  0.00000000000E+00  0.00000000000E+00  0.10934396454E+04  0.10934396454E+04  0.50400001928E-02 0. -1.
        1   -1    0    0  501    0  0.00000000000E+00  0.00000000000E+00 -0.21341565871E+04  0.21341565871E+04  0.50400001928E-02 0.  1.
    10030    2    1    2    0    0  0.00000000000E+00  0.00000000000E+00 -0.10407169416E+04  0.32275962325E+04  0.30552063249E+04 0.  0.
        4    1    3    3  502    0 -0.12130439546E+04 -0.41067564650E+03  0.35935856474E+03  0.13301392083E+04  0.12699999809E+01 0. -1.
       -4    1    3    3    0  502  0.12130439546E+04  0.41067564650E+03 -0.14000755064E+04  0.18974570242E+04  0.12699999809E+01 0.  1.
</event>
<event>
 5   0  0.7971763E-06  0.2991987E+04  0.7818609E-02  0.8246023E-01
        2   -1    0    0  501    0  0.00000000000E+00  0.00000000000E+00  0.22665745808E+04  0.22665745808E+04  0.25500000920E-02 0.  1.
       -2   -1    0    0    0  501  0.00000000000E+00  0.00000000000E+00 -0.98739148151E+03  0.98739148152E+03  0.25500000920E-02 0. -1.
    10030    2    1    2    0    0  0.00000000000E+00  0.00000000000E+00  0.12791830993E+04  0.32539660623E+04  0.29919869206E+04 0.  0.
        1    1    3    3  502    0 -0.34452946165E+03  0.12652393011E+04  0.14226843217E+04  0.19348286018E+04  0.50400001928E-02 0.  1.
       -1    1    3    3    0  502  0.34452946165E+03 -0.12652393011E+04 -0.14350122247E+03  0.13191374605E+04  0.50400001928E-02 0. -1.
</event>
<event>
 5   0  0.7952307E-06  0.1886261E+04  0.7818609E-02  0.8661726E-01
        2   -1    0    0  501    0  0.00000000000E+00  0.00000000000E+00  0.15987490298E+04  0.15987490298E+04  0.25500000920E-02 0. -1.
       -2   -1    0    0    0  501  0.00000000000E+00  0.00000000000E+00 -0.55636938944E+03  0.55636938944E+03  0.25500000920E-02 0.  1.
    10030    2    1    2    0    0  0.00000000000E+00  0.00000000000E+00  0.10423796403E+04  0.21551184192E+04  0.18862608744E+04 0.  0.
        2    1    3    3  502    0 -0.13783767640E+03 -0.53806698804E+03  0.13920528738E+04  0.14987750039E+04  0.25500000920E-02 0. -1.
       -2    1    3    3    0  502  0.13783767640E+03  0.53806698804E+03 -0.34967323349E+03  0.65634341536E+03  0.25500000920E-02 0.  1.
</event>
<event>
 5   0  0.2635798E-06  0.2415552E+04  0.7818609E-02  0.8433704E-01
        1   -1    0    0  501    0  0.00000000000E+00  0.00000000000E+00  0.15484889033E+04  0.15484889033E+04  0.50400001928E-02 0.  1.
       -1   -1    0    0    0  501  0.00000000000E+00  0.00000000000E+00 -0.94203027293E+03  0.94203027294E+03  0.50400001928E-02 0. -1.
    10030    2    1    2    0    0  0.00000000000E+00  0.00000000000E+00  0.60645863033E+03  0.24905191762E+04  0.24155524620E+04 0.  0.
        1    1    3    3  502    0  0.15781739617E+03 -0.50480102938E+03 -0.81628340327E+03  0.97265050469E+03  0.50400001928E-02 0. -1.
       -1    1    3    3    0  502 -0.15781739617E+03  0.50480102938E+03  0.14227420336E+04  0.15178686715E+04  0.50400001928E-02 0.  1.
</event>
<event>
 5   0  0.7941434E-06  0.2009693E+04  0.7818609E-02  0.8602102E-01
        2   -1    0    0  501    0  0.00000000000E+00  0.00000000000E+00  0.50415762453E+03  0.50415762453E+03  0.25500000920E-02 0.  1.
       -2   -1    0    0    0  501  0.00000000000E+00  0.00000000000E+00 -0.20027784374E+04  0.20027784374E+04  0.25500000920E-02 0. -1.
    10030    2    1    2    0    0  0.00000000000E+00  0.00000000000E+00 -0.14986208129E+04  0.25069360619E+04  0.20096925332E+04 0.  0.
        4    1    3    3  502    0  0.47437143198E+03  0.44721599370E+03  0.20452677076E+03  0.68327389337E+03  0.12699999809E+01 0.  1.
       -4    1    3    3    0  502 -0.47437143198E+03 -0.44721599370E+03 -0.17031475836E+04  0.18236621686E+04  0.12699999809E+01 0. -1.
</event>
<event>
 5   0  0.4142886E-06  0.3050735E+04  0.7818609E-02  0.8229390E-01
        1   -1    0    0  501    0  0.00000000000E+00  0.00000000000E+00  0.24639771486E+04  0.24639771486E+04  0.50400001928E-02 0. -1.
       -1   -1    0    0    0  501  0.00000000000E+00  0.00000000000E+00 -0.94430496459E+03  0.94430496460E+03  0.50400001928E-02 0.  1.
    10030    2    1    2    0    0  0.00000000000E+00  0.00000000000E+00  0.15196721840E+04  0.34082821132E+04  0.30507348977E+04 0.  0.
        5    1    3    3  502    0  0.12506874983E+04 -0.77189326595E+03  0.30371541823E+03  0.15007676628E+04  0.46999998093E+01 0. -1.
       -5    1    3    3    0  502 -0.12506874983E+04  0.77189326595E+03  0.12159567657E+04  0.19075144504E+04  0.46999998093E+01 0.  1.
</event>
<event>
 5   0  0.8237664E-06  0.3298945E+04  0.7818609E-02  0.8163164E-01
        2   -1    0    0  501    0  0.00000000000E+00  0.00000000000E+00  0.26789498748E+04  0.26789498748E+04  0.25500000920E-02 0.  1.
       -2   -1    0    0    0  501  0.00000000000E+00  0.00000000000E+00 -0.10156068719E+04  0.10156068719E+04  0.25500000920E-02 0. -1.
    10030    2    1    2    0    0  0.00000000000E+00  0.00000000000E+00  0.16633430029E+04  0.36945567467E+04  0.32989452267E+04 0.  0.
        5    1    3    3  502    0  0.64499238644E+03 -0.84986821196E+03 -0.57713639132E+03  0.12130126382E+04  0.46999998093E+01 0. -1.
       -5    1    3    3    0  502 -0.64499238644E+03  0.84986821196E+03  0.22404793942E+04  0.24815441085E+04  0.46999998093E+01 0.  1.
</event>
<event>
 5   0  0.8237664E-06  0.3213671E+04  0.7818609E-02  0.8185216E-01
       -2   -1    0    0    0  501  0.00000000000E+00  0.00000000000E+00  0.10757307376E+04  0.10757307376E+04  0.25500000920E-02 0. -1.
        2   -1    0    0  501    0  0.00000000000E+00  0.00000000000E+00 -0.24001549235E+04  0.24001549235E+04  0.25500000920E-02 0.  1.
    10030    2    1    2    0    0  0.00000000000E+00  0.00000000000E+00 -0.13244241859E+04  0.34758856610E+04  0.32136710635E+04 0.  0.
        5    1    3    3  502    0  0.50313240870E+03  0.64931476623E+03 -0.21558869875E+04  0.23070809867E+04  0.46999998093E+01 0.  1.
       -5    1    3    3    0  502 -0.50313240870E+03 -0.64931476623E+03  0.83146280159E+03  0.11688046743E+04  0.46999998093E+01 0. -1.
</event>
<event>
 5   0  0.7971763E-06  0.3177059E+04  0.7818609E-02  0.8194902E-01
        2   -1    0    0  501    0  0.00000000000E+00  0.00000000000E+00  0.15806314531E+04  0.15806314531E+04  0.25500000920E-02 0. -1.
       -2   -1    0    0    0  501  0.00000000000E+00  0.00000000000E+00 -0.15964673602E+04  0.15964673602E+04  0.25500000920E-02 0.  1.
    10030    2    1    2    0    0  0.00000000000E+00  0.00000000000E+00 -0.15835907170E+02  0.31770988133E+04  0.31770593469E+04 0.  0.
        1    1    3    3  502    0 -0.38351985655E+03  0.12373729802E+04  0.91146670518E+03  0.15839668327E+04  0.50400001928E-02 0. -1.
       -1    1    3    3    0  502  0.38351985655E+03 -0.12373729802E+04 -0.92730261235E+03  0.15931319805E+04  0.50400001928E-02 0.  1.
</event>
<event>
 5   0  0.3938696E-06  0.3229502E+04  0.7818609E-02  0.8181069E-01
        1   -1    0    0  501    0  0.00000000000E+00  0.00000000000E+00  0.83633880770E+03  0.83633880771E+03  0.50400001928E-02 0.  1.
       -1   -1    0    0    0  501  0.00000000000E+00  0.00000000000E+00 -0.31176602001E+04  0.31176602001E+04  0.50400001928E-02 0. -1.
    10030    2    1    2    0    0  0.00000000000E+00  0.00000000000E+00 -0.22813213924E+04  0.39539990078E+04  0.32295016424E+04 0.  0.
        4    1    3    3  502    0  0.15373670416E+04  0.30902548721E+03 -0.66897387726E+03  0.17048524375E+04  0.12699999809E+01 0.  1.
       -4    1    3    3    0  502 -0.15373670416E+04 -0.30902548721E+03 -0.16123475152E+04  0.22491465703E+04  0.12699999809E+01 0. -1.
</event>
<event>
 5   0  0.2788054E-06  0.2884700E+04  0.7818609E-02  0.8277444E-01
       -1   -1    0    0    0  501  0.00000000000E+00  0.00000000000E+00  0.14893011668E+04  0.14893011668E+04  0.50400001928E-02 0. -1.
        1   -1    0    0  501    0  0.00000000000E+00  0.00000000000E+00 -0.13968793518E+04  0.13968793518E+04  0.50400001928E-02 0.  1.
    10030    2    1    2    0    0  0.00000000000E+00  0.00000000000E+00  0.92421814970E+02  0.28861805186E+04  0.28847003647E+04 0.  0.
        3    1    3    3  502    0  0.71600979396E+03  0.32430142917E+03 -0.11637617561E+04  0.14043442873E+04  0.10100000352E+00 0.  1.
       -3    1    3    3    0  502 -0.71600979396E+03 -0.32430142917E+03  0.12561835711E+04  0.14818362313E+04  0.10100000352E+00 0. -1.
</event>
<event>
 5   0  0.2788054E-06  0.3206903E+04  0.7818609E-02  0.8186997E-01
        1   -1    0    0  501    0  0.00000000000E+00  0.00000000000E+00  0.14728705668E+04  0.14728705668E+04  0.50400001928E-02 0. -1.
       -1   -1    0    0    0  501  0.00000000000E+00  0.00000000000E+00 -0.17456089548E+04  0.17456089548E+04  0.50400001928E-02 0.  1.
    10030    2    1    2    0    0  0.00000000000E+00  0.00000000000E+00 -0.27273838804E+03  0.32184795217E+04  0.32069025871E+04 0.  0.
        3    1    3    3  502    0  0.28563063649E+03 -0.19132898577E+03 -0.17081853637E+04  0.17424376282E+04  0.10100000352E+00 0.  1.
       -3    1    3    3    0  502 -0.28563063649E+03  0.19132898577E+03  0.14354469756E+04  0.14760418935E+04  0.10100000352E+00 0. -1.
</event>
<event>
 5   0  0.7941434E-06  0.3335444E+04  0.7818609E-02  0.8153935E-01
       -2   -1    0    0    0  501  0.00000000000E+00  0.00000000000E+00  0.23282705926E+04  0.23282705926E+04  0.25500000920E-02 0.  1.
        2   -1    0    0  501    0  0.00000000000E+00  0.00000000000E+00 -0.11945761247E+04  0.11945761247E+04  0.25500000920E-02 0. -1.
    10030    2    1    2    0    0  0.00000000000E+00  0.00000000000E+00  0.11336944680E+04  0.35228467173E+04  0.33354438755E+04 0.  0.
        4    1    3    3  502    0  0.41283782384E+03 -0.41823893264E+03  0.22152868546E+04  0.22919110661E+04  0.12699999809E+01 0.  1.
       -4    1    3    3    0  502 -0.41283782384E+03  0.41823893264E+03 -0.10815923867E+04  0.12309356512E+04  0.12699999809E+01 0. -1.
</event>
<event>
 5   0  0.2635798E-06  0.1775402E+04  0.7818609E-02  0.8719491E-01
        1   -1    0    0  501    0  0.00000000000E+00  0.00000000000E+00  0.89119931054E+03  0.89119931055E+03  0.50400001928E-02 0.  1.
       -1   -1    0    0    0  501  0.00000000000E+00  0.00000000000E+00 -0.88421606932E+03  0.88421606933E+03  0.50400001928E-02 0. -1.
    10030    2    1    2    0    0  0.00000000000E+00  0.00000000000E+00  0.69832412177E+01  0.17754153799E+04  0.17754016462E+04 0.  0.
        1    1    3    3  502    0 -0.85320895994E+03 -0.25628818536E+02  0.24719493308E+03  0.88866624817E+03  0.50400001928E-02 0.  1.
       -1    1    3    3    0  502  0.85320895994E+03  0.25628818536E+02 -0.24021169187E+03  0.88674913171E+03  0.50400001928E-02 0. -1.
</event>
<event>
 5   0  0.2933646E-06  0.1678731E+04  0.7818609E-02  0.8773589E-01
       -1   -1    0    0    0  501  0.00000000000E+00  0.00000000000E+00  0.67774017323E+03  0.67774017325E+03  0.50400001928E-02 0.  1.
        1   -1    0    0  501    0  0.00000000000E+00  0.00000000000E+00 -0.10395346190E+04  0.10395346190E+04  0.50400001928E-02 0. -1.
    10030    2    1    2    0    0  0.00000000000E+00  0.00000000000E+00 -0.36179444577E+03  0.17172747923E+04  0.16787309168E+04 0.  0.
        2    1    3    3  502    0  0.73932072529E+02  0.38142325237E+03 -0.94201305323E+03  0.10189888327E+04  0.25500000920E-02 0. -1.
       -2    1    3    3    0  502 -0.73932072529E+02 -0.38142325237E+03  0.58021860746E+03  0.69828595951E+03  0.25500000920E-02 0.  1.
</event>
<event>
 5   0  0.7510251E-06  0.3191962E+04  0.7818609E-02  0.8190943E-01
        2   -1    0    0  501    0  0.00000000000E+00  0.00000000000E+00  0.19398357697E+04  0.19398357697E+04  0.25500000920E-02 0.  1.
       -2   -1    0    0    0  501  0.00000000000E+00  0.00000000000E+00 -0.13130778225E+04  0.13130778225E+04  0.25500000920E-02 0. -1.
    10030    2    1    2    0    0  0.00000000000E+00  0.00000000000E+00  0.62675794717E+03  0.32529135921E+04  0.31919619850E+04 0.  0.
        3    1    3    3  502    0 -0.12619917071E+04 -0.19656828167E+03  0.12886767287E+04  0.18143731368E+04  0.10100000352E+00 0.  1.
       -3    1    3    3    0  502  0.12619917071E+04  0.19656828167E+03 -0.66191878155E+03  0.14385404554E+04  0.10100000352E+00 0. -1.
</event>
<event>
 5   0  0.7941434E-06  0.3129163E+04  0.7818609E-02  0.8207780E-01
        2   -1    0    0  501    0  0.00000000000E+00  0.00000000000E+00  0.18301447885E+04  0.18301447885E+04  0.25500000920E-02 0. -1.
       -2   -1    0    0    0  501  0.00000000000E+00  0.00000000000E+00 -0.13375527739E+04  0.13375527739E+04  0.25500000920E-02 0.  1.
    10030    2    1    2    0    0  0.00000000000E+00  0.00000000000E+00  0.49259201462E+03  0.31676975624E+04  0.31291629798E+04 0.  0.
        4    1    3    3  502    0  0.14121491565E+04  0.63986599937E+03  0.45941141801E+03  0.16169892397E+04  0.12699999809E+01 0. -1.
       -4    1    3    3    0  502 -0.14121491565E+04 -0.63986599937E+03  0.33180596612E+02  0.15507083227E+04  0.12699999809E+01 0.  1.
</event>
<event>
 5   0  0.7971763E-06  0.3118050E+04  0.7818609E-02  0.8210802E-01
       -2   -1    0    0    0  501  0.00000000000E+00  0.00000000000E+00  0.96308898469E+03  0.96308898470E+03  0.25500000920E-02 0. -1.
        2   -1    0    0  501    0  0.00000000000E+00  0.00000000000E+00 -0.25237111442E+04  0.25237111442E+04  0.25500000920E-02 0.  1.
    10030    2    1    2    0    0  0.00000000000E+00  0.00000000000E+00 -0.15606221595E+04  0.34868001289E+04  0.31180496491E+04 0.  0.
        1    1    3    3  502    0  0.66742350388E+03 -0.86503116851E+03  0.46333903903E+03  0.11867670880E+04  0.50400001928E-02 0. -1.
       -1    1    3    3    0  502 -0.66742350388E+03  0.86503116851E+03 -0.20239611985E+04  0.23000330409E+04  0.50400001928E-02 0.  1.
</event>
<event>
 5   0  0.7510251E-06  0.3179567E+04  0.7818609E-02  0.8194235E-01
       -2   -1    0    0    0  501  0.00000000000E+00  0.00000000000E+00  0.95798330150E+03  0.95798330151E+03  0.25500000920E-02 0.  1.
        2   -1    0    0  501    0  0.00000000000E+00  0.00000000000E+00 -0.26382619576E+04  0.26382619576E+04  0.25500000920E-02 0. -1.
    10030    2    1    2    0    0  0.00000000000E+00  0.00000000000E+00 -0.16802786561E+04  0.35962452591E+04  0.31795665745E+04 0.  0.
        3    1    3    3  502    0 -0.94384027844E+03  0.69351503587E+03  0.37573208589E+03  0.12300293439E+04  0.10100000352E+00 0.  1.
       -3    1    3    3    0  502  0.94384027844E+03 -0.69351503587E+03 -0.20560107420E+04  0.23662159153E+04  0.10100000352E+00 0. -1.
</event>
<event>
 5   0  0.3938696E-06  0.3279697E+04  0.7818609E-02  0.8168081E-01
       -1   -1    0    0    0  501  0.00000000000E+00  0.00000000000E+00  0.14993856921E+04  0.14993856921E+04  0.50400001928E-02 0. -1.
        1   -1    0    0  501    0  0.00000000000E+00  0.00000000000E+00 -0.17934701736E+04  0.17934701736E+04  0.50400001928E-02 0.  1.
    10030    2    1    2    0    0  0.00000000000E+00  0.00000000000E+00 -0.29408448148E+03  0.32928558657E+04  0.32796972528E+04 0.  0.
        4    1    3    3  502    0  0.73079444867E+03 -0.96897393938E+03 -0.12542500083E+04  0.17453124985E+04  0.12699999809E+01 0.  1.
       -4    1    3    3    0  502 -0.73079444867E+03  0.96897393938E+03  0.96016552680E+03  0.15475433671E+04  0.12699999809E+01 0. -1.
</event>
<event>
 5   0  0.4142886E-06  0.3225347E+04  0.7818609E-02  0.8182155E-01
       -1   -1    0    0    0  501  0.00000000000E+00  0.00000000000E+00  0.12940653809E+04  0.12940653809E+04  0.50400001928E-02 0. -1.
        1   -1    0    0  501    0  0.00000000000E+00  0.00000000000E+00 -0.20097251384E+04  0.20097251385E+04  0.50400001928E-02 0.  1.
    10030    2    1    2    0    0  0.00000000000E+00  0.00000000000E+00 -0.71565975754E+03  0.33037905194E+04  0.32253469437E+04 0.  0.
        5    1    3    3  502    0  0.14672700019E+04  0.11309677395E+03  0.31777289619E+03  0.15055476885E+04  0.46999998093E+01 0. -1.
       -5    1    3    3    0  502 -0.14672700019E+04 -0.11309677395E+03 -0.10334326537E+04  0.17982428308E+04  0.46999998093E+01 0.  1.
</event>
<event>
 5   0  0.2788054E-06  0.3185482E+04  0.7818609E-02  0.8192662E-01
        1   -1    0    0  501    0  0.00000000000E+00  0.00000000000E+00  0.16253952040E+04  0.16253952040E+04  0.50400001928E-02 0.  1.
       -1   -1    0    0    0  501  0.00000000000E+00  0.00000000000E+00 -0.15607427005E+04  0.15607427005E+04  0.50400001928E-02 0. -1.
    10030    2    1    2    0    0  0.00000000000E+00  0.00000000000E+00  0.64652503499E+02  0.31861379046E+04  0.31854818789E+04 0.  0.
        3    1    3    3  502    0  0.59722538712E+03  0.13227580071E+04 -0.62390091818E+03  0.15797529155E+04  0.10100000352E+00 0. -1.
       -3    1    3    3    0  502 -0.59722538712E+03 -0.13227580071E+04  0.68855342167E+03  0.16063849890E+04  0.10100000352E+00 0.  1.
</event>
<event>
 5   0  0.7941434E-06  0.3217664E+04  0.7818609E-02  0.8184168E-01
       -2   -1    0    0    0  501  0.00000000000E+00  0.00000000000E+00  0.13478913585E+04  0.13478913585E+04  0.25500000920E-02 0.  1.
        2   -1    0    0  501    0  0.00000000000E+00  0.00000000000E+00 -0.19202887906E+04  0.19202887906E+04  0.25500000920E-02 0. -1.
    10030    2    1    2    0    0  0.00000000000E+00  0.00000000000E+00 -0.57239743209E+03  0.32681801491E+04  0.32176641632E+04 0.  0.
        4    1    3    3  502    0  0.66662429922E+03 -0.38085081946E+02 -0.17729069706E+04  0.18944759616E+04  0.12699999809E+01 0. -1.
       -4    1    3    3    0  502 -0.66662429922E+03  0.38085081946E+02  0.12005095385E+04  0.13737041875E+04  0.12699999809E+01 0.  1.
</event>
<event>
 5   0  0.7971763E-06  0.1973778E+04  0.7818609E-02  0.8618979E-01
       -2   -1    0    0    0  501  0.00000000000E+00  0.00000000000E+00  0.10076889876E+04  0.10076889876E+04  0.25500000920E-02 0. -1.
        2   -1    0    0  501    0  0.00000000000E+00  0.00000000000E+00 -0.96651834163E+03  0.96651834164E+03  0.25500000920E-02 0.  1.
    10030    2    1    2    0    0  0.00000000000E+00  0.00000000000E+00  0.41170645973E+02  0.19742073292E+04  0.19737779907E+04 0.  0.
        1    1    3    3  502    0  0.14061227905E+03 -0.40814436686E+03  0.90824456331E+03  0.10056151471E+04  0.50400001928E-02 0. -1.
       -1    1    3    3    0  502 -0.14061227905E+03  0.40814436686E+03 -0.86707391733E+03  0.96859218217E+03  0.50400001928E-02 0.  1.
</event>
<event>
 5   0  0.7952307E-06  0.3324681E+04  0.7818609E-02  0.8156643E-01
        2   -1    0    0  501    0  0.00000000000E+00  0.00000000000E+00  0.17834209333E+04  0.17834209333E+04  0.25500000920E-02 0. -1.
       -2   -1    0    0    0  501  0.00000000000E+00  0.00000000000E+00 -0.15494808192E+04  0.15494808192E+04  0.25500000920E-02 0.  1.
    10030    2    1    2    0    0  0.00000000000E+00  0.00000000000E+00  0.23394011406E+03  0.33329017525E+04  0.33246813553E+04 0.  0.
        2    1    3    3  502    0  0.12831481379E+04  0.99523440359E+03  0.47339925805E+03  0.16914690418E+04  0.25500000920E-02 0. -1.
       -2    1    3    3    0  502 -0.12831481379E+04 -0.99523440359E+03 -0.23945914398E+03  0.16414327106E+04  0.25500000920E-02 0.  1.
</event>
<event>
 5   0  0.2788054E-06  0.2197242E+04  0.7818609E-02  0.8519577E-01
       -1   -1    0    0    0  501  0.00000000000E+00  0.00000000000E+00  0.97123865491E+03  0.97123865492E+03  0.50400001928E-02 0.  1.
        1   -1    0    0  501    0  0.00000000000E+00  0.00000000000E+00 -0.12427095722E+04  0.12427095722E+04  0.50400001928E-02 0. -1.
    10030    2    1    2    0    0  0.00000000000E+00  0.00000000000E+00 -0.27147091724E+03  0.22139482271E+04  0.21972415191E+04 0.  0.
        3    1    3    3  502    0 -0.85560847723E+03 -0.39071767876E+03  0.43624386066E+03  0.10368388915E+04  0.10100000352E+00 0.  1.
       -3    1    3    3    0  502  0.85560847723E+03  0.39071767876E+03 -0.70771477790E+03  0.11771093356E+04  0.10100000352E+00 0. -1.
</event>
<event>
 5   0  0.7510251E-06  0.3251493E+04  0.7818609E-02  0.8175349E-01
       -2   -1    0    0    0  501  0.00000000000E+00  0.00000000000E+00  0.10668946454E+04  0.10668946454E+04  0.25500000920E-02 0. -1.
        2   -1    0    0  501    0  0.00000000000E+00  0.00000000000E+00 -0.24773309971E+04  0.24773309971E+04  0.25500000920E-02 0.  1.
    10030    2    1    2    0    0  0.00000000000E+00  0.00000000000E+00 -0.14104363517E+04  0.35442256425E+04  0.32514926884E+04 0.  0.
        3    1    3    3  502    0 -0.57849833536E+03 -0.11506127550E+04 -0.17867574125E+04  0.22025149482E+04  0.10100000352E+00 0.  1.
       -3    1    3    3    0  502  0.57849833536E+03  0.11506127550E+04  0.37632106081E+03  0.13417106942E+04  0.10100000352E+00 0. -1.
</event>
<event>
 5   0  0.8237664E-06  0.2939658E+04  0.7818609E-02  0.8261175E-01
       -2   -1    0    0    0  501  0.00000000000E+00  0.00000000000E+00  0.12998526788E+04  0.12998526788E+04  0.25500000920E-02 0. -1.
        2   -1    0    0  501    0  0.00000000000E+00  0.00000000000E+00 -0.16620319217E+04  0.16620319217E+04  0.25500000920E-02 0.  1.
    10030    2    1    2    0    0  0.00000000000E+00  0.00000000000E+00 -0.36217924290E+03  0.29618846004E+04  0.29396575621E+04 0.  0.
        5    1    3    3  502    0 -0.67031934762E+03 -0.13080130311E+04 -0.19336526682E+03  0.14824433661E+04  0.46999998093E+01 0. -1.
       -5    1    3    3    0  502  0.67031934762E+03  0.13080130311E+04 -0.16881397608E+03  0.14794412343E+04  0.46999998093E+01 0.  1.
</event>
<event>
 5   0  0.7971763E-06  0.3177997E+04  0.7818609E-02  0.8194652E-01
       -2   -1    0    0    0  501  0.00000000000E+00  0.00000000000E+00  0.20030605697E+04  0.20030605697E+04  0.25500000920E-02 0. -1.
        2   -1    0    0  501    0  0.00000000000E+00  0.00000000000E+00 -0.12605292007E+04  0.12605292007E+04  0.25500000920E-02 0.  1.
    10030    2    1    2    0    0  0.00000000000E+00  0.00000000000E+00  0.74253136894E+03  0.32635897704E+04  0.31779970667E+04 0.  0.
        1    1    3    3  502    0 -0.58609650019E+03 -0.57833379125E+03  0.17668887623E+04  0.19493268017E+04  0.50400001928E-02 0. -1.
       -1    1    3    3    0  502  0.58609650019E+03  0.57833379125E+03 -0.10243573933E+04  0.13142629687E+04  0.50400001928E-02 0.  1.
</event>
<event>
 5   0  0.2788054E-06  0.3332717E+04  0.7818609E-02  0.8154620E-01
       -1   -1    0    0    0  501  0.00000000000E+00  0.00000000000E+00  0.11670987495E+04  0.11670987495E+04  0.50400001928E-02 0. -1.
        1   -1    0    0  501    0  0.00000000000E+00  0.00000000000E+00 -0.23791904675E+04  0.23791904676E+04  0.50400001928E-02 0.  1.
    10030    2    1    2    0    0  0.00000000000E+00  0.00000000000E+00 -0.12120917181E+04  0.35462892170E+04  0.33327167413E+04 0.  0.
        3    1    3    3  502    0  0.16619664696E+03  0.68315136308E+03 -0.22136339370E+04  0.23226046430E+04  0.10100000352E+00 0.  1.
       -3    1    3    3    0  502 -0.16619664696E+03 -0.68315136308E+03  0.10015422189E+04  0.12236845741E+04  0.10100000352E+00 0. -1.
</event>
<event>
 5   0  0.2635798E-06  0.3108977E+04  0.7818609E-02  0.8213279E-01
       -1   -1    0    0    0  501  0.00000000000E+00  0.00000000000E+00  0.96519546030E+03  0.96519546032E+03  0.50400001928E-02 0.  1.
        1   -1    0    0  501    0  0.00000000000E+00  0.00000000000E+00 -0.25035699034E+04  0.25035699034E+04  0.50400001928E-02 0. -1.
    10030    2    1    2    0    0  0.00000000000E+00  0.00000000000E+00 -0.15383744431E+04  0.34687653637E+04  0.31089768769E+04 0.  0.
        1    1    3    3  502    0 -0.63884270575E+03 -0.14164334614E+04 -0.81946366035E+03  0.17566799492E+04  0.50400001928E-02 0.  1.
       -1    1    3    3    0  502  0.63884270575E+03  0.14164334614E+04 -0.71891078275E+03  0.17120854146E+04  0.50400001928E-02 0. -1.
</event>
<event>
 5   0  0.4142886E-06  0.2383750E+04  0.7818609E-02  0.8445613E-01
        1   -1    0    0  501    0  0.00000000000E+00  0.00000000000E+00  0.10151823645E+04  0.10151823645E+04  0.50400001928E-02 0. -1.
       -1   -1    0    0    0  501  0.00000000000E+00  0.00000000000E+00 -0.13993205189E+04  0.13993205189E+04  0.50400001928E-02 0.  1.
    10030    2    1    2    0    0  0.00000000000E+00  0.00000000000E+00 -0.38413815440E+03  0.24145028834E+04  0.23837495783E+04 0.  0.
        5    1    3    3  502    0  0.74475598802E+02 -0.88173549437E+03 -0.10008308000E+04  0.13359223320E+04  0.46999998093E+01 0.  1.
       -5    1    3    3    0  502 -0.74475598802E+02  0.88173549437E+03  0.61669264556E+03  0.10785805514E+04  0.46999998093E+01 0. -1.
</event>
<event>
 5   0  0.7941434E-06  0.3263466E+04  0.7818609E-02  0.8172254E-01
        2   -1    0    0  501    0  0.00000000000E+00  0.00000000000E+00  0.23226145158E+04  0.23226145158E+04  0.25500000920E-02 0. -1.
       -2   -1    0    0    0  501  0.00000000000E+00  0.00000000000E+00 -0.11463601431E+04  0.11463601431E+04  0.25500000920E-02 0.  1.
    10030    2    1    2    0    0  0.00000000000E+00  0.00000000000E+00  0.11762543727E+04  0.34689746590E+04  0.32634660769E+04 0.  0.
        4    1    3    3  502    0  0.99115554951E+03  0.26390967165E+03  0.19371031264E+04  0.21918959312E+04  0.12699999809E+01 0. -1.
       -4    1    3    3    0  502 -0.99115554951E+03 -0.26390967165E+03 -0.76084875365E+03  0.12770787278E+04  0.12699999809E+01 0.  1.
</event>
<event>
 5   0  0.8237664E-06  0.2057666E+04  0.7818609E-02  0.8580125E-01
        2   -1    0    0  501    0  0.00000000000E+00  0.00000000000E+00  0.17346488656E+04  0.17346488656E+04  0.25500000920E-02 0.  1.
       -2   -1    0    0    0  501  0.00000000000E+00  0.00000000000E+00 -0.61020812811E+03  0.61020812812E+03  0.25500000920E-02 0. -1.
    10030    2    1    2    0    0  0.00000000000E+00  0.00000000000E+00  0.11244407375E+04  0.23448569938E+04  0.20576655095E+04 0.  0.
        5    1    3    3  502    0 -0.45229156002E+03 -0.23608467369E+03  0.15803183775E+04  0.16606420122E+04  0.46999998093E+01 0.  1.
       -5    1    3    3    0  502  0.45229156002E+03  0.23608467369E+03 -0.45587763995E+03  0.68421498158E+03  0.46999998093E+01 0. -1.
</event>
<event>
 5   0  0.7952307E-06  0.3227765E+04  0.7818609E-02  0.8181523E-01
       -2   -1    0    0    0  501  0.00000000000E+00  0.00000000000E+00  0.16485326291E+04  0.16485326291E+04  0.25500000920E-02 0.  1.
        2   -1    0    0  501    0  0.00000000000E+00  0.00000000000E+00 -0.15799610943E+04  0.15799610943E+04  0.25500000920E-02 0. -1.
    10030    2    1    2    0    0  0.00000000000E+00  0.00000000000E+00  0.68571534826E+02  0.32284937234E+04  0.32277654293E+04 0.  0.
        2    1    3    3  502    0  0.14355355661E+04 -0.24157804612E+03 -0.66264623491E+03  0.15994443869E+04  0.25500000920E-02 0. -1.
       -2    1    3    3    0  502 -0.14355355661E+04  0.24157804612E+03  0.73121776974E+03  0.16290493365E+04  0.25500000920E-02 0.  1.
</event>
<event>
 5   0  0.7510251E-06  0.1574624E+04  0.7818609E-02  0.8836291E-01
       -2   -1    0    0    0  501  0.00000000000E+00  0.00000000000E+00  0.45308968779E+03  0.45308968780E+03  0.25500000920E-02 0. -1.
        2   -1    0    0  501    0  0.00000000000E+00  0.00000000000E+00 -0.13680730909E+04  0.13680730909E+04  0.25500000920E-02 0.  1.
    10030    2    1    2    0    0  0.00000000000E+00  0.00000000000E+00 -0.91498340310E+03  0.18211627787E+04  0.15746235228E+04 0.  0.
        3    1    3    3  502    0  0.73064042766E+03  0.57623905449E+02 -0.79010138986E+03  0.10776901992E+04  0.10100000352E+00 0.  1.
       -3    1    3    3    0  502 -0.73064042766E+03 -0.57623905449E+02 -0.12488201323E+03  0.74347257948E+03  0.10100000352E+00 0. -1.
</event>
<event>
 5   0  0.7952307E-06  0.3023027E+04  0.7818609E-02  0.8237186E-01
        2   -1    0    0  501    0  0.00000000000E+00  0.00000000000E+00  0.32380763991E+04  0.32380763991E+04  0.25500000920E-02 0.  1.
       -2   -1    0    0    0  501  0.00000000000E+00  0.00000000000E+00 -0.70556474802E+03  0.70556474803E+03  0.25500000920E-02 0. -1.
    10030    2    1    2    0    0  0.00000000000E+00  0.00000000000E+00  0.25325116511E+04  0.39436411472E+04  0.30230266679E+04 0.  0.
        2    1    3    3  502    0 -0.12490702845E+04 -0.35512430827E+03  0.22753807400E+04  0.26198563628E+04  0.25500000920E-02 0.  1.
       -2    1    3    3    0  502  0.12490702845E+04  0.35512430827E+03  0.25713091115E+03  0.13237847844E+04  0.25500000920E-02 0. -1.
</event>
<event>
 5   0  0.7510251E-06  0.3238423E+04  0.7818609E-02  0.8178743E-01
       -2   -1    0    0    0  501  0.00000000000E+00  0.00000000000E+00  0.14059196955E+04  0.14059196955E+04  0.25500000920E-02 0.  1.
        2   -1    0    0  501    0  0.00000000000E+00  0.00000000000E+00 -0.18648623105E+04  0.18648623105E+04  0.25500000920E-02 0. -1.
    10030    2    1    2    0    0  0.00000000000E+00  0.00000000000E+00 -0.45894261506E+03  0.32707820060E+04  0.32384234756E+04 0.  0.
        3    1    3    3  502    0  0.13152572051E+04  0.86172793433E+03  0.16087474034E+03  0.15806192586E+04  0.10100000352E+00 0.  1.
       -3    1    3    3    0  502 -0.13152572051E+04 -0.86172793433E+03 -0.61981735540E+03  0.16901627474E+04  0.10100000352E+00 0. -1.
</event>
<event>
 5   0  0.7510251E-06  0.2530964E+04  0.7818609E-02  0.8392037E-01
       -2   -1    0    0    0  501  0.00000000000E+00  0.00000000000E+00  0.83068244019E+03  0.83068244019E+03  0.25500000920E-02 0.  1.
        2   -1    0    0  501    0  0.00000000000E+00  0.00000000000E+00 -0.19278657993E+04  0.19278657993E+04  0.25500000920E-02 0. -1.
    10030    2    1    2    0    0  0.00000000000E+00  0.00000000000E+00 -0.10971833591E+04  0.27585482395E+04  0.25309636635E+04 0.  0.
        3    1    3    3  502    0  0.96225556470E+03  0.47728679017E+03  0.18068283250E+03  0.10892129030E+04  0.10100000352E+00 0.  1.
       -3    1    3    3    0  502 -0.96225556470E+03 -0.47728679017E+03 -0.12778661916E+04  0.16693353365E+04  0.10100000352E+00 0. -1.
</event>
<event>
 5   0  0.7941434E-06  0.3197254E+04  0.7818609E-02  0.8189543E-01
       -2   -1    0    0    0  501  0.00000000000E+00  0.00000000000E+00  0.12497711887E+04  0.12497711887E+04  0.25500000920E-02 0.  1.
        2   -1    0    0  501    0  0.00000000000E+00  0.00000000000E+00 -0.20448610538E+04  0.20448610538E+04  0.25500000920E-02 0. -1.
    10030    2    1    2    0    0  0.00000000000E+00  0.00000000000E+00 -0.79508986505E+03  0.32946322425E+04  0.31972540905E+04 0.  0.
        4    1    3    3  502    0  0.15884838295E+04  0.17977346507E+03 -0.40035594096E+03  0.16479944987E+04  0.12699999809E+01 0.  1.
       -4    1    3    3    0  502 -0.15884838295E+04 -0.17977346507E+03 -0.39473392410E+03  0.16466377438E+04  0.12699999809E+01 0. -1.
</event>
<event>
 5   0  0.4142886E-06  0.3221681E+04  0.7818609E-02  0.8183115E-01
       -1   -1    0    0    0  501  0.00000000000E+00  0.00000000000E+00  0.13300436313E+04  0.13300436313E+04  0.50400001928E-02 0. -1.
        1   -1    0    0  501    0  0.00000000000E+00  0.00000000000E+00 -0.19509188856E+04  0.19509188856E+04  0.50400001928E-02 0.  1.
    10030    2    1    2    0    0  0.00000000000E+00  0.00000000000E+00 -0.62087525430E+03  0.32809625169E+04  0.32216810761E+04 0.  0.
        5    1    3    3  502    0 -0.49451343320E+03  0.10452463164E+04  0.83167137746E+03  0.14243534560E+04  0.46999998093E+01 0. -1.
       -5    1    3    3    0  502  0.49451343320E+03 -0.10452463164E+04 -0.14525466318E+04  0.18566090609E+04  0.46999998093E+01 0.  1.
</event>
<event>
 5   0  0.2933646E-06  0.3157091E+04  0.7818609E-02  0.8200242E-01
        1   -1    0    0  501    0  0.00000000000E+00  0.00000000000E+00  0.24746602411E+04  0.24746602411E+04  0.50400001928E-02 0.  1.
       -1   -1    0    0    0  501  0.00000000000E+00  0.00000000000E+00 -0.10069282306E+04  0.10069282306E+04  0.50400001928E-02 0. -1.
    10030    2    1    2    0    0  0.00000000000E+00  0.00000000000E+00  0.14677320105E+04  0.34815884718E+04  0.31570905961E+04 0.  0.
        2    1    3    3  502    0  0.20540727525E+03  0.15579470401E+04  0.89896762384E+03  0.18103960664E+04  0.25500000920E-02 0. -1.
       -2    1    3    3    0  502 -0.20540727525E+03 -0.15579470401E+04  0.56876438667E+03  0.16711924054E+04  0.25500000920E-02 0.  1.
</event>
<event>
 5   0  0.2933646E-06  0.1963966E+04  0.7818609E-02  0.8623656E-01
       -1   -1    0    0    0  501  0.00000000000E+00  0.00000000000E+00  0.65590432903E+03  0.65590432905E+03  0.50400001928E-02 0.  1.
        1   -1    0    0  501    0  0.00000000000E+00  0.00000000000E+00 -0.14701694543E+04  0.14701694544E+04  0.50400001928E-02 0. -1.
    10030    2    1    2    0    0  0.00000000000E+00  0.00000000000E+00 -0.81426512532E+03  0.21260737834E+04  0.19639658954E+04 0.  0.
        2    1    3    3  502    0  0.94559277354E+03  0.17530144337E+03 -0.62204960691E+03  0.11453479833E+04  0.25500000920E-02 0. -1.
       -2    1    3    3    0  502 -0.94559277354E+03 -0.17530144337E+03 -0.19221551841E+03  0.98072580008E+03  0.25500000920E-02 0.  1.
</event>
<event>
 5   0  0.2788054E-06  0.3220758E+04  0.7818609E-02  0.8183356E-01
        1   -1    0    0  501    0  0.00000000000E+00  0.00000000000E+00  0.99413307742E+03  0.99413307743E+03  0.50400001928E-02 0. -1.
       -1   -1    0    0    0  501  0.00000000000E+00  0.00000000000E+00 -0.26086256442E+04  0.26086256442E+04  0.50400001928E-02 0.  1.
    10030    2    1    2    0    0  0.00000000000E+00  0.00000000000E+00 -0.16144925668E+04  0.36027587216E+04  0.32207583203E+04 0.  0.
        3    1    3    3  502    0 -0.74284782139E+03 -0.23562911406E+03  0.76914547298E+03  0.10949560420E+04  0.10100000352E+00 0. -1.
       -3    1    3    3    0  502  0.74284782139E+03  0.23562911406E+03 -0.23836380397E+04  0.25078026796E+04  0.10100000352E+00 0.  1.
</event>
<event>
 5   0  0.7971763E-06  0.3303629E+04  0.7818609E-02  0.8161973E-01
       -2   -1    0    0    0  501  0.00000000000E+00  0.00000000000E+00  0.21081873221E+04  0.21081873221E+04  0.25500000920E-02 0. -1.
        2   -1    0    0  501    0  0.00000000000E+00  0.00000000000E+00 -0.12942358052E+04  0.12942358052E+04  0.25500000920E-02 0.  1.
    10030    2    1    2    0    0  0.00000000000E+00  0.00000000000E+00  0.81395151698E+03  0.34024231273E+04  0.33036292263E+04 0.  0.
        1    1    3    3  502    0  0.67355234421E+03 -0.25563323669E+03  0.19378556428E+04  0.20674393835E+04  0.50400001928E-02 0. -1.
       -1    1    3    3    0  502 -0.67355234421E+03  0.25563323669E+03 -0.11239041258E+04  0.13349837438E+04  0.50400001928E-02 0.  1.
</event>
<event>
 5   0  0.2788054E-06  0.2148666E+04  0.7818609E-02  0.8540104E-01
        1   -1    0    0  501    0  0.00000000000E+00  0.00000000000E+00  0.53972262798E+03  0.53972262800E+03  0.50400001928E-02 0. -1.
       -1   -1    0    0    0  501  0.00000000000E+00  0.00000000000E+00 -0.21384889301E+04  0.21384889301E+04  0.50400001928E-02 0.  1.
    10030    2    1    2    0    0  0.00000000000E+00  0.00000000000E+00 -0.15987663021E+04  0.26782115581E+04  0.21486655070E+04 0.  0.
        3    1    3    3  502    0 -0.17973443115E+03 -0.72983896240E+03 -0.17561703421E+04  0.19102627195E+04  0.10100000352E+00 0.  1.
       -3    1    3    3    0  502  0.17973443115E+03  0.72983896240E+03  0.15740403995E+03  0.76794883864E+03  0.10100000352E+00 0. -1.
</event>
<event>
 5   0  0.7510251E-06  0.3219938E+04  0.7818609E-02  0.8183571E-01
       -2   -1    0    0    0  501  0.00000000000E+00  0.00000000000E+00  0.83474679866E+03  0.83474679866E+03  0.25500000920E-02 0. -1.
        2   -1    0    0  501    0  0.00000000000E+00  0.00000000000E+00 -0.31051338227E+04  0.31051338227E+04  0.25500000920E-02 0.  1.
    10030    2    1    2    0    0  0.00000000000E+00  0.00000000000E+00 -0.22703870241E+04  0.39398806214E+04  0.32199382093E+04 0.  0.
        3    1    3    3  502    0  0.50217975462E+03 -0.14910717068E+04 -0.71751903481E+03  0.17292521263E+04  0.10100000352E+00 0. -1.
       -3    1    3    3    0  502 -0.50217975462E+03  0.14910717068E+04 -0.15528679893E+04  0.22106284951E+04  0.10100000352E+00 0.  1.
</event>
<event>
 5   0  0.2635798E-06  0.2679999E+04  0.7818609E-02  0.8341524E-01
        1   -1    0    0  501    0  0.00000000000E+00  0.00000000000E+00  0.22084985181E+04  0.22084985181E+04  0.50400001928E-02 0. -1.
       -1   -1    0    0    0  501  0.00000000000E+00  0.00000000000E+00 -0.81304038324E+03  0.81304038325E+03  0.50400001928E-02 0.  1.
    10030    2    1    2    0    0  0.00000000000E+00  0.00000000000E+00  0.13954581348E+04  0.30215389013E+04  0.26799988668E+04 0.  0.
        1    1    3    3  502    0  0.91033418315E+03 -0.68158634152E+03  0.14968053318E+04  0.18798123490E+04  0.50400001928E-02 0. -1.
       -1    1    3    3    0  502 -0.91033418315E+03  0.68158634152E+03 -0.10134719700E+03  0.11417265523E+04  0.50400001928E-02 0.  1.
</event>
<event>
 5   0  0.7941434E-06  0.1973238E+04  0.7818609E-02  0.8619236E-01
        2   -1    0    0  501    0  0.00000000000E+00  0.00000000000E+00  0.16376947373E+04  0.16376947373E+04  0.25500000920E-02 0. -1.
       -2   -1    0    0    0  501  0.00000000000E+00  0.00000000000E+00 -0.59438263900E+03  0.59438263901E+03  0.25500000920E-02 0.  1.
    10030    2    1    2    0    0  0.00000000000E+00  0.00000000000E+00  0.10433120983E+04  0.22320773763E+04  0.19732382723E+04 0.  0.
        4    1    3    3  502    0 -0.73025677256E+03 -0.25325609903E+03  0.12152812304E+04  0.14402512585E+04  0.12699999809E+01 0. -1.
       -4    1    3    3    0  502  0.73025677256E+03  0.25325609903E+03 -0.17196913215E+03  0.79182611783E+03  0.12699999809E+01 0.  1.
</event>
<event>
 5   0  0.7941434E-06  0.3301105E+04  0.7818609E-02  0.8162614E-01
       -2   -1    0    0    0  501  0.00000000000E+00  0.00000000000E+00  0.10966668811E+04  0.10966668811E+04  0.25500000920E-02 0.  1.
        2   -1    0    0  501    0  0.00000000000E+00  0.00000000000E+00 -0.24841847198E+04  0.24841847198E+04  0.25500000920E-02 0. -1.
    10030    2    1    2    0    0  0.00000000000E+00  0.00000000000E+00 -0.13875178386E+04  0.35808516009E+04  0.33011047295E+04 0.  0.
        4    1    3    3  502    0 -0.11751046906E+03 -0.93134669634E+03  0.77890006273E+03  0.12197960074E+04  0.12699999809E+01 0.  1.
       -4    1    3    3    0  502  0.11751046906E+03  0.93134669634E+03 -0.21664179014E+04  0.23610555935E+04  0.12699999809E+01 0. -1.
</event>
<event>
 5   0  0.4142886E-06  0.3176704E+04  0.7818609E-02  0.8194997E-01
        1   -1    0    0  501    0  0.00000000000E+00  0.00000000000E+00  0.12105066113E+04  0.12105066113E+04  0.50400001928E-02 0.  1.
       -1   -1    0    0    0  501  0.00000000000E+00  0.00000000000E+00 -0.20841367745E+04  0.20841367745E+04  0.50400001928E-02 0. -1.
    10030    2    1    2    0    0  0.00000000000E+00  0.00000000000E+00 -0.87363016316E+03  0.32946433858E+04  0.31767035395E+04 0.  0.
        5    1    3    3  502    0 -0.98585882592E+03  0.10340081344E+04  0.28303498734E+03  0.14564413276E+04  0.46999998093E+01 0.  1.
       -5    1    3    3    0  502  0.98585882592E+03 -0.10340081344E+04 -0.11566651505E+04  0.18382020583E+04  0.46999998093E+01 0. -1.
</event>
<event>
 5   0  0.2788054E-06  0.2964467E+04  0.7818609E-02  0.8253951E-01
        1   -1    0    0  501    0  0.00000000000E+00  0.00000000000E+00  0.25323180854E+04  0.25323180854E+04  0.50400001928E-02 0. -1.
       -1   -1    0    0    0  501  0.00000000000E+00  0.00000000000E+00 -0.86759098176E+03  0.86759098177E+03  0.50400001928E-02 0.  1.
    10030    2    1    2    0    0  0.00000000000E+00  0.00000000000E+00  0.16647271036E+04  0.33999090672E+04  0.29644671250E+04 0.  0.
        3    1    3    3  502    0  0.98508093092E+03  0.78216847097E+03  0.17316607952E+04  0.21402852794E+04  0.10100000352E+00 0. -1.
       -3    1    3    3    0  502 -0.98508093092E+03 -0.78216847097E+03 -0.66933691560E+02  0.12596237878E+04  0.10100000352E+00 0.  1.
</event>
<event>
 5   0  0.2933646E-06  0.3211956E+04  0.7818609E-02  0.8185667E-01
        1   -1    0    0  501    0  0.00000000000E+00  0.00000000000E+00  0.28834080379E+04  0.28834080379E+04  0.50400001928E-02 0.  1.
       -1   -1    0    0    0  501  0.00000000000E+00  0.00000000000E+00 -0.89448526632E+03  0.89448526633E+03  0.50400001928E-02 0. -1.
    10030    2    1    2    0    0  0.00000000000E+00  0.00000000000E+00  0.19889227716E+04  0.37778933043E+04  0.32119564174E+04 0.  0.
        2    1    3    3  502    0 -0.35422530294E+02  0.13362585966E+04 -0.52502036079E+02  0.13377586690E+04  0.25500000920E-02 0. -1.
       -2    1    3    3    0  502  0.35422530294E+02 -0.13362585966E+04  0.20414248077E+04  0.24401346353E+04  0.25500000920E-02 0.  1.
</event>
<event>
 5   0  0.7941434E-06  0.3262878E+04  0.7818609E-02  0.8172406E-01
        2   -1    0    0  501    0  0.00000000000E+00  0.00000000000E+00  0.12634407540E+04  0.12634407540E+04  0.25500000920E-02 0. -1.
       -2   -1    0    0    0  501  0.00000000000E+00  0.00000000000E+00 -0.21066231965E+04  0.21066231965E+04  0.25500000920E-02 0.  1.
    10030    2    1    2    0    0  0.00000000000E+00  0.00000000000E+00 -0.84318244245E+03  0.33700639505E+04  0.32628782385E+04 0.  0.
        4    1    3    3  502    0 -0.12778933763E+04 -0.30155910316E+03  0.57853760051E+03  0.14348019870E+04  0.12699999809E+01 0. -1.
       -4    1    3    3    0  502  0.12778933763E+04  0.30155910316E+03 -0.14217200430E+04  0.19352619635E+04  0.12699999809E+01 0.  1.
</event>
<event>
 5   0  0.2788054E-06  0.2094132E+04  0.7818609E-02  0.8563833E-01
        1   -1    0    0  501    0  0.00000000000E+00  0.00000000000E+00  0.95479112981E+03  0.95479112983E+03  0.50400001928E-02 0. -1.
       -1   -1    0    0    0  501  0.00000000000E+00  0.00000000000E+00 -0.11482590864E+04  0.11482590864E+04  0.50400001928E-02 0.  1.
    10030    2    1    2    0    0  0.00000000000E+00  0.00000000000E+00 -0.19346795660E+03  0.21030502163E+04  0.20941323649E+04 0.  0.
        3    1    3    3  502    0 -0.97482643086E+03 -0.35952337124E+03 -0.22691607900E+03  0.10635010775E+04  0.10100000352E+00 0. -1.
       -3    1    3    3    0  502  0.97482643086E+03  0.35952337124E+03  0.33448122398E+02  0.10395491387E+04  0.10100000352E+00 0.  1.
</event>
<event>
 5   0  0.7952307E-06  0.3510598E+04  0.7818609E-02  0.8111283E-01
       -2   -1    0    0    0  501  0.00000000000E+00  0.00000000000E+00  0.12949661599E+04  0.12949661599E+04  0.25500000920E-02 0.  1.
        2   -1    0    0  501    0  0.00000000000E+00  0.00000000000E+00 -0.23792703018E+04  0.23792703018E+04  0.25500000920E-02 0. -1.
    10030    2    1    2    0    0  0.00000000000E+00  0.00000000000E+00 -0.10843041419E+04  0.36742364617E+04  0.35105979696E+04 0.  0.
        2    1    3    3  502    0  0.15397721123E+04  0.43461230688E+03  0.21350557660E+03  0.16141160573E+04  0.25500000920E-02 0.  1.
       -2    1    3    3    0  502 -0.15397721123E+04 -0.43461230688E+03 -0.12978097185E+04  0.20601204044E+04  0.25500000920E-02 0. -1.
</event>
<event>
 5   0  0.7941434E-06  0.3222104E+04  0.7818609E-02  0.8183004E-01
       -2   -1    0    0    0  501  0.00000000000E+00  0.00000000000E+00  0.18306396828E+04  0.18306396828E+04  0.25500000920E-02 0. -1.
        2   -1    0    0  501    0  0.00000000000E+00  0.00000000000E+00 -0.14178041191E+04  0.14178041191E+04  0.25500000920E-02 0.  1.
    10030    2    1    2    0    0  0.00000000000E+00  0.00000000000E+00  0.41283556370E+03  0.32484438020E+04  0.32221039605E+04 0.  0.
        4    1    3    3  502    0 -0.49355283108E+03  0.81293670570E+03 -0.11046073022E+04  0.14576074195E+04  0.12699999809E+01 0.  1.
       -4    1    3    3    0  502  0.49355283108E+03 -0.81293670570E+03  0.15174428659E+04  0.17908363825E+04  0.12699999809E+01 0. -1.
</event>
<event>
 5   0  0.2580875E-06  0.3273203E+04  0.7818609E-02  0.8169747E-01
        3   -1    0    0  501    0  0.00000000000E+00  0.00000000000E+00  0.16336893298E+04  0.16336893329E+04  0.10100000352E+00 0.  1.
       -3   -1    0    0    0  501  0.00000000000E+00  0.00000000000E+00 -0.16395191572E+04  0.16395191603E+04  0.10100000352E+00 0. -1.
    10030    2    1    2    0    0  0.00000000000E+00  0.00000000000E+00 -0.58298273841E+01  0.32732084933E+04  0.32732033016E+04 0.  0.
        1    1    3    3  502    0  0.55763735312E+03  0.11965978468E+04  0.96438137331E+03  0.16348814201E+04  0.50400001928E-02 0.  1.
       -1    1    3    3    0  502 -0.55763735312E+03 -0.11965978468E+04 -0.97021120070E+03  0.16383270732E+04  0.50400001928E-02 0. -1.
</event>
<event>
 5   0  0.2933646E-06  0.3130592E+04  0.7818609E-02  0.8207392E-01
        1   -1    0    0  501    0  0.00000000000E+00  0.00000000000E+00  0.20036427072E+04  0.20036427072E+04  0.50400001928E-02 0. -1.
       -1   -1    0    0    0  501  0.00000000000E+00  0.00000000000E+00 -0.12228487163E+04  0.12228487163E+04  0.50400001928E-02 0.  1.
    10030    2    1    2    0    0  0.00000000000E+00  0.00000000000E+00  0.78079399089E+03  0.32264914235E+04  0.31305922203E+04 0.  0.
        2    1    3    3  502    0 -0.79230926110E+03 -0.13495113512E+04  0.35444193252E+03  0.16045447752E+04  0.25500000920E-02 0.  1.
       -2    1    3    3    0  502  0.79230926110E+03  0.13495113512E+04  0.42635205837E+03  0.16219466483E+04  0.25500000920E-02 0. -1.
</event>
<event>
 5   0  0.7952307E-06  0.3165563E+04  0.7818609E-02  0.8197972E-01
       -2   -1    0    0    0  501  0.00000000000E+00  0.00000000000E+00  0.13686054237E+04  0.13686054237E+04  0.25500000920E-02 0.  1.
        2   -1    0    0  501    0  0.00000000000E+00  0.00000000000E+00 -0.18304742568E+04  0.18304742568E+04  0.25500000920E-02 0. -1.
    10030    2    1    2    0    0  0.00000000000E+00  0.00000000000E+00 -0.46186883314E+03  0.31990796806E+04  0.31655628225E+04 0.  0.
        2    1    3    3  502    0 -0.13613183333E+03 -0.12179480375E+04  0.78130334656E+03  0.14533974740E+04  0.25500000920E-02 0. -1.
       -2    1    3    3    0  502  0.13613183333E+03  0.12179480375E+04 -0.12431721797E+04  0.17456822066E+04  0.25500000920E-02 0.  1.
</event>
<event>
 5   0  0.7510251E-06  0.3277960E+04  0.7818609E-02  0.8168526E-01
       -2   -1    0    0    0  501  0.00000000000E+00  0.00000000000E+00  0.29711915280E+04  0.29711915280E+04  0.25500000920E-02 0. -1.
        2   -1    0    0  501    0  0.00000000000E+00  0.00000000000E+00 -0.90410012955E+03  0.90410012955E+03  0.25500000920E-02 0.  1.
    10030    2    1    2    0    0  0.00000000000E+00  0.00000000000E+00  0.20670913984E+04  0.38752916575E+04  0.32779595149E+04 0.  0.
        3    1    3    3  502    0  0.46793085894E+03 -0.70150448996E+03  0.26950631039E+04  0.28239038550E+04  0.10100000352E+00 0. -1.
       -3    1    3    3    0  502 -0.46793085894E+03  0.70150448996E+03 -0.62797170548E+03  0.10513878025E+04  0.10100000352E+00 0.  1.
</event>
<event>
 5   0  0.8237664E-06  0.3125767E+04  0.7818609E-02  0.8208702E-01
        2   -1    0    0  501    0  0.00000000000E+00  0.00000000000E+00  0.12910271470E+04  0.12910271470E+04  0.25500000920E-02 0.  1.
       -2   -1    0    0    0  501  0.00000000000E+00  0.00000000000E+00 -0.18919852294E+04  0.18919852294E+04  0.25500000920E-02 0. -1.
    10030    2    1    2    0    0  0.00000000000E+00  0.00000000000E+00 -0.60095808238E+03  0.31830123764E+04  0.31257666534E+04 0.  0.
        5    1    3    3  502    0 -0.60304272433E+03 -0.14392878634E+04 -0.38791257326E+03  0.16080137859E+04  0.46999998093E+01 0.  1.
       -5    1    3    3    0  502  0.60304272433E+03  0.14392878634E+04 -0.21304550912E+03  0.15749985905E+04  0.46999998093E+01 0. -1.
</event>
<event>
 5   0  0.2933646E-06  0.2795892E+04  0.7818609E-02  0.8304545E-01
        1   -1    0    0  501    0  0.00000000000E+00  0.00000000000E+00  0.21960491278E+04  0.21960491278E+04  0.50400001928E-02 0. -1.
       -1   -1    0    0    0  501  0.00000000000E+00  0.00000000000E+00 -0.88989491371E+03  0.88989491372E+03  0.50400001928E-02 0.  1.
    10030    2    1    2    0    0  0.00000000000E+00  0.00000000000E+00  0.13061542141E+04  0.30859440415E+04  0.27958919501E+04 0.  0.
        2    1    3    3  502    0 -0.37600673507E+03 -0.31386568745E+03 -0.79209211117E+03  0.93129084993E+03  0.25500000920E-02 0.  1.
       -2    1    3    3    0  502  0.37600673507E+03  0.31386568745E+03  0.20982463253E+04  0.21546531916E+04  0.25500000920E-02 0. -1.
</event>
<event>
 5   0  0.7952307E-06  0.3214500E+04  0.7818609E-02  0.8184998E-01
        2   -1    0    0  501    0  0.00000000000E+00  0.00000000000E+00  0.18610049157E+04  0.18610049157E+04  0.25500000920E-02 0.  1.
       -2   -1    0    0    0  501  0.00000000000E+00  0.00000000000E+00 -0.13880954941E+04  0.13880954941E+04  0.25500000920E-02 0. -1.
    10030    2    1    2    0    0  0.00000000000E+00  0.00000000000E+00  0.47290942152E+03  0.32491004098E+04  0.32144999848E+04 0.  0.
        2    1    3    3  502    0  0.15196636508E+04 -0.42987705887E+03  0.53813113468E+03  0.16684594737E+04  0.25500000920E-02 0.  1.
       -2    1    3    3    0  502 -0.15196636508E+04  0.42987705887E+03 -0.65221713157E+02  0.15806409361E+04  0.25500000920E-02 0. -1.
</event>
<event>
 5   0  0.2933646E-06  0.3207581E+04  0.7818609E-02  0.8186818E-01
        1   -1    0    0  501    0  0.00000000000E+00  0.00000000000E+00  0.14415933444E+04  0.14415933444E+04  0.50400001928E-02 0.  1.
       -1   -1    0    0    0  501  0.00000000000E+00  0.00000000000E+00 -0.17842369890E+04  0.17842369890E+04  0.50400001928E-02 0. -1.
    10030    2    1    2    0    0  0.00000000000E+00  0.00000000000E+00 -0.34264364463E+03  0.32258303335E+04  0.32075811249E+04 0.  0.
        2    1    3    3  502    0  0.47876322950E+02  0.13425893721E+04  0.70962179600E+03  0.15193424425E+04  0.25500000920E-02 0.  1.
       -2    1    3    3    0  502 -0.47876322950E+02 -0.13425893721E+04 -0.10522654406E+04  0.17064878909E+04  0.25500000920E-02 0. -1.
</event>
<event>
 5   0  0.8237664E-06  0.3497908E+04  0.7818609E-02  0.8114286E-01
        2   -1    0    0  501    0  0.00000000000E+00  0.00000000000E+00  0.18423891989E+04  0.18423891989E+04  0.25500000920E-02 0.  1.
       -2   -1    0    0    0  501  0.00000000000E+00  0.00000000000E+00 -0.16602572470E+04  0.16602572470E+04  0.25500000920E-02 0. -1.
    10030    2    1    2    0    0  0.00000000000E+00  0.00000000000E+00  0.18213195189E+03  0.35026464459E+04  0.34979079572E+04 0.  0.
        5    1    3    3  502    0 -0.87459744024E+03 -0.56595385032E+03  0.14978154983E+04  0.18244719236E+04  0.46999998093E+01 0.  1.
       -5    1    3    3    0  502  0.87459744024E+03  0.56595385032E+03 -0.13156835464E+04  0.16781745223E+04  0.46999998093E+01 0. -1.
</event>
<event>
 5   0  0.2635798E-06  0.3228140E+04  0.7818609E-02  0.8181425E-01
       -1   -1    0    0    0  501  0.00000000000E+00  0.00000000000E+00  0.13309835464E+04  0.13309835464E+04  0.50400001928E-02 0.  1.
        1   -1    0    0  501    0  0.00000000000E+00  0.00000000000E+00 -0.19573655774E+04  0.19573655774E+04  0.50400001928E-02 0. -1.
    10030    2    1    2    0    0  0.00000000000E+00  0.00000000000E+00 -0.62638203104E+03  0.32883491238E+04  0.32281396363E+04 0.  0.
        1    1    3    3  502    0 -0.42966379681E+03  0.45442881032E+03  0.12025489446E+04  0.13554484446E+04  0.50400001928E-02 0.  1.
       -1    1    3    3    0  502  0.42966379681E+03 -0.45442881032E+03 -0.18289309756E+04  0.19329006792E+04  0.50400001928E-02 0. -1.
</event>
<event>
 5   0  0.4822890E-06  0.1769702E+04  0.7818609E-02  0.8722580E-01
       -1   -1    0    0    0  501  0.00000000000E+00  0.00000000000E+00  0.95872917880E+03  0.95872917881E+03  0.50400001928E-02 0.  1.
        1   -1    0    0  501    0  0.00000000000E+00  0.00000000000E+00 -0.81666590092E+03  0.81666590094E+03  0.50400001928E-02 0. -1.
    10030    2    1    2    0    0  0.00000000000E+00  0.00000000000E+00  0.14206327788E+03  0.17753950798E+04  0.17697021541E+04 0.  0.
        4    1    3    3  502    0 -0.23773819595E+03  0.30032402971E+03  0.87124778762E+03  0.95172910693E+03  0.12699999809E+01 0.  1.
       -4    1    3    3    0  502  0.23773819595E+03 -0.30032402971E+03 -0.72918450974E+03  0.82366597282E+03  0.12699999809E+01 0. -1.
</event>
<event>
 5   0  0.2635798E-06  0.3189543E+04  0.7818609E-02  0.8191584E-01
        1   -1    0    0  501    0  0.00000000000E+00  0.00000000000E+00  0.13312101411E+04  0.13312101412E+04  0.50400001928E-02 0.  1.
       -1   -1    0    0    0  501  0.00000000000E+00  0.00000000000E+00 -0.19105146311E+04  0.19105146311E+04  0.50400001928E-02 0. -1.
    10030    2    1    2    0    0  0.00000000000E+00  0.00000000000E+00 -0.57930448993E+03  0.32417247722E+04  0.31895431972E+04 0.  0.
        1    1    3    3  502    0  0.90691347987E+03 -0.63180222579E+03  0.87877762619E+03  0.14120609862E+04  0.50400001928E-02 0.  1.
       -1    1    3    3    0  502 -0.90691347987E+03  0.63180222579E+03 -0.14580821161E+04  0.18296637860E+04  0.50400001928E-02 0. -1.
</event>
<event>
 5   0  0.8237664E-06  0.3233950E+04  0.7818609E-02  0.8179908E-01
       -2   -1    0    0    0  501  0.00000000000E+00  0.00000000000E+00  0.14205710646E+04  0.14205710646E+04  0.25500000920E-02 0.  1.
        2   -1    0    0  501    0  0.00000000000E+00  0.00000000000E+00 -0.18405333446E+04  0.18405333446E+04  0.25500000920E-02 0. -1.
    10030    2    1    2    0    0  0.00000000000E+00  0.00000000000E+00 -0.41996228001E+03  0.32611044092E+04  0.32339501621E+04 0.  0.
        5    1    3    3  502    0  0.47253072196E+03 -0.15390353658E+04 -0.36181494148E+03  0.16501052337E+04  0.46999998093E+01 0.  1.
       -5    1    3    3    0  502 -0.47253072196E+03  0.15390353658E+04 -0.58147338536E+02  0.16109991755E+04  0.46999998093E+01 0. -1.
</event>
<event>
 5   0  0.2580875E-06  0.3204887E+04  0.7818609E-02  0.8187528E-01
        3   -1    0    0  501    0  0.00000000000E+00  0.00000000000E+00  0.18102629835E+04  0.18102629863E+04  0.10100000352E+00 0.  1.
       -3   -1    0    0    0  501  0.00000000000E+00  0.00000000000E+00 -0.14184820409E+04  0.14184820445E+04  0.10100000352E+00 0. -1.
    10030    2    1    2    0    0  0.00000000000E+00  0.00000000000E+00  0.39178094256E+03  0.32287450308E+04  0.32048872316E+04 0.  0.
        2    1    3    3  502    0 -0.16986131817E+03 -0.13301007974E+04  0.10798069548E+04  0.17216283160E+04  0.25500000920E-02 0.  1.
       -2    1    3    3    0  502  0.16986131817E+03  0.13301007974E+04 -0.68802601227E+03  0.15071167148E+04  0.25500000920E-02 0. -1.
</event>
<event>
 5   0  0.2788054E-06  0.2695309E+04  0.7818609E-02  0.8336529E-01
        1   -1    0    0  501    0  0.00000000000E+00  0.00000000000E+00  0.18546800466E+04  0.18546800466E+04  0.50400001928E-02 0.  1.
       -1   -1    0    0    0  501  0.00000000000E+00  0.00000000000E+00 -0.97923768449E+03  0.97923768451E+03  0.50400001928E-02 0. -1.
    10030    2    1    2    0    0  0.00000000000E+00  0.00000000000E+00  0.87544236207E+03  0.28339177311E+04  0.26953089577E+04 0.  0.
        3    1    3    3  502    0  0.62172177794E+03  0.29489771614E+03 -0.78060427545E+03  0.10405987109E+04  0.10100000352E+00 0. -1.
       -3    1    3    3    0  502 -0.62172177794E+03 -0.29489771614E+03  0.16560466375E+04  0.17933190201E+04  0.10100000352E+00 0.  1.
</event>
<event>
 5   0  0.7971763E-06  0.3240901E+04  0.7818609E-02  0.8178098E-01
       -2   -1    0    0    0  501  0.00000000000E+00  0.00000000000E+00  0.12610132467E+04  0.12610132467E+04  0.25500000920E-02 0.  1.
        2   -1    0    0  501    0  0.00000000000E+00  0.00000000000E+00 -0.20823409565E+04  0.20823409565E+04  0.25500000920E-02 0. -1.
    10030    2    1    2    0    0  0.00000000000E+00  0.00000000000E+00 -0.82132770983E+03  0.33433542032E+04  0.32409008194E+04 0.  0.
        1    1    3    3  502    0  0.75734825907E+02  0.60576128215E+03  0.11378471879E+04  0.12912701955E+04  0.50400001928E-02 0.  1.
       -1    1    3    3    0  502 -0.75734825907E+02 -0.60576128215E+03 -0.19591748977E+04  0.20520840077E+04  0.50400001928E-02 0. -1.
</event>
<event>
 5   0  0.2865668E-06  0.1679230E+04  0.7818609E-02  0.8773300E-01
        1   -1    0    0  501    0  0.00000000000E+00  0.00000000000E+00  0.68077143859E+03  0.68077143861E+03  0.50400001928E-02 0. -1.
       -1   -1    0    0    0  501  0.00000000000E+00  0.00000000000E+00 -0.10355208018E+04  0.10355208018E+04  0.50400001928E-02 0.  1.
    10030    2    1    2    0    0  0.00000000000E+00  0.00000000000E+00 -0.35474936316E+03  0.17162922404E+04  0.16792295685E+04 0.  0.
        3    1    3    3  502    0  0.36942020315E+03 -0.16890307817E+02  0.59305039034E+03  0.69890295798E+03  0.10100000352E+00 0. -1.
       -3    1    3    3    0  502 -0.36942020315E+03  0.16890307817E+02 -0.94779975350E+03  0.10173892824E+04  0.10100000352E+00 0.  1.
</event>
<event>
 5   0  0.7510251E-06  0.3263578E+04  0.7818609E-02  0.8172225E-01
       -2   -1    0    0    0  501  0.00000000000E+00  0.00000000000E+00  0.10789126947E+04  0.10789126947E+04  0.25500000920E-02 0.  1.
        2   -1    0    0  501    0  0.00000000000E+00  0.00000000000E+00 -0.24679796484E+04  0.24679796484E+04  0.25500000920E-02 0. -1.
    10030    2    1    2    0    0  0.00000000000E+00  0.00000000000E+00 -0.13890669537E+04  0.35468923431E+04  0.32635775296E+04 0.  0.
        3    1    3    3  502    0 -0.14161255541E+04 -0.55787112705E+03 -0.13339099009E+04  0.20238447108E+04  0.10100000352E+00 0. -1.
       -3    1    3    3    0  502  0.14161255541E+04  0.55787112705E+03 -0.55157052713E+02  0.15230476323E+04  0.10100000352E+00 0.  1.
</event>
<event>
 5   0  0.2788054E-06  0.3199137E+04  0.7818609E-02  0.8189045E-01
       -1   -1    0    0    0  501  0.00000000000E+00  0.00000000000E+00  0.12477611364E+04  0.12477611364E+04  0.50400001928E-02 0. -1.
        1   -1    0    0  501    0  0.00000000000E+00  0.00000000000E+00 -0.20505679762E+04  0.20505679762E+04  0.50400001928E-02 0.  1.
    10030    2    1    2    0    0  0.00000000000E+00  0.00000000000E+00 -0.80280683978E+03  0.32983291126E+04  0.31991367762E+04 0.  0.
        3    1    3    3  502    0  0.45962759186E+03 -0.72843188454E+03 -0.17910635033E+04  0.19874050962E+04  0.10100000352E+00 0.  1.
       -3    1    3    3    0  502 -0.45962759186E+03  0.72843188454E+03  0.98825666348E+03  0.13109240164E+04  0.10100000352E+00 0. -1.
</event>
<event>
 5   0  0.2635798E-06  0.1811687E+04  0.7818609E-02  0.8700109E-01
        1   -1    0    0  501    0  0.00000000000E+00  0.00000000000E+00  0.10883286364E+04  0.10883286365E+04  0.50400001928E-02 0.  1.
       -1   -1    0    0    0  501  0.00000000000E+00  0.00000000000E+00 -0.75395611248E+03  0.75395611249E+03  0.50400001928E-02 0. -1.
    10030    2    1    2    0    0  0.00000000000E+00  0.00000000000E+00  0.33437252397E+03  0.18422847489E+04  0.18116865379E+04 0.  0.
        1    1    3    3  502    0  0.77390386541E+03 -0.28211111569E+02  0.64504740900E+03  0.10078736129E+04  0.50400001928E-02 0.  1.
       -1    1    3    3    0  502 -0.77390386541E+03  0.28211111569E+02 -0.31067488504E+03  0.83441113603E+03  0.50400001928E-02 0. -1.
</event>
<event>
 5   0  0.7971763E-06  0.3216869E+04  0.7818609E-02  0.8184376E-01
        2   -1    0    0  501    0  0.00000000000E+00  0.00000000000E+00  0.24474169465E+04  0.24474169465E+04  0.25500000920E-02 0.  1.
       -2   -1    0    0    0  501  0.00000000000E+00  0.00000000000E+00 -0.10570579917E+04  0.10570579917E+04  0.25500000920E-02 0. -1.
    10030    2    1    2    0    0  0.00000000000E+00  0.00000000000E+00  0.13903589548E+04  0.35044749383E+04  0.32168690632E+04 0.  0.
        1    1    3    3  502    0 -0.10382300971E+04 -0.26503356992E+03  0.20019653938E+04  0.22706893151E+04  0.50400001928E-02 0.  1.
       -1    1    3    3    0  502  0.10382300971E+04  0.26503356992E+03 -0.61160643905E+03  0.12337856232E+04  0.50400001928E-02 0. -1.
</event>
<event>
 5   0  0.2788054E-06  0.3121196E+04  0.7818609E-02  0.8209945E-01
       -1   -1    0    0    0  501  0.00000000000E+00  0.00000000000E+00  0.12838291286E+04  0.12838291286E+04  0.50400001928E-02 0. -1.
        1   -1    0    0  501    0  0.00000000000E+00  0.00000000000E+00 -0.18970326577E+04  0.18970326577E+04  0.50400001928E-02 0.  1.
    10030    2    1    2    0    0  0.00000000000E+00  0.00000000000E+00 -0.61320352908E+03  0.31808617863E+04  0.31211957862E+04 0.  0.
        3    1    3    3  502    0  0.14797481904E+04  0.34639824479E+03 -0.66809273902E+03  0.16601187816E+04  0.10100000352E+00 0.  1.
       -3    1    3    3    0  502 -0.14797481904E+04 -0.34639824479E+03  0.54889209943E+02  0.15207430047E+04  0.10100000352E+00 0. -1.
</event>
<event>
 5   0  0.2788054E-06  0.3242635E+04  0.7818609E-02  0.8177647E-01
        1   -1    0    0  501    0  0.00000000000E+00  0.00000000000E+00  0.15132005143E+04  0.15132005143E+04  0.50400001928E-02 0. -1.
       -1   -1    0    0    0  501  0.00000000000E+00  0.00000000000E+00 -0.17371597347E+04  0.17371597347E+04  0.50400001928E-02 0.  1.
    10030    2    1    2    0    0  0.00000000000E+00  0.00000000000E+00 -0.22395922045E+03  0.32503602490E+04  0.32426353504E+04 0.  0.
        3    1    3    3  502    0  0.14250546599E+04 -0.13294411427E+03  0.65155418188E+03  0.15725704383E+04  0.10100000352E+00 0. -1.
       -3    1    3    3    0  502 -0.14250546599E+04  0.13294411427E+03 -0.87551340233E+03  0.16777898107E+04  0.10100000352E+00 0.  1.
</event>
<event>
 5   0  0.7510251E-06  0.3202408E+04  0.7818609E-02  0.8188181E-01
        2   -1    0    0  501    0  0.00000000000E+00  0.00000000000E+00  0.21428105625E+04  0.21428105625E+04  0.25500000920E-02 0. -1.
       -2   -1    0    0    0  501  0.00000000000E+00  0.00000000000E+00 -0.11964916368E+04  0.11964916368E+04  0.25500000920E-02 0.  1.
    10030    2    1    2    0    0  0.00000000000E+00  0.00000000000E+00  0.94631892574E+03  0.33393021994E+04  0.32024084170E+04 0.  0.
        3    1    3    3  502    0  0.13357813533E+04 -0.72355236842E+03  0.10007679294E+04  0.18191691269E+04  0.10100000352E+00 0. -1.
       -3    1    3    3    0  502 -0.13357813533E+04  0.72355236842E+03 -0.54449003682E+02  0.15201330724E+04  0.10100000352E+00 0.  1.
</event>
<event>
 5   0  0.8237664E-06  0.3272537E+04  0.7818609E-02  0.8169919E-01
        2   -1    0    0  501    0  0.00000000000E+00  0.00000000000E+00  0.22474150294E+04  0.22474150294E+04  0.25500000920E-02 0.  1.
       -2   -1    0    0    0  501  0.00000000000E+00  0.00000000000E+00 -0.11913126546E+04  0.11913126546E+04  0.25500000920E-02 0. -1.
    10030    2    1    2    0    0  0.00000000000E+00  0.00000000000E+00  0.10561023747E+04  0.34387276840E+04  0.32725366093E+04 0.  0.
        5    1    3    3  502    0  0.86187059270E+03  0.67487524398E+03  0.18059847488E+04  0.21118429195E+04  0.46999998093E+01 0.  1.
       -5    1    3    3    0  502 -0.86187059270E+03 -0.67487524398E+03 -0.74988237408E+03  0.13268847646E+04  0.46999998093E+01 0. -1.
</event>
<event>
 5   0  0.7952307E-06  0.3217288E+04  0.7818609E-02  0.8184266E-01
        2   -1    0    0  501    0  0.00000000000E+00  0.00000000000E+00  0.22536881012E+04  0.22536881012E+04  0.25500000920E-02 0.  1.
       -2   -1    0    0    0  501  0.00000000000E+00  0.00000000000E+00 -0.11482226903E+04  0.11482226903E+04  0.25500000920E-02 0. -1.
    10030    2    1    2    0    0  0.00000000000E+00  0.00000000000E+00  0.11054654110E+04  0.34019107915E+04  0.32172881839E+04 0.  0.
        2    1    3    3  502    0  0.11673160835E+03 -0.34436258902E+03 -0.11042006641E+04  0.11625278353E+04  0.25500000920E-02 0. -1.
       -2    1    3    3    0  502 -0.11673160835E+03  0.34436258902E+03  0.22096660751E+04  0.22393829562E+04  0.25500000920E-02 0.  1.
</event>
<event>
 5   0  0.7952307E-06  0.3180629E+04  0.7818609E-02  0.8193952E-01
       -2   -1    0    0    0  501  0.00000000000E+00  0.00000000000E+00  0.10622230628E+04  0.10622230628E+04  0.25500000920E-02 0. -1.
        2   -1    0    0  501    0  0.00000000000E+00  0.00000000000E+00 -0.23809494662E+04  0.23809494662E+04  0.25500000920E-02 0.  1.
    10030    2    1    2    0    0  0.00000000000E+00  0.00000000000E+00 -0.13187264034E+04  0.34431725290E+04  0.31806285129E+04 0.  0.
        2    1    3    3  502    0 -0.11914177515E+04 -0.97847141317E+03 -0.10817178028E+04  0.18833470126E+04  0.25500000920E-02 0. -1.
       -2    1    3    3    0  502  0.11914177515E+04  0.97847141317E+03 -0.23700860064E+03  0.15598255164E+04  0.25500000920E-02 0.  1.
</event>
<event>
 5   0  0.7510251E-06  0.3223074E+04  0.7818609E-02  0.8182750E-01
       -2   -1    0    0    0  501  0.00000000000E+00  0.00000000000E+00  0.11221646838E+04  0.11221646838E+04  0.25500000920E-02 0.  1.
        2   -1    0    0  501    0  0.00000000000E+00  0.00000000000E+00 -0.23143235300E+04  0.23143235300E+04  0.25500000920E-02 0. -1.
    10030    2    1    2    0    0  0.00000000000E+00  0.00000000000E+00 -0.11921588462E+04  0.34364882137E+04  0.32230743908E+04 0.  0.
        3    1    3    3  502    0  0.43326692886E+03  0.23931960928E+03 -0.22312706339E+04  0.22855114874E+04  0.10100000352E+00 0. -1.
       -3    1    3    3    0  502 -0.43326692886E+03 -0.23931960928E+03  0.10391117877E+04  0.11509767264E+04  0.10100000352E+00 0.  1.
</event>
<event>
 5   0  0.2933646E-06  0.1641354E+04  0.7818609E-02  0.8795538E-01
       -1   -1    0    0    0  501  0.00000000000E+00  0.00000000000E+00  0.94831706696E+03  0.94831706697E+03  0.50400001928E-02 0.  1.
        1   -1    0    0  501    0  0.00000000000E+00  0.00000000000E+00 -0.71021648509E+03  0.71021648511E+03  0.50400001928E-02 0. -1.
    10030    2    1    2    0    0  0.00000000000E+00  0.00000000000E+00  0.23810058187E+03  0.16585335521E+04  0.16413536049E+04 0.  0.
        2    1    3    3  502    0 -0.19930863927E+03  0.18578241549E+03 -0.66317864099E+03  0.71696928069E+03  0.25500000920E-02 0. -1.
       -2    1    3    3    0  502  0.19930863927E+03 -0.18578241549E+03  0.90127922285E+03  0.94156427138E+03  0.25500000920E-02 0.  1.
</event>
<event>
 5   0  0.7971763E-06  0.3186120E+04  0.7818609E-02  0.8192493E-01
       -2   -1    0    0    0  501  0.00000000000E+00  0.00000000000E+00  0.96069605203E+03  0.96069605203E+03  0.25500000920E-02 0. -1.
        2   -1    0    0  501    0  0.00000000000E+00  0.00000000000E+00 -0.26416678149E+04  0.26416678149E+04  0.25500000920E-02 0.  1.
    10030    2    1    2    0    0  0.00000000000E+00  0.00000000000E+00 -0.16809717628E+04  0.36023638669E+04  0.31861197972E+04 0.  0.
        1    1    3    3  502    0 -0.13742065443E+04 -0.18767575256E+03 -0.17265623427E+04  0.22146519676E+04  0.50400001928E-02 0.  1.
       -1    1    3    3    0  502  0.13742065443E+04  0.18767575256E+03  0.45590579871E+02  0.13877118993E+04  0.50400001928E-02 0. -1.
</event>
<event>
 5   0  0.2788054E-06  0.2011587E+04  0.7818609E-02  0.8601222E-01
       -1   -1    0    0    0  501  0.00000000000E+00  0.00000000000E+00  0.77660778032E+03  0.77660778034E+03  0.50400001928E-02 0. -1.
        1   -1    0    0  501    0  0.00000000000E+00  0.00000000000E+00 -0.13026144581E+04  0.13026144581E+04  0.50400001928E-02 0.  1.
    10030    2    1    2    0    0  0.00000000000E+00  0.00000000000E+00 -0.52600667776E+03  0.20792222384E+04  0.20115869585E+04 0.  0.
        3    1    3    3  502    0  0.76636732084E+03  0.98952355355E+02  0.40246844330E+03  0.87125845599E+03  0.10100000352E+00 0. -1.
       -3    1    3    3    0  502 -0.76636732084E+03 -0.98952355355E+02 -0.92847512105E+03  0.12079637824E+04  0.10100000352E+00 0.  1.
</event>
<event>
 5   0  0.2788054E-06  0.3118313E+04  0.7818609E-02  0.8210730E-01
        1   -1    0    0  501    0  0.00000000000E+00  0.00000000000E+00  0.11214943812E+04  0.11214943812E+04  0.50400001928E-02 0.  1.
       -1   -1    0    0    0  501  0.00000000000E+00  0.00000000000E+00 -0.21676160786E+04  0.21676160787E+04  0.50400001928E-02 0. -1.
    10030    2    1    2    0    0  0.00000000000E+00  0.00000000000E+00 -0.10461216974E+04  0.32891104599E+04  0.31183131676E+04 0.  0.
        3    1    3    3  502    0  0.83239587466E+03  0.55582513478E+03 -0.17840078769E+04  0.20456071440E+04  0.10100000352E+00 0. -1.
       -3    1    3    3    0  502 -0.83239587466E+03 -0.55582513478E+03  0.73788617945E+03  0.12435033159E+04  0.10100000352E+00 0.  1.
</event>
<event>
 5   0  0.3938696E-06  0.3243228E+04  0.7818609E-02  0.8177493E-01
        1   -1    0    0  501    0  0.00000000000E+00  0.00000000000E+00  0.23112271431E+04  0.23112271431E+04  0.50400001928E-02 0.  1.
       -1   -1    0    0    0  501  0.00000000000E+00  0.00000000000E+00 -0.11377646435E+04  0.11377646435E+04  0.50400001928E-02 0. -1.
    10030    2    1    2    0    0  0.00000000000E+00  0.00000000000E+00  0.11734624996E+04  0.34489917866E+04  0.32432283463E+04 0.  0.
        4    1    3    3  502    0  0.31792820892E+03  0.46562993594E+03 -0.10301728111E+04  0.11743709877E+04  0.12699999809E+01 0. -1.
       -4    1    3    3    0  502 -0.31792820892E+03 -0.46562993594E+03  0.22036353107E+04  0.22746207989E+04  0.12699999809E+01 0.  1.
</event>
<event>
 5   0  0.7941434E-06  0.3299554E+04  0.7818609E-02  0.8163009E-01
       -2   -1    0    0    0  501  0.00000000000E+00  0.00000000000E+00  0.12707074578E+04  0.12707074578E+04  0.25500000920E-02 0. -1.
        2   -1    0    0  501    0  0.00000000000E+00  0.00000000000E+00 -0.21419284986E+04  0.21419284986E+04  0.25500000920E-02 0.  1.
    10030    2    1    2    0    0  0.00000000000E+00  0.00000000000E+00 -0.87122104073E+03  0.34126359564E+04  0.32995542228E+04 0.  0.
        4    1    3    3  502    0  0.75738374929E+03  0.38988228282E+03  0.10256528987E+04  0.13332680974E+04  0.12699999809E+01 0. -1.
       -4    1    3    3    0  502 -0.75738374929E+03 -0.38988228282E+03 -0.18968739394E+04  0.20793678590E+04  0.12699999809E+01 0.  1.
</event>
<event>
 5   0  0.2788054E-06  0.3153117E+04  0.7818609E-02  0.8201310E-01
        1   -1    0    0  501    0  0.00000000000E+00  0.00000000000E+00  0.17371308162E+04  0.17371308162E+04  0.50400001928E-02 0.  1.
       -1   -1    0    0    0  501  0.00000000000E+00  0.00000000000E+00 -0.14308286106E+04  0.14308286106E+04  0.50400001928E-02 0. -1.
    10030    2    1    2    0    0  0.00000000000E+00  0.00000000000E+00  0.30630220557E+03  0.31679594268E+04  0.31531168530E+04 0.  0.
        3    1    3    3  502    0  0.66784143911E+03 -0.66374827380E+03 -0.11173021358E+04  0.14611427143E+04  0.10100000352E+00 0. -1.
       -3    1    3    3    0  502 -0.66784143911E+03  0.66374827380E+03  0.14236043414E+04  0.17068167124E+04  0.10100000352E+00 0.  1.
</event>
<event>
 5   0  0.8237664E-06  0.3153842E+04  0.7818609E-02  0.8201115E-01
       -2   -1    0    0    0  501  0.00000000000E+00  0.00000000000E+00  0.13760696512E+04  0.13760696512E+04  0.25500000920E-02 0.  1.
        2   -1    0    0  501    0  0.00000000000E+00  0.00000000000E+00 -0.18070883004E+04  0.18070883004E+04  0.25500000920E-02 0. -1.
    10030    2    1    2    0    0  0.00000000000E+00  0.00000000000E+00 -0.43101864917E+03  0.31831579516E+04  0.31538417001E+04 0.  0.
        5    1    3    3  502    0 -0.91145096343E+03  0.12577273974E+04  0.59115880595E+02  0.15543930784E+04  0.46999998093E+01 0.  1.
       -5    1    3    3    0  502  0.91145096343E+03 -0.12577273974E+04 -0.49013452977E+03  0.16287648732E+04  0.46999998093E+01 0. -1.
</event>
<event>
 5   0  0.2788054E-06  0.1770538E+04  0.7818609E-02  0.8722126E-01
       -1   -1    0    0    0  501  0.00000000000E+00  0.00000000000E+00  0.75075968967E+03  0.75075968968E+03  0.50400001928E-02 0. -1.
        1   -1    0    0  501    0  0.00000000000E+00  0.00000000000E+00 -0.10438771236E+04  0.10438771236E+04  0.50400001928E-02 0.  1.
    10030    2    1    2    0    0  0.00000000000E+00  0.00000000000E+00 -0.29311743392E+03  0.17946368133E+04  0.17705376193E+04 0.  0.
        3    1    3    3  502    0  0.40112251767E+03  0.45248035848E+03 -0.80193743547E+03  0.10043611948E+04  0.10100000352E+00 0.  1.
       -3    1    3    3    0  502 -0.40112251767E+03 -0.45248035848E+03  0.50882000156E+03  0.79027561849E+03  0.10100000352E+00 0. -1.
</event>
<event>
 5   0  0.7971763E-06  0.2233457E+04  0.7818609E-02  0.8504630E-01
        2   -1    0    0  501    0  0.00000000000E+00  0.00000000000E+00  0.84537850585E+03  0.84537850585E+03  0.25500000920E-02 0.  1.
       -2   -1    0    0    0  501  0.00000000000E+00  0.00000000000E+00 -0.14751768646E+04  0.14751768646E+04  0.25500000920E-02 0. -1.
    10030    2    1    2    0    0  0.00000000000E+00  0.00000000000E+00 -0.62979835877E+03  0.23205553705E+04  0.22334572426E+04 0.  0.
        1    1    3    3  502    0  0.51032728533E+03 -0.28910229073E+03  0.67245893044E+03  0.89230885114E+03  0.50400001928E-02 0.  1.
       -1    1    3    3    0  502 -0.51032728533E+03  0.28910229073E+03 -0.13022572892E+04  0.14282465193E+04  0.50400001928E-02 0. -1.
</event>
<event>
 5   0  0.2788054E-06  0.3157250E+04  0.7818609E-02  0.8200199E-01
        1   -1    0    0  501    0  0.00000000000E+00  0.00000000000E+00  0.19299608744E+04  0.19299608744E+04  0.50400001928E-02 0.  1.
       -1   -1    0    0    0  501  0.00000000000E+00  0.00000000000E+00 -0.12912472211E+04  0.12912472211E+04  0.50400001928E-02 0. -1.
    10030    2    1    2    0    0  0.00000000000E+00  0.00000000000E+00  0.63871365330E+03  0.32212080955E+04  0.31572498260E+04 0.  0.
        3    1    3    3  502    0 -0.62035345910E+03  0.13623848786E+04 -0.19191911469E+03  0.15092262682E+04  0.10100000352E+00 0. -1.
       -3    1    3    3    0  502  0.62035345910E+03 -0.13623848786E+04  0.83063276799E+03  0.17119818273E+04  0.10100000352E+00 0.  1.
</event>
<event>
 5   0  0.8237664E-06  0.3149382E+04  0.7818609E-02  0.8202315E-01
       -2   -1    0    0    0  501  0.00000000000E+00  0.00000000000E+00  0.15875505830E+04  0.15875505830E+04  0.25500000920E-02 0.  1.
        2   -1    0    0  501    0  0.00000000000E+00  0.00000000000E+00 -0.15619359350E+04  0.15619359350E+04  0.25500000920E-02 0. -1.
    10030    2    1    2    0    0  0.00000000000E+00  0.00000000000E+00  0.25614648035E+02  0.31494865180E+04  0.31493823548E+04 0.  0.
        5    1    3    3  502    0  0.15312229017E+04  0.33957431012E+03 -0.12746822213E+03  0.15736024036E+04  0.46999998093E+01 0. -1.
       -5    1    3    3    0  502 -0.15312229017E+04 -0.33957431012E+03  0.15308287016E+03  0.15758841144E+04  0.46999998093E+01 0.  1.
</event>
<event>
 5   0  0.7510251E-06  0.3499944E+04  0.7818609E-02  0.8113803E-01
        2   -1    0    0  501    0  0.00000000000E+00  0.00000000000E+00  0.14475804824E+04  0.14475804824E+04  0.25500000920E-02 0. -1.
       -2   -1    0    0    0  501  0.00000000000E+00  0.00000000000E+00 -0.21155314846E+04  0.21155314846E+04  0.25500000920E-02 0.  1.
    10030    2    1    2    0    0  0.00000000000E+00  0.00000000000E+00 -0.66795100217E+03  0.35631119670E+04  0.34999440493E+04 0.  0.
        3    1    3    3  502    0 -0.92068477172E+03  0.12093871736E+04  0.54892787197E+03  0.16160444311E+04  0.10100000352E+00 0. -1.
       -3    1    3    3    0  502  0.92068477172E+03 -0.12093871736E+04 -0.12168788741E+04  0.19470675358E+04  0.10100000352E+00 0.  1.
</event>
<event>
 5   0  0.7510251E-06  0.3134298E+04  0.7818609E-02  0.8206388E-01
       -2   -1    0    0    0  501  0.00000000000E+00  0.00000000000E+00  0.11287692760E+04  0.11287692760E+04  0.25500000920E-02 0.  1.
        2   -1    0    0  501    0  0.00000000000E+00  0.00000000000E+00 -0.21757824747E+04  0.21757824747E+04  0.25500000920E-02 0. -1.
    10030    2    1    2    0    0  0.00000000000E+00  0.00000000000E+00 -0.10470131987E+04  0.33045517506E+04  0.31342982683E+04 0.  0.
        3    1    3    3  502    0  0.75002162843E+03 -0.30731580198E+03 -0.19376241664E+04  0.21003244667E+04  0.10100000352E+00 0. -1.
       -3    1    3    3    0  502 -0.75002162843E+03  0.30731580198E+03  0.89061096771E+03  0.12042272839E+04  0.10100000352E+00 0.  1.
</event>
<event>
 5   0  0.2635798E-06  0.3212634E+04  0.7818609E-02  0.8185488E-01
        1   -1    0    0  501    0  0.00000000000E+00  0.00000000000E+00  0.18463618354E+04  0.18463618355E+04  0.50400001928E-02 0.  1.
       -1   -1    0    0    0  501  0.00000000000E+00  0.00000000000E+00 -0.13974806250E+04  0.13974806251E+04  0.50400001928E-02 0. -1.
    10030    2    1    2    0    0  0.00000000000E+00  0.00000000000E+00  0.44888121041E+03  0.32438424605E+04  0.32126343657E+04 0.  0.
        1    1    3    3  502    0  0.13609353505E+04 -0.60938317153E+03 -0.37865721250E+03  0.15384648720E+04  0.50400001928E-02 0. -1.
       -1    1    3    3    0  502 -0.13609353505E+04  0.60938317153E+03  0.82753842291E+03  0.17053775885E+04  0.50400001928E-02 0.  1.
</event>
<event>
 5   0  0.2635798E-06  0.3046026E+04  0.7818609E-02  0.8230709E-01
       -1   -1    0    0    0  501  0.00000000000E+00  0.00000000000E+00  0.13916122307E+04  0.13916122307E+04  0.50400001928E-02 0. -1.
        1   -1    0    0  501    0  0.00000000000E+00  0.00000000000E+00 -0.16668210765E+04  0.16668210765E+04  0.50400001928E-02 0.  1.
    10030    2    1    2    0    0  0.00000000000E+00  0.00000000000E+00 -0.27520884583E+03  0.30584333072E+04  0.30460259989E+04 0.  0.
        1    1    3    3  502    0  0.17162380979E+03  0.92494857809E+03  0.10650155133E+04  0.14210005798E+04  0.50400001928E-02 0. -1.
       -1    1    3    3    0  502 -0.17162380979E+03 -0.92494857809E+03 -0.13402243591E+04  0.16374327275E+04  0.50400001928E-02 0.  1.
</event>
<event>
 5   0  0.2635798E-06  0.3188407E+04  0.7818609E-02  0.8191886E-01
        1   -1    0    0  501    0  0.00000000000E+00  0.00000000000E+00  0.19947051234E+04  0.19947051234E+04  0.50400001928E-02 0.  1.
       -1   -1    0    0    0  501  0.00000000000E+00  0.00000000000E+00 -0.12741151797E+04  0.12741151797E+04  0.50400001928E-02 0. -1.
    10030    2    1    2    0    0  0.00000000000E+00  0.00000000000E+00  0.72058994373E+03  0.32688203032E+04  0.31884065467E+04 0.  0.
        1    1    3    3  502    0 -0.41183239661E+01  0.72542288609E+03  0.18156854526E+04  0.19552414140E+04  0.50400001928E-02 0.  1.
       -1    1    3    3    0  502  0.41183239661E+01 -0.72542288609E+03 -0.10950955089E+04  0.13135788891E+04  0.50400001928E-02 0. -1.
</event>
<event>
 5   0  0.4142886E-06  0.3042836E+04  0.7818609E-02  0.8231603E-01
       -1   -1    0    0    0  501  0.00000000000E+00  0.00000000000E+00  0.11471992795E+04  0.11471992796E+04  0.50400001928E-02 0.  1.
        1   -1    0    0  501    0  0.00000000000E+00  0.00000000000E+00 -0.20177077546E+04  0.20177077546E+04  0.50400001928E-02 0. -1.
    10030    2    1    2    0    0  0.00000000000E+00  0.00000000000E+00 -0.87050847501E+03  0.31649070341E+04  0.30428360997E+04 0.  0.
        5    1    3    3  502    0 -0.12150620380E+04 -0.25376371764E+03 -0.13502733286E+04  0.18341297480E+04  0.46999998093E+01 0. -1.
       -5    1    3    3    0  502  0.12150620380E+04  0.25376371764E+03  0.47976485359E+03  0.13307772861E+04  0.46999998093E+01 0.  1.
</event>
<event>
 5   0  0.3938696E-06  0.3781666E+04  0.7818609E-02  0.8050101E-01
        1   -1    0    0  501    0  0.00000000000E+00  0.00000000000E+00  0.17089153628E+04  0.17089153628E+04  0.50400001928E-02 0. -1.
       -1   -1    0    0    0  501  0.00000000000E+00  0.00000000000E+00 -0.20921163039E+04  0.20921163039E+04  0.50400001928E-02 0.  1.
    10030    2    1    2    0    0  0.00000000000E+00  0.00000000000E+00 -0.38320094105E+03  0.38010316667E+04  0.37816661367E+04 0.  0.
        4    1    3    3  502    0  0.68221804634E+03 -0.27609561022E+03  0.15590413770E+04  0.17240249061E+04  0.12699999809E+01 0. -1.
       -4    1    3    3    0  502 -0.68221804634E+03  0.27609561022E+03 -0.19422423180E+04  0.20770067606E+04  0.12699999809E+01 0.  1.
</event>
<event>
 5   0  0.2933646E-06  0.3141787E+04  0.7818609E-02  0.8204363E-01
        1   -1    0    0  501    0  0.00000000000E+00  0.00000000000E+00  0.23624578610E+04  0.23624578610E+04  0.50400001928E-02 0. -1.
       -1   -1    0    0    0  501  0.00000000000E+00  0.00000000000E+00 -0.10445501200E+04  0.10445501200E+04  0.50400001928E-02 0.  1.
    10030    2    1    2    0    0  0.00000000000E+00  0.00000000000E+00  0.13179077410E+04  0.34070079809E+04  0.31417865250E+04 0.  0.
        2    1    3    3  502    0  0.59971751850E+03 -0.14513026344E+04  0.61339280702E+03  0.16858799407E+04  0.25500000920E-02 0.  1.
       -2    1    3    3    0  502 -0.59971751850E+03  0.14513026344E+04  0.70451493396E+03  0.17211280402E+04  0.25500000920E-02 0. -1.
</event>
<event>
 5   0  0.7952307E-06  0.3126734E+04  0.7818609E-02  0.8208439E-01
        2   -1    0    0  501    0  0.00000000000E+00  0.00000000000E+00  0.25140626073E+04  0.25140626073E+04  0.25500000920E-02 0.  1.
       -2   -1    0    0    0  501  0.00000000000E+00  0.00000000000E+00 -0.97217772910E+03  0.97217772910E+03  0.25500000920E-02 0. -1.
    10030    2    1    2    0    0  0.00000000000E+00  0.00000000000E+00  0.15418848782E+04  0.34862403364E+04  0.31267335520E+04 0.  0.
        2    1    3    3  502    0 -0.13796486339E+03 -0.62246666545E+03  0.23625195582E+04  0.24470385604E+04  0.25500000920E-02 0.  1.
       -2    1    3    3    0  502  0.13796486339E+03  0.62246666545E+03 -0.82063468004E+03  0.10392017760E+04  0.25500000920E-02 0. -1.
</event>
<event>
 5   0  0.4142886E-06  0.3151251E+04  0.7818609E-02  0.8201812E-01
        1   -1    0    0  501    0  0.00000000000E+00  0.00000000000E+00  0.16316355149E+04  0.16316355149E+04  0.50400001928E-02 0.  1.
       -1   -1    0    0    0  501  0.00000000000E+00  0.00000000000E+00 -0.15215377517E+04  0.15215377517E+04  0.50400001928E-02 0. -1.
    10030    2    1    2    0    0  0.00000000000E+00  0.00000000000E+00  0.11009776316E+03  0.31531732666E+04  0.31512505663E+04 0.  0.
        5    1    3    3  502    0  0.19131840747E+03  0.13431257138E+04 -0.74667873051E+03  0.15485931140E+04  0.46999998093E+01 0. -1.
       -5    1    3    3    0  502 -0.19131840747E+03 -0.13431257138E+04  0.85677649367E+03  0.16045801526E+04  0.46999998093E+01 0.  1.
</event>
<event>
 5   0  0.2788054E-06  0.4123439E+04  0.7818609E-02  0.7980098E-01
        1   -1    0    0  501    0  0.00000000000E+00  0.00000000000E+00  0.15589270459E+04  0.15589270459E+04  0.50400001928E-02 0.  1.
       -1   -1    0    0    0  501  0.00000000000E+00  0.00000000000E+00 -0.27266744207E+04  0.27266744207E+04  0.50400001928E-02 0. -1.
    10030    2    1    2    0    0  0.00000000000E+00  0.00000000000E+00 -0.11677473748E+04  0.42856014666E+04  0.41234386134E+04 0.  0.
        3    1    3    3  502    0  0.53262930247E+03  0.16134191035E+04 -0.17976508047E+04  0.24735326162E+04  0.10100000352E+00 0. -1.
       -3    1    3    3    0  502 -0.53262930247E+03 -0.16134191035E+04  0.62990342987E+03  0.18120688504E+04  0.10100000352E+00 0.  1.
</event>
<event>
 5   0  0.7952307E-06  0.3192779E+04  0.7818609E-02  0.8190727E-01
       -2   -1    0    0    0  501  0.00000000000E+00  0.00000000000E+00  0.12202250338E+04  0.12202250338E+04  0.25500000920E-02 0.  1.
        2   -1    0    0  501    0  0.00000000000E+00  0.00000000000E+00 -0.20885155088E+04  0.20885155088E+04  0.25500000920E-02 0. -1.
    10030    2    1    2    0    0  0.00000000000E+00  0.00000000000E+00 -0.86829047498E+03  0.33087405425E+04  0.31927786690E+04 0.  0.
        2    1    3    3  502    0 -0.38577764638E+03 -0.41583051452E+03  0.11122719063E+04  0.12485544453E+04  0.25500000920E-02 0.  1.
       -2    1    3    3    0  502  0.38577764638E+03  0.41583051452E+03 -0.19805623813E+04  0.20601860973E+04  0.25500000920E-02 0. -1.
</event>
<event>
 5   0  0.2933646E-06  0.2810301E+04  0.7818609E-02  0.8300078E-01
        1   -1    0    0  501    0  0.00000000000E+00  0.00000000000E+00  0.12905698171E+04  0.12905698171E+04  0.50400001928E-02 0.  1.
       -1   -1    0    0    0  501  0.00000000000E+00  0.00000000000E+00 -0.15299034699E+04  0.15299034699E+04  0.50400001928E-02 0. -1.
    10030    2    1    2    0    0  0.00000000000E+00  0.00000000000E+00 -0.23933365273E+03  0.28204732870E+04  0.28103005116E+04 0.  0.
        2    1    3    3  502    0 -0.84448240580E+03  0.31068553374E+03  0.96348551177E+03  0.13183248333E+04  0.25500000920E-02 0.  1.
       -2    1    3    3    0  502  0.84448240580E+03 -0.31068553374E+03 -0.12028191645E+04  0.15021484537E+04  0.25500000920E-02 0. -1.
</event>
<event>
 5   0  0.4142886E-06  0.3124318E+04  0.7818609E-02  0.8209096E-01
       -1   -1    0    0    0  501  0.00000000000E+00  0.00000000000E+00  0.94439958484E+03  0.94439958485E+03  0.50400001928E-02 0. -1.
        1   -1    0    0  501    0  0.00000000000E+00  0.00000000000E+00 -0.25840124280E+04  0.25840124280E+04  0.50400001928E-02 0.  1.
    10030    2    1    2    0    0  0.00000000000E+00  0.00000000000E+00 -0.16396128431E+04  0.35284120128E+04  0.31243176946E+04 0.  0.
        5    1    3    3  502    0  0.17141498763E+03 -0.14658334392E+04 -0.13981637767E+04  0.20329620768E+04  0.46999998093E+01 0.  1.
       -5    1    3    3    0  502 -0.17141498763E+03  0.14658334392E+04 -0.24144906642E+03  0.14954499360E+04  0.46999998093E+01 0. -1.
</event>
<event>
 5   0  0.7971763E-06  0.3048466E+04  0.7818609E-02  0.8230025E-01
       -2   -1    0    0    0  501  0.00000000000E+00  0.00000000000E+00  0.13736931123E+04  0.13736931123E+04  0.25500000920E-02 0. -1.
        2   -1    0    0  501    0  0.00000000000E+00  0.00000000000E+00 -0.16912706344E+04  0.16912706344E+04  0.25500000920E-02 0.  1.
    10030    2    1    2    0    0  0.00000000000E+00  0.00000000000E+00 -0.31757752212E+03  0.30649637468E+04  0.30484663827E+04 0.  0.
        1    1    3    3  502    0  0.40053771146E+03 -0.48782737715E+03 -0.15536976879E+04  0.16770159551E+04  0.50400001928E-02 0.  1.
       -1    1    3    3    0  502 -0.40053771146E+03  0.48782737715E+03  0.12361201658E+04  0.13879477917E+04  0.50400001928E-02 0. -1.
</event>
<event>
 5   0  0.7952307E-06  0.1977302E+04  0.7818609E-02  0.8617307E-01
       -2   -1    0    0    0  501  0.00000000000E+00  0.00000000000E+00  0.11868314864E+04  0.11868314864E+04  0.25500000920E-02 0. -1.
        2   -1    0    0  501    0  0.00000000000E+00  0.00000000000E+00 -0.82356289304E+03  0.82356289304E+03  0.25500000920E-02 0.  1.
    10030    2    1    2    0    0  0.00000000000E+00  0.00000000000E+00  0.36326859336E+03  0.20103943794E+04  0.19773015678E+04 0.  0.
        2    1    3    3  502    0  0.97040209184E+02  0.93922561351E+03  0.47957242909E+03  0.10590331770E+04  0.25500000920E-02 0. -1.
       -2    1    3    3    0  502 -0.97040209184E+02 -0.93922561351E+03 -0.11630383573E+03  0.95136120242E+03  0.25500000920E-02 0.  1.
</event>
<event>
 5   0  0.7941434E-06  0.3145607E+04  0.7818609E-02  0.8203332E-01
        2   -1    0    0  501    0  0.00000000000E+00  0.00000000000E+00  0.24550788132E+04  0.24550788132E+04  0.25500000920E-02 0.  1.
       -2   -1    0    0    0  501  0.00000000000E+00  0.00000000000E+00 -0.10075891852E+04  0.10075891852E+04  0.25500000920E-02 0. -1.
    10030    2    1    2    0    0  0.00000000000E+00  0.00000000000E+00  0.14474896280E+04  0.34626679983E+04  0.31456070072E+04 0.  0.
        4    1    3    3  502    0  0.84252081839E+03  0.84685869157E+03 -0.40245938929E+03  0.12605499379E+04  0.12699999809E+01 0. -1.
       -4    1    3    3    0  502 -0.84252081839E+03 -0.84685869157E+03  0.18499490173E+04  0.22021180605E+04  0.12699999809E+01 0.  1.
</event>
<event>
 5   0  0.8237664E-06  0.3258900E+04  0.7818609E-02  0.8173433E-01
       -2   -1    0    0    0  501  0.00000000000E+00  0.00000000000E+00  0.10487264909E+04  0.10487264909E+04  0.25500000920E-02 0.  1.
        2   -1    0    0  501    0  0.00000000000E+00  0.00000000000E+00 -0.25317442264E+04  0.25317442264E+04  0.25500000920E-02 0. -1.
    10030    2    1    2    0    0  0.00000000000E+00  0.00000000000E+00 -0.14830177355E+04  0.35804707174E+04  0.32588999608E+04 0.  0.
        5    1    3    3  502    0 -0.29424989967E+03 -0.14495106845E+04 -0.14926528123E+04  0.21013564038E+04  0.46999998093E+01 0. -1.
       -5    1    3    3    0  502  0.29424989967E+03  0.14495106845E+04  0.96350768273E+01  0.14791143135E+04  0.46999998093E+01 0.  1.
</event>
<event>
 5   0  0.7941434E-06  0.3494242E+04  0.7818609E-02  0.8115156E-01
       -2   -1    0    0    0  501  0.00000000000E+00  0.00000000000E+00  0.13207318837E+04  0.13207318837E+04  0.25500000920E-02 0. -1.
        2   -1    0    0  501    0  0.00000000000E+00  0.00000000000E+00 -0.23111673685E+04  0.23111673685E+04  0.25500000920E-02 0.  1.
    10030    2    1    2    0    0  0.00000000000E+00  0.00000000000E+00 -0.99043548476E+03  0.36318992522E+04  0.34942423683E+04 0.  0.
        4    1    3    3  502    0  0.28947089154E+03 -0.14370567324E+04  0.49275767016E+03  0.15465242267E+04  0.12699999809E+01 0. -1.
       -4    1    3    3    0  502 -0.28947089154E+03  0.14370567324E+04 -0.14831931549E+04  0.20853750255E+04  0.12699999809E+01 0.  1.
</event>
<event>
 5   0  0.7971763E-06  0.2976519E+04  0.7818609E-02  0.8250468E-01
       -2   -1    0    0    0  501  0.00000000000E+00  0.00000000000E+00  0.11448526534E+04  0.11448526534E+04  0.25500000920E-02 0.  1.
        2   -1    0    0  501    0  0.00000000000E+00  0.00000000000E+00 -0.19346731630E+04  0.19346731630E+04  0.25500000920E-02 0. -1.
    10030    2    1    2    0    0  0.00000000000E+00  0.00000000000E+00 -0.78982050966E+03  0.30795258164E+04  0.29765185732E+04 0.  0.
        1    1    3    3  502    0  0.19425552655E+03 -0.14356737404E+04 -0.74731708212E+03  0.16301463492E+04  0.50400001928E-02 0. -1.
       -1    1    3    3    0  502 -0.19425552655E+03  0.14356737404E+04 -0.42503427538E+02  0.14493794672E+04  0.50400001928E-02 0.  1.
</event>
<event>
 5   0  0.3938696E-06  0.2778179E+04  0.7818609E-02  0.8310075E-01
        1   -1    0    0  501    0  0.00000000000E+00  0.00000000000E+00  0.18405820138E+04  0.18405820138E+04  0.50400001928E-02 0.  1.
       -1   -1    0    0    0  501  0.00000000000E+00  0.00000000000E+00 -0.10483472170E+04  0.10483472170E+04  0.50400001928E-02 0. -1.
    10030    2    1    2    0    0  0.00000000000E+00  0.00000000000E+00  0.79223479677E+03  0.28889292308E+04  0.27781785630E+04 0.  0.
        4    1    3    3  502    0  0.32037975094E+03  0.73009065900E+03 -0.78672188181E+03  0.11200930709E+04  0.12699999809E+01 0. -1.
       -4    1    3    3    0  502 -0.32037975094E+03 -0.73009065900E+03  0.15789566786E+04  0.17688361600E+04  0.12699999809E+01 0.  1.
</event>
<event>
 5   0  0.7952307E-06  0.3084399E+04  0.7818609E-02  0.8220033E-01
        2   -1    0    0  501    0  0.00000000000E+00  0.00000000000E+00  0.14108178766E+04  0.14108178766E+04  0.25500000920E-02 0.  1.
       -2   -1    0    0    0  501  0.00000000000E+00  0.00000000000E+00 -0.16858160912E+04  0.16858160912E+04  0.25500000920E-02 0. -1.
    10030    2    1    2    0    0  0.00000000000E+00  0.00000000000E+00 -0.27499821459E+03  0.30966339678E+04  0.30843991169E+04 0.  0.
        2    1    3    3  502    0 -0.13233148382E+04  0.31039704177E+03  0.59400000164E+03  0.14833558193E+04  0.25500000920E-02 0.  1.
       -2    1    3    3    0  502  0.13233148382E+04 -0.31039704177E+03 -0.86899821623E+03  0.16132781485E+04  0.25500000920E-02 0. -1.
</event>
<event>
 5   0  0.7510251E-06  0.1686603E+04  0.7818609E-02  0.8769042E-01
        2   -1    0    0  501    0  0.00000000000E+00  0.00000000000E+00  0.77401265636E+03  0.77401265636E+03  0.25500000920E-02 0.  1.
       -2   -1    0    0    0  501  0.00000000000E+00  0.00000000000E+00 -0.91879310505E+03  0.91879310505E+03  0.25500000920E-02 0. -1.
    10030    2    1    2    0    0  0.00000000000E+00  0.00000000000E+00 -0.14478044869E+03  0.16928057614E+04  0.16866030854E+04 0.  0.
        3    1    3    3  502    0  0.39263217405E+03 -0.36847687008E+03  0.57901298178E+03  0.79069037629E+03  0.10100000352E+00 0. -1.
       -3    1    3    3    0  502 -0.39263217405E+03  0.36847687008E+03 -0.72379343047E+03  0.90211538512E+03  0.10100000352E+00 0.  1.
</event>
<event>
 5   0  0.2580875E-06  0.3168729E+04  0.7818609E-02  0.8197125E-01
       -4   -1    0    0    0  501  0.00000000000E+00  0.00000000000E+00  0.10768491525E+04  0.10768499014E+04  0.12699999809E+01 0. -1.
        4   -1    0    0  501    0  0.00000000000E+00  0.00000000000E+00 -0.23310688194E+04  0.23310691654E+04  0.12699999809E+01 0.  1.
    10030    2    1    2    0    0  0.00000000000E+00  0.00000000000E+00 -0.12542196669E+04  0.34079190668E+04  0.31687293025E+04 0.  0.
        5    1    3    3  502    0  0.59266178286E+03  0.79369359555E+03  0.70275255330E+03  0.12145290255E+04  0.46999998093E+01 0. -1.
       -5    1    3    3    0  502 -0.59266178286E+03 -0.79369359555E+03 -0.19569722202E+04  0.21933900413E+04  0.46999998093E+01 0.  1.
</event>
<event>
 5   0  0.7971763E-06  0.3198167E+04  0.7818609E-02  0.8189301E-01
       -2   -1    0    0    0  501  0.00000000000E+00  0.00000000000E+00  0.15082093664E+04  0.15082093664E+04  0.25500000920E-02 0. -1.
        2   -1    0    0  501    0  0.00000000000E+00  0.00000000000E+00 -0.16954329784E+04  0.16954329784E+04  0.25500000920E-02 0.  1.
    10030    2    1    2    0    0  0.00000000000E+00  0.00000000000E+00 -0.18722361196E+03  0.32036423448E+04  0.31981669112E+04 0.  0.
        1    1    3    3  502    0 -0.13718176362E+04  0.91944941237E+02 -0.91154536660E+03  0.16496219126E+04  0.50400001928E-02 0.  1.
       -1    1    3    3    0  502  0.13718176362E+04 -0.91944941237E+02  0.72432175464E+03  0.15540204321E+04  0.50400001928E-02 0. -1.
</event>
<event>
 5   0  0.2635798E-06  0.3221523E+04  0.7818609E-02  0.8183156E-01
       -1   -1    0    0    0  501  0.00000000000E+00  0.00000000000E+00  0.18090306169E+04  0.18090306169E+04  0.50400001928E-02 0.  1.
        1   -1    0    0  501    0  0.00000000000E+00  0.00000000000E+00 -0.14342223124E+04  0.14342223124E+04  0.50400001928E-02 0. -1.
    10030    2    1    2    0    0  0.00000000000E+00  0.00000000000E+00  0.37480830448E+03  0.32432529293E+04  0.32215226677E+04 0.  0.
        1    1    3    3  502    0 -0.31345004212E+02 -0.14022665909E+04 -0.60990890228E+03  0.15294845440E+04  0.50400001928E-02 0. -1.
       -1    1    3    3    0  502  0.31345004212E+02  0.14022665909E+04  0.98471720676E+03  0.17137683853E+04  0.50400001928E-02 0.  1.
</event>
<event>
 5   0  0.7952307E-06  0.3221377E+04  0.7818609E-02  0.8183194E-01
       -2   -1    0    0    0  501  0.00000000000E+00  0.00000000000E+00  0.95841448858E+03  0.95841448858E+03  0.25500000920E-02 0. -1.
        2   -1    0    0  501    0  0.00000000000E+00  0.00000000000E+00 -0.27068838136E+04  0.27068838136E+04  0.25500000920E-02 0.  1.
    10030    2    1    2    0    0  0.00000000000E+00  0.00000000000E+00 -0.17484693250E+04  0.36652983022E+04  0.32213765169E+04 0.  0.
        2    1    3    3  502    0  0.16146393809E+03  0.15966614033E+04 -0.10307332181E+04  0.19073041727E+04  0.25500000920E-02 0.  1.
       -2    1    3    3    0  502 -0.16146393809E+03 -0.15966614033E+04 -0.71773610689E+03  0.17579941295E+04  0.25500000920E-02 0. -1.
</event>
<event>
 5   0  0.4142886E-06  0.2131606E+04  0.7818609E-02  0.8547447E-01
        1   -1    0    0  501    0  0.00000000000E+00  0.00000000000E+00  0.14950329695E+04  0.14950329695E+04  0.50400001928E-02 0.  1.
       -1   -1    0    0    0  501  0.00000000000E+00  0.00000000000E+00 -0.75980673954E+03  0.75980673956E+03  0.50400001928E-02 0. -1.
    10030    2    1    2    0    0  0.00000000000E+00  0.00000000000E+00  0.73522622992E+03  0.22548397090E+04  0.21316060856E+04 0.  0.
        5    1    3    3  502    0  0.37572977267E+03  0.99162328243E+03  0.25454863791E+03  0.10905533895E+04  0.46999998093E+01 0. -1.
       -5    1    3    3    0  502 -0.37572977267E+03 -0.99162328243E+03  0.48067759200E+03  0.11642863195E+04  0.46999998093E+01 0.  1.
</event>
<event>
 5   0  0.8237664E-06  0.2725704E+04  0.7818609E-02  0.8326713E-01
        2   -1    0    0  501    0  0.00000000000E+00  0.00000000000E+00  0.13309595939E+04  0.13309595939E+04  0.25500000920E-02 0.  1.
       -2   -1    0    0    0  501  0.00000000000E+00  0.00000000000E+00 -0.13955085806E+04  0.13955085807E+04  0.25500000920E-02 0. -1.
    10030    2    1    2    0    0  0.00000000000E+00  0.00000000000E+00 -0.64548986780E+02  0.27264681745E+04  0.27257039705E+04 0.  0.
        5    1    3    3  502    0  0.76392129539E+02  0.64246977341E+03 -0.12320857899E+04  0.13916395549E+04  0.46999998093E+01 0. -1.
       -5    1    3    3    0  502 -0.76392129539E+02 -0.64246977341E+03  0.11675368031E+04  0.13348286196E+04  0.46999998093E+01 0.  1.
</event>
<event>
 5   0  0.3938696E-06  0.3205228E+04  0.7818609E-02  0.8187438E-01
        1   -1    0    0  501    0  0.00000000000E+00  0.00000000000E+00  0.19335916336E+04  0.19335916336E+04  0.50400001928E-02 0.  1.
       -1   -1    0    0    0  501  0.00000000000E+00  0.00000000000E+00 -0.13282905138E+04  0.13282905138E+04  0.50400001928E-02 0. -1.
    10030    2    1    2    0    0  0.00000000000E+00  0.00000000000E+00  0.60530111974E+03  0.32618821474E+04  0.32052278699E+04 0.  0.
        4    1    3    3  502    0  0.12029625494E+04  0.66309572548E+03  0.11428063053E+04  0.17868471397E+04  0.12699999809E+01 0.  1.
       -4    1    3    3    0  502 -0.12029625494E+04 -0.66309572548E+03 -0.53750518552E+03  0.14750350077E+04  0.12699999809E+01 0. -1.
</event>
<event>
 5   0  0.7941434E-06  0.1918439E+04  0.7818609E-02  0.8645732E-01
       -2   -1    0    0    0  501  0.00000000000E+00  0.00000000000E+00  0.68875423609E+03  0.68875423610E+03  0.25500000920E-02 0. -1.
        2   -1    0    0  501    0  0.00000000000E+00  0.00000000000E+00 -0.13358927376E+04  0.13358927376E+04  0.25500000920E-02 0.  1.
    10030    2    1    2    0    0  0.00000000000E+00  0.00000000000E+00 -0.64713850147E+03  0.20246469737E+04  0.19184387214E+04 0.  0.
        4    1    3    3  502    0  0.54372590474E+03 -0.43247838663E+03 -0.10215654464E+04  0.12354242140E+04  0.12699999809E+01 0.  1.
       -4    1    3    3    0  502 -0.54372590474E+03  0.43247838663E+03  0.37442694491E+03  0.78922275966E+03  0.12699999809E+01 0. -1.
</event>
<event>
 5   0  0.2635798E-06  0.3222831E+04  0.7818609E-02  0.8182813E-01
       -1   -1    0    0    0  501  0.00000000000E+00  0.00000000000E+00  0.12327900499E+04  0.12327900499E+04  0.50400001928E-02 0.  1.
        1   -1    0    0  501    0  0.00000000000E+00  0.00000000000E+00 -0.21063281477E+04  0.21063281477E+04  0.50400001928E-02 0. -1.
    10030    2    1    2    0    0  0.00000000000E+00  0.00000000000E+00 -0.87353809787E+03  0.33391181976E+04  0.32228312908E+04 0.  0.
        1    1    3    3  502    0  0.46740791281E+02  0.15351346683E+04 -0.94205141361E+03  0.18017447148E+04  0.50400001928E-02 0. -1.
       -1    1    3    3    0  502 -0.46740791281E+02 -0.15351346683E+04  0.68513315745E+02  0.15373734828E+04  0.50400001928E-02 0.  1.
</event>
<event>
 5   0  0.7971763E-06  0.3194699E+04  0.7818609E-02  0.8190219E-01
       -2   -1    0    0    0  501  0.00000000000E+00  0.00000000000E+00  0.18052831447E+04  0.18052831447E+04  0.25500000920E-02 0.  1.
        2   -1    0    0  501    0  0.00000000000E+00  0.00000000000E+00 -0.14133653980E+04  0.14133653980E+04  0.25500000920E-02 0. -1.
    10030    2    1    2    0    0  0.00000000000E+00  0.00000000000E+00  0.39191774674E+03  0.32186485427E+04  0.31946985650E+04 0.  0.
        1    1    3    3  502    0  0.10072822617E+04 -0.71829570280E+03 -0.82204095799E+03  0.14853678360E+04  0.50400001928E-02 0.  1.
       -1    1    3    3    0  502 -0.10072822617E+04  0.71829570280E+03  0.12139587047E+04  0.17332807067E+04  0.50400001928E-02 0. -1.
</event>
<event>
 5   0  0.3938696E-06  0.3059104E+04  0.7818609E-02  0.8227052E-01
       -1   -1    0    0    0  501  0.00000000000E+00  0.00000000000E+00  0.21955898696E+04  0.21955898697E+04  0.50400001928E-02 0.  1.
        1   -1    0    0  501    0  0.00000000000E+00  0.00000000000E+00 -0.10655581188E+04  0.10655581189E+04  0.50400001928E-02 0. -1.
    10030    2    1    2    0    0  0.00000000000E+00  0.00000000000E+00  0.11300317508E+04  0.32611479885E+04  0.30591035362E+04 0.  0.
        4    1    3    3  502    0 -0.19951982439E+02 -0.10181249861E+04 -0.65165637920E+03  0.12089806526E+04  0.12699999809E+01 0.  1.
       -4    1    3    3    0  502  0.19951982439E+02  0.10181249861E+04  0.17816881300E+04  0.20521673359E+04  0.12699999809E+01 0. -1.
</event>
<event>
 5   0  0.7510251E-06  0.3167752E+04  0.7818609E-02  0.8197386E-01
        2   -1    0    0  501    0  0.00000000000E+00  0.00000000000E+00  0.20520101104E+04  0.20520101104E+04  0.25500000920E-02 0.  1.
       -2   -1    0    0    0  501  0.00000000000E+00  0.00000000000E+00 -0.12225394420E+04  0.12225394420E+04  0.25500000920E-02 0. -1.
    10030    2    1    2    0    0  0.00000000000E+00  0.00000000000E+00  0.82947066845E+03  0.32745495524E+04  0.31677520706E+04 0.  0.
        3    1    3    3  502    0  0.68065102029E+03 -0.59446971721E+03  0.17593517540E+04  0.19778773118E+04  0.10100000352E+00 0.  1.
       -3    1    3    3    0  502 -0.68065102029E+03  0.59446971721E+03 -0.92988108551E+03  0.12966722406E+04  0.10100000352E+00 0. -1.
</event>
<event>
 5   0  0.2788054E-06  0.3182550E+04  0.7818609E-02  0.8193441E-01
        1   -1    0    0  501    0  0.00000000000E+00  0.00000000000E+00  0.17160074825E+04  0.17160074825E+04  0.50400001928E-02 0. -1.
       -1   -1    0    0    0  501  0.00000000000E+00  0.00000000000E+00 -0.14756091742E+04  0.14756091742E+04  0.50400001928E-02 0.  1.
    10030    2    1    2    0    0  0.00000000000E+00  0.00000000000E+00  0.24039830823E+03  0.31916166567E+04  0.31825501625E+04 0.  0.
        3    1    3    3  502    0  0.13257878375E+03 -0.58269695377E+02  0.17093851268E+04  0.17155086747E+04  0.10100000352E+00 0. -1.
       -3    1    3    3    0  502 -0.13257878375E+03  0.58269695377E+02 -0.14689868185E+04  0.14761079820E+04  0.10100000352E+00 0.  1.
</event>
<event>
 5   0  0.7971763E-06  0.3138085E+04  0.7818609E-02  0.8205363E-01
        2   -1    0    0  501    0  0.00000000000E+00  0.00000000000E+00  0.14053206170E+04  0.14053206170E+04  0.25500000920E-02 0.  1.
       -2   -1    0    0    0  501  0.00000000000E+00  0.00000000000E+00 -0.17518384147E+04  0.17518384147E+04  0.25500000920E-02 0. -1.
    10030    2    1    2    0    0  0.00000000000E+00  0.00000000000E+00 -0.34651779769E+03  0.31571590317E+04  0.31380851753E+04 0.  0.
        1    1    3    3  502    0  0.74998660849E+03  0.96181442369E+03 -0.11663389682E+04  0.16875762167E+04  0.50400001928E-02 0. -1.
       -1    1    3    3    0  502 -0.74998660849E+03 -0.96181442369E+03  0.81982117047E+03  0.14695828150E+04  0.50400001928E-02 0.  1.
</event>
<event>
 5   0  0.3938696E-06  0.3087510E+04  0.7818609E-02  0.8219174E-01
       -1   -1    0    0    0  501  0.00000000000E+00  0.00000000000E+00  0.21041594328E+04  0.21041594328E+04  0.50400001928E-02 0. -1.
        1   -1    0    0  501    0  0.00000000000E+00  0.00000000000E+00 -0.11326040456E+04  0.11326040456E+04  0.50400001928E-02 0.  1.
    10030    2    1    2    0    0  0.00000000000E+00  0.00000000000E+00  0.97155538715E+03  0.32367634784E+04  0.30875099910E+04 0.  0.
        4    1    3    3  502    0 -0.43485909539E+02  0.15242651795E+04  0.73803937948E+03  0.16941012663E+04  0.12699999809E+01 0.  1.
       -4    1    3    3    0  502  0.43485909539E+02 -0.15242651795E+04  0.23351600767E+03  0.15426622121E+04  0.12699999809E+01 0. -1.
</event>
<event>
 5   0  0.7510251E-06  0.1757517E+04  0.7818609E-02  0.8729224E-01
        2   -1    0    0  501    0  0.00000000000E+00  0.00000000000E+00  0.18288101771E+04  0.18288101771E+04  0.25500000920E-02 0. -1.
       -2   -1    0    0    0  501  0.00000000000E+00  0.00000000000E+00 -0.42225056876E+03  0.42225056876E+03  0.25500000920E-02 0.  1.
    10030    2    1    2    0    0  0.00000000000E+00  0.00000000000E+00  0.14065596083E+04  0.22510607458E+04  0.17575165859E+04 0.  0.
        3    1    3    3  502    0  0.55741457518E+02 -0.65553817541E+03  0.14494365759E+04  0.15917612281E+04  0.10100000352E+00 0. -1.
       -3    1    3    3    0  502 -0.55741457518E+02  0.65553817541E+03 -0.42876967612E+02  0.65929951772E+03  0.10100000352E+00 0.  1.
</event>
<event>
 5   0  0.3938696E-06  0.3294258E+04  0.7818609E-02  0.8164358E-01
       -1   -1    0    0    0  501  0.00000000000E+00  0.00000000000E+00  0.94390175673E+03  0.94390175674E+03  0.50400001928E-02 0.  1.
        1   -1    0    0  501    0  0.00000000000E+00  0.00000000000E+00 -0.28742756266E+04  0.28742756266E+04  0.50400001928E-02 0. -1.
    10030    2    1    2    0    0  0.00000000000E+00  0.00000000000E+00 -0.19303738699E+04  0.38181773834E+04  0.32942579215E+04 0.  0.
        4    1    3    3  502    0  0.42929479606E+03  0.13012335302E+04 -0.20246343125E+04  0.24447184775E+04  0.12699999809E+01 0. -1.
       -4    1    3    3    0  502 -0.42929479606E+03 -0.13012335302E+04  0.94260442629E+02  0.13734589058E+04  0.12699999809E+01 0.  1.
</event>
<event>
 5   0  0.3938696E-06  0.3224678E+04  0.7818609E-02  0.8182330E-01
        1   -1    0    0  501    0  0.00000000000E+00  0.00000000000E+00  0.26760922871E+04  0.26760922871E+04  0.50400001928E-02 0. -1.
       -1   -1    0    0    0  501  0.00000000000E+00  0.00000000000E+00 -0.97143030600E+03  0.97143030601E+03  0.50400001928E-02 0.  1.
    10030    2    1    2    0    0  0.00000000000E+00  0.00000000000E+00  0.17046619811E+04  0.36475225931E+04  0.32246780611E+04 0.  0.
        4    1    3    3  502    0  0.45460867676E+03  0.49657259245E+02 -0.89653309910E+03  0.10064333575E+04  0.12699999809E+01 0.  1.
       -4    1    3    3    0  502 -0.45460867676E+03 -0.49657259245E+02  0.26011950802E+04  0.26410892356E+04  0.12699999809E+01 0. -1.
</event>
<event>
 5   0  0.4142886E-06  0.3075773E+04  0.7818609E-02  0.8222418E-01
       -1   -1    0    0    0  501  0.00000000000E+00  0.00000000000E+00  0.14486000122E+04  0.14486000122E+04  0.50400001928E-02 0. -1.
        1   -1    0    0  501    0  0.00000000000E+00  0.00000000000E+00 -0.16326759291E+04  0.16326759291E+04  0.50400001928E-02 0.  1.
    10030    2    1    2    0    0  0.00000000000E+00  0.00000000000E+00 -0.18407591693E+03  0.30812759413E+04  0.30757726644E+04 0.  0.
        5    1    3    3  502    0  0.47571000461E+03  0.12914890841E+04  0.59535899310E+03  0.14995727669E+04  0.46999998093E+01 0. -1.
       -5    1    3    3    0  502 -0.47571000461E+03 -0.12914890841E+04 -0.77943491002E+03  0.15817031743E+04  0.46999998093E+01 0.  1.
</event>
<event>
 5   0  0.7952307E-06  0.3108045E+04  0.7818609E-02  0.8213533E-01
       -2   -1    0    0    0  501  0.00000000000E+00  0.00000000000E+00  0.12053562919E+04  0.12053562919E+04  0.25500000920E-02 0.  1.
        2   -1    0    0  501    0  0.00000000000E+00  0.00000000000E+00 -0.20035457463E+04  0.20035457463E+04  0.25500000920E-02 0. -1.
    10030    2    1    2    0    0  0.00000000000E+00  0.00000000000E+00 -0.79818945443E+03  0.32089020383E+04  0.31080453481E+04 0.  0.
        2    1    3    3  502    0 -0.82387237160E+03 -0.12049443759E+04 -0.94962389179E+03  0.17413908722E+04  0.25500000920E-02 0.  1.
       -2    1    3    3    0  502  0.82387237160E+03  0.12049443759E+04  0.15143443737E+03  0.14675111661E+04  0.25500000920E-02 0. -1.
</event>
<event>
 5   0  0.7941434E-06  0.3231343E+04  0.7818609E-02  0.8180588E-01
       -2   -1    0    0    0  501  0.00000000000E+00  0.00000000000E+00  0.14220164220E+04  0.14220164220E+04  0.25500000920E-02 0.  1.
        2   -1    0    0  501    0  0.00000000000E+00  0.00000000000E+00 -0.18356995935E+04  0.18356995935E+04  0.25500000920E-02 0. -1.
    10030    2    1    2    0    0  0.00000000000E+00  0.00000000000E+00 -0.41368317153E+03  0.32577160154E+04  0.32313433539E+04 0.  0.
        4    1    3    3  502    0 -0.11544900599E+04  0.18840842077E+03 -0.13304095864E+04  0.17715350157E+04  0.12699999809E+01 0. -1.
       -4    1    3    3    0  502  0.11544900599E+04 -0.18840842077E+03  0.91672641483E+03  0.14861809997E+04  0.12699999809E+01 0.  1.
</event>
<event>
 5   0  0.8237664E-06  0.3185553E+04  0.7818609E-02  0.8192643E-01
        2   -1    0    0  501    0  0.00000000000E+00  0.00000000000E+00  0.26537505253E+04  0.26537505253E+04  0.25500000920E-02 0.  1.
       -2   -1    0    0    0  501  0.00000000000E+00  0.00000000000E+00 -0.95598197360E+03  0.95598197360E+03  0.25500000920E-02 0. -1.
    10030    2    1    2    0    0  0.00000000000E+00  0.00000000000E+00  0.16977685517E+04  0.36097324989E+04  0.31855534305E+04 0.  0.
        5    1    3    3  502    0 -0.10421536793E+04  0.79525411586E+03  0.18740014584E+04  0.22870104845E+04  0.46999998093E+01 0.  1.
       -5    1    3    3    0  502  0.10421536793E+04 -0.79525411586E+03 -0.17623290672E+03  0.13227220144E+04  0.46999998093E+01 0. -1.
</event>
<event>
 5   0  0.2580875E-06  0.1747523E+04  0.7818609E-02  0.8734715E-01
        4   -1    0    0  501    0  0.00000000000E+00  0.00000000000E+00  0.83591720381E+03  0.83591816855E+03  0.12699999809E+01 0. -1.
       -4   -1    0    0    0  501  0.00000000000E+00  0.00000000000E+00 -0.91331766767E+03  0.91331855066E+03  0.12699999809E+01 0.  1.
    10030    2    1    2    0    0  0.00000000000E+00  0.00000000000E+00 -0.77400463869E+02  0.17492367192E+04  0.17475234671E+04 0.  0.
        4    1    3    3  502    0  0.55170468483E+03  0.57548277947E+03 -0.39668119607E+03  0.89045834992E+03  0.12699999809E+01 0.  1.
       -4    1    3    3    0  502 -0.55170468483E+03 -0.57548277947E+03  0.31928073220E+03  0.85877836930E+03  0.12699999809E+01 0. -1.
</event>
<event>
 5   0  0.3938696E-06  0.3127172E+04  0.7818609E-02  0.8208320E-01
       -1   -1    0    0    0  501  0.00000000000E+00  0.00000000000E+00  0.18307159721E+04  0.18307159721E+04  0.50400001928E-02 0. -1.
        1   -1    0    0  501    0  0.00000000000E+00  0.00000000000E+00 -0.13354342180E+04  0.13354342181E+04  0.50400001928E-02 0.  1.
    10030    2    1    2    0    0  0.00000000000E+00  0.00000000000E+00  0.49528175402E+03  0.31661501901E+04  0.31271717271E+04 0.  0.
        4    1    3    3  502    0 -0.10047239776E+04 -0.47203265382E+03 -0.86722640339E+03  0.14086760966E+04  0.12699999809E+01 0.  1.
       -4    1    3    3    0  502  0.10047239776E+04  0.47203265382E+03  0.13625081574E+04  0.17574740935E+04  0.12699999809E+01 0. -1.
</event>
<event>
 5   0  0.2635798E-06  0.3059946E+04  0.7818609E-02  0.8226817E-01
       -1   -1    0    0    0  501  0.00000000000E+00  0.00000000000E+00  0.16378531947E+04  0.16378531947E+04  0.50400001928E-02 0.  1.
        1   -1    0    0  501    0  0.00000000000E+00  0.00000000000E+00 -0.14291985660E+04  0.14291985660E+04  0.50400001928E-02 0. -1.
    10030    2    1    2    0    0  0.00000000000E+00  0.00000000000E+00  0.20865462870E+03  0.30670517608E+04  0.30599460370E+04 0.  0.
        1    1    3    3  502    0  0.21411844683E+03  0.94907047673E+03  0.12878469764E+04  0.16140419182E+04  0.50400001928E-02 0.  1.
       -1    1    3    3    0  502 -0.21411844683E+03 -0.94907047673E+03 -0.10791923477E+04  0.14530098425E+04  0.50400001928E-02 0. -1.
</event>
<event>
 5   0  0.7510251E-06  0.3108892E+04  0.7818609E-02  0.8213302E-01
        2   -1    0    0  501    0  0.00000000000E+00  0.00000000000E+00  0.22118902835E+04  0.22118902835E+04  0.25500000920E-02 0.  1.
       -2   -1    0    0    0  501  0.00000000000E+00  0.00000000000E+00 -0.10924149665E+04  0.10924149665E+04  0.25500000920E-02 0. -1.
    10030    2    1    2    0    0  0.00000000000E+00  0.00000000000E+00  0.11194753170E+04  0.33043052501E+04  0.31088917962E+04 0.  0.
        3    1    3    3  502    0 -0.49141117060E+03  0.14684375256E+04  0.70433430600E+03  0.17011409495E+04  0.10100000352E+00 0.  1.
       -3    1    3    3    0  502  0.49141117060E+03 -0.14684375256E+04  0.41514101098E+03  0.16031643005E+04  0.10100000352E+00 0. -1.
</event>
<event>
 5   0  0.7971763E-06  0.3106175E+04  0.7818609E-02  0.8214045E-01
        2   -1    0    0  501    0  0.00000000000E+00  0.00000000000E+00  0.13482160463E+04  0.13482160463E+04  0.25500000920E-02 0. -1.
       -2   -1    0    0    0  501  0.00000000000E+00  0.00000000000E+00 -0.17890901242E+04  0.17890901242E+04  0.25500000920E-02 0.  1.
    10030    2    1    2    0    0  0.00000000000E+00  0.00000000000E+00 -0.44087407791E+03  0.31373061704E+04  0.31061745048E+04 0.  0.
        1    1    3    3  502    0 -0.12958090320E+04 -0.80993696488E+03  0.59761990718E+02  0.15292777479E+04  0.50400001928E-02 0. -1.
       -1    1    3    3    0  502  0.12958090320E+04  0.80993696488E+03 -0.50063606862E+03  0.16080284226E+04  0.50400001928E-02 0.  1.
</event>
<event>
 5   0  0.8237664E-06  0.3069054E+04  0.7818609E-02  0.8224282E-01
        2   -1    0    0  501    0  0.00000000000E+00  0.00000000000E+00  0.29316962888E+04  0.29316962888E+04  0.25500000920E-02 0.  1.
       -2   -1    0    0    0  501  0.00000000000E+00  0.00000000000E+00 -0.80321168638E+03  0.80321168638E+03  0.25500000920E-02 0. -1.
    10030    2    1    2    0    0  0.00000000000E+00  0.00000000000E+00  0.21284846024E+04  0.37349079752E+04  0.30690537435E+04 0.  0.
        5    1    3    3  502    0 -0.11946788543E+04 -0.84553513307E+03  0.50316892661E+03  0.15477041981E+04  0.46999998093E+01 0. -1.
       -5    1    3    3    0  502  0.11946788543E+04  0.84553513307E+03  0.16253156758E+04  0.21872037770E+04  0.46999998093E+01 0.  1.
</event>
<event>
 5   0  0.4142886E-06  0.3172052E+04  0.7818609E-02  0.8196237E-01
       -1   -1    0    0    0  501  0.00000000000E+00  0.00000000000E+00  0.13296952238E+04  0.13296952238E+04  0.50400001928E-02 0. -1.
        1   -1    0    0  501    0  0.00000000000E+00  0.00000000000E+00 -0.18917703550E+04  0.18917703551E+04  0.50400001928E-02 0.  1.
    10030    2    1    2    0    0  0.00000000000E+00  0.00000000000E+00 -0.56207513129E+03  0.32214655788E+04  0.31720517055E+04 0.  0.
        5    1    3    3  502    0 -0.74519992061E+03  0.13972846208E+04 -0.19175514263E+03  0.15951549636E+04  0.46999998093E+01 0. -1.
       -5    1    3    3    0  502  0.74519992061E+03 -0.13972846208E+04 -0.37031998866E+03  0.16263106152E+04  0.46999998093E+01 0.  1.
</event>
<event>
 5   0  0.7952307E-06  0.3208789E+04  0.7818609E-02  0.8186500E-01
       -2   -1    0    0    0  501  0.00000000000E+00  0.00000000000E+00  0.16657375593E+04  0.16657375593E+04  0.25500000920E-02 0.  1.
        2   -1    0    0  501    0  0.00000000000E+00  0.00000000000E+00 -0.15453107949E+04  0.15453107949E+04  0.25500000920E-02 0. -1.
    10030    2    1    2    0    0  0.00000000000E+00  0.00000000000E+00  0.12042676433E+03  0.32110483542E+04  0.32087893243E+04 0.  0.
        2    1    3    3  502    0 -0.89871257582E+03  0.24232914807E+03 -0.12474868201E+04  0.15564803488E+04  0.25500000920E-02 0. -1.
       -2    1    3    3    0  502  0.89871257582E+03 -0.24232914807E+03  0.13679135845E+04  0.16545680054E+04  0.25500000920E-02 0.  1.
</event>
<event>
 5   0  0.2635798E-06  0.3164544E+04  0.7818609E-02  0.8198244E-01
       -1   -1    0    0    0  501  0.00000000000E+00  0.00000000000E+00  0.13725598734E+04  0.13725598734E+04  0.50400001928E-02 0. -1.
        1   -1    0    0  501    0  0.00000000000E+00  0.00000000000E+00 -0.18240258007E+04  0.18240258007E+04  0.50400001928E-02 0.  1.
    10030    2    1    2    0    0  0.00000000000E+00  0.00000000000E+00 -0.45146592732E+03  0.31965856741E+04  0.31645439621E+04 0.  0.
        1    1    3    3  502    0 -0.90316699978E+03  0.59237936224E+03 -0.13937106167E+04  0.17632507540E+04  0.50400001928E-02 0.  1.
       -1    1    3    3    0  502  0.90316699978E+03 -0.59237936224E+03  0.94224468941E+03  0.14333349201E+04  0.50400001928E-02 0. -1.
</event>
<event>
 5   0  0.7510251E-06  0.3218706E+04  0.7818609E-02  0.8183894E-01
       -2   -1    0    0    0  501  0.00000000000E+00  0.00000000000E+00  0.23417208009E+04  0.23417208009E+04  0.25500000920E-02 0.  1.
        2   -1    0    0  501    0  0.00000000000E+00  0.00000000000E+00 -0.11060314283E+04  0.11060314283E+04  0.25500000920E-02 0. -1.
    10030    2    1    2    0    0  0.00000000000E+00  0.00000000000E+00  0.12356893726E+04  0.34477522291E+04  0.32187058281E+04 0.  0.
        3    1    3    3  502    0  0.14150102067E+04  0.46883395184E+02 -0.20183139561E+03  0.14301006469E+04  0.10100000352E+00 0. -1.
       -3    1    3    3    0  502 -0.14150102067E+04 -0.46883395184E+02  0.14375207682E+04  0.20176515822E+04  0.10100000352E+00 0.  1.
</event>
<event>
 5   0  0.7952307E-06  0.3239341E+04  0.7818609E-02  0.8178504E-01
       -2   -1    0    0    0  501  0.00000000000E+00  0.00000000000E+00  0.10074967857E+04  0.10074967857E+04  0.25500000920E-02 0.  1.
        2   -1    0    0  501    0  0.00000000000E+00  0.00000000000E+00 -0.26038120109E+04  0.26038120109E+04  0.25500000920E-02 0. -1.
    10030    2    1    2    0    0  0.00000000000E+00  0.00000000000E+00 -0.15963152252E+04  0.36113087966E+04  0.32393408166E+04 0.  0.
        2    1    3    3  502    0 -0.10174520876E+04  0.42424868875E+03 -0.21210678133E+04  0.23904234706E+04  0.25500000920E-02 0. -1.
       -2    1    3    3    0  502  0.10174520876E+04 -0.42424868875E+03  0.52475258808E+03  0.12208853260E+04  0.25500000920E-02 0.  1.
</event>
<event>
 5   0  0.2788054E-06  0.3156964E+04  0.7818609E-02  0.8200276E-01
        1   -1    0    0  501    0  0.00000000000E+00  0.00000000000E+00  0.16840995728E+04  0.16840995728E+04  0.50400001928E-02 0. -1.
       -1   -1    0    0    0  501  0.00000000000E+00  0.00000000000E+00 -0.14794882935E+04  0.14794882935E+04  0.50400001928E-02 0.  1.
    10030    2    1    2    0    0  0.00000000000E+00  0.00000000000E+00  0.20461127931E+03  0.31635878663E+04  0.31569641132E+04 0.  0.
        3    1    3    3  502    0  0.53267426809E+02  0.96903701799E+03  0.13498012822E+04  0.16624781721E+04  0.10100000352E+00 0. -1.
       -3    1    3    3    0  502 -0.53267426809E+02 -0.96903701799E+03 -0.11451900029E+04  0.15011096942E+04  0.10100000352E+00 0.  1.
</event>
<event>
 5   0  0.8237664E-06  0.3156826E+04  0.7818609E-02  0.8200313E-01
        2   -1    0    0  501    0  0.00000000000E+00  0.00000000000E+00  0.22970315029E+04  0.22970315029E+04  0.25500000920E-02 0. -1.
       -2   -1    0    0    0  501  0.00000000000E+00  0.00000000000E+00 -0.10846117974E+04  0.10846117974E+04  0.25500000920E-02 0.  1.
    10030    2    1    2    0    0  0.00000000000E+00  0.00000000000E+00  0.12124197056E+04  0.33816433003E+04  0.31568259166E+04 0.  0.
        5    1    3    3  502    0  0.85914197692E+03  0.10623802817E+04  0.14528018938E+04  0.19943500776E+04  0.46999998093E+01 0. -1.
       -5    1    3    3    0  502 -0.85914197692E+03 -0.10623802817E+04 -0.24038218817E+03  0.13872932227E+04  0.46999998093E+01 0.  1.
</event>
<event>
 5   0  0.7952307E-06  0.1968311E+04  0.7818609E-02  0.8621581E-01
        2   -1    0    0  501    0  0.00000000000E+00  0.00000000000E+00  0.17850925062E+04  0.17850925062E+04  0.25500000920E-02 0. -1.
       -2   -1    0    0    0  501  0.00000000000E+00  0.00000000000E+00 -0.54258345090E+03  0.54258345090E+03  0.25500000920E-02 0.  1.
    10030    2    1    2    0    0  0.00000000000E+00  0.00000000000E+00  0.12425090553E+04  0.23276759571E+04  0.19683105976E+04 0.  0.
        2    1    3    3  502    0 -0.12000106500E+03  0.97223024707E+03  0.50950431029E+03  0.11041859224E+04  0.25500000920E-02 0.  1.
       -2    1    3    3    0  502  0.12000106500E+03 -0.97223024707E+03  0.73300474499E+03  0.12234900347E+04  0.25500000920E-02 0. -1.
</event>
<event>
 5   0  0.8237664E-06  0.2323339E+04  0.7818609E-02  0.8468775E-01
        2   -1    0    0  501    0  0.00000000000E+00  0.00000000000E+00  0.14493289353E+04  0.14493289353E+04  0.25500000920E-02 0.  1.
       -2   -1    0    0    0  501  0.00000000000E+00  0.00000000000E+00 -0.93110405575E+03  0.93110405575E+03  0.25500000920E-02 0. -1.
    10030    2    1    2    0    0  0.00000000000E+00  0.00000000000E+00  0.51822487957E+03  0.23804329911E+04  0.23233390194E+04 0.  0.
        5    1    3    3  502    0  0.10883887885E+03 -0.13466081824E+02 -0.92577848351E+03  0.93226344316E+03  0.46999998093E+01 0. -1.
       -5    1    3    3    0  502 -0.10883887885E+03  0.13466081824E+02  0.14440033631E+04  0.14481695479E+04  0.46999998093E+01 0.  1.
</event>
<event>
 5   0  0.2635798E-06  0.1612723E+04  0.7818609E-02  0.8812770E-01
       -1   -1    0    0    0  501  0.00000000000E+00  0.00000000000E+00  0.44432759461E+03  0.44432759464E+03  0.50400001928E-02 0. -1.
        1   -1    0    0  501    0  0.00000000000E+00  0.00000000000E+00 -0.14633764080E+04  0.14633764081E+04  0.50400001928E-02 0.  1.
    10030    2    1    2    0    0  0.00000000000E+00  0.00000000000E+00 -0.10190488134E+04  0.19077040027E+04  0.16127225669E+04 0.  0.
        1    1    3    3  502    0 -0.17825017417E+03  0.24831704415E+02 -0.14393155302E+04  0.14505236757E+04  0.50400001928E-02 0.  1.
       -1    1    3    3    0  502  0.17825017417E+03 -0.24831704415E+02  0.42026671680E+03  0.45718032701E+03  0.50400001928E-02 0. -1.
</event>
<event>
 5   0  0.7941434E-06  0.3226076E+04  0.7818609E-02  0.8181964E-01
        2   -1    0    0  501    0  0.00000000000E+00  0.00000000000E+00  0.12361382934E+04  0.12361382934E+04  0.25500000920E-02 0. -1.
       -2   -1    0    0    0  501  0.00000000000E+00  0.00000000000E+00 -0.21048542777E+04  0.21048542777E+04  0.25500000920E-02 0.  1.
    10030    2    1    2    0    0  0.00000000000E+00  0.00000000000E+00 -0.86871598435E+03  0.33409925711E+04  0.32260756189E+04 0.  0.
        4    1    3    3  502    0 -0.15219206902E+04  0.82788234006E+02 -0.98117474096E+03  0.18126781193E+04  0.12699999809E+01 0.  1.
       -4    1    3    3    0  502  0.15219206902E+04 -0.82788234006E+02  0.11245875661E+03  0.15283144518E+04  0.12699999809E+01 0. -1.
</event>
<event>
 5   0  0.7510251E-06  0.2909003E+04  0.7818609E-02  0.8270204E-01
        2   -1    0    0  501    0  0.00000000000E+00  0.00000000000E+00  0.17489586451E+04  0.17489586451E+04  0.25500000920E-02 0.  1.
       -2   -1    0    0    0  501  0.00000000000E+00  0.00000000000E+00 -0.12096191763E+04  0.12096191763E+04  0.25500000920E-02 0. -1.
    10030    2    1    2    0    0  0.00000000000E+00  0.00000000000E+00  0.53933946880E+03  0.29585778214E+04  0.29090025203E+04 0.  0.
        3    1    3    3  502    0  0.52458701294E+03 -0.13502864097E+04  0.13663930316E+03  0.14550378798E+04  0.10100000352E+00 0. -1.
       -3    1    3    3    0  502 -0.52458701294E+03  0.13502864097E+04  0.40270016564E+03  0.15035399416E+04  0.10100000352E+00 0.  1.
</event>
<event>
 5   0  0.2580875E-06  0.2818892E+04  0.7818609E-02  0.8297427E-01
        4   -1    0    0  501    0  0.00000000000E+00  0.00000000000E+00  0.21576533517E+04  0.21576537255E+04  0.12699999809E+01 0.  1.
       -4   -1    0    0    0  501  0.00000000000E+00  0.00000000000E+00 -0.92069284958E+03  0.92069372550E+03  0.12699999809E+01 0. -1.
    10030    2    1    2    0    0  0.00000000000E+00  0.00000000000E+00  0.12369605021E+04  0.30783474510E+04  0.28188919357E+04 0.  0.
        4    1    3    3  502    0  0.10138038121E+04 -0.96313399454E+03  0.42586235651E+03  0.14617748187E+04  0.12699999809E+01 0. -1.
       -4    1    3    3    0  502 -0.10138038121E+04  0.96313399454E+03  0.81109814562E+03  0.16165726323E+04  0.12699999809E+01 0.  1.
</event>
<event>
 5   0  0.7510251E-06  0.3336816E+04  0.7818609E-02  0.8153590E-01
        2   -1    0    0  501    0  0.00000000000E+00  0.00000000000E+00  0.14550149085E+04  0.14550149085E+04  0.25500000920E-02 0.  1.
       -2   -1    0    0    0  501  0.00000000000E+00  0.00000000000E+00 -0.19130971615E+04  0.19130971615E+04  0.25500000920E-02 0. -1.
    10030    2    1    2    0    0  0.00000000000E+00  0.00000000000E+00 -0.45808225307E+03  0.33681120700E+04  0.33368157824E+04 0.  0.
        3    1    3    3  502    0  0.22379083642E+03  0.14918802665E+04  0.49024032414E+03  0.15862296977E+04  0.10100000352E+00 0.  1.
       -3    1    3    3    0  502 -0.22379083642E+03 -0.14918802665E+04 -0.94832257721E+03  0.17818823723E+04  0.10100000352E+00 0. -1.
</event>
<event>
 5   0  0.2788054E-06  0.3205864E+04  0.7818609E-02  0.8187270E-01
        1   -1    0    0  501    0  0.00000000000E+00  0.00000000000E+00  0.12760992015E+04  0.12760992015E+04  0.50400001928E-02 0. -1.
       -1   -1    0    0    0  501  0.00000000000E+00  0.00000000000E+00 -0.20134725393E+04  0.20134725393E+04  0.50400001928E-02 0.  1.
    10030    2    1    2    0    0  0.00000000000E+00  0.00000000000E+00 -0.73737333782E+03  0.32895717408E+04  0.32058638148E+04 0.  0.
        3    1    3    3  502    0  0.10517447797E+04 -0.37035867647E+03  0.81292715222E+03  0.13799214455E+04  0.10100000352E+00 0. -1.
       -3    1    3    3    0  502 -0.10517447797E+04  0.37035867647E+03 -0.15503004900E+04  0.19096502953E+04  0.10100000352E+00 0.  1.
</event>
<event>
 5   0  0.4142886E-06  0.3223464E+04  0.7818609E-02  0.8182648E-01
        1   -1    0    0  501    0  0.00000000000E+00  0.00000000000E+00  0.18351245170E+04  0.18351245170E+04  0.50400001928E-02 0.  1.
       -1   -1    0    0    0  501  0.00000000000E+00  0.00000000000E+00 -0.14155334853E+04  0.14155334853E+04  0.50400001928E-02 0. -1.
    10030    2    1    2    0    0  0.00000000000E+00  0.00000000000E+00  0.41959103173E+03  0.32506580023E+04  0.32234641016E+04 0.  0.
        5    1    3    3  502    0  0.15678329105E+03 -0.13194719445E+03 -0.14023364123E+04  0.14172369476E+04  0.46999998093E+01 0. -1.
       -5    1    3    3    0  502 -0.15678329105E+03  0.13194719445E+03  0.18219274440E+04  0.18334210547E+04  0.46999998093E+01 0.  1.
</event>
<event>
 5   0  0.7941434E-06  0.3137139E+04  0.7818609E-02  0.8205619E-01
        2   -1    0    0  501    0  0.00000000000E+00  0.00000000000E+00  0.12069953773E+04  0.12069953773E+04  0.25500000920E-02 0.  1.
       -2   -1    0    0    0  501  0.00000000000E+00  0.00000000000E+00 -0.20384587795E+04  0.20384587795E+04  0.25500000920E-02 0. -1.
    10030    2    1    2    0    0  0.00000000000E+00  0.00000000000E+00 -0.83146340218E+03  0.32454541568E+04  0.31371390302E+04 0.  0.
        4    1    3    3  502    0 -0.90039541979E+03 -0.66348294442E+02  0.91124580981E+03  0.12827644160E+04  0.12699999809E+01 0.  1.
       -4    1    3    3    0  502  0.90039541979E+03  0.66348294442E+02 -0.17427092120E+04  0.19626897408E+04  0.12699999809E+01 0. -1.
</event>
<event>
 5   0  0.2580875E-06  0.3243586E+04  0.7818609E-02  0.8177400E-01
       -3   -1    0    0    0  501  0.00000000000E+00  0.00000000000E+00  0.15488782445E+04  0.15488782478E+04  0.10100000352E+00 0. -1.
        3   -1    0    0  501    0  0.00000000000E+00  0.00000000000E+00 -0.16981407907E+04  0.16981407937E+04  0.10100000352E+00 0.  1.
    10030    2    1    2    0    0  0.00000000000E+00  0.00000000000E+00 -0.14926254621E+03  0.32470190414E+04  0.32435864946E+04 0.  0.
        2    1    3    3  502    0  0.11943314169E+04 -0.69577303244E+03 -0.92387194643E+03  0.16625483510E+04  0.25500000920E-02 0.  1.
       -2    1    3    3    0  502 -0.11943314169E+04  0.69577303244E+03  0.77460940022E+03  0.15844706904E+04  0.25500000920E-02 0. -1.
</event>
<event>
 5   0  0.4142886E-06  0.3222310E+04  0.7818609E-02  0.8182950E-01
        1   -1    0    0  501    0  0.00000000000E+00  0.00000000000E+00  0.26336350657E+04  0.26336350657E+04  0.50400001928E-02 0.  1.
       -1   -1    0    0    0  501  0.00000000000E+00  0.00000000000E+00 -0.98564136657E+03  0.98564136658E+03  0.50400001928E-02 0. -1.
    10030    2    1    2    0    0  0.00000000000E+00  0.00000000000E+00  0.16479936991E+04  0.36192764323E+04  0.32223095228E+04 0.  0.
        5    1    3    3  502    0  0.12195740824E+04 -0.71171218737E+03 -0.47403110635E+02  0.14128567957E+04  0.46999998093E+01 0. -1.
       -5    1    3    3    0  502 -0.12195740824E+04  0.71171218737E+03  0.16953968097E+04  0.22064196366E+04  0.46999998093E+01 0.  1.
</event>
<event>
 5   0  0.2788054E-06  0.3065776E+04  0.7818609E-02  0.8225194E-01
       -1   -1    0    0    0  501  0.00000000000E+00  0.00000000000E+00  0.10277351633E+04  0.10277351633E+04  0.50400001928E-02 0.  1.
        1   -1    0    0  501    0  0.00000000000E+00  0.00000000000E+00 -0.22863339986E+04  0.22863339986E+04  0.50400001928E-02 0. -1.
    10030    2    1    2    0    0  0.00000000000E+00  0.00000000000E+00 -0.12585988353E+04  0.33140691619E+04  0.30657761467E+04 0.  0.
        3    1    3    3  502    0  0.72030600176E+03 -0.61530694054E+03 -0.19320151692E+04  0.21517727556E+04  0.10100000352E+00 0. -1.
       -3    1    3    3    0  502 -0.72030600176E+03  0.61530694054E+03  0.67341633394E+03  0.11622964064E+04  0.10100000352E+00 0.  1.
</event>
<event>
 5   0  0.7971763E-06  0.2175453E+04  0.7818609E-02  0.8528715E-01
        2   -1    0    0  501    0  0.00000000000E+00  0.00000000000E+00  0.25136670440E+04  0.25136670440E+04  0.25500000920E-02 0.  1.
       -2   -1    0    0    0  501  0.00000000000E+00  0.00000000000E+00 -0.47068662725E+03  0.47068662726E+03  0.25500000920E-02 0. -1.
    10030    2    1    2    0    0  0.00000000000E+00  0.00000000000E+00  0.20429804167E+04  0.29843536713E+04  0.21754534819E+04 0.  0.
        1    1    3    3  502    0 -0.23454363712E+03 -0.54469311331E+03 -0.22939678257E+03  0.63586491434E+03  0.50400001928E-02 0. -1.
       -1    1    3    3    0  502  0.23454363712E+03  0.54469311331E+03  0.22723771993E+04  0.23484887569E+04  0.50400001928E-02 0.  1.
</event>
<event>
 5   0  0.2933646E-06  0.2527173E+04  0.7818609E-02  0.8393368E-01
        1   -1    0    0  501    0  0.00000000000E+00  0.00000000000E+00  0.17145761450E+04  0.17145761450E+04  0.50400001928E-02 0.  1.
       -1   -1    0    0    0  501  0.00000000000E+00  0.00000000000E+00 -0.93122190157E+03  0.93122190158E+03  0.50400001928E-02 0. -1.
    10030    2    1    2    0    0  0.00000000000E+00  0.00000000000E+00  0.78335424341E+03  0.26457980466E+04  0.25271730120E+04 0.  0.
        2    1    3    3  502    0  0.11271389152E+04  0.49488878367E+03  0.69018133884E+03  0.14112786128E+04  0.25500000920E-02 0.  1.
       -2    1    3    3    0  502 -0.11271389152E+04 -0.49488878367E+03  0.93172904564E+02  0.12345194338E+04  0.25500000920E-02 0. -1.
</event>
<event>
 5   0  0.4142886E-06  0.3232089E+04  0.7818609E-02  0.8180394E-01
        1   -1    0    0  501    0  0.00000000000E+00  0.00000000000E+00  0.25164922137E+04  0.25164922137E+04  0.50400001928E-02 0. -1.
       -1   -1    0    0    0  501  0.00000000000E+00  0.00000000000E+00 -0.10377934430E+04  0.10377934430E+04  0.50400001928E-02 0.  1.
    10030    2    1    2    0    0  0.00000000000E+00  0.00000000000E+00  0.14786987708E+04  0.35542856567E+04  0.32320885623E+04 0.  0.
        5    1    3    3  502    0 -0.11163712976E+04  0.16396882103E+03 -0.53287312550E+03  0.12478567651E+04  0.46999998093E+01 0.  1.
       -5    1    3    3    0  502  0.11163712976E+04 -0.16396882103E+03  0.20115718963E+04  0.23064288916E+04  0.46999998093E+01 0. -1.
</event>
<event>
 5   0  0.2933646E-06  0.3197854E+04  0.7818609E-02  0.8189384E-01
        1   -1    0    0  501    0  0.00000000000E+00  0.00000000000E+00  0.24852464233E+04  0.24852464233E+04  0.50400001928E-02 0.  1.
       -1   -1    0    0    0  501  0.00000000000E+00  0.00000000000E+00 -0.10286979545E+04  0.10286979545E+04  0.50400001928E-02 0. -1.
    10030    2    1    2    0    0  0.00000000000E+00  0.00000000000E+00  0.14565484688E+04  0.35139443778E+04  0.31978542256E+04 0.  0.
        2    1    3    3  502    0  0.19929812396E+03 -0.32261302860E+03 -0.97857079879E+03  0.10494759248E+04  0.25500000920E-02 0. -1.
       -2    1    3    3    0  502 -0.19929812396E+03  0.32261302860E+03  0.24351192676E+04  0.24644684530E+04  0.25500000920E-02 0.  1.
</event>
<event>
 5   0  0.2788054E-06  0.3234857E+04  0.7818609E-02  0.8179672E-01
        1   -1    0    0  501    0  0.00000000000E+00  0.00000000000E+00  0.20188518252E+04  0.20188518252E+04  0.50400001928E-02 0.  1.
       -1   -1    0    0    0  501  0.00000000000E+00  0.00000000000E+00 -0.12958227912E+04  0.12958227912E+04  0.50400001928E-02 0. -1.
    10030    2    1    2    0    0  0.00000000000E+00  0.00000000000E+00  0.72302903400E+03  0.33146746164E+04  0.32348565391E+04 0.  0.
        3    1    3    3  502    0  0.49416262964E+03  0.96785947855E+03 -0.86601182712E+03  0.13895773349E+04  0.10100000352E+00 0. -1.
       -3    1    3    3    0  502 -0.49416262964E+03 -0.96785947855E+03  0.15890408611E+04  0.19250972815E+04  0.10100000352E+00 0.  1.
</event>
<event>
 5   0  0.8237664E-06  0.3195583E+04  0.7818609E-02  0.8189985E-01
       -2   -1    0    0    0  501  0.00000000000E+00  0.00000000000E+00  0.16210671387E+04  0.16210671387E+04  0.25500000920E-02 0. -1.
        2   -1    0    0  501    0  0.00000000000E+00  0.00000000000E+00 -0.15748503171E+04  0.15748503171E+04  0.25500000920E-02 0.  1.
    10030    2    1    2    0    0  0.00000000000E+00  0.00000000000E+00  0.46216821650E+02  0.31959174558E+04  0.31955832629E+04 0.  0.
        5    1    3    3  502    0  0.93151153654E+03 -0.12036718667E+03  0.13158046121E+04  0.16166526744E+04  0.46999998093E+01 0. -1.
       -5    1    3    3    0  502 -0.93151153654E+03  0.12036718667E+03 -0.12695877905E+04  0.15792647815E+04  0.46999998093E+01 0.  1.
</event>
<event>
 5   0  0.7971763E-06  0.3009603E+04  0.7818609E-02  0.8240994E-01
       -2   -1    0    0    0  501  0.00000000000E+00  0.00000000000E+00  0.10673372962E+04  0.10673372962E+04  0.25500000920E-02 0.  1.
        2   -1    0    0  501    0  0.00000000000E+00  0.00000000000E+00 -0.21215676158E+04  0.21215676158E+04  0.25500000920E-02 0. -1.
    10030    2    1    2    0    0  0.00000000000E+00  0.00000000000E+00 -0.10542303196E+04  0.31889049120E+04  0.30096034574E+04 0.  0.
        1    1    3    3  502    0  0.35270247436E+03  0.56367258588E+03 -0.19574658131E+04  0.20673166736E+04  0.50400001928E-02 0. -1.
       -1    1    3    3    0  502 -0.35270247436E+03 -0.56367258588E+03  0.90323549355E+03  0.11215882383E+04  0.50400001928E-02 0.  1.
</event>
<event>
 5   0  0.2635798E-06  0.2900915E+04  0.7818609E-02  0.8272605E-01
       -1   -1    0    0    0  501  0.00000000000E+00  0.00000000000E+00  0.10142275418E+04  0.10142275418E+04  0.50400001928E-02 0. -1.
        1   -1    0    0  501    0  0.00000000000E+00  0.00000000000E+00 -0.20743143200E+04  0.20743143200E+04  0.50400001928E-02 0.  1.
    10030    2    1    2    0    0  0.00000000000E+00  0.00000000000E+00 -0.10600867782E+04  0.30885418618E+04  0.29009148307E+04 0.  0.
        1    1    3    3  502    0  0.84911577143E+02  0.13067068741E+04 -0.11941962344E+04  0.17722295216E+04  0.50400001928E-02 0. -1.
       -1    1    3    3    0  502 -0.84911577143E+02 -0.13067068741E+04  0.13410945619E+03  0.13163123402E+04  0.50400001928E-02 0.  1.
</event>
<event>
 5   0  0.7952307E-06  0.3173365E+04  0.7818609E-02  0.8195887E-01
       -2   -1    0    0    0  501  0.00000000000E+00  0.00000000000E+00  0.10851711579E+04  0.10851711579E+04  0.25500000920E-02 0.  1.
        2   -1    0    0  501    0  0.00000000000E+00  0.00000000000E+00 -0.23199671887E+04  0.23199671887E+04  0.25500000920E-02 0. -1.
    10030    2    1    2    0    0  0.00000000000E+00  0.00000000000E+00 -0.12347960307E+04  0.34051383466E+04  0.31733650786E+04 0.  0.
        2    1    3    3  502    0  0.15586942761E+04 -0.17066479823E+03 -0.35696336320E+03  0.16081284657E+04  0.25500000920E-02 0.  1.
       -2    1    3    3    0  502 -0.15586942761E+04  0.17066479823E+03 -0.87783266755E+03  0.17970098809E+04  0.25500000920E-02 0. -1.
</event>
<event>
 5   0  0.8237664E-06  0.3220258E+04  0.7818609E-02  0.8183488E-01
       -2   -1    0    0    0  501  0.00000000000E+00  0.00000000000E+00  0.10669744834E+04  0.10669744834E+04  0.25500000920E-02 0. -1.
        2   -1    0    0  501    0  0.00000000000E+00  0.00000000000E+00 -0.24297817198E+04  0.24297817198E+04  0.25500000920E-02 0.  1.
    10030    2    1    2    0    0  0.00000000000E+00  0.00000000000E+00 -0.13628072364E+04  0.34967562031E+04  0.32202578128E+04 0.  0.
        5    1    3    3  502    0  0.11340474539E+03 -0.72259200313E+02  0.10608591289E+04  0.10693578492E+04  0.46999998093E+01 0. -1.
       -5    1    3    3    0  502 -0.11340474539E+03  0.72259200313E+02 -0.24236663653E+04  0.24273983539E+04  0.46999998093E+01 0.  1.
</event>
<event>
 5   0  0.2933646E-06  0.3103094E+04  0.7818609E-02  0.8214889E-01
        1   -1    0    0  501    0  0.00000000000E+00  0.00000000000E+00  0.25173524446E+04  0.25173524446E+04  0.50400001928E-02 0. -1.
       -1   -1    0    0    0  501  0.00000000000E+00  0.00000000000E+00 -0.95628173239E+03  0.95628173241E+03  0.50400001928E-02 0.  1.
    10030    2    1    2    0    0  0.00000000000E+00  0.00000000000E+00  0.15610707122E+04  0.34736341770E+04  0.31030940410E+04 0.  0.
        2    1    3    3  502    0  0.11405351586E+04  0.33545282916E+03 -0.33548268688E+03  0.12352723108E+04  0.25500000920E-02 0. -1.
       -2    1    3    3    0  502 -0.11405351586E+04 -0.33545282916E+03  0.18965533991E+04  0.22383618663E+04  0.25500000920E-02 0.  1.
</event>
<event>
 5   0  0.7952307E-06  0.2078870E+04  0.7818609E-02  0.8570609E-01
        2   -1    0    0  501    0  0.00000000000E+00  0.00000000000E+00  0.61189196109E+03  0.61189196110E+03  0.25500000920E-02 0.  1.
       -2   -1    0    0    0  501  0.00000000000E+00  0.00000000000E+00 -0.17657123179E+04  0.17657123179E+04  0.25500000920E-02 0. -1.
    10030    2    1    2    0    0  0.00000000000E+00  0.00000000000E+00 -0.11538203568E+04  0.23776042790E+04  0.20788700517E+04 0.  0.
        2    1    3    3  502    0  0.63038820552E+02 -0.63803239785E+03  0.35880577849E+03  0.73471138571E+03  0.25500000920E-02 0.  1.
       -2    1    3    3    0  502 -0.63038820552E+02  0.63803239785E+03 -0.15126261353E+04  0.16428928933E+04  0.25500000920E-02 0. -1.
</event>
<event>
 5   0  0.7510251E-06  0.3350326E+04  0.7818609E-02  0.8150207E-01
        2   -1    0    0  501    0  0.00000000000E+00  0.00000000000E+00  0.15103158245E+04  0.15103158245E+04  0.25500000920E-02 0.  1.
       -2   -1    0    0    0  501  0.00000000000E+00  0.00000000000E+00 -0.18580027071E+04  0.18580027071E+04  0.25500000920E-02 0. -1.
    10030    2    1    2    0    0  0.00000000000E+00  0.00000000000E+00 -0.34768688260E+03  0.33683185316E+04  0.33503258890E+04 0.  0.
        3    1    3    3  502    0 -0.58578755432E+03  0.48469399201E+03  0.13268535353E+04  0.15292532946E+04  0.10100000352E+00 0.  1.
       -3    1    3    3    0  502  0.58578755432E+03 -0.48469399201E+03 -0.16745404179E+04  0.18390652370E+04  0.10100000352E+00 0. -1.
</event>
<event>
 5   0  0.4142886E-06  0.2623134E+04  0.7818609E-02  0.8360385E-01
        1   -1    0    0  501    0  0.00000000000E+00  0.00000000000E+00  0.17689076368E+04  0.17689076368E+04  0.50400001928E-02 0.  1.
       -1   -1    0    0    0  501  0.00000000000E+00  0.00000000000E+00 -0.97246922471E+03  0.97246922472E+03  0.50400001928E-02 0. -1.
    10030    2    1    2    0    0  0.00000000000E+00  0.00000000000E+00  0.79643841210E+03  0.27413768615E+04  0.26231341850E+04 0.  0.
        5    1    3    3  502    0  0.12503320568E+04 -0.20512974939E+03  0.75227928339E+03  0.14735517217E+04  0.46999998093E+01 0.  1.
       -5    1    3    3    0  502 -0.12503320568E+04  0.20512974939E+03  0.44159128705E+02  0.12678251398E+04  0.46999998093E+01 0. -1.
</event>
<event>
 5   0  0.7971763E-06  0.3212240E+04  0.7818609E-02  0.8185592E-01
       -2   -1    0    0    0  501  0.00000000000E+00  0.00000000000E+00  0.12949160460E+04  0.12949160460E+04  0.25500000920E-02 0. -1.
        2   -1    0    0  501    0  0.00000000000E+00  0.00000000000E+00 -0.19921145649E+04  0.19921145649E+04  0.25500000920E-02 0.  1.
    10030    2    1    2    0    0  0.00000000000E+00  0.00000000000E+00 -0.69719851886E+03  0.32870306109E+04  0.32122397891E+04 0.  0.
        1    1    3    3  502    0 -0.79264684330E+03  0.68406448629E+03 -0.15949008630E+04  0.19078632033E+04  0.50400001928E-02 0.  1.
       -1    1    3    3    0  502  0.79264684330E+03 -0.68406448629E+03  0.89770234416E+03  0.13791674077E+04  0.50400001928E-02 0. -1.
</event>
<event>
 5   0  0.6104539E-06  0.1589825E+04  0.7818609E-02  0.8826823E-01
        1   -1    0    0  501    0  0.00000000000E+00  0.00000000000E+00  0.82538167714E+03  0.82538167716E+03  0.50400001928E-02 0.  1.
       -1   -1    0    0    0  501  0.00000000000E+00  0.00000000000E+00 -0.76556831895E+03  0.76556831896E+03  0.50400001928E-02 0. -1.
    10030    2    1    2    0    0  0.00000000000E+00  0.00000000000E+00  0.59813358194E+02  0.15909499961E+04  0.15898252270E+04 0.  0.
        4    1    3    3  502    0  0.39144819934E+03  0.52541871435E+03 -0.42050944756E+03  0.77854115276E+03  0.12699999809E+01 0. -1.
       -4    1    3    3    0  502 -0.39144819934E+03 -0.52541871435E+03  0.48032280575E+03  0.81240884336E+03  0.12699999809E+01 0.  1.
</event>
<event>
 5   0  0.2933646E-06  0.2941115E+04  0.7818609E-02  0.8260749E-01
        1   -1    0    0  501    0  0.00000000000E+00  0.00000000000E+00  0.16332748961E+04  0.16332748961E+04  0.50400001928E-02 0.  1.
       -1   -1    0    0    0  501  0.00000000000E+00  0.00000000000E+00 -0.13240512397E+04  0.13240512397E+04  0.50400001928E-02 0. -1.
    10030    2    1    2    0    0  0.00000000000E+00  0.00000000000E+00  0.30922365641E+03  0.29573261358E+04  0.29411151973E+04 0.  0.
        2    1    3    3  502    0  0.12599854726E+04 -0.33269843614E+03  0.83975434799E+03  0.15503028754E+04  0.25500000920E-02 0. -1.
       -2    1    3    3    0  502 -0.12599854726E+04  0.33269843614E+03 -0.53053069158E+03  0.14070232604E+04  0.25500000920E-02 0.  1.
</event>
<event>
 5   0  0.7941434E-06  0.3188099E+04  0.7818609E-02  0.8191967E-01
        2   -1    0    0  501    0  0.00000000000E+00  0.00000000000E+00  0.21107254745E+04  0.21107254745E+04  0.25500000920E-02 0.  1.
       -2   -1    0    0    0  501  0.00000000000E+00  0.00000000000E+00 -0.12038486603E+04  0.12038486603E+04  0.25500000920E-02 0. -1.
    10030    2    1    2    0    0  0.00000000000E+00  0.00000000000E+00  0.90687681412E+03  0.33145741348E+04  0.31880991420E+04 0.  0.
        4    1    3    3  502    0  0.82774087502E+03 -0.46799083603E+02 -0.96206028179E+03  0.12700026414E+04  0.12699999809E+01 0. -1.
       -4    1    3    3    0  502 -0.82774087502E+03  0.46799083603E+02  0.18689370959E+04  0.20445714934E+04  0.12699999809E+01 0.  1.
</event>
<event>
 5   0  0.7952307E-06  0.3113671E+04  0.7818609E-02  0.8211996E-01
       -2   -1    0    0    0  501  0.00000000000E+00  0.00000000000E+00  0.11519649930E+04  0.11519649930E+04  0.25500000920E-02 0.  1.
        2   -1    0    0  501    0  0.00000000000E+00  0.00000000000E+00 -0.21040015208E+04  0.21040015208E+04  0.25500000920E-02 0. -1.
    10030    2    1    2    0    0  0.00000000000E+00  0.00000000000E+00 -0.95203652778E+03  0.32559665138E+04  0.31136705652E+04 0.  0.
        2    1    3    3  502    0  0.14721576990E+03  0.37858415993E+03  0.10955750189E+04  0.11684532815E+04  0.25500000920E-02 0.  1.
       -2    1    3    3    0  502 -0.14721576990E+03 -0.37858415993E+03 -0.20476115466E+04  0.20875132323E+04  0.25500000920E-02 0. -1.
</event>
<event>
 5   0  0.7510251E-06  0.3185392E+04  0.7818609E-02  0.8192686E-01
        2   -1    0    0  501    0  0.00000000000E+00  0.00000000000E+00  0.16915007126E+04  0.16915007126E+04  0.25500000920E-02 0.  1.
       -2   -1    0    0    0  501  0.00000000000E+00  0.00000000000E+00 -0.14996627334E+04  0.14996627334E+04  0.25500000920E-02 0. -1.
    10030    2    1    2    0    0  0.00000000000E+00  0.00000000000E+00  0.19183797915E+03  0.31911634460E+04  0.31853920212E+04 0.  0.
        3    1    3    3  502    0 -0.98971565649E+03 -0.57860924461E+03 -0.10116857558E+04  0.15289976512E+04  0.10100000352E+00 0. -1.
       -3    1    3    3    0  502  0.98971565649E+03  0.57860924461E+03  0.12035237350E+04  0.16621657948E+04  0.10100000352E+00 0.  1.
</event>
<event>
 5   0  0.2933646E-06  0.3118824E+04  0.7818609E-02  0.8210591E-01
       -1   -1    0    0    0  501  0.00000000000E+00  0.00000000000E+00  0.15928199160E+04  0.15928199160E+04  0.50400001928E-02 0. -1.
        1   -1    0    0  501    0  0.00000000000E+00  0.00000000000E+00 -0.15267045046E+04  0.15267045046E+04  0.50400001928E-02 0.  1.
    10030    2    1    2    0    0  0.00000000000E+00  0.00000000000E+00  0.66115411360E+02  0.31195244206E+04  0.31188237146E+04 0.  0.
        2    1    3    3  502    0 -0.59430896440E+03 -0.70309967294E+03 -0.12258803291E+04  0.15330801925E+04  0.25500000920E-02 0.  1.
       -2    1    3    3    0  502  0.59430896440E+03  0.70309967294E+03  0.12919957405E+04  0.15864442281E+04  0.25500000920E-02 0. -1.
</event>
<event>
 5   0  0.7941434E-06  0.2294145E+04  0.7818609E-02  0.8480233E-01
       -2   -1    0    0    0  501  0.00000000000E+00  0.00000000000E+00  0.10692001717E+04  0.10692001717E+04  0.25500000920E-02 0. -1.
        2   -1    0    0  501    0  0.00000000000E+00  0.00000000000E+00 -0.12306168267E+04  0.12306168267E+04  0.25500000920E-02 0.  1.
    10030    2    1    2    0    0  0.00000000000E+00  0.00000000000E+00 -0.16141665493E+03  0.22998169984E+04  0.22941453506E+04 0.  0.
        4    1    3    3  502    0  0.69091381588E+03 -0.27858878549E+03  0.79368682917E+03  0.10885375547E+04  0.12699999809E+01 0. -1.
       -4    1    3    3    0  502 -0.69091381588E+03  0.27858878549E+03 -0.95510348410E+03  0.12112794437E+04  0.12699999809E+01 0.  1.
</event>
<event>
 5   0  0.7510251E-06  0.3192737E+04  0.7818609E-02  0.8190738E-01
        2   -1    0    0  501    0  0.00000000000E+00  0.00000000000E+00  0.18302473096E+04  0.18302473096E+04  0.25500000920E-02 0. -1.
       -2   -1    0    0    0  501  0.00000000000E+00  0.00000000000E+00 -0.13923761887E+04  0.13923761887E+04  0.25500000920E-02 0.  1.
    10030    2    1    2    0    0  0.00000000000E+00  0.00000000000E+00  0.43787112087E+03  0.32226234983E+04  0.31927372415E+04 0.  0.
        3    1    3    3  502    0  0.12815185553E+04  0.59399252934E+03  0.96972341919E+03  0.17133243862E+04  0.10100000352E+00 0. -1.
       -3    1    3    3    0  502 -0.12815185553E+04 -0.59399252934E+03 -0.53185229832E+03  0.15092991121E+04  0.10100000352E+00 0.  1.
</event>
<event>
 5   0  0.4142886E-06  0.3155048E+04  0.7818609E-02  0.8200791E-01
       -1   -1    0    0    0  501  0.00000000000E+00  0.00000000000E+00  0.16404258675E+04  0.16404258675E+04  0.50400001928E-02 0. -1.
        1   -1    0    0  501    0  0.00000000000E+00  0.00000000000E+00 -0.15170336972E+04  0.15170336973E+04  0.50400001928E-02 0.  1.
    10030    2    1    2    0    0  0.00000000000E+00  0.00000000000E+00  0.12339217028E+03  0.31574595648E+04  0.31550475869E+04 0.  0.
        5    1    3    3  502    0  0.35080238511E+03  0.13732146494E+04 -0.63149385050E+03  0.15516402160E+04  0.46999998093E+01 0.  1.
       -5    1    3    3    0  502 -0.35080238511E+03 -0.13732146494E+04  0.75488602077E+03  0.16058193488E+04  0.46999998093E+01 0. -1.
</event>
<event>
 5   0  0.7510251E-06  0.2660319E+04  0.7818609E-02  0.8347996E-01
       -2   -1    0    0    0  501  0.00000000000E+00  0.00000000000E+00  0.10030871711E+04  0.10030871711E+04  0.25500000920E-02 0.  1.
        2   -1    0    0  501    0  0.00000000000E+00  0.00000000000E+00 -0.17638789372E+04  0.17638789372E+04  0.25500000920E-02 0. -1.
    10030    2    1    2    0    0  0.00000000000E+00  0.00000000000E+00 -0.76079176610E+03  0.27669661084E+04  0.26603190285E+04 0.  0.
        3    1    3    3  502    0 -0.48560849786E+03  0.70817684672E+03 -0.14369913922E+04  0.16739995014E+04  0.10100000352E+00 0. -1.
       -3    1    3    3    0  502  0.48560849786E+03 -0.70817684672E+03  0.67619962607E+03  0.10929666070E+04  0.10100000352E+00 0.  1.
</event>
<event>
 5   0  0.2933646E-06  0.3360925E+04  0.7818609E-02  0.8147564E-01
       -1   -1    0    0    0  501  0.00000000000E+00  0.00000000000E+00  0.12508852157E+04  0.12508852157E+04  0.50400001928E-02 0. -1.
        1   -1    0    0  501    0  0.00000000000E+00  0.00000000000E+00 -0.22575644190E+04  0.22575644190E+04  0.50400001928E-02 0.  1.
    10030    2    1    2    0    0  0.00000000000E+00  0.00000000000E+00 -0.10066792033E+04  0.35084496348E+04  0.33609248461E+04 0.  0.
        2    1    3    3  502    0  0.92437471118E+03  0.70925156209E+03  0.76078451077E+03  0.13915097760E+04  0.25500000920E-02 0. -1.
       -2    1    3    3    0  502 -0.92437471118E+03 -0.70925156209E+03 -0.17674637141E+04  0.21169398587E+04  0.25500000920E-02 0.  1.
</event>
<event>
 5   0  0.2635798E-06  0.3167467E+04  0.7818609E-02  0.8197462E-01
       -1   -1    0    0    0  501  0.00000000000E+00  0.00000000000E+00  0.29550294027E+04  0.29550294027E+04  0.50400001928E-02 0.  1.
        1   -1    0    0  501    0  0.00000000000E+00  0.00000000000E+00 -0.84879444065E+03  0.84879444066E+03  0.50400001928E-02 0. -1.
    10030    2    1    2    0    0  0.00000000000E+00  0.00000000000E+00  0.21062349621E+04  0.38038238434E+04  0.31674674609E+04 0.  0.
        1    1    3    3  502    0  0.62430559042E+03  0.13454490122E+04  0.38640273386E+03  0.15327418528E+04  0.50400001928E-02 0. -1.
       -1    1    3    3    0  502 -0.62430559042E+03 -0.13454490122E+04  0.17198322282E+04  0.22710819906E+04  0.50400001928E-02 0.  1.
</event>
<event>
 5   0  0.7941434E-06  0.3230430E+04  0.7818609E-02  0.8180827E-01
        2   -1    0    0  501    0  0.00000000000E+00  0.00000000000E+00  0.21655946125E+04  0.21655946125E+04  0.25500000920E-02 0. -1.
       -2   -1    0    0    0  501  0.00000000000E+00  0.00000000000E+00 -0.12047124385E+04  0.12047124385E+04  0.25500000920E-02 0.  1.
    10030    2    1    2    0    0  0.00000000000E+00  0.00000000000E+00  0.96088217406E+03  0.33703070510E+04  0.32304295482E+04 0.  0.
        4    1    3    3  502    0  0.15676934638E+04 -0.15793112521E+03  0.10964793773E+03  0.15794395588E+04  0.12699999809E+01 0.  1.
       -4    1    3    3    0  502 -0.15676934638E+04  0.15793112521E+03  0.85123423632E+03  0.17908674922E+04  0.12699999809E+01 0. -1.
</event>
<event>
 5   0  0.7941434E-06  0.2403028E+04  0.7818609E-02  0.8438371E-01
       -2   -1    0    0    0  501  0.00000000000E+00  0.00000000000E+00  0.77759073753E+03  0.77759073753E+03  0.25500000920E-02 0. -1.
        2   -1    0    0  501    0  0.00000000000E+00  0.00000000000E+00 -0.18565503257E+04  0.18565503257E+04  0.25500000920E-02 0.  1.
    10030    2    1    2    0    0  0.00000000000E+00  0.00000000000E+00 -0.10789595882E+04  0.26341410632E+04  0.24030283702E+04 0.  0.
        4    1    3    3  502    0 -0.24073429655E+03 -0.44283669583E+02  0.74996972965E+03  0.78890446393E+03  0.12699999809E+01 0. -1.
       -4    1    3    3    0  502  0.24073429655E+03  0.44283669583E+02 -0.18289293178E+04  0.18452365993E+04  0.12699999809E+01 0.  1.
</event>
<event>
 5   0  0.7941434E-06  0.3184051E+04  0.7818609E-02  0.8193042E-01
       -2   -1    0    0    0  501  0.00000000000E+00  0.00000000000E+00  0.12855575367E+04  0.12855575367E+04  0.25500000920E-02 0. -1.
        2   -1    0    0  501    0  0.00000000000E+00  0.00000000000E+00 -0.19715531240E+04  0.19715531240E+04  0.25500000920E-02 0.  1.
    10030    2    1    2    0    0  0.00000000000E+00  0.00000000000E+00 -0.68599558727E+03  0.32571106606E+04  0.31840508648E+04 0.  0.
        4    1    3    3  502    0 -0.92382112757E+03 -0.43746584347E+03  0.90554968943E+03  0.13655927991E+04  0.12699999809E+01 0. -1.
       -4    1    3    3    0  502  0.92382112757E+03  0.43746584347E+03 -0.15915452767E+04  0.18915178616E+04  0.12699999809E+01 0.  1.
</event>
<event>
 5   0  0.2788054E-06  0.3346017E+04  0.7818609E-02  0.8151284E-01
       -1   -1    0    0    0  501  0.00000000000E+00  0.00000000000E+00  0.12163702775E+04  0.12163702775E+04  0.50400001928E-02 0. -1.
        1   -1    0    0  501    0  0.00000000000E+00  0.00000000000E+00 -0.23010739415E+04  0.23010739415E+04  0.50400001928E-02 0.  1.
    10030    2    1    2    0    0  0.00000000000E+00  0.00000000000E+00 -0.10847036640E+04  0.35174442190E+04  0.33460173035E+04 0.  0.
        3    1    3    3  502    0  0.27029344710E+03  0.46804957108E+03 -0.22067659488E+04  0.22719913978E+04  0.10100000352E+00 0.  1.
       -3    1    3    3    0  502 -0.27029344710E+03 -0.46804957108E+03  0.11220622849E+04  0.12454528212E+04  0.10100000352E+00 0. -1.
</event>
<event>
 5   0  0.7510251E-06  0.3287211E+04  0.7818609E-02  0.8166157E-01
        2   -1    0    0  501    0  0.00000000000E+00  0.00000000000E+00  0.12481542258E+04  0.12481542258E+04  0.25500000920E-02 0. -1.
       -2   -1    0    0    0  501  0.00000000000E+00  0.00000000000E+00 -0.21643465186E+04  0.21643465186E+04  0.25500000920E-02 0.  1.
    10030    2    1    2    0    0  0.00000000000E+00  0.00000000000E+00 -0.91619229278E+03  0.34125007444E+04  0.32872105216E+04 0.  0.
        3    1    3    3  502    0 -0.64204594587E+03  0.23481255947E+03 -0.20097485281E+04  0.21228398647E+04  0.10100000352E+00 0.  1.
       -3    1    3    3    0  502  0.64204594587E+03 -0.23481255947E+03  0.10935562353E+04  0.12896608797E+04  0.10100000352E+00 0. -1.
</event>
<event>
 5   0  0.7971763E-06  0.2207101E+04  0.7818609E-02  0.8515478E-01
       -2   -1    0    0    0  501  0.00000000000E+00  0.00000000000E+00  0.12840031103E+04  0.12840031103E+04  0.25500000920E-02 0.  1.
        2   -1    0    0  501    0  0.00000000000E+00  0.00000000000E+00 -0.94845818655E+03  0.94845818655E+03  0.25500000920E-02 0. -1.
    10030    2    1    2    0    0  0.00000000000E+00  0.00000000000E+00  0.33554492372E+03  0.22324612968E+04  0.22071005972E+04 0.  0.
        1    1    3    3  502    0  0.46659791939E+03  0.98491268612E+03  0.34313307387E+03  0.11425878190E+04  0.50400001928E-02 0.  1.
       -1    1    3    3    0  502 -0.46659791939E+03 -0.98491268612E+03 -0.75881501558E+01  0.10898734778E+04  0.50400001928E-02 0. -1.
</event>
<event>
 5   0  0.2933646E-06  0.3230454E+04  0.7818609E-02  0.8180820E-01
       -1   -1    0    0    0  501  0.00000000000E+00  0.00000000000E+00  0.16030261836E+04  0.16030261836E+04  0.50400001928E-02 0.  1.
        1   -1    0    0  501    0  0.00000000000E+00  0.00000000000E+00 -0.16275207661E+04  0.16275207661E+04  0.50400001928E-02 0. -1.
    10030    2    1    2    0    0  0.00000000000E+00  0.00000000000E+00 -0.24494582417E+02  0.32305469497E+04  0.32304540872E+04 0.  0.
        2    1    3    3  502    0  0.84904517399E+03  0.67469440151E+03  0.11848118297E+04  0.16061971594E+04  0.25500000920E-02 0.  1.
       -2    1    3    3    0  502 -0.84904517399E+03 -0.67469440151E+03 -0.12093064121E+04  0.16243497903E+04  0.25500000920E-02 0. -1.
</event>
<event>
 5   0  0.2635798E-06  0.3389510E+04  0.7818609E-02  0.8140486E-01
        1   -1    0    0  501    0  0.00000000000E+00  0.00000000000E+00  0.20633039437E+04  0.20633039437E+04  0.50400001928E-02 0. -1.
       -1   -1    0    0    0  501  0.00000000000E+00  0.00000000000E+00 -0.13920367263E+04  0.13920367263E+04  0.50400001928E-02 0.  1.
    10030    2    1    2    0    0  0.00000000000E+00  0.00000000000E+00  0.67126721740E+03  0.34553406700E+04  0.33895102107E+04 0.  0.
        1    1    3    3  502    0 -0.50539314580E+03 -0.16171667461E+04  0.29557213737E+03  0.17198876140E+04  0.50400001928E-02 0. -1.
       -1    1    3    3    0  502  0.50539314580E+03  0.16171667461E+04  0.37569508003E+03  0.17354530560E+04  0.50400001928E-02 0.  1.
</event>
<event>
 5   0  0.2933646E-06  0.1577228E+04  0.7818609E-02  0.8834661E-01
       -1   -1    0    0    0  501  0.00000000000E+00  0.00000000000E+00  0.60825905857E+03  0.60825905859E+03  0.50400001928E-02 0.  1.
        1   -1    0    0  501    0  0.00000000000E+00  0.00000000000E+00 -0.10224458782E+04  0.10224458782E+04  0.50400001928E-02 0. -1.
    10030    2    1    2    0    0  0.00000000000E+00  0.00000000000E+00 -0.41418681959E+03  0.16307049368E+04  0.15772279066E+04 0.  0.
        2    1    3    3  502    0 -0.39741216392E+03  0.44813266000E+03  0.32328375099E+03  0.68064064869E+03  0.25500000920E-02 0.  1.
       -2    1    3    3    0  502  0.39741216392E+03 -0.44813266000E+03 -0.73747057058E+03  0.95006428807E+03  0.25500000920E-02 0. -1.
</event>
<event>
 5   0  0.7510251E-06  0.2824244E+04  0.7818609E-02  0.8295781E-01
        2   -1    0    0  501    0  0.00000000000E+00  0.00000000000E+00  0.15781284762E+04  0.15781284762E+04  0.25500000920E-02 0. -1.
       -2   -1    0    0    0  501  0.00000000000E+00  0.00000000000E+00 -0.12635778648E+04  0.12635778648E+04  0.25500000920E-02 0.  1.
    10030    2    1    2    0    0  0.00000000000E+00  0.00000000000E+00  0.31455061139E+03  0.28417063410E+04  0.28242437645E+04 0.  0.
        3    1    3    3  502    0 -0.75499066183E+03  0.11931662485E+04  0.13637176562E+03  0.14185393419E+04  0.10100000352E+00 0. -1.
       -3    1    3    3    0  502  0.75499066183E+03 -0.11931662485E+04  0.17817884577E+03  0.14231669991E+04  0.10100000352E+00 0.  1.
</event>
<event>
 5   0  0.2933646E-06  0.3219570E+04  0.7818609E-02  0.8183668E-01
        1   -1    0    0  501    0  0.00000000000E+00  0.00000000000E+00  0.17912532179E+04  0.17912532179E+04  0.50400001928E-02 0.  1.
       -1   -1    0    0    0  501  0.00000000000E+00  0.00000000000E+00 -0.14467009352E+04  0.14467009352E+04  0.50400001928E-02 0. -1.
    10030    2    1    2    0    0  0.00000000000E+00  0.00000000000E+00  0.34455228270E+03  0.32379541531E+04  0.32195699747E+04 0.  0.
        2    1    3    3  502    0 -0.83811343777E+03  0.30957622232E+03  0.15190028017E+04  0.17622829182E+04  0.25500000920E-02 0.  1.
       -2    1    3    3    0  502  0.83811343777E+03 -0.30957622232E+03 -0.11744505190E+04  0.14756712349E+04  0.25500000920E-02 0. -1.
</event>
<event>
 5   0  0.7941434E-06  0.3175010E+04  0.7818609E-02  0.8195448E-01
       -2   -1    0    0    0  501  0.00000000000E+00  0.00000000000E+00  0.11242549411E+04  0.11242549411E+04  0.25500000920E-02 0. -1.
        2   -1    0    0  501    0  0.00000000000E+00  0.00000000000E+00 -0.22416373430E+04  0.22416373430E+04  0.25500000920E-02 0.  1.
    10030    2    1    2    0    0  0.00000000000E+00  0.00000000000E+00 -0.11173824019E+04  0.33658922841E+04  0.31750098324E+04 0.  0.
        4    1    3    3  502    0 -0.60627553712E+03 -0.63082573497E+03 -0.19629641076E+04  0.21491255978E+04  0.12699999809E+01 0.  1.
       -4    1    3    3    0  502  0.60627553712E+03  0.63082573497E+03  0.84558170570E+03  0.12167666862E+04  0.12699999809E+01 0. -1.
</event>
<event>
 5   0  0.2788054E-06  0.3211573E+04  0.7818609E-02  0.8185767E-01
       -1   -1    0    0    0  501  0.00000000000E+00  0.00000000000E+00  0.12926587587E+04  0.12926587587E+04  0.50400001928E-02 0.  1.
        1   -1    0    0  501    0  0.00000000000E+00  0.00000000000E+00 -0.19947650118E+04  0.19947650118E+04  0.50400001928E-02 0. -1.
    10030    2    1    2    0    0  0.00000000000E+00  0.00000000000E+00 -0.70210625310E+03  0.32874237705E+04  0.32115731124E+04 0.  0.
        3    1    3    3  502    0 -0.54761649303E+03 -0.14301854869E+04  0.14329827130E+03  0.15381315793E+04  0.10100000352E+00 0.  1.
       -3    1    3    3    0  502  0.54761649303E+03  0.14301854869E+04 -0.84540452440E+03  0.17492921913E+04  0.10100000352E+00 0. -1.
</event>
<event>
 5   0  0.2635798E-06  0.3153302E+04  0.7818609E-02  0.8201260E-01
       -1   -1    0    0    0  501  0.00000000000E+00  0.00000000000E+00  0.19891541375E+04  0.19891541375E+04  0.50400001928E-02 0. -1.
        1   -1    0    0  501    0  0.00000000000E+00  0.00000000000E+00 -0.12496910543E+04  0.12496910543E+04  0.50400001928E-02 0.  1.
    10030    2    1    2    0    0  0.00000000000E+00  0.00000000000E+00  0.73946308322E+03  0.32388451918E+04  0.31533018449E+04 0.  0.
        1    1    3    3  502    0  0.27983606046E+02  0.13268333600E+04  0.12440332128E+04  0.18190350414E+04  0.50400001928E-02 0. -1.
       -1    1    3    3    0  502 -0.27983606046E+02 -0.13268333600E+04 -0.50457012955E+03  0.14198101504E+04  0.50400001928E-02 0.  1.
</event>
<event>
 5   0  0.7941434E-06  0.3181079E+04  0.7818609E-02  0.8193832E-01
       -2   -1    0    0    0  501  0.00000000000E+00  0.00000000000E+00  0.12780488601E+04  0.12780488601E+04  0.25500000920E-02 0. -1.
        2   -1    0    0  501    0  0.00000000000E+00  0.00000000000E+00 -0.19794353630E+04  0.19794353630E+04  0.25500000920E-02 0.  1.
    10030    2    1    2    0    0  0.00000000000E+00  0.00000000000E+00 -0.70138650293E+03  0.32574842231E+04  0.31810785022E+04 0.  0.
        4    1    3    3  502    0 -0.13046677515E+04  0.90874116991E+03 -0.30670761142E+03  0.16192713261E+04  0.12699999809E+01 0. -1.
       -4    1    3    3    0  502  0.13046677515E+04 -0.90874116991E+03 -0.39467889152E+03  0.16382128970E+04  0.12699999809E+01 0.  1.
</event>
<event>
 5   0  0.8237664E-06  0.3159087E+04  0.7818609E-02  0.8199706E-01
       -2   -1    0    0    0  501  0.00000000000E+00  0.00000000000E+00  0.20718612236E+04  0.20718612236E+04  0.25500000920E-02 0.  1.
        2   -1    0    0  501    0  0.00000000000E+00  0.00000000000E+00 -0.12042111422E+04  0.12042111422E+04  0.25500000920E-02 0. -1.
    10030    2    1    2    0    0  0.00000000000E+00  0.00000000000E+00  0.86765008138E+03  0.32760723658E+04  0.31590874445E+04 0.  0.
        5    1    3    3  502    0  0.96136490943E+03  0.75891185732E+03 -0.60048903052E+03  0.13641036845E+04  0.46999998093E+01 0. -1.
       -5    1    3    3    0  502 -0.96136490943E+03 -0.75891185732E+03  0.14681391119E+04  0.19119686813E+04  0.46999998093E+01 0.  1.
</event>
<event>
 5   0  0.2933646E-06  0.1751678E+04  0.7818609E-02  0.8732427E-01
        1   -1    0    0  501    0  0.00000000000E+00  0.00000000000E+00  0.13131795891E+04  0.13131795891E+04  0.50400001928E-02 0.  1.
       -1   -1    0    0    0  501  0.00000000000E+00  0.00000000000E+00 -0.58415030638E+03  0.58415030640E+03  0.50400001928E-02 0. -1.
    10030    2    1    2    0    0  0.00000000000E+00  0.00000000000E+00  0.72902928271E+03  0.18973298955E+04  0.17516783487E+04 0.  0.
        2    1    3    3  502    0 -0.73866836003E+03  0.14463385691E+03 -0.12054340674E+03  0.76228643671E+03  0.25500000920E-02 0. -1.
       -2    1    3    3    0  502  0.73866836003E+03 -0.14463385691E+03  0.84957268945E+03  0.11350434588E+04  0.25500000920E-02 0.  1.
</event>
<event>
 5   0  0.3938696E-06  0.1944372E+04  0.7818609E-02  0.8633079E-01
        1   -1    0    0  501    0  0.00000000000E+00  0.00000000000E+00  0.12061391704E+04  0.12061391704E+04  0.50400001928E-02 0.  1.
       -1   -1    0    0    0  501  0.00000000000E+00  0.00000000000E+00 -0.78361249752E+03  0.78361249753E+03  0.50400001928E-02 0. -1.
    10030    2    1    2    0    0  0.00000000000E+00  0.00000000000E+00  0.42252667292E+03  0.19897516680E+04  0.19443721122E+04 0.  0.
        4    1    3    3  502    0  0.47734776556E+03 -0.68682407270E+03  0.71836460534E+03  0.11025595291E+04  0.12699999809E+01 0.  1.
       -4    1    3    3    0  502 -0.47734776556E+03  0.68682407270E+03 -0.29583793241E+03  0.88719213887E+03  0.12699999809E+01 0. -1.
</event>
<event>
 5   0  0.2635798E-06  0.3162531E+04  0.7818609E-02  0.8198783E-01
        1   -1    0    0  501    0  0.00000000000E+00  0.00000000000E+00  0.16060906055E+04  0.16060906056E+04  0.50400001928E-02 0.  1.
       -1   -1    0    0    0  501  0.00000000000E+00  0.00000000000E+00 -0.15568239553E+04  0.15568239553E+04  0.50400001928E-02 0. -1.
    10030    2    1    2    0    0  0.00000000000E+00  0.00000000000E+00  0.49266650236E+02  0.31629145609E+04  0.31625308404E+04 0.  0.
        1    1    3    3  502    0 -0.40969148261E+03  0.45452543843E+03 -0.14336107474E+04  0.15587431668E+04  0.50400001928E-02 0. -1.
       -1    1    3    3    0  502  0.40969148261E+03 -0.45452543843E+03  0.14828773976E+04  0.16041713941E+04  0.50400001928E-02 0.  1.
</event>
<event>
 5   0  0.2788054E-06  0.1836441E+04  0.7818609E-02  0.8687157E-01
        1   -1    0    0  501    0  0.00000000000E+00  0.00000000000E+00  0.13220777600E+04  0.13220777600E+04  0.50400001928E-02 0. -1.
       -1   -1    0    0    0  501  0.00000000000E+00  0.00000000000E+00 -0.63773020182E+03  0.63773020184E+03  0.50400001928E-02 0.  1.
    10030    2    1    2    0    0  0.00000000000E+00  0.00000000000E+00  0.68434755818E+03  0.19598079619E+04  0.18364410328E+04 0.  0.
        3    1    3    3  502    0 -0.30714219827E+03 -0.53270782597E+03  0.10699032902E+04  0.12340206718E+04  0.10100000352E+00 0. -1.
       -3    1    3    3    0  502  0.30714219827E+03  0.53270782597E+03 -0.38555573199E+03  0.72578729010E+03  0.10100000352E+00 0.  1.
</event>
<event>
 5   0  0.7971763E-06  0.3242532E+04  0.7818609E-02  0.8177674E-01
        2   -1    0    0  501    0  0.00000000000E+00  0.00000000000E+00  0.28178885513E+04  0.28178885513E+04  0.25500000920E-02 0. -1.
       -2   -1    0    0    0  501  0.00000000000E+00  0.00000000000E+00 -0.93279193756E+03  0.93279193757E+03  0.25500000920E-02 0.  1.
    10030    2    1    2    0    0  0.00000000000E+00  0.00000000000E+00  0.18850966137E+04  0.37506804889E+04  0.32425321720E+04 0.  0.
        1    1    3    3  502    0  0.83828757185E+03 -0.78544582514E+03 -0.38079075768E+03  0.12102284076E+04  0.50400001928E-02 0.  1.
       -1    1    3    3    0  502 -0.83828757185E+03  0.78544582514E+03  0.22658873714E+04  0.25404520813E+04  0.50400001928E-02 0. -1.
</event>
<event>
 5   0  0.4142886E-06  0.3115500E+04  0.7818609E-02  0.8211497E-01
       -1   -1    0    0    0  501  0.00000000000E+00  0.00000000000E+00  0.19096206275E+04  0.19096206275E+04  0.50400001928E-02 0.  1.
        1   -1    0    0  501    0  0.00000000000E+00  0.00000000000E+00 -0.12707158254E+04  0.12707158254E+04  0.50400001928E-02 0. -1.
    10030    2    1    2    0    0  0.00000000000E+00  0.00000000000E+00  0.63890480209E+03  0.31803364530E+04  0.31155000574E+04 0.  0.
        5    1    3    3  502    0 -0.12232051244E+04 -0.58895885878E+03  0.10991940887E+04  0.17468122533E+04  0.46999998093E+01 0.  1.
       -5    1    3    3    0  502  0.12232051244E+04  0.58895885878E+03 -0.46028928664E+03  0.14335241997E+04  0.46999998093E+01 0. -1.
</event>
<event>
 5   0  0.2635798E-06  0.2997347E+04  0.7818609E-02  0.8244489E-01
        1   -1    0    0  501    0  0.00000000000E+00  0.00000000000E+00  0.15443996238E+04  0.15443996239E+04  0.50400001928E-02 0. -1.
       -1   -1    0    0    0  501  0.00000000000E+00  0.00000000000E+00 -0.14543012437E+04  0.14543012437E+04  0.50400001928E-02 0.  1.
    10030    2    1    2    0    0  0.00000000000E+00  0.00000000000E+00  0.90098380154E+02  0.29987008676E+04  0.29973470228E+04 0.  0.
        1    1    3    3  502    0  0.45528939289E+03 -0.13574612595E+04  0.48800507954E+03  0.15126593999E+04  0.50400001928E-02 0. -1.
       -1    1    3    3    0  502 -0.45528939289E+03  0.13574612595E+04 -0.39790669938E+03  0.14860414677E+04  0.50400001928E-02 0.  1.
</event>
<event>
 5   0  0.2788054E-06  0.2923331E+04  0.7818609E-02  0.8265970E-01
       -1   -1    0    0    0  501  0.00000000000E+00  0.00000000000E+00  0.10391438512E+04  0.10391438512E+04  0.50400001928E-02 0.  1.
        1   -1    0    0  501    0  0.00000000000E+00  0.00000000000E+00 -0.20559862657E+04  0.20559862657E+04  0.50400001928E-02 0. -1.
    10030    2    1    2    0    0  0.00000000000E+00  0.00000000000E+00 -0.10168424145E+04  0.30951301169E+04  0.29233306252E+04 0.  0.
        3    1    3    3  502    0  0.10890512867E+04  0.55398848297E+03 -0.13577683215E+04  0.18266008785E+04  0.10100000352E+00 0. -1.
       -3    1    3    3    0  502 -0.10890512867E+04 -0.55398848297E+03  0.34092590703E+03  0.12685292384E+04  0.10100000352E+00 0.  1.
</event>
<event>
 5   0  0.3938696E-06  0.3216729E+04  0.7818609E-02  0.8184413E-01
       -1   -1    0    0    0  501  0.00000000000E+00  0.00000000000E+00  0.17253516366E+04  0.17253516366E+04  0.50400001928E-02 0.  1.
        1   -1    0    0  501    0  0.00000000000E+00  0.00000000000E+00 -0.14993099225E+04  0.14993099225E+04  0.50400001928E-02 0. -1.
    10030    2    1    2    0    0  0.00000000000E+00  0.00000000000E+00  0.22604171416E+03  0.32246615591E+04  0.32167292883E+04 0.  0.
        4    1    3    3  502    0  0.59394017579E+03 -0.13495750198E+04  0.75703602362E+03  0.16574748325E+04  0.12699999809E+01 0.  1.
       -4    1    3    3    0  502 -0.59394017579E+03  0.13495750198E+04 -0.53099430946E+03  0.15671867266E+04  0.12699999809E+01 0. -1.
</event>
<event>
 5   0  0.4142886E-06  0.3222849E+04  0.7818609E-02  0.8182809E-01
       -1   -1    0    0    0  501  0.00000000000E+00  0.00000000000E+00  0.12719181012E+04  0.12719181012E+04  0.50400001928E-02 0.  1.
        1   -1    0    0  501    0  0.00000000000E+00  0.00000000000E+00 -0.20415529597E+04  0.20415529597E+04  0.50400001928E-02 0. -1.
    10030    2    1    2    0    0  0.00000000000E+00  0.00000000000E+00 -0.76963485848E+03  0.33134710609E+04  0.32228485313E+04 0.  0.
        5    1    3    3  502    0 -0.10301528538E+04  0.60471127239E+03 -0.14967911869E+04  0.19150186873E+04  0.46999998093E+01 0. -1.
       -5    1    3    3    0  502  0.10301528538E+04 -0.60471127239E+03  0.72715632845E+03  0.13984523736E+04  0.46999998093E+01 0.  1.
</event>
<event>
 5   0  0.7971763E-06  0.2453284E+04  0.7818609E-02  0.8419820E-01
        2   -1    0    0  501    0  0.00000000000E+00  0.00000000000E+00  0.97533738109E+03  0.97533738109E+03  0.25500000920E-02 0.  1.
       -2   -1    0    0    0  501  0.00000000000E+00  0.00000000000E+00 -0.15426978389E+04  0.15426978389E+04  0.25500000920E-02 0. -1.
    10030    2    1    2    0    0  0.00000000000E+00  0.00000000000E+00 -0.56736045785E+03  0.25180352200E+04  0.24532842233E+04 0.  0.
        1    1    3    3  502    0 -0.65100208045E+03  0.89357706106E+03  0.26172720852E+03  0.11361271075E+04  0.50400001928E-02 0. -1.
       -1    1    3    3    0  502  0.65100208045E+03 -0.89357706106E+03 -0.82908766637E+03  0.13819081125E+04  0.50400001928E-02 0.  1.
</event>
<event>
 5   0  0.7510251E-06  0.3220224E+04  0.7818609E-02  0.8183496E-01
       -2   -1    0    0    0  501  0.00000000000E+00  0.00000000000E+00  0.88207000843E+03  0.88207000843E+03  0.25500000920E-02 0.  1.
        2   -1    0    0  501    0  0.00000000000E+00  0.00000000000E+00 -0.29390651665E+04  0.29390651665E+04  0.25500000920E-02 0. -1.
    10030    2    1    2    0    0  0.00000000000E+00  0.00000000000E+00 -0.20569951581E+04  0.38211351749E+04  0.32202243625E+04 0.  0.
        3    1    3    3  502    0  0.26341284132E+03  0.98619868053E+03  0.44904615195E+03  0.11151756002E+04  0.10100000352E+00 0.  1.
       -3    1    3    3    0  502 -0.26341284132E+03 -0.98619868053E+03 -0.25060413100E+04  0.27059595747E+04  0.10100000352E+00 0. -1.
</event>
<event>
 5   0  0.2788054E-06  0.2113777E+04  0.7818609E-02  0.8555198E-01
       -1   -1    0    0    0  501  0.00000000000E+00  0.00000000000E+00  0.56719889589E+03  0.56719889591E+03  0.50400001928E-02 0.  1.
        1   -1    0    0  501    0  0.00000000000E+00  0.00000000000E+00 -0.19693510661E+04  0.19693510661E+04  0.50400001928E-02 0. -1.
    10030    2    1    2    0    0  0.00000000000E+00  0.00000000000E+00 -0.14021521702E+04  0.25365499620E+04  0.21137774247E+04 0.  0.
        3    1    3    3  502    0  0.71328534240E+03  0.70083482106E+03 -0.11116618116E+04  0.14952382485E+04  0.10100000352E+00 0. -1.
       -3    1    3    3    0  502 -0.71328534240E+03 -0.70083482106E+03 -0.29049035857E+03  0.10413117135E+04  0.10100000352E+00 0.  1.
</event>
<event>
 5   0  0.2933646E-06  0.3158364E+04  0.7818609E-02  0.8199900E-01
        1   -1    0    0  501    0  0.00000000000E+00  0.00000000000E+00  0.22507309759E+04  0.22507309759E+04  0.50400001928E-02 0. -1.
       -1   -1    0    0    0  501  0.00000000000E+00  0.00000000000E+00 -0.11080025995E+04  0.11080025995E+04  0.50400001928E-02 0.  1.
    10030    2    1    2    0    0  0.00000000000E+00  0.00000000000E+00  0.11427283764E+04  0.33587335753E+04  0.31583639891E+04 0.  0.
        2    1    3    3  502    0 -0.11494809306E+04 -0.49183719568E+03  0.15972433117E+04  0.20283975038E+04  0.25500000920E-02 0. -1.
       -2    1    3    3    0  502  0.11494809306E+04  0.49183719568E+03 -0.45451493527E+03  0.13303360715E+04  0.25500000920E-02 0.  1.
</event>
<event>
 5   0  0.3938696E-06  0.1884547E+04  0.7818609E-02  0.8662587E-01
        1   -1    0    0  501    0  0.00000000000E+00  0.00000000000E+00  0.15879821515E+04  0.15879821515E+04  0.50400001928E-02 0. -1.
       -1   -1    0    0    0  501  0.00000000000E+00  0.00000000000E+00 -0.55912447994E+03  0.55912447997E+03  0.50400001928E-02 0.  1.
    10030    2    1    2    0    0  0.00000000000E+00  0.00000000000E+00  0.10288576716E+04  0.21471066315E+04  0.18845473671E+04 0.  0.
        4    1    3    3  502    0 -0.50545295047E+03  0.67083691158E+03  0.27879251138E+02  0.84040687326E+03  0.12699999809E+01 0.  1.
       -4    1    3    3    0  502  0.50545295047E+03 -0.67083691158E+03  0.10009784205E+04  0.13066997582E+04  0.12699999809E+01 0. -1.
</event>
<event>
 5   0  0.2933646E-06  0.3106413E+04  0.7818609E-02  0.8213980E-01
       -1   -1    0    0    0  501  0.00000000000E+00  0.00000000000E+00  0.14952836618E+04  0.14952836618E+04  0.50400001928E-02 0. -1.
        1   -1    0    0  501    0  0.00000000000E+00  0.00000000000E+00 -0.16133735422E+04  0.16133735422E+04  0.50400001928E-02 0.  1.
    10030    2    1    2    0    0  0.00000000000E+00  0.00000000000E+00 -0.11808988048E+03  0.31086572040E+04  0.31064134290E+04 0.  0.
        2    1    3    3  502    0  0.61820573155E+03  0.65950747755E+02  0.13653324650E+04  0.15002201730E+04  0.25500000920E-02 0. -1.
       -2    1    3    3    0  502 -0.61820573155E+03 -0.65950747755E+02 -0.14834223454E+04  0.16084370310E+04  0.25500000920E-02 0.  1.
</event>
<event>
 5   0  0.2635798E-06  0.3154309E+04  0.7818609E-02  0.8200989E-01
        1   -1    0    0  501    0  0.00000000000E+00  0.00000000000E+00  0.19928007790E+04  0.19928007790E+04  0.50400001928E-02 0. -1.
       -1   -1    0    0    0  501  0.00000000000E+00  0.00000000000E+00 -0.12482009467E+04  0.12482009467E+04  0.50400001928E-02 0.  1.
    10030    2    1    2    0    0  0.00000000000E+00  0.00000000000E+00  0.74459983225E+03  0.32410017257E+04  0.31543086843E+04 0.  0.
        1    1    3    3  502    0  0.50070403704E+02 -0.96885906359E+03  0.16499467958E+04  0.19140322253E+04  0.50400001928E-02 0. -1.
       -1    1    3    3    0  502 -0.50070403704E+02  0.96885906359E+03 -0.90534696359E+03  0.13269695004E+04  0.50400001928E-02 0.  1.
</event>
<event>
 5   0  0.4142886E-06  0.3102953E+04  0.7818609E-02  0.8214928E-01
        1   -1    0    0  501    0  0.00000000000E+00  0.00000000000E+00  0.18874485641E+04  0.18874485641E+04  0.50400001928E-02 0. -1.
       -1   -1    0    0    0  501  0.00000000000E+00  0.00000000000E+00 -0.12753085341E+04  0.12753085342E+04  0.50400001928E-02 0.  1.
    10030    2    1    2    0    0  0.00000000000E+00  0.00000000000E+00  0.61214002995E+03  0.31627570983E+04  0.31029529559E+04 0.  0.
        5    1    3    3  502    0 -0.40048486939E+03  0.12606712380E+04  0.11324845057E+04  0.17413280411E+04  0.46999998093E+01 0. -1.
       -5    1    3    3    0  502  0.40048486939E+03 -0.12606712380E+04 -0.52034447578E+03  0.14214290572E+04  0.46999998093E+01 0.  1.
</event>
<event>
 5   0  0.8237664E-06  0.3162695E+04  0.7818609E-02  0.8198739E-01
        2   -1    0    0  501    0  0.00000000000E+00  0.00000000000E+00  0.18340386830E+04  0.18340386830E+04  0.25500000920E-02 0.  1.
       -2   -1    0    0    0  501  0.00000000000E+00  0.00000000000E+00 -0.13634717640E+04  0.13634717640E+04  0.25500000920E-02 0. -1.
    10030    2    1    2    0    0  0.00000000000E+00  0.00000000000E+00  0.47056691904E+03  0.31975104470E+04  0.31626950269E+04 0.  0.
        5    1    3    3  502    0 -0.49385525459E+03 -0.45994317724E+03  0.16811301448E+04  0.18115356448E+04  0.46999998093E+01 0.  1.
       -5    1    3    3    0  502  0.49385525459E+03  0.45994317724E+03 -0.12105632257E+04  0.13859748022E+04  0.46999998093E+01 0. -1.
</event>
<event>
 5   0  0.7941434E-06  0.3297535E+04  0.7818609E-02  0.8163523E-01
        2   -1    0    0  501    0  0.00000000000E+00  0.00000000000E+00  0.20352324687E+04  0.20352324687E+04  0.25500000920E-02 0.  1.
       -2   -1    0    0    0  501  0.00000000000E+00  0.00000000000E+00 -0.13356873175E+04  0.13356873175E+04  0.25500000920E-02 0. -1.
    10030    2    1    2    0    0  0.00000000000E+00  0.00000000000E+00  0.69954515127E+03  0.33709197862E+04  0.32975349561E+04 0.  0.
        4    1    3    3  502    0  0.61878319628E+03  0.11388263497E+03 -0.12081414252E+04  0.13621560904E+04  0.12699999809E+01 0. -1.
       -4    1    3    3    0  502 -0.61878319628E+03 -0.11388263497E+03  0.19076865765E+04  0.20087636958E+04  0.12699999809E+01 0.  1.
</event>
<event>
 5   0  0.7510251E-06  0.3242807E+04  0.7818609E-02  0.8177602E-01
       -2   -1    0    0    0  501  0.00000000000E+00  0.00000000000E+00  0.18007077737E+04  0.18007077737E+04  0.25500000920E-02 0. -1.
        2   -1    0    0  501    0  0.00000000000E+00  0.00000000000E+00 -0.14599535857E+04  0.14599535857E+04  0.25500000920E-02 0.  1.
    10030    2    1    2    0    0  0.00000000000E+00  0.00000000000E+00  0.34075418801E+03  0.32606613593E+04  0.32428072844E+04 0.  0.
        3    1    3    3  502    0 -0.16189319908E+04  0.79808523448E+02  0.21109162887E+03  0.16345855368E+04  0.10100000352E+00 0. -1.
       -3    1    3    3    0  502  0.16189319908E+04 -0.79808523448E+02  0.12966255914E+03  0.16260758225E+04  0.10100000352E+00 0.  1.
</event>
<event>
 5   0  0.7941434E-06  0.3143639E+04  0.7818609E-02  0.8203863E-01
        2   -1    0    0  501    0  0.00000000000E+00  0.00000000000E+00  0.10962791044E+04  0.10962791044E+04  0.25500000920E-02 0.  1.
       -2   -1    0    0    0  501  0.00000000000E+00  0.00000000000E+00 -0.22536382911E+04  0.22536382911E+04  0.25500000920E-02 0. -1.
    10030    2    1    2    0    0  0.00000000000E+00  0.00000000000E+00 -0.11573591867E+04  0.33499173954E+04  0.31436390170E+04 0.  0.
        4    1    3    3  502    0  0.29457114308E+03 -0.19365320386E+03  0.10536092566E+04  0.11110210620E+04  0.12699999809E+01 0.  1.
       -4    1    3    3    0  502 -0.29457114308E+03  0.19365320386E+03 -0.22109684433E+04  0.22388963334E+04  0.12699999809E+01 0. -1.
</event>
<event>
 5   0  0.7941434E-06  0.2980878E+04  0.7818609E-02  0.8249213E-01
        2   -1    0    0  501    0  0.00000000000E+00  0.00000000000E+00  0.14416327849E+04  0.14416327849E+04  0.25500000920E-02 0. -1.
       -2   -1    0    0    0  501  0.00000000000E+00  0.00000000000E+00 -0.15408972601E+04  0.15408972601E+04  0.25500000920E-02 0.  1.
    10030    2    1    2    0    0  0.00000000000E+00  0.00000000000E+00 -0.99264475144E+02  0.29825300450E+04  0.29808777286E+04 0.  0.
        4    1    3    3  502    0  0.39205341087E+03  0.10965586374E+04 -0.98034120120E+03  0.15222408502E+04  0.12699999809E+01 0.  1.
       -4    1    3    3    0  502 -0.39205341087E+03 -0.10965586374E+04  0.88107672606E+03  0.14602891948E+04  0.12699999809E+01 0. -1.
</event>
<event>
 5   0  0.2635798E-06  0.3216842E+04  0.7818609E-02  0.8184383E-01
        1   -1    0    0  501    0  0.00000000000E+00  0.00000000000E+00  0.11887434664E+04  0.11887434664E+04  0.50400001928E-02 0. -1.
       -1   -1    0    0    0  501  0.00000000000E+00  0.00000000000E+00 -0.21762629647E+04  0.21762629647E+04  0.50400001928E-02 0.  1.
    10030    2    1    2    0    0  0.00000000000E+00  0.00000000000E+00 -0.98751949826E+03  0.33650064311E+04  0.32168421661E+04 0.  0.
        1    1    3    3  502    0 -0.46867323315E+03 -0.72020075212E+02  0.11139674306E+04  0.12106877910E+04  0.50400001928E-02 0. -1.
       -1    1    3    3    0  502  0.46867323315E+03  0.72020075212E+02 -0.21014869289E+04  0.21543186401E+04  0.50400001928E-02 0.  1.
</event>
<event>
 5   0  0.4142886E-06  0.3273032E+04  0.7818609E-02  0.8169792E-01
        1   -1    0    0  501    0  0.00000000000E+00  0.00000000000E+00  0.25014566967E+04  0.25014566967E+04  0.50400001928E-02 0. -1.
       -1   -1    0    0    0  501  0.00000000000E+00  0.00000000000E+00 -0.10706496759E+04  0.10706496759E+04  0.50400001928E-02 0.  1.
    10030    2    1    2    0    0  0.00000000000E+00  0.00000000000E+00  0.14308070208E+04  0.35721063726E+04  0.32730315010E+04 0.  0.
        5    1    3    3  502    0 -0.12364204750E+04  0.52356255568E+03 -0.30566466150E+03  0.13770643834E+04  0.46999998093E+01 0.  1.
       -5    1    3    3    0  502  0.12364204750E+04 -0.52356255568E+03  0.17364716823E+04  0.21950419892E+04  0.46999998093E+01 0. -1.
</event>
<event>
 5   0  0.2788054E-06  0.3169561E+04  0.7818609E-02  0.8196903E-01
       -1   -1    0    0    0  501  0.00000000000E+00  0.00000000000E+00  0.13357929202E+04  0.13357929202E+04  0.50400001928E-02 0. -1.
        1   -1    0    0  501    0  0.00000000000E+00  0.00000000000E+00 -0.18801787535E+04  0.18801787535E+04  0.50400001928E-02 0.  1.
    10030    2    1    2    0    0  0.00000000000E+00  0.00000000000E+00 -0.54438583329E+03  0.32159716737E+04  0.31695611479E+04 0.  0.
        3    1    3    3  502    0 -0.14872578951E+04  0.22508075958E+03  0.23404363460E+03  0.15222922939E+04  0.10100000352E+00 0. -1.
       -3    1    3    3    0  502  0.14872578951E+04 -0.22508075958E+03 -0.77842946789E+03  0.16936793798E+04  0.10100000352E+00 0.  1.
</event>
<event>
 5   0  0.7971763E-06  0.3169288E+04  0.7818609E-02  0.8196976E-01
        2   -1    0    0  501    0  0.00000000000E+00  0.00000000000E+00  0.11252142587E+04  0.11252142587E+04  0.25500000920E-02 0.  1.
       -2   -1    0    0    0  501  0.00000000000E+00  0.00000000000E+00 -0.22316605164E+04  0.22316605164E+04  0.25500000920E-02 0. -1.
    10030    2    1    2    0    0  0.00000000000E+00  0.00000000000E+00 -0.11064462577E+04  0.33568747750E+04  0.31692877645E+04 0.  0.
        1    1    3    3  502    0 -0.78108162210E+03 -0.13637587829E+04 -0.33831027190E+03  0.16076008082E+04  0.50400001928E-02 0. -1.
       -1    1    3    3    0  502  0.78108162210E+03  0.13637587829E+04 -0.76813598582E+03  0.17492739669E+04  0.50400001928E-02 0.  1.
</event>
<event>
 5   0  0.2635798E-06  0.3236080E+04  0.7818609E-02  0.8179353E-01
        1   -1    0    0  501    0  0.00000000000E+00  0.00000000000E+00  0.15016535444E+04  0.15016535444E+04  0.50400001928E-02 0. -1.
       -1   -1    0    0    0  501  0.00000000000E+00  0.00000000000E+00 -0.17434475878E+04  0.17434475878E+04  0.50400001928E-02 0.  1.
    10030    2    1    2    0    0  0.00000000000E+00  0.00000000000E+00 -0.24179404340E+03  0.32451011321E+04  0.32360804993E+04 0.  0.
        1    1    3    3  502    0  0.53960495130E+03  0.11762926270E+04  0.85300348459E+03  0.15499847717E+04  0.50400001928E-02 0. -1.
       -1    1    3    3    0  502 -0.53960495130E+03 -0.11762926270E+04 -0.10947975280E+04  0.16951163604E+04  0.50400001928E-02 0.  1.
</event>
<event>
 5   0  0.7510251E-06  0.3224165E+04  0.7818609E-02  0.8182464E-01
       -2   -1    0    0    0  501  0.00000000000E+00  0.00000000000E+00  0.12663027458E+04  0.12663027458E+04  0.25500000920E-02 0.  1.
        2   -1    0    0  501    0  0.00000000000E+00  0.00000000000E+00 -0.20522822399E+04  0.20522822399E+04  0.25500000920E-02 0. -1.
    10030    2    1    2    0    0  0.00000000000E+00  0.00000000000E+00 -0.78597949416E+03  0.33185849857E+04  0.32241654024E+04 0.  0.
        3    1    3    3  502    0 -0.31286159763E+02 -0.28775651038E+03 -0.20253162881E+04  0.20458955766E+04  0.10100000352E+00 0. -1.
       -3    1    3    3    0  502  0.31286159763E+02  0.28775651038E+03  0.12393367940E+04  0.12726894091E+04  0.10100000352E+00 0.  1.
</event>
<event>
 5   0  0.4142886E-06  0.3015750E+04  0.7818609E-02  0.8239248E-01
       -1   -1    0    0    0  501  0.00000000000E+00  0.00000000000E+00  0.12967723005E+04  0.12967723005E+04  0.50400001928E-02 0. -1.
        1   -1    0    0  501    0  0.00000000000E+00  0.00000000000E+00 -0.17533438272E+04  0.17533438272E+04  0.50400001928E-02 0.  1.
    10030    2    1    2    0    0  0.00000000000E+00  0.00000000000E+00 -0.45657152669E+03  0.30501161276E+04  0.30157504593E+04 0.  0.
        5    1    3    3  502    0  0.63830924193E+03  0.11414221282E+04 -0.98742708402E+03  0.16386938394E+04  0.46999998093E+01 0. -1.
       -5    1    3    3    0  502 -0.63830924193E+03 -0.11414221282E+04  0.53085555732E+03  0.14114222882E+04  0.46999998093E+01 0.  1.
</event>
<event>
 5   0  0.7510251E-06  0.2450208E+04  0.7818609E-02  0.8420942E-01
        2   -1    0    0  501    0  0.00000000000E+00  0.00000000000E+00  0.11335985988E+04  0.11335985988E+04  0.25500000920E-02 0.  1.
       -2   -1    0    0    0  501  0.00000000000E+00  0.00000000000E+00 -0.13239955995E+04  0.13239955995E+04  0.25500000920E-02 0. -1.
    10030    2    1    2    0    0  0.00000000000E+00  0.00000000000E+00 -0.19039700068E+03  0.24575941983E+04  0.24502077923E+04 0.  0.
        3    1    3    3  502    0  0.94022298169E+03 -0.49440430245E+03  0.51690728047E+03  0.11813754765E+04  0.10100000352E+00 0.  1.
       -3    1    3    3    0  502 -0.94022298169E+03  0.49440430245E+03 -0.70730428115E+03  0.12762187218E+04  0.10100000352E+00 0. -1.
</event>
<event>
 5   0  0.7971763E-06  0.3276928E+04  0.7818609E-02  0.8168791E-01
        2   -1    0    0  501    0  0.00000000000E+00  0.00000000000E+00  0.20939033065E+04  0.20939033065E+04  0.25500000920E-02 0.  1.
       -2   -1    0    0    0  501  0.00000000000E+00  0.00000000000E+00 -0.12820862819E+04  0.12820862819E+04  0.25500000920E-02 0. -1.
    10030    2    1    2    0    0  0.00000000000E+00  0.00000000000E+00  0.81181702469E+03  0.33759895884E+04  0.32769282597E+04 0.  0.
        1    1    3    3  502    0  0.42358600543E+03  0.39174198786E+03 -0.11739677580E+04  0.13080853130E+04  0.50400001928E-02 0. -1.
       -1    1    3    3    0  502 -0.42358600543E+03 -0.39174198786E+03  0.19857847827E+04  0.20679042754E+04  0.50400001928E-02 0.  1.
</event>
<event>
 5   0  0.4142886E-06  0.3182328E+04  0.7818609E-02  0.8193500E-01
       -1   -1    0    0    0  501  0.00000000000E+00  0.00000000000E+00  0.12039576023E+04  0.12039576023E+04  0.50400001928E-02 0. -1.
        1   -1    0    0  501    0  0.00000000000E+00  0.00000000000E+00 -0.21029009533E+04  0.21029009533E+04  0.50400001928E-02 0.  1.
    10030    2    1    2    0    0  0.00000000000E+00  0.00000000000E+00 -0.89894335108E+03  0.33068585556E+04  0.31823284492E+04 0.  0.
        5    1    3    3  502    0  0.48931027133E+03  0.27464574456E+03 -0.19966710539E+04  0.20740231951E+04  0.46999998093E+01 0.  1.
       -5    1    3    3    0  502 -0.48931027133E+03 -0.27464574456E+03  0.10977277028E+04  0.12328353605E+04  0.46999998093E+01 0. -1.
</event>
<event>
 5   0  0.2933646E-06  0.3202462E+04  0.7818609E-02  0.8188167E-01
        1   -1    0    0  501    0  0.00000000000E+00  0.00000000000E+00  0.11084941034E+04  0.11084941034E+04  0.50400001928E-02 0. -1.
       -1   -1    0    0    0  501  0.00000000000E+00  0.00000000000E+00 -0.23129944672E+04  0.23129944672E+04  0.50400001928E-02 0.  1.
    10030    2    1    2    0    0  0.00000000000E+00  0.00000000000E+00 -0.12045003638E+04  0.34214885706E+04  0.32024620079E+04 0.  0.
        2    1    3    3  502    0 -0.11070927970E+04 -0.68958163693E+03 -0.15946278263E+04  0.20601007741E+04  0.25500000920E-02 0.  1.
       -2    1    3    3    0  502  0.11070927970E+04  0.68958163693E+03  0.39012746249E+03  0.13613877964E+04  0.25500000920E-02 0. -1.
</event>
<event>
 5   0  0.7952307E-06  0.2704902E+04  0.7818609E-02  0.8333416E-01
        2   -1    0    0  501    0  0.00000000000E+00  0.00000000000E+00  0.12567570663E+04  0.12567570663E+04  0.25500000920E-02 0. -1.
       -2   -1    0    0    0  501  0.00000000000E+00  0.00000000000E+00 -0.14554315532E+04  0.14554315532E+04  0.25500000920E-02 0.  1.
    10030    2    1    2    0    0  0.00000000000E+00  0.00000000000E+00 -0.19867448688E+03  0.27121886195E+04  0.27049021343E+04 0.  0.
        2    1    3    3  502    0  0.86213371351E+03  0.94928540316E+03  0.33159551305E+03  0.13245274255E+04  0.25500000920E-02 0. -1.
       -2    1    3    3    0  502 -0.86213371351E+03 -0.94928540316E+03 -0.53026999993E+03  0.13876611940E+04  0.25500000920E-02 0.  1.
</event>
<event>
 5   0  0.7952307E-06  0.3472244E+04  0.7818609E-02  0.8120399E-01
       -2   -1    0    0    0  501  0.00000000000E+00  0.00000000000E+00  0.21169623621E+04  0.21169623621E+04  0.25500000920E-02 0. -1.
        2   -1    0    0  501    0  0.00000000000E+00  0.00000000000E+00 -0.14237946979E+04  0.14237946979E+04  0.25500000920E-02 0.  1.
    10030    2    1    2    0    0  0.00000000000E+00  0.00000000000E+00  0.69316766430E+03  0.35407570600E+04  0.34722441082E+04 0.  0.
        2    1    3    3  502    0  0.38578361859E+03  0.63891908848E+03  0.19450186326E+04  0.20833012463E+04  0.25500000920E-02 0. -1.
       -2    1    3    3    0  502 -0.38578361859E+03 -0.63891908848E+03 -0.12518509683E+04  0.14574558137E+04  0.25500000920E-02 0.  1.
</event>
<event>
 5   0  0.2788054E-06  0.3243308E+04  0.7818609E-02  0.8177472E-01
        1   -1    0    0  501    0  0.00000000000E+00  0.00000000000E+00  0.15403964461E+04  0.15403964461E+04  0.50400001928E-02 0.  1.
       -1   -1    0    0    0  501  0.00000000000E+00  0.00000000000E+00 -0.17071982431E+04  0.17071982431E+04  0.50400001928E-02 0. -1.
    10030    2    1    2    0    0  0.00000000000E+00  0.00000000000E+00 -0.16680179702E+03  0.32475946893E+04  0.32433082534E+04 0.  0.
        3    1    3    3  502    0 -0.17811119321E+03  0.15498146690E+04 -0.52683263958E+03  0.16465727271E+04  0.10100000352E+00 0.  1.
       -3    1    3    3    0  502  0.17811119321E+03 -0.15498146690E+04  0.36003084256E+03  0.16010219621E+04  0.10100000352E+00 0. -1.
</event>
<event>
 5   0  0.2933646E-06  0.1656553E+04  0.7818609E-02  0.8786539E-01
        1   -1    0    0  501    0  0.00000000000E+00  0.00000000000E+00  0.94381209900E+03  0.94381209902E+03  0.50400001928E-02 0.  1.
       -1   -1    0    0    0  501  0.00000000000E+00  0.00000000000E+00 -0.72688390386E+03  0.72688390387E+03  0.50400001928E-02 0. -1.
    10030    2    1    2    0    0  0.00000000000E+00  0.00000000000E+00  0.21692819515E+03  0.16706960029E+04  0.16565528341E+04 0.  0.
        2    1    3    3  502    0  0.47840446806E+03  0.59554003952E+03 -0.21443031825E+03  0.79342241910E+03  0.25500000920E-02 0. -1.
       -2    1    3    3    0  502 -0.47840446806E+03 -0.59554003952E+03  0.43135851340E+03  0.87727358379E+03  0.25500000920E-02 0.  1.
</event>
<event>
 5   0  0.7971763E-06  0.1925324E+04  0.7818609E-02  0.8642352E-01
        2   -1    0    0  501    0  0.00000000000E+00  0.00000000000E+00  0.18367183349E+04  0.18367183349E+04  0.25500000920E-02 0.  1.
       -2   -1    0    0    0  501  0.00000000000E+00  0.00000000000E+00 -0.50455128428E+03  0.50455128429E+03  0.25500000920E-02 0. -1.
    10030    2    1    2    0    0  0.00000000000E+00  0.00000000000E+00  0.13321670507E+04  0.23412696192E+04  0.19253244867E+04 0.  0.
        1    1    3    3  502    0  0.34094388506E+03  0.43469818133E+03  0.16247614505E+04  0.17161162585E+04  0.50400001928E-02 0.  1.
       -1    1    3    3    0  502 -0.34094388506E+03 -0.43469818133E+03 -0.29259439983E+03  0.62515336074E+03  0.50400001928E-02 0. -1.
</event>
<event>
 5   0  0.3938696E-06  0.3181447E+04  0.7818609E-02  0.8193734E-01
       -1   -1    0    0    0  501  0.00000000000E+00  0.00000000000E+00  0.10414450821E+04  0.10414450821E+04  0.50400001928E-02 0. -1.
        1   -1    0    0  501    0  0.00000000000E+00  0.00000000000E+00 -0.24297020912E+04  0.24297020912E+04  0.50400001928E-02 0.  1.
    10030    2    1    2    0    0  0.00000000000E+00  0.00000000000E+00 -0.13882570092E+04  0.34711471733E+04  0.31814470254E+04 0.  0.
        4    1    3    3  502    0  0.68710262176E+03 -0.11723121504E+04  0.20820709798E+03  0.13746918198E+04  0.12699999809E+01 0. -1.
       -4    1    3    3    0  502 -0.68710262176E+03  0.11723121504E+04 -0.15964641071E+04  0.20964553535E+04  0.12699999809E+01 0.  1.
</event>
<event>
 5   0  0.7971763E-06  0.3223095E+04  0.7818609E-02  0.8182744E-01
       -2   -1    0    0    0  501  0.00000000000E+00  0.00000000000E+00  0.11434060034E+04  0.11434060034E+04  0.25500000920E-02 0. -1.
        2   -1    0    0  501    0  0.00000000000E+00  0.00000000000E+00 -0.22713593684E+04  0.22713593684E+04  0.25500000920E-02 0.  1.
    10030    2    1    2    0    0  0.00000000000E+00  0.00000000000E+00 -0.11279533651E+04  0.34147653718E+04  0.32230953679E+04 0.  0.
        1    1    3    3  502    0 -0.16422616815E+03 -0.13522278425E+04 -0.14763472669E+04  0.20087537491E+04  0.50400001928E-02 0.  1.
       -1    1    3    3    0  502  0.16422616815E+03  0.13522278425E+04  0.34839390180E+03  0.14060116227E+04  0.50400001928E-02 0. -1.
</event>
<event>
 5   0  0.2635798E-06  0.3095209E+04  0.7818609E-02  0.8217054E-01
        1   -1    0    0  501    0  0.00000000000E+00  0.00000000000E+00  0.17762924340E+04  0.17762924340E+04  0.50400001928E-02 0. -1.
       -1   -1    0    0    0  501  0.00000000000E+00  0.00000000000E+00 -0.13483588247E+04  0.13483588247E+04  0.50400001928E-02 0.  1.
    10030    2    1    2    0    0  0.00000000000E+00  0.00000000000E+00  0.42793360927E+03  0.31246512587E+04  0.30952089290E+04 0.  0.
        1    1    3    3  502    0  0.96778565677E+02  0.21208812736E+03  0.17584651242E+04  0.17738509119E+04  0.50400001928E-02 0. -1.
       -1    1    3    3    0  502 -0.96778565677E+02 -0.21208812736E+03 -0.13305315149E+04  0.13508003468E+04  0.50400001928E-02 0.  1.
</event>
<event>
 5   0  0.7941434E-06  0.3289243E+04  0.7818609E-02  0.8165638E-01
       -2   -1    0    0    0  501  0.00000000000E+00  0.00000000000E+00  0.85951317104E+03  0.85951317104E+03  0.25500000920E-02 0. -1.
        2   -1    0    0  501    0  0.00000000000E+00  0.00000000000E+00 -0.31468733769E+04  0.31468733769E+04  0.25500000920E-02 0.  1.
    10030    2    1    2    0    0  0.00000000000E+00  0.00000000000E+00 -0.22873602058E+04  0.40063865479E+04  0.32892425359E+04 0.  0.
        4    1    3    3  502    0 -0.12594266345E+04 -0.66921371966E+03 -0.14610545891E+03  0.14336494929E+04  0.12699999809E+01 0. -1.
       -4    1    3    3    0  502  0.12594266345E+04  0.66921371966E+03 -0.21412547469E+04  0.25727370551E+04  0.12699999809E+01 0.  1.
</event>
<event>
 5   0  0.7510251E-06  0.1914133E+04  0.7818609E-02  0.8647853E-01
        2   -1    0    0  501    0  0.00000000000E+00  0.00000000000E+00  0.20305276413E+04  0.20305276413E+04  0.25500000920E-02 0.  1.
       -2   -1    0    0    0  501  0.00000000000E+00  0.00000000000E+00 -0.45110260440E+03  0.45110260441E+03  0.25500000920E-02 0. -1.
    10030    2    1    2    0    0  0.00000000000E+00  0.00000000000E+00  0.15794250369E+04  0.24816302458E+04  0.19141330229E+04 0.  0.
        3    1    3    3  502    0 -0.70263617865E+03 -0.58106349618E+03  0.41252021825E+03  0.10007523804E+04  0.10100000352E+00 0. -1.
       -3    1    3    3    0  502  0.70263617865E+03  0.58106349618E+03  0.11669048187E+04  0.14808778654E+04  0.10100000352E+00 0.  1.
</event>
<event>
 5   0  0.7952307E-06  0.3187225E+04  0.7818609E-02  0.8192199E-01
        2   -1    0    0  501    0  0.00000000000E+00  0.00000000000E+00  0.16417554247E+04  0.16417554247E+04  0.25500000920E-02 0.  1.
       -2   -1    0    0    0  501  0.00000000000E+00  0.00000000000E+00 -0.15468809987E+04  0.15468809987E+04  0.25500000920E-02 0. -1.
    10030    2    1    2    0    0  0.00000000000E+00  0.00000000000E+00  0.94874425932E+02  0.31886364234E+04  0.31872246679E+04 0.  0.
        2    1    3    3  502    0  0.11773166607E+03  0.92189492243E+03 -0.12476821693E+04  0.15557833361E+04  0.25500000920E-02 0. -1.
       -2    1    3    3    0  502 -0.11773166607E+03 -0.92189492243E+03  0.13425565953E+04  0.16328530873E+04  0.25500000920E-02 0.  1.
</event>
<event>
 5   0  0.7971763E-06  0.3267032E+04  0.7818609E-02  0.8171335E-01
        2   -1    0    0  501    0  0.00000000000E+00  0.00000000000E+00  0.12248609983E+04  0.12248609983E+04  0.25500000920E-02 0.  1.
       -2   -1    0    0    0  501  0.00000000000E+00  0.00000000000E+00 -0.21785119689E+04  0.21785119689E+04  0.25500000920E-02 0. -1.
    10030    2    1    2    0    0  0.00000000000E+00  0.00000000000E+00 -0.95365097069E+03  0.34033729672E+04  0.32670318915E+04 0.  0.
        1    1    3    3  502    0 -0.10033247028E+04 -0.55443511417E+03  0.73549127668E+03  0.13619861134E+04  0.50400001928E-02 0.  1.
       -1    1    3    3    0  502  0.10033247028E+04  0.55443511417E+03 -0.16891422474E+04  0.20413868538E+04  0.50400001928E-02 0. -1.
</event>
<event>
 5   0  0.3938696E-06  0.2164936E+04  0.7818609E-02  0.8533166E-01
        1   -1    0    0  501    0  0.00000000000E+00  0.00000000000E+00  0.11625141308E+04  0.11625141308E+04  0.50400001928E-02 0.  1.
       -1   -1    0    0    0  501  0.00000000000E+00  0.00000000000E+00 -0.10079336298E+04  0.10079336298E+04  0.50400001928E-02 0. -1.
    10030    2    1    2    0    0  0.00000000000E+00  0.00000000000E+00  0.15458050095E+03  0.21704477606E+04  0.21649361077E+04 0.  0.
        4    1    3    3  502    0  0.80645095707E+03  0.54384981449E+03 -0.39889234743E+03  0.10513098899E+04  0.12699999809E+01 0. -1.
       -4    1    3    3    0  502 -0.80645095707E+03 -0.54384981449E+03  0.55347284838E+03  0.11191378707E+04  0.12699999809E+01 0.  1.
</event>
<event>
 5   0  0.7952307E-06  0.3150708E+04  0.7818609E-02  0.8201958E-01
        2   -1    0    0  501    0  0.00000000000E+00  0.00000000000E+00  0.25159731322E+04  0.25159731322E+04  0.25500000920E-02 0.  1.
       -2   -1    0    0    0  501  0.00000000000E+00  0.00000000000E+00 -0.98639383773E+03  0.98639383773E+03  0.25500000920E-02 0. -1.
    10030    2    1    2    0    0  0.00000000000E+00  0.00000000000E+00  0.15295792945E+04  0.35023669700E+04  0.31507081068E+04 0.  0.
        2    1    3    3  502    0  0.77563717485E+03  0.82194998874E+03  0.19847943149E+04  0.22839928379E+04  0.25500000920E-02 0.  1.
       -2    1    3    3    0  502 -0.77563717485E+03 -0.82194998874E+03 -0.45521502038E+03  0.12183741321E+04  0.25500000920E-02 0. -1.
</event>
<event>
 5   0  0.4142886E-06  0.3186143E+04  0.7818609E-02  0.8192486E-01
       -1   -1    0    0    0  501  0.00000000000E+00  0.00000000000E+00  0.14966231959E+04  0.14966231959E+04  0.50400001928E-02 0.  1.
        1   -1    0    0  501    0  0.00000000000E+00  0.00000000000E+00 -0.16957352168E+04  0.16957352168E+04  0.50400001928E-02 0. -1.
    10030    2    1    2    0    0  0.00000000000E+00  0.00000000000E+00 -0.19911202085E+03  0.31923584127E+04  0.31861429093E+04 0.  0.
        5    1    3    3  502    0  0.81458923779E+03  0.58671088861E+03 -0.13389287527E+04  0.16734806805E+04  0.46999998093E+01 0. -1.
       -5    1    3    3    0  502 -0.81458923779E+03 -0.58671088861E+03  0.11398167319E+04  0.15188777322E+04  0.46999998093E+01 0.  1.
</event>
<event>
 5   0  0.3938696E-06  0.2933426E+04  0.7818609E-02  0.8263001E-01
       -1   -1    0    0    0  501  0.00000000000E+00  0.00000000000E+00  0.13444473168E+04  0.13444473169E+04  0.50400001928E-02 0.  1.
        1   -1    0    0  501    0  0.00000000000E+00  0.00000000000E+00 -0.16000974170E+04  0.16000974170E+04  0.50400001928E-02 0. -1.
    10030    2    1    2    0    0  0.00000000000E+00  0.00000000000E+00 -0.25565010020E+03  0.29445447339E+04  0.29334257646E+04 0.  0.
        4    1    3    3  502    0  0.94829489533E+02 -0.84632342316E+03  0.10708491478E+04  0.13682015491E+04  0.12699999809E+01 0.  1.
       -4    1    3    3    0  502 -0.94829489533E+02  0.84632342316E+03 -0.13264992480E+04  0.15763431848E+04  0.12699999809E+01 0. -1.
</event>
<event>
 5   0  0.2933646E-06  0.3180355E+04  0.7818609E-02  0.8194025E-01
       -1   -1    0    0    0  501  0.00000000000E+00  0.00000000000E+00  0.92636317895E+03  0.92636317897E+03  0.50400001928E-02 0.  1.
        1   -1    0    0  501    0  0.00000000000E+00  0.00000000000E+00 -0.27296690112E+04  0.27296690112E+04  0.50400001928E-02 0. -1.
    10030    2    1    2    0    0  0.00000000000E+00  0.00000000000E+00 -0.18033058322E+04  0.36560321902E+04  0.31803552397E+04 0.  0.
        2    1    3    3  502    0 -0.58604289529E+03 -0.10261903308E+04 -0.21248227052E+04  0.24313338723E+04  0.25500000920E-02 0. -1.
       -2    1    3    3    0  502  0.58604289529E+03  0.10261903308E+04  0.32151687297E+03  0.12246983178E+04  0.25500000920E-02 0.  1.
</event>
<event>
 5   0  0.7510251E-06  0.3185457E+04  0.7818609E-02  0.8192668E-01
       -2   -1    0    0    0  501  0.00000000000E+00  0.00000000000E+00  0.17598784074E+04  0.17598784074E+04  0.25500000920E-02 0. -1.
        2   -1    0    0  501    0  0.00000000000E+00  0.00000000000E+00 -0.14414545541E+04  0.14414545541E+04  0.25500000920E-02 0.  1.
    10030    2    1    2    0    0  0.00000000000E+00  0.00000000000E+00  0.31842385326E+03  0.32013329615E+04  0.31854574208E+04 0.  0.
        3    1    3    3  502    0  0.15040769329E+04 -0.40352893096E+03  0.49509565520E+03  0.16340754989E+04  0.10100000352E+00 0.  1.
       -3    1    3    3    0  502 -0.15040769329E+04  0.40352893096E+03 -0.17667180195E+03  0.15672574626E+04  0.10100000352E+00 0. -1.
</event>
<event>
 5   0  0.7941434E-06  0.3219206E+04  0.7818609E-02  0.8183763E-01
       -2   -1    0    0    0  501  0.00000000000E+00  0.00000000000E+00  0.14646767726E+04  0.14646767726E+04  0.25500000920E-02 0. -1.
        2   -1    0    0  501    0  0.00000000000E+00  0.00000000000E+00 -0.17688690338E+04  0.17688690338E+04  0.25500000920E-02 0.  1.
    10030    2    1    2    0    0  0.00000000000E+00  0.00000000000E+00 -0.30419226119E+03  0.32335458064E+04  0.32192057329E+04 0.  0.
        4    1    3    3  502    0 -0.14945360625E+04  0.44124486175E+03  0.25279338197E+03  0.15786833682E+04  0.12699999809E+01 0.  1.
       -4    1    3    3    0  502  0.14945360625E+04 -0.44124486175E+03 -0.55698564316E+03  0.16548624383E+04  0.12699999809E+01 0. -1.
</event>
<event>
 5   0  0.8237664E-06  0.3210147E+04  0.7818609E-02  0.8186143E-01
        2   -1    0    0  501    0  0.00000000000E+00  0.00000000000E+00  0.20765005279E+04  0.20765005279E+04  0.25500000920E-02 0. -1.
       -2   -1    0    0    0  501  0.00000000000E+00  0.00000000000E+00 -0.12406741193E+04  0.12406741193E+04  0.25500000920E-02 0.  1.
    10030    2    1    2    0    0  0.00000000000E+00  0.00000000000E+00  0.83582640858E+03  0.33171746472E+04  0.32101467030E+04 0.  0.
        5    1    3    3  502    0 -0.31183973448E+03 -0.94625484150E+03 -0.88245299757E+03  0.13309348699E+04  0.46999998093E+01 0.  1.
       -5    1    3    3    0  502  0.31183973448E+03  0.94625484150E+03  0.17182794062E+04  0.19862397772E+04  0.46999998093E+01 0. -1.
</event>
<event>
 5   0  0.2933646E-06  0.1646215E+04  0.7818609E-02  0.8792649E-01
        1   -1    0    0  501    0  0.00000000000E+00  0.00000000000E+00  0.14845902273E+04  0.14845902273E+04  0.50400001928E-02 0. -1.
       -1   -1    0    0    0  501  0.00000000000E+00  0.00000000000E+00 -0.45635913944E+03  0.45635913946E+03  0.50400001928E-02 0.  1.
    10030    2    1    2    0    0  0.00000000000E+00  0.00000000000E+00  0.10282310879E+04  0.19409493668E+04  0.16462154398E+04 0.  0.
        2    1    3    3  502    0 -0.64591664712E+03 -0.41465369586E+03  0.16364125292E+03  0.78480855129E+03  0.25500000920E-02 0.  1.
       -2    1    3    3    0  502  0.64591664712E+03  0.41465369586E+03  0.86458983493E+03  0.11561408155E+04  0.25500000920E-02 0. -1.
</event>
<event>
 5   0  0.2933646E-06  0.3172622E+04  0.7818609E-02  0.8196085E-01
       -1   -1    0    0    0  501  0.00000000000E+00  0.00000000000E+00  0.14795964593E+04  0.14795964593E+04  0.50400001928E-02 0. -1.
        1   -1    0    0  501    0  0.00000000000E+00  0.00000000000E+00 -0.17007226228E+04  0.17007226228E+04  0.50400001928E-02 0.  1.
    10030    2    1    2    0    0  0.00000000000E+00  0.00000000000E+00 -0.22112616352E+03  0.31803190821E+04  0.31726223671E+04 0.  0.
        2    1    3    3  502    0  0.20590301859E+03  0.52826790967E+03 -0.15956835185E+04  0.16934193009E+04  0.25500000920E-02 0.  1.
       -2    1    3    3    0  502 -0.20590301859E+03 -0.52826790967E+03  0.13745573550E+04  0.14868997813E+04  0.25500000920E-02 0. -1.
</event>
<event>
 5   0  0.2635798E-06  0.3301044E+04  0.7818609E-02  0.8162630E-01
       -1   -1    0    0    0  501  0.00000000000E+00  0.00000000000E+00  0.20427032792E+04  0.20427032792E+04  0.50400001928E-02 0.  1.
        1   -1    0    0  501    0  0.00000000000E+00  0.00000000000E+00 -0.13336359103E+04  0.13336359103E+04  0.50400001928E-02 0. -1.
    10030    2    1    2    0    0  0.00000000000E+00  0.00000000000E+00  0.70906736884E+03  0.33763391895E+04  0.33010437424E+04 0.  0.
        1    1    3    3  502    0  0.63957312015E+03  0.54898658846E+03 -0.10969129095E+04  0.13833502743E+04  0.50400001928E-02 0. -1.
       -1    1    3    3    0  502 -0.63957312015E+03 -0.54898658846E+03  0.18059802783E+04  0.19929889152E+04  0.50400001928E-02 0.  1.
</event>
<event>
 5   0  0.2788054E-06  0.1704936E+04  0.7818609E-02  0.8758554E-01
        1   -1    0    0  501    0  0.00000000000E+00  0.00000000000E+00  0.56853665249E+03  0.56853665251E+03  0.50400001928E-02 0.  1.
       -1   -1    0    0    0  501  0.00000000000E+00  0.00000000000E+00 -0.12781969673E+04  0.12781969674E+04  0.50400001928E-02 0. -1.
    10030    2    1    2    0    0  0.00000000000E+00  0.00000000000E+00 -0.70966031485E+03  0.18467336199E+04  0.17049361572E+04 0.  0.
        3    1    3    3  502    0  0.30980546987E+02 -0.16236411833E+03 -0.12606726974E+04  0.12714627644E+04  0.10100000352E+00 0. -1.
       -3    1    3    3    0  502 -0.30980546987E+02  0.16236411833E+03  0.55101238252E+03  0.57527085543E+03  0.10100000352E+00 0.  1.
</event>
<event>
 5   0  0.7941434E-06  0.3222153E+04  0.7818609E-02  0.8182991E-01
        2   -1    0    0  501    0  0.00000000000E+00  0.00000000000E+00  0.25236825870E+04  0.25236825870E+04  0.25500000920E-02 0. -1.
       -2   -1    0    0    0  501  0.00000000000E+00  0.00000000000E+00 -0.10284840427E+04  0.10284840427E+04  0.25500000920E-02 0.  1.
    10030    2    1    2    0    0  0.00000000000E+00  0.00000000000E+00  0.14951985443E+04  0.35521666297E+04  0.32221528640E+04 0.  0.
        4    1    3    3  502    0 -0.11864364386E+04  0.46098728484E+03 -0.34119072298E+03  0.13177835262E+04  0.12699999809E+01 0.  1.
       -4    1    3    3    0  502  0.11864364386E+04 -0.46098728484E+03  0.18363892672E+04  0.22343831035E+04  0.12699999809E+01 0. -1.
</event>
<event>
 5   0  0.8237664E-06  0.1977418E+04  0.7818609E-02  0.8617252E-01
        2   -1    0    0  501    0  0.00000000000E+00  0.00000000000E+00  0.10297453735E+04  0.10297453735E+04  0.25500000920E-02 0. -1.
       -2   -1    0    0    0  501  0.00000000000E+00  0.00000000000E+00 -0.94930781511E+03  0.94930781511E+03  0.25500000920E-02 0.  1.
    10030    2    1    2    0    0  0.00000000000E+00  0.00000000000E+00  0.80437558390E+02  0.19790531886E+04  0.19774178422E+04 0.  0.
        5    1    3    3  502    0 -0.43248737556E+03  0.29188065591E+03 -0.80028739590E+03  0.95536467035E+03  0.46999998093E+01 0.  1.
       -5    1    3    3    0  502  0.43248737556E+03 -0.29188065591E+03  0.88072495429E+03  0.10236885183E+04  0.46999998093E+01 0. -1.
</event>
<event>
 5   0  0.2580875E-06  0.3117590E+04  0.7818609E-02  0.8210927E-01
        3   -1    0    0  501    0  0.00000000000E+00  0.00000000000E+00  0.14689670039E+04  0.14689670074E+04  0.10100000352E+00 0. -1.
       -3   -1    0    0    0  501  0.00000000000E+00  0.00000000000E+00 -0.16541159836E+04  0.16541159867E+04  0.10100000352E+00 0.  1.
    10030    2    1    2    0    0  0.00000000000E+00  0.00000000000E+00 -0.18514897968E+03  0.31230829941E+04  0.31175899736E+04 0.  0.
        2    1    3    3  502    0 -0.25888408957E+03 -0.47188633452E+03 -0.15580752236E+04  0.16484223024E+04  0.25500000920E-02 0.  1.
       -2    1    3    3    0  502  0.25888408957E+03  0.47188633452E+03  0.13729262439E+04  0.14746606917E+04  0.25500000920E-02 0. -1.
</event>
<event>
 5   0  0.7971763E-06  0.3156321E+04  0.7818609E-02  0.8200449E-01
        2   -1    0    0  501    0  0.00000000000E+00  0.00000000000E+00  0.14245948563E+04  0.14245948563E+04  0.25500000920E-02 0.  1.
       -2   -1    0    0    0  501  0.00000000000E+00  0.00000000000E+00 -0.17482802445E+04  0.17482802445E+04  0.25500000920E-02 0. -1.
    10030    2    1    2    0    0  0.00000000000E+00  0.00000000000E+00 -0.32368538816E+03  0.31728751008E+04  0.31563213041E+04 0.  0.
        1    1    3    3  502    0  0.80894814486E+03  0.10299468066E+04 -0.10470309707E+04  0.16767412976E+04  0.50400001928E-02 0. -1.
       -1    1    3    3    0  502 -0.80894814486E+03 -0.10299468066E+04  0.72334558249E+03  0.14961338032E+04  0.50400001928E-02 0.  1.
</event>
<event>
 5   0  0.7952307E-06  0.3128908E+04  0.7818609E-02  0.8207849E-01
       -2   -1    0    0    0  501  0.00000000000E+00  0.00000000000E+00  0.13804166681E+04  0.13804166681E+04  0.25500000920E-02 0. -1.
        2   -1    0    0  501    0  0.00000000000E+00  0.00000000000E+00 -0.17730275021E+04  0.17730275021E+04  0.25500000920E-02 0.  1.
    10030    2    1    2    0    0  0.00000000000E+00  0.00000000000E+00 -0.39261083401E+03  0.31534441701E+04  0.31289082548E+04 0.  0.
        2    1    3    3  502    0  0.12744724549E+04 -0.67710841124E+03  0.41238497069E+03  0.15009387739E+04  0.25500000920E-02 0. -1.
       -2    1    3    3    0  502 -0.12744724549E+04  0.67710841124E+03 -0.80499580470E+03  0.16525053962E+04  0.25500000920E-02 0.  1.
</event>
<event>
 5   0  0.7952307E-06  0.2094450E+04  0.7818609E-02  0.8563692E-01
        2   -1    0    0  501    0  0.00000000000E+00  0.00000000000E+00  0.86583332696E+03  0.86583332696E+03  0.25500000920E-02 0.  1.
       -2   -1    0    0    0  501  0.00000000000E+00  0.00000000000E+00 -0.12666176391E+04  0.12666176391E+04  0.25500000920E-02 0. -1.
    10030    2    1    2    0    0  0.00000000000E+00  0.00000000000E+00 -0.40078431210E+03  0.21324509660E+04  0.20944495835E+04 0.  0.
        2    1    3    3  502    0 -0.81228486997E+03  0.22266641874E+03  0.43322774598E+03  0.94713954827E+03  0.25500000920E-02 0.  1.
       -2    1    3    3    0  502  0.81228486997E+03 -0.22266641874E+03 -0.83401205808E+03  0.11853114177E+04  0.25500000920E-02 0. -1.
</event>
<event>
 5   0  0.3938696E-06  0.3063345E+04  0.7818609E-02  0.8225870E-01
        1   -1    0    0  501    0  0.00000000000E+00  0.00000000000E+00  0.16949145281E+04  0.16949145281E+04  0.50400001928E-02 0. -1.
       -1   -1    0    0    0  501  0.00000000000E+00  0.00000000000E+00 -0.13841524053E+04  0.13841524054E+04  0.50400001928E-02 0.  1.
    10030    2    1    2    0    0  0.00000000000E+00  0.00000000000E+00  0.31076212275E+03  0.30790669335E+04  0.30633445911E+04 0.  0.
        4    1    3    3  502    0  0.11586468533E+04 -0.96772550323E+03  0.41567586783E+03  0.15658043366E+04  0.12699999809E+01 0. -1.
       -4    1    3    3    0  502 -0.11586468533E+04  0.96772550323E+03 -0.10491374508E+03  0.15132625969E+04  0.12699999809E+01 0.  1.
</event>
<event>
 5   0  0.2635798E-06  0.3093981E+04  0.7818609E-02  0.8217392E-01
        1   -1    0    0  501    0  0.00000000000E+00  0.00000000000E+00  0.15184123959E+04  0.15184123960E+04  0.50400001928E-02 0. -1.
       -1   -1    0    0    0  501  0.00000000000E+00  0.00000000000E+00 -0.15761061472E+04  0.15761061472E+04  0.50400001928E-02 0.  1.
    10030    2    1    2    0    0  0.00000000000E+00  0.00000000000E+00 -0.57693751264E+02  0.30945185432E+04  0.30939806795E+04 0.  0.
        1    1    3    3  502    0 -0.98697937319E+03  0.89480448216E+03 -0.81535230146E+03  0.15619227637E+04  0.50400001928E-02 0.  1.
       -1    1    3    3    0  502  0.98697937319E+03 -0.89480448216E+03  0.75765855020E+03  0.15325957794E+04  0.50400001928E-02 0. -1.
</event>
<event>
 5   0  0.8237664E-06  0.2975359E+04  0.7818609E-02  0.8250802E-01
        2   -1    0    0  501    0  0.00000000000E+00  0.00000000000E+00  0.15199299208E+04  0.15199299208E+04  0.25500000920E-02 0.  1.
       -2   -1    0    0    0  501  0.00000000000E+00  0.00000000000E+00 -0.14561138558E+04  0.14561138558E+04  0.25500000920E-02 0. -1.
    10030    2    1    2    0    0  0.00000000000E+00  0.00000000000E+00  0.63816064947E+02  0.29760437766E+04  0.29753594858E+04 0.  0.
        5    1    3    3  502    0 -0.40799467776E+03 -0.14214502391E+04 -0.12995776263E+03  0.14845509588E+04  0.46999998093E+01 0.  1.
       -5    1    3    3    0  502  0.40799467776E+03  0.14214502391E+04  0.19377382758E+03  0.14914928178E+04  0.46999998093E+01 0. -1.
</event>
<event>
 5   0  0.2580875E-06  0.2839660E+04  0.7818609E-02  0.8291060E-01
       -3   -1    0    0    0  501  0.00000000000E+00  0.00000000000E+00  0.84964606192E+03  0.84964606793E+03  0.10100000352E+00 0.  1.
        3   -1    0    0  501    0  0.00000000000E+00  0.00000000000E+00 -0.23726550697E+04  0.23726550718E+04  0.10100000352E+00 0. -1.
    10030    2    1    2    0    0  0.00000000000E+00  0.00000000000E+00 -0.15230090078E+04  0.32223011398E+04  0.28396598736E+04 0.  0.
        2    1    3    3  502    0 -0.68017600736E+03  0.53083151079E+03  0.51804538534E+03  0.10063759313E+04  0.25500000920E-02 0.  1.
       -2    1    3    3    0  502  0.68017600736E+03 -0.53083151079E+03 -0.20410543931E+04  0.22159252085E+04  0.25500000920E-02 0. -1.
</event>
<event>
 5   0  0.7952307E-06  0.3013646E+04  0.7818609E-02  0.8239845E-01
       -2   -1    0    0    0  501  0.00000000000E+00  0.00000000000E+00  0.11979782264E+04  0.11979782264E+04  0.25500000920E-02 0.  1.
        2   -1    0    0  501    0  0.00000000000E+00  0.00000000000E+00 -0.18952897736E+04  0.18952897736E+04  0.25500000920E-02 0. -1.
    10030    2    1    2    0    0  0.00000000000E+00  0.00000000000E+00 -0.69731154725E+03  0.30932680000E+04  0.30136462178E+04 0.  0.
        2    1    3    3  502    0 -0.73540670634E+03  0.30851868618E+03  0.96360138206E+03  0.12508135061E+04  0.25500000920E-02 0.  1.
       -2    1    3    3    0  502  0.73540670634E+03 -0.30851868618E+03 -0.16609129293E+04  0.18424544939E+04  0.25500000920E-02 0. -1.
</event>
<event>
 5   0  0.7941434E-06  0.3148265E+04  0.7818609E-02  0.8202615E-01
       -2   -1    0    0    0  501  0.00000000000E+00  0.00000000000E+00  0.24754049590E+04  0.24754049590E+04  0.25500000920E-02 0.  1.
        2   -1    0    0  501    0  0.00000000000E+00  0.00000000000E+00 -0.10010053647E+04  0.10010053647E+04  0.25500000920E-02 0. -1.
    10030    2    1    2    0    0  0.00000000000E+00  0.00000000000E+00  0.14743995943E+04  0.34764103237E+04  0.31482653279E+04 0.  0.
        4    1    3    3  502    0 -0.87366442057E+03 -0.13072623067E+04  0.65406824094E+03  0.17029477781E+04  0.12699999809E+01 0. -1.
       -4    1    3    3    0  502  0.87366442057E+03  0.13072623067E+04  0.82033135331E+03  0.17734625455E+04  0.12699999809E+01 0.  1.
</event>
<event>
 5   0  0.2635798E-06  0.3193995E+04  0.7818609E-02  0.8190405E-01
        1   -1    0    0  501    0  0.00000000000E+00  0.00000000000E+00  0.17016023482E+04  0.17016023482E+04  0.50400001928E-02 0. -1.
       -1   -1    0    0    0  501  0.00000000000E+00  0.00000000000E+00 -0.14988229340E+04  0.14988229340E+04  0.50400001928E-02 0.  1.
    10030    2    1    2    0    0  0.00000000000E+00  0.00000000000E+00  0.20277941424E+03  0.32004252823E+04  0.31939947552E+04 0.  0.
        1    1    3    3  502    0 -0.12306706280E+04  0.92301106970E+03 -0.32831047020E+03  0.15729867750E+04  0.50400001928E-02 0. -1.
       -1    1    3    3    0  502  0.12306706280E+04 -0.92301106970E+03  0.53108988443E+03  0.16274385072E+04  0.50400001928E-02 0.  1.
</event>
<event>
 5   0  0.8237664E-06  0.2486904E+04  0.7818609E-02  0.8407666E-01
       -2   -1    0    0    0  501  0.00000000000E+00  0.00000000000E+00  0.12950950407E+04  0.12950950407E+04  0.25500000920E-02 0.  1.
        2   -1    0    0  501    0  0.00000000000E+00  0.00000000000E+00 -0.11938684784E+04  0.11938684784E+04  0.25500000920E-02 0. -1.
    10030    2    1    2    0    0  0.00000000000E+00  0.00000000000E+00  0.10122656232E+03  0.24889635191E+04  0.24869042166E+04 0.  0.
        5    1    3    3  502    0 -0.32576084087E+03 -0.27075121826E+03 -0.11194247958E+04  0.11968961154E+04  0.46999998093E+01 0. -1.
       -5    1    3    3    0  502  0.32576084087E+03  0.27075121826E+03  0.12206513581E+04  0.12920674037E+04  0.46999998093E+01 0.  1.
</event>
<event>
 5   0  0.7510251E-06  0.1664083E+04  0.7818609E-02  0.8782119E-01
       -2   -1    0    0    0  501  0.00000000000E+00  0.00000000000E+00  0.66099036383E+03  0.66099036384E+03  0.25500000920E-02 0.  1.
        2   -1    0    0  501    0  0.00000000000E+00  0.00000000000E+00 -0.10473568412E+04  0.10473568412E+04  0.25500000920E-02 0. -1.
    10030    2    1    2    0    0  0.00000000000E+00  0.00000000000E+00 -0.38636647734E+03  0.17083472050E+04  0.16640826656E+04 0.  0.
        3    1    3    3  502    0  0.79636952540E+03  0.15597513524E+03 -0.45565492823E+01  0.81151305359E+03  0.10100000352E+00 0.  1.
       -3    1    3    3    0  502 -0.79636952540E+03 -0.15597513524E+03 -0.38180992806E+03  0.89683415143E+03  0.10100000352E+00 0. -1.
</event>
<event>
 5   0  0.7941434E-06  0.3205178E+04  0.7818609E-02  0.8187451E-01
       -2   -1    0    0    0  501  0.00000000000E+00  0.00000000000E+00  0.16024034727E+04  0.16024034727E+04  0.25500000920E-02 0.  1.
        2   -1    0    0  501    0  0.00000000000E+00  0.00000000000E+00 -0.16027745715E+04  0.16027745715E+04  0.25500000920E-02 0. -1.
    10030    2    1    2    0    0  0.00000000000E+00  0.00000000000E+00 -0.37109878756E+00  0.32051780442E+04  0.32051780227E+04 0.  0.
        4    1    3    3  502    0  0.98368731458E+03  0.70207241149E+03  0.10523084113E+04  0.16024671633E+04  0.12699999809E+01 0.  1.
       -4    1    3    3    0  502 -0.98368731458E+03 -0.70207241149E+03 -0.10526795101E+04  0.16027108809E+04  0.12699999809E+01 0. -1.
</event>
<event>
 5   0  0.2933646E-06  0.2381560E+04  0.7818609E-02  0.8446440E-01
       -1   -1    0    0    0  501  0.00000000000E+00  0.00000000000E+00  0.77110607125E+03  0.77110607127E+03  0.50400001928E-02 0.  1.
        1   -1    0    0  501    0  0.00000000000E+00  0.00000000000E+00 -0.18388604346E+04  0.18388604346E+04  0.50400001928E-02 0. -1.
    10030    2    1    2    0    0  0.00000000000E+00  0.00000000000E+00 -0.10677543633E+04  0.26099665058E+04  0.23815595271E+04 0.  0.
        2    1    3    3  502    0  0.39458410245E+03 -0.84319035193E+02 -0.17616593760E+04  0.18072769767E+04  0.25500000920E-02 0. -1.
       -2    1    3    3    0  502 -0.39458410245E+03  0.84319035193E+02  0.69390501264E+03  0.80268952914E+03  0.25500000920E-02 0.  1.
</event>
<event>
 5   0  0.8237664E-06  0.2242247E+04  0.7818609E-02  0.8501047E-01
        2   -1    0    0  501    0  0.00000000000E+00  0.00000000000E+00  0.76169088181E+03  0.76169088181E+03  0.25500000920E-02 0.  1.
       -2   -1    0    0    0  501  0.00000000000E+00  0.00000000000E+00 -0.16501679408E+04  0.16501679408E+04  0.25500000920E-02 0. -1.
    10030    2    1    2    0    0  0.00000000000E+00  0.00000000000E+00 -0.88847705898E+03  0.24118588226E+04  0.22422469748E+04 0.  0.
        5    1    3    3  502    0 -0.46006569947E+02  0.11053228563E+04 -0.63975896426E+03  0.12779549458E+04  0.46999998093E+01 0. -1.
       -5    1    3    3    0  502  0.46006569947E+02 -0.11053228563E+04 -0.24871809472E+03  0.11339038768E+04  0.46999998093E+01 0.  1.
</event>
<event>
 5   0  0.4142886E-06  0.3284568E+04  0.7818609E-02  0.8166833E-01
       -1   -1    0    0    0  501  0.00000000000E+00  0.00000000000E+00  0.18645175364E+04  0.18645175365E+04  0.50400001928E-02 0. -1.
        1   -1    0    0  501    0  0.00000000000E+00  0.00000000000E+00 -0.14465386658E+04  0.14465386659E+04  0.50400001928E-02 0.  1.
    10030    2    1    2    0    0  0.00000000000E+00  0.00000000000E+00  0.41797887060E+03  0.33110562023E+04  0.32845679836E+04 0.  0.
        5    1    3    3  502    0 -0.18905611166E+03  0.14301698226E+03 -0.14291939306E+04  0.14487282188E+04  0.46999998093E+01 0.  1.
       -5    1    3    3    0  502  0.18905611166E+03 -0.14301698226E+03  0.18471728012E+04  0.18623279835E+04  0.46999998093E+01 0. -1.
</event>
<event>
 5   0  0.7941434E-06  0.2599619E+04  0.7818609E-02  0.8368330E-01
       -2   -1    0    0    0  501  0.00000000000E+00  0.00000000000E+00  0.15789628901E+04  0.15789628901E+04  0.25500000920E-02 0. -1.
        2   -1    0    0  501    0  0.00000000000E+00  0.00000000000E+00 -0.10700094911E+04  0.10700094911E+04  0.25500000920E-02 0.  1.
    10030    2    1    2    0    0  0.00000000000E+00  0.00000000000E+00  0.50895339902E+03  0.26489723812E+04  0.25996194171E+04 0.  0.
        4    1    3    3  502    0 -0.11128047895E+04 -0.61058101436E+03  0.53971960185E+03  0.13792905916E+04  0.12699999809E+01 0. -1.
       -4    1    3    3    0  502  0.11128047895E+04  0.61058101436E+03 -0.30766202829E+02  0.12696817896E+04  0.12699999809E+01 0.  1.
</event>
<event>
 5   0  0.2635798E-06  0.2214362E+04  0.7818609E-02  0.8512474E-01
       -1   -1    0    0    0  501  0.00000000000E+00  0.00000000000E+00  0.16068735019E+04  0.16068735019E+04  0.50400001928E-02 0. -1.
        1   -1    0    0  501    0  0.00000000000E+00  0.00000000000E+00 -0.76287868483E+03  0.76287868484E+03  0.50400001928E-02 0.  1.
    10030    2    1    2    0    0  0.00000000000E+00  0.00000000000E+00  0.84399481706E+03  0.23697521867E+04  0.22143617987E+04 0.  0.
        1    1    3    3  502    0 -0.10761590161E+04  0.91348435930E+02  0.68279239505E+03  0.12777590615E+04  0.50400001928E-02 0. -1.
       -1    1    3    3    0  502  0.10761590161E+04 -0.91348435930E+02  0.16120242201E+03  0.10919931252E+04  0.50400001928E-02 0.  1.
</event>
<event>
 5   0  0.8237664E-06  0.3525577E+04  0.7818609E-02  0.8107755E-01
       -2   -1    0    0    0  501  0.00000000000E+00  0.00000000000E+00  0.12719059505E+04  0.12719059505E+04  0.25500000920E-02 0.  1.
        2   -1    0    0  501    0  0.00000000000E+00  0.00000000000E+00 -0.24431234313E+04  0.24431234313E+04  0.25500000920E-02 0. -1.
    10030    2    1    2    0    0  0.00000000000E+00  0.00000000000E+00 -0.11712174808E+04  0.37150293818E+04  0.35255769628E+04 0.  0.
        5    1    3    3  502    0  0.85855977950E+03  0.76216415327E+03 -0.19951688192E+04  0.23018991721E+04  0.46999998093E+01 0. -1.
       -5    1    3    3    0  502 -0.85855977950E+03 -0.76216415327E+03  0.82395133838E+03  0.14131302097E+04  0.46999998093E+01 0.  1.
</event>
<event>
 5   0  0.4142886E-06  0.2777482E+04  0.7818609E-02  0.8310294E-01
        1   -1    0    0  501    0  0.00000000000E+00  0.00000000000E+00  0.15411795705E+04  0.15411795705E+04  0.50400001928E-02 0. -1.
       -1   -1    0    0    0  501  0.00000000000E+00  0.00000000000E+00 -0.12513803555E+04  0.12513803555E+04  0.50400001928E-02 0.  1.
    10030    2    1    2    0    0  0.00000000000E+00  0.00000000000E+00  0.28979921500E+03  0.27925599259E+04  0.27774821971E+04 0.  0.
        5    1    3    3  502    0 -0.13215020163E+03  0.60450959453E+03  0.13949041885E+04  0.15259997742E+04  0.46999998093E+01 0. -1.
       -5    1    3    3    0  502  0.13215020163E+03 -0.60450959453E+03 -0.11051049735E+04  0.12665601518E+04  0.46999998093E+01 0.  1.
</event>
<event>
 5   0  0.2580875E-06  0.2242606E+04  0.7818609E-02  0.8500901E-01
       -3   -1    0    0    0  501  0.00000000000E+00  0.00000000000E+00  0.14286765825E+04  0.14286765861E+04  0.10100000352E+00 0.  1.
        3   -1    0    0  501    0  0.00000000000E+00  0.00000000000E+00 -0.88005954882E+03  0.88005955462E+03  0.10100000352E+00 0. -1.
    10030    2    1    2    0    0  0.00000000000E+00  0.00000000000E+00  0.54861703366E+03  0.23087361407E+04  0.22426060549E+04 0.  0.
        5    1    3    3  502    0  0.70570186941E+03  0.37191037251E+03 -0.53694239769E+03  0.96159330390E+03  0.46999998093E+01 0. -1.
       -5    1    3    3    0  502 -0.70570186941E+03 -0.37191037251E+03  0.10855594314E+04  0.13471428368E+04  0.46999998093E+01 0.  1.
</event>
<event>
 5   0  0.8237664E-06  0.3272157E+04  0.7818609E-02  0.8170016E-01
       -2   -1    0    0    0  501  0.00000000000E+00  0.00000000000E+00  0.17617381297E+04  0.17617381297E+04  0.25500000920E-02 0. -1.
        2   -1    0    0  501    0  0.00000000000E+00  0.00000000000E+00 -0.15193815943E+04  0.15193815943E+04  0.25500000920E-02 0.  1.
    10030    2    1    2    0    0  0.00000000000E+00  0.00000000000E+00  0.24235653545E+03  0.32811197240E+04  0.32721567739E+04 0.  0.
        5    1    3    3  502    0  0.83141584508E+03  0.72817102432E+03 -0.10884614543E+04  0.15512110674E+04  0.46999998093E+01 0.  1.
       -5    1    3    3    0  502 -0.83141584508E+03 -0.72817102432E+03  0.13308179898E+04  0.17299086566E+04  0.46999998093E+01 0. -1.
</event>
<event>
 5   0  0.2635798E-06  0.3301116E+04  0.7818609E-02  0.8162611E-01
        1   -1    0    0  501    0  0.00000000000E+00  0.00000000000E+00  0.13108212609E+04  0.13108212609E+04  0.50400001928E-02 0. -1.
       -1   -1    0    0    0  501  0.00000000000E+00  0.00000000000E+00 -0.20783475121E+04  0.20783475121E+04  0.50400001928E-02 0.  1.
    10030    2    1    2    0    0  0.00000000000E+00  0.00000000000E+00 -0.76752625122E+03  0.33891687730E+04  0.33011162394E+04 0.  0.
        1    1    3    3  502    0  0.10004813113E+03 -0.21197512372E+03  0.12936464889E+04  0.13147107362E+04  0.50400001928E-02 0. -1.
       -1    1    3    3    0  502 -0.10004813113E+03  0.21197512372E+03 -0.20611727402E+04  0.20744580368E+04  0.50400001928E-02 0.  1.
</event>
<event>
 5   0  0.2635798E-06  0.3202782E+04  0.7818609E-02  0.8188083E-01
        1   -1    0    0  501    0  0.00000000000E+00  0.00000000000E+00  0.14043667918E+04  0.14043667918E+04  0.50400001928E-02 0. -1.
       -1   -1    0    0    0  501  0.00000000000E+00  0.00000000000E+00 -0.18260566678E+04  0.18260566678E+04  0.50400001928E-02 0.  1.
    10030    2    1    2    0    0  0.00000000000E+00  0.00000000000E+00 -0.42168987603E+03  0.32304234596E+04  0.32027821307E+04 0.  0.
        1    1    3    3  502    0  0.15282980266E+04  0.22842564804E+03  0.21299616619E+03  0.15598847719E+04  0.50400001928E-02 0. -1.
       -1    1    3    3    0  502 -0.15282980266E+04 -0.22842564804E+03 -0.63468604222E+03  0.16705386877E+04  0.50400001928E-02 0.  1.
</event>
<event>
 5   0  0.4142886E-06  0.3029922E+04  0.7818609E-02  0.8235238E-01
       -1   -1    0    0    0  501  0.00000000000E+00  0.00000000000E+00  0.10106425302E+04  0.10106425302E+04  0.50400001928E-02 0.  1.
        1   -1    0    0  501    0  0.00000000000E+00  0.00000000000E+00 -0.22709385825E+04  0.22709385825E+04  0.50400001928E-02 0. -1.
    10030    2    1    2    0    0  0.00000000000E+00  0.00000000000E+00 -0.12602960523E+04  0.32815811127E+04  0.30299221871E+04 0.  0.
        5    1    3    3  502    0 -0.16280629878E+03  0.12343569380E+04  0.30463953062E+03  0.12817840204E+04  0.46999998093E+01 0.  1.
       -5    1    3    3    0  502  0.16280629878E+03 -0.12343569380E+04 -0.15649355830E+04  0.19997970923E+04  0.46999998093E+01 0. -1.
</event>
<event>
 5   0  0.3938696E-06  0.3145654E+04  0.7818609E-02  0.8203319E-01
        1   -1    0    0  501    0  0.00000000000E+00  0.00000000000E+00  0.21870995282E+04  0.21870995282E+04  0.50400001928E-02 0. -1.
       -1   -1    0    0    0  501  0.00000000000E+00  0.00000000000E+00 -0.11310802208E+04  0.11310802209E+04  0.50400001928E-02 0.  1.
    10030    2    1    2    0    0  0.00000000000E+00  0.00000000000E+00  0.10560193074E+04  0.33181797491E+04  0.31456541561E+04 0.  0.
        4    1    3    3  502    0  0.61867791539E+03 -0.36261327454E+03  0.20046175550E+04  0.21290241672E+04  0.12699999809E+01 0. -1.
       -4    1    3    3    0  502 -0.61867791539E+03  0.36261327454E+03 -0.94859824756E+03  0.11891555819E+04  0.12699999809E+01 0.  1.
</event>
<event>
 5   0  0.3938696E-06  0.2009703E+04  0.7818609E-02  0.8602097E-01
       -1   -1    0    0    0  501  0.00000000000E+00  0.00000000000E+00  0.13607614273E+04  0.13607614273E+04  0.50400001928E-02 0.  1.
        1   -1    0    0  501    0  0.00000000000E+00  0.00000000000E+00 -0.74203071582E+03  0.74203071584E+03  0.50400001928E-02 0. -1.
    10030    2    1    2    0    0  0.00000000000E+00  0.00000000000E+00  0.61873071146E+03  0.21027921431E+04  0.20097032378E+04 0.  0.
        4    1    3    3  502    0  0.97647801162E+03 -0.64827090655E+02  0.70737227143E+02  0.98118154643E+03  0.12699999809E+01 0. -1.
       -4    1    3    3    0  502 -0.97647801162E+03  0.64827090655E+02  0.54799348431E+03  0.11216105967E+04  0.12699999809E+01 0.  1.
</event>
<event>
 5   0  0.2635798E-06  0.3155335E+04  0.7818609E-02  0.8200714E-01
       -1   -1    0    0    0  501  0.00000000000E+00  0.00000000000E+00  0.10761739000E+04  0.10761739000E+04  0.50400001928E-02 0.  1.
        1   -1    0    0  501    0  0.00000000000E+00  0.00000000000E+00 -0.23128552580E+04  0.23128552580E+04  0.50400001928E-02 0. -1.
    10030    2    1    2    0    0  0.00000000000E+00  0.00000000000E+00 -0.12366813579E+04  0.33890291580E+04  0.31553348242E+04 0.  0.
        1    1    3    3  502    0  0.47552477585E+03 -0.11517840288E+04  0.42095313167E+03  0.13152687180E+04  0.50400001928E-02 0.  1.
       -1    1    3    3    0  502 -0.47552477585E+03  0.11517840288E+04 -0.16576344896E+04  0.20737604400E+04  0.50400001928E-02 0. -1.
</event>
<event>
 5   0  0.2788054E-06  0.2210525E+04  0.7818609E-02  0.8514060E-01
       -1   -1    0    0    0  501  0.00000000000E+00  0.00000000000E+00  0.12646675002E+04  0.12646675002E+04  0.50400001928E-02 0.  1.
        1   -1    0    0  501    0  0.00000000000E+00  0.00000000000E+00 -0.96594927696E+03  0.96594927698E+03  0.50400001928E-02 0. -1.
    10030    2    1    2    0    0  0.00000000000E+00  0.00000000000E+00  0.29871822327E+03  0.22306167772E+04  0.22105245147E+04 0.  0.
        3    1    3    3  502    0  0.26148607637E+03 -0.51639551987E+03 -0.80077520621E+03  0.98806894605E+03  0.10100000352E+00 0. -1.
       -3    1    3    3    0  502 -0.26148607637E+03  0.51639551987E+03  0.10994934295E+04  0.12425478312E+04  0.10100000352E+00 0.  1.
</event>
<event>
 5   0  0.7952307E-06  0.2137377E+04  0.7818609E-02  0.8544955E-01
        2   -1    0    0  501    0  0.00000000000E+00  0.00000000000E+00  0.25452809592E+04  0.25452809592E+04  0.25500000920E-02 0. -1.
       -2   -1    0    0    0  501  0.00000000000E+00  0.00000000000E+00 -0.44871084137E+03  0.44871084138E+03  0.25500000920E-02 0.  1.
    10030    2    1    2    0    0  0.00000000000E+00  0.00000000000E+00  0.20965701178E+04  0.29939918006E+04  0.21373770474E+04 0.  0.
        2    1    3    3  502    0  0.80357943490E+03 -0.25295191343E+03  0.19693654443E+04  0.21419908571E+04  0.25500000920E-02 0. -1.
       -2    1    3    3    0  502 -0.80357943490E+03  0.25295191343E+03  0.12720467353E+03  0.85200094348E+03  0.25500000920E-02 0.  1.
</event>
<event>
 5   0  0.2788054E-06  0.3219969E+04  0.7818609E-02  0.8183563E-01
        1   -1    0    0  501    0  0.00000000000E+00  0.00000000000E+00  0.19536241413E+04  0.19536241414E+04  0.50400001928E-02 0.  1.
       -1   -1    0    0    0  501  0.00000000000E+00  0.00000000000E+00 -0.13267902299E+04  0.13267902299E+04  0.50400001928E-02 0. -1.
    10030    2    1    2    0    0  0.00000000000E+00  0.00000000000E+00  0.62683391144E+03  0.32804143713E+04  0.32199685860E+04 0.  0.
        3    1    3    3  502    0 -0.86335036510E+03  0.11972302963E+04 -0.34154752451E+03  0.15150541103E+04  0.10100000352E+00 0.  1.
       -3    1    3    3    0  502  0.86335036510E+03 -0.11972302963E+04  0.96838143595E+03  0.17653602610E+04  0.10100000352E+00 0. -1.
</event>
<event>
 5   0  0.2635798E-06  0.3220634E+04  0.7818609E-02  0.8183389E-01
        1   -1    0    0  501    0  0.00000000000E+00  0.00000000000E+00  0.17298636849E+04  0.17298636849E+04  0.50400001928E-02 0.  1.
       -1   -1    0    0    0  501  0.00000000000E+00  0.00000000000E+00 -0.14990318978E+04  0.14990318978E+04  0.50400001928E-02 0. -1.
    10030    2    1    2    0    0  0.00000000000E+00  0.00000000000E+00  0.23083178714E+03  0.32288955827E+04  0.32206340013E+04 0.  0.
        1    1    3    3  502    0 -0.94121884579E+03 -0.11778682202E+04  0.68242336319E+03  0.16549828115E+04  0.50400001928E-02 0.  1.
       -1    1    3    3    0  502  0.94121884579E+03  0.11778682202E+04 -0.45159157606E+03  0.15739127712E+04  0.50400001928E-02 0. -1.
</event>
<event>
 5   0  0.8237664E-06  0.3214685E+04  0.7818609E-02  0.8184950E-01
        2   -1    0    0  501    0  0.00000000000E+00  0.00000000000E+00  0.17166568534E+04  0.17166568534E+04  0.25500000920E-02 0. -1.
       -2   -1    0    0    0  501  0.00000000000E+00  0.00000000000E+00 -0.15049890231E+04  0.15049890231E+04  0.25500000920E-02 0.  1.
    10030    2    1    2    0    0  0.00000000000E+00  0.00000000000E+00  0.21166783024E+03  0.32216458765E+04  0.32146848809E+04 0.  0.
        5    1    3    3  502    0  0.73847454453E+03 -0.68810337017E+03 -0.11477530880E+04  0.15284600557E+04  0.46999998093E+01 0.  1.
       -5    1    3    3    0  502 -0.73847454453E+03  0.68810337017E+03  0.13594209182E+04  0.16931858208E+04  0.46999998093E+01 0. -1.
</event>
<event>
 5   0  0.2933646E-06  0.3161992E+04  0.7818609E-02  0.8198928E-01
        1   -1    0    0  501    0  0.00000000000E+00  0.00000000000E+00  0.20263566662E+04  0.20263566662E+04  0.50400001928E-02 0. -1.
       -1   -1    0    0    0  501  0.00000000000E+00  0.00000000000E+00 -0.12335185986E+04  0.12335185986E+04  0.50400001928E-02 0.  1.
    10030    2    1    2    0    0  0.00000000000E+00  0.00000000000E+00  0.79283806763E+03  0.32598752648E+04  0.31619921791E+04 0.  0.
        2    1    3    3  502    0  0.14559777998E+04  0.31123400684E+03 -0.15184289554E+03  0.14965942087E+04  0.25500000920E-02 0.  1.
       -2    1    3    3    0  502 -0.14559777998E+04 -0.31123400684E+03  0.94468096317E+03  0.17632810561E+04  0.25500000920E-02 0. -1.
</event>
<event>
 5   0  0.4142886E-06  0.3217200E+04  0.7818609E-02  0.8184289E-01
       -1   -1    0    0    0  501  0.00000000000E+00  0.00000000000E+00  0.13370811149E+04  0.13370811149E+04  0.50400001928E-02 0. -1.
        1   -1    0    0  501    0  0.00000000000E+00  0.00000000000E+00 -0.19352561909E+04  0.19352561909E+04  0.50400001928E-02 0.  1.
    10030    2    1    2    0    0  0.00000000000E+00  0.00000000000E+00 -0.59817507604E+03  0.32723373058E+04  0.32172003390E+04 0.  0.
        5    1    3    3  502    0 -0.15620618657E+04 -0.82517832924E+02  0.82476163160E+02  0.15664197625E+04  0.46999998093E+01 0. -1.
       -5    1    3    3    0  502  0.15620618657E+04  0.82517832924E+02 -0.68065123920E+03  0.17059175433E+04  0.46999998093E+01 0.  1.
</event>
<event>
 5   0  0.3938696E-06  0.3056175E+04  0.7818609E-02  0.8227869E-01
        1   -1    0    0  501    0  0.00000000000E+00  0.00000000000E+00  0.12620618415E+04  0.12620618415E+04  0.50400001928E-02 0.  1.
       -1   -1    0    0    0  501  0.00000000000E+00  0.00000000000E+00 -0.18501877631E+04  0.18501877631E+04  0.50400001928E-02 0. -1.
    10030    2    1    2    0    0  0.00000000000E+00  0.00000000000E+00 -0.58812592163E+03  0.31122496046E+04  0.30561749789E+04 0.  0.
        4    1    3    3  502    0 -0.12744044225E+04 -0.78159105217E+03 -0.61618713902E+03  0.16169970341E+04  0.12699999809E+01 0. -1.
       -4    1    3    3    0  502  0.12744044225E+04  0.78159105217E+03  0.28061217386E+02  0.14952525706E+04  0.12699999809E+01 0.  1.
</event>
<event>
 5   0  0.3938696E-06  0.3168052E+04  0.7818609E-02  0.8197306E-01
        1   -1    0    0  501    0  0.00000000000E+00  0.00000000000E+00  0.75480134570E+03  0.75480134572E+03  0.50400001928E-02 0. -1.
       -1   -1    0    0    0  501  0.00000000000E+00  0.00000000000E+00 -0.33242357437E+04  0.33242357437E+04  0.50400001928E-02 0.  1.
    10030    2    1    2    0    0  0.00000000000E+00  0.00000000000E+00 -0.25694343980E+04  0.40790370894E+04  0.31680515228E+04 0.  0.
        4    1    3    3  502    0  0.45832591416E+03 -0.62756081900E+03  0.49249936356E+03  0.92002851105E+03  0.12699999809E+01 0. -1.
       -4    1    3    3    0  502 -0.45832591416E+03  0.62756081900E+03 -0.30619337616E+04  0.31590085784E+04  0.12699999809E+01 0.  1.
</event>
<event>
 5   0  0.7941434E-06  0.3231029E+04  0.7818609E-02  0.8180670E-01
        2   -1    0    0  501    0  0.00000000000E+00  0.00000000000E+00  0.26695049473E+04  0.26695049473E+04  0.25500000920E-02 0. -1.
       -2   -1    0    0    0  501  0.00000000000E+00  0.00000000000E+00 -0.97766705644E+03  0.97766705644E+03  0.25500000920E-02 0.  1.
    10030    2    1    2    0    0  0.00000000000E+00  0.00000000000E+00  0.16918378908E+04  0.36471720037E+04  0.32310289655E+04 0.  0.
        4    1    3    3  502    0 -0.13388420696E+04 -0.26065885804E+03  0.18231225844E+04  0.22768879415E+04  0.12699999809E+01 0. -1.
       -4    1    3    3    0  502  0.13388420696E+04  0.26065885804E+03 -0.13128469355E+03  0.13702840622E+04  0.12699999809E+01 0.  1.
</event>
<event>
 5   0  0.2788054E-06  0.3250351E+04  0.7818609E-02  0.8175645E-01
        1   -1    0    0  501    0  0.00000000000E+00  0.00000000000E+00  0.16419358227E+04  0.16419358227E+04  0.50400001928E-02 0. -1.
       -1   -1    0    0    0  501  0.00000000000E+00  0.00000000000E+00 -0.16085864675E+04  0.16085864675E+04  0.50400001928E-02 0.  1.
    10030    2    1    2    0    0  0.00000000000E+00  0.00000000000E+00  0.33349355235E+02  0.32505222902E+04  0.32503512086E+04 0.  0.
        3    1    3    3  502    0  0.93937280954E+03 -0.12255171270E+04  0.52353686152E+03  0.16304613946E+04  0.10100000352E+00 0.  1.
       -3    1    3    3    0  502 -0.93937280954E+03  0.12255171270E+04 -0.49018750628E+03  0.16200608956E+04  0.10100000352E+00 0. -1.
</event>
<event>
 5   0  0.7952307E-06  0.3211085E+04  0.7818609E-02  0.8185896E-01
        2   -1    0    0  501    0  0.00000000000E+00  0.00000000000E+00  0.17490498061E+04  0.17490498061E+04  0.25500000920E-02 0. -1.
       -2   -1    0    0    0  501  0.00000000000E+00  0.00000000000E+00 -0.14738096740E+04  0.14738096740E+04  0.25500000920E-02 0.  1.
    10030    2    1    2    0    0  0.00000000000E+00  0.00000000000E+00  0.27524013211E+03  0.32228594800E+04  0.32110848786E+04 0.  0.
        2    1    3    3  502    0  0.10347679959E+04  0.20190130047E+03 -0.10777113390E+04  0.15076374467E+04  0.25500000920E-02 0.  1.
       -2    1    3    3    0  502 -0.10347679959E+04 -0.20190130047E+03  0.13529514711E+04  0.17152220333E+04  0.25500000920E-02 0. -1.
</event>
<event>
 5   0  0.8237664E-06  0.3290395E+04  0.7818609E-02  0.8165344E-01
       -2   -1    0    0    0  501  0.00000000000E+00  0.00000000000E+00  0.18523882035E+04  0.18523882035E+04  0.25500000920E-02 0.  1.
        2   -1    0    0  501    0  0.00000000000E+00  0.00000000000E+00 -0.14611810220E+04  0.14611810220E+04  0.25500000920E-02 0. -1.
    10030    2    1    2    0    0  0.00000000000E+00  0.00000000000E+00  0.39120718150E+03  0.33135692255E+04  0.32903948020E+04 0.  0.
        5    1    3    3  502    0  0.44713783251E+03  0.13410137901E+04  0.10431977975E+04  0.17568534262E+04  0.46999998093E+01 0.  1.
       -5    1    3    3    0  502 -0.44713783251E+03 -0.13410137901E+04 -0.65199061601E+03  0.15567157993E+04  0.46999998093E+01 0. -1.
</event>
<event>
 5   0  0.7510251E-06  0.2296275E+04  0.7818609E-02  0.8479391E-01
       -2   -1    0    0    0  501  0.00000000000E+00  0.00000000000E+00  0.17195857883E+04  0.17195857883E+04  0.25500000920E-02 0.  1.
        2   -1    0    0  501    0  0.00000000000E+00  0.00000000000E+00 -0.76659141199E+03  0.76659141200E+03  0.25500000920E-02 0. -1.
    10030    2    1    2    0    0  0.00000000000E+00  0.00000000000E+00  0.95299437629E+03  0.24861772003E+04  0.22962749814E+04 0.  0.
        3    1    3    3  502    0  0.10627768469E+04  0.18136181632E+03  0.90390045265E+03  0.14069196044E+04  0.10100000352E+00 0.  1.
       -3    1    3    3    0  502 -0.10627768469E+04 -0.18136181632E+03  0.49093923637E+02  0.10792575959E+04  0.10100000352E+00 0. -1.
</event>
<event>
 5   0  0.2933646E-06  0.3120806E+04  0.7818609E-02  0.8210051E-01
       -1   -1    0    0    0  501  0.00000000000E+00  0.00000000000E+00  0.16107649416E+04  0.16107649416E+04  0.50400001928E-02 0.  1.
        1   -1    0    0  501    0  0.00000000000E+00  0.00000000000E+00 -0.15116160519E+04  0.15116160519E+04  0.50400001928E-02 0. -1.
    10030    2    1    2    0    0  0.00000000000E+00  0.00000000000E+00  0.99148889642E+02  0.31223809935E+04  0.31208063968E+04 0.  0.
        2    1    3    3  502    0 -0.69658565797E+03 -0.64364517270E+03  0.12892910085E+04  0.16005567756E+04  0.25500000920E-02 0.  1.
       -2    1    3    3    0  502  0.69658565797E+03  0.64364517270E+03 -0.11901421189E+04  0.15218242179E+04  0.25500000920E-02 0. -1.
</event>
<event>
 5   0  0.7510251E-06  0.3178631E+04  0.7818609E-02  0.8194483E-01
        2   -1    0    0  501    0  0.00000000000E+00  0.00000000000E+00  0.18206738655E+04  0.18206738655E+04  0.25500000920E-02 0. -1.
       -2   -1    0    0    0  501  0.00000000000E+00  0.00000000000E+00 -0.13873567341E+04  0.13873567341E+04  0.25500000920E-02 0.  1.
    10030    2    1    2    0    0  0.00000000000E+00  0.00000000000E+00  0.43331713141E+03  0.32080305996E+04  0.31786312450E+04 0.  0.
        3    1    3    3  502    0  0.77115947940E+03  0.54780341524E+03  0.15056354222E+04  0.17781207943E+04  0.10100000352E+00 0. -1.
       -3    1    3    3    0  502 -0.77115947940E+03 -0.54780341524E+03 -0.10723182907E+04  0.14299098053E+04  0.10100000352E+00 0.  1.
</event>
<event>
 5   0  0.4142886E-06  0.2667270E+04  0.7818609E-02  0.8345704E-01
       -1   -1    0    0    0  501  0.00000000000E+00  0.00000000000E+00  0.15530150622E+04  0.15530150622E+04  0.50400001928E-02 0.  1.
        1   -1    0    0  501    0  0.00000000000E+00  0.00000000000E+00 -0.11452444011E+04  0.11452444011E+04  0.50400001928E-02 0. -1.
    10030    2    1    2    0    0  0.00000000000E+00  0.00000000000E+00  0.40777066111E+03  0.26982594634E+04  0.26672696188E+04 0.  0.
        5    1    3    3  502    0  0.55174135770E+03  0.88005232598E+03  0.10500539753E+04  0.14770057764E+04  0.46999998093E+01 0. -1.
       -5    1    3    3    0  502 -0.55174135770E+03 -0.88005232598E+03 -0.64228331424E+03  0.12212536870E+04  0.46999998093E+01 0.  1.
</event>
<event>
 5   0  0.4142886E-06  0.3016706E+04  0.7818609E-02  0.8238977E-01
       -1   -1    0    0    0  501  0.00000000000E+00  0.00000000000E+00  0.15288569162E+04  0.15288569162E+04  0.50400001928E-02 0. -1.
        1   -1    0    0  501    0  0.00000000000E+00  0.00000000000E+00 -0.14881237553E+04  0.14881237553E+04  0.50400001928E-02 0.  1.
    10030    2    1    2    0    0  0.00000000000E+00  0.00000000000E+00  0.40733160957E+02  0.30169806715E+04  0.30167056837E+04 0.  0.
        5    1    3    3  502    0 -0.44582553713E+03  0.72677010760E+03  0.12647271645E+04  0.15252908212E+04  0.46999998093E+01 0. -1.
       -5    1    3    3    0  502  0.44582553713E+03 -0.72677010760E+03 -0.12239940035E+04  0.14916898503E+04  0.46999998093E+01 0.  1.
</event>
<event>
 5   0  0.2635798E-06  0.2483650E+04  0.7818609E-02  0.8408833E-01
        1   -1    0    0  501    0  0.00000000000E+00  0.00000000000E+00  0.92959961834E+03  0.92959961835E+03  0.50400001928E-02 0.  1.
       -1   -1    0    0    0  501  0.00000000000E+00  0.00000000000E+00 -0.16589179451E+04  0.16589179451E+04  0.50400001928E-02 0. -1.
    10030    2    1    2    0    0  0.00000000000E+00  0.00000000000E+00 -0.72931832677E+03  0.25885175635E+04  0.24836501273E+04 0.  0.
        1    1    3    3  502    0 -0.87797106606E+03  0.56236477549E+03  0.33839132661E+03  0.10961733547E+04  0.50400001928E-02 0.  1.
       -1    1    3    3    0  502  0.87797106606E+03 -0.56236477549E+03 -0.10677096534E+04  0.14923442088E+04  0.50400001928E-02 0. -1.
</event>
<event>
 5   0  0.7941434E-06  0.3037036E+04  0.7818609E-02  0.8233233E-01
       -2   -1    0    0    0  501  0.00000000000E+00  0.00000000000E+00  0.23286676222E+04  0.23286676222E+04  0.25500000920E-02 0. -1.
        2   -1    0    0  501    0  0.00000000000E+00  0.00000000000E+00 -0.99022166018E+03  0.99022166019E+03  0.25500000920E-02 0.  1.
    10030    2    1    2    0    0  0.00000000000E+00  0.00000000000E+00  0.13384459620E+04  0.33188892824E+04  0.30370361334E+04 0.  0.
        4    1    3    3  502    0 -0.27490334473E+03  0.10888120877E+04  0.17862453231E+04  0.21099188559E+04  0.12699999809E+01 0. -1.
       -4    1    3    3    0  502  0.27490334473E+03 -0.10888120877E+04 -0.44779936112E+03  0.12089704264E+04  0.12699999809E+01 0.  1.
</event>
<event>
 5   0  0.2635798E-06  0.1852397E+04  0.7818609E-02  0.8678921E-01
       -1   -1    0    0    0  501  0.00000000000E+00  0.00000000000E+00  0.31186625620E+03  0.31186625624E+03  0.50400001928E-02 0. -1.
        1   -1    0    0  501    0  0.00000000000E+00  0.00000000000E+00 -0.27506770910E+04  0.27506770910E+04  0.50400001928E-02 0.  1.
    10030    2    1    2    0    0  0.00000000000E+00  0.00000000000E+00 -0.24388108348E+04  0.30625433472E+04  0.18523966815E+04 0.  0.
        1    1    3    3  502    0  0.67094849894E+03 -0.61772609897E+03 -0.95238065582E+03  0.13186304771E+04  0.50400001928E-02 0. -1.
       -1    1    3    3    0  502 -0.67094849894E+03  0.61772609897E+03 -0.14864301789E+04  0.17439128701E+04  0.50400001928E-02 0.  1.
</event>
<event>
 5   0  0.2580875E-06  0.3200175E+04  0.7818609E-02  0.8188771E-01
       -4   -1    0    0    0  501  0.00000000000E+00  0.00000000000E+00  0.15931273511E+04  0.15931278573E+04  0.12699999809E+01 0.  1.
        4   -1    0    0  501    0  0.00000000000E+00  0.00000000000E+00 -0.16070767745E+04  0.16070772763E+04  0.12699999809E+01 0. -1.
    10030    2    1    2    0    0  0.00000000000E+00  0.00000000000E+00 -0.13949423364E+02  0.32002051336E+04  0.32001747313E+04 0.  0.
        3    1    3    3  502    0  0.20045251832E+03  0.88241200339E+03  0.13126769469E+04  0.15943503169E+04  0.10100000352E+00 0.  1.
       -3    1    3    3    0  502 -0.20045251832E+03 -0.88241200339E+03 -0.13266263703E+04  0.16058548167E+04  0.10100000352E+00 0. -1.
</event>
<event>
 5   0  0.4142886E-06  0.2726435E+04  0.7818609E-02  0.8326478E-01
       -1   -1    0    0    0  501  0.00000000000E+00  0.00000000000E+00  0.12227464107E+04  0.12227464107E+04  0.50400001928E-02 0. -1.
        1   -1    0    0  501    0  0.00000000000E+00  0.00000000000E+00 -0.15198261584E+04  0.15198261584E+04  0.50400001928E-02 0.  1.
    10030    2    1    2    0    0  0.00000000000E+00  0.00000000000E+00 -0.29707974770E+03  0.27425725690E+04  0.27264350203E+04 0.  0.
        5    1    3    3  502    0  0.41433481767E+03 -0.12887383635E+04  0.13097178387E+02  0.13537775064E+04  0.46999998093E+01 0.  1.
       -5    1    3    3    0  502 -0.41433481767E+03  0.12887383635E+04 -0.31017692608E+03  0.13887950627E+04  0.46999998093E+01 0. -1.
</event>
<event>
 5   0  0.7952307E-06  0.2134643E+04  0.7818609E-02  0.8546134E-01
        2   -1    0    0  501    0  0.00000000000E+00  0.00000000000E+00  0.17007908935E+04  0.17007908936E+04  0.25500000920E-02 0.  1.
       -2   -1    0    0    0  501  0.00000000000E+00  0.00000000000E+00 -0.66979158500E+03  0.66979158501E+03  0.25500000920E-02 0. -1.
    10030    2    1    2    0    0  0.00000000000E+00  0.00000000000E+00  0.10309993085E+04  0.23705824786E+04  0.21346432286E+04 0.  0.
        2    1    3    3  502    0  0.97791516922E+03  0.15212780288E+03  0.95931459497E+03  0.13783125330E+04  0.25500000920E-02 0.  1.
       -2    1    3    3    0  502 -0.97791516922E+03 -0.15212780288E+03  0.71684713574E+02  0.99226994552E+03  0.25500000920E-02 0. -1.
</event>
<event>
 5   0  0.7941434E-06  0.3114337E+04  0.7818609E-02  0.8211814E-01
       -2   -1    0    0    0  501  0.00000000000E+00  0.00000000000E+00  0.11414020053E+04  0.11414020053E+04  0.25500000920E-02 0.  1.
        2   -1    0    0  501    0  0.00000000000E+00  0.00000000000E+00 -0.21243817113E+04  0.21243817113E+04  0.25500000920E-02 0. -1.
    10030    2    1    2    0    0  0.00000000000E+00  0.00000000000E+00 -0.98297970599E+03  0.32657837167E+04  0.31143368767E+04 0.  0.
        4    1    3    3  502    0  0.17660606000E+03  0.24360600309E+03  0.11106278924E+04  0.11506648136E+04  0.12699999809E+01 0.  1.
       -4    1    3    3    0  502 -0.17660606000E+03 -0.24360600309E+03 -0.20936075984E+04  0.21151189030E+04  0.12699999809E+01 0. -1.
</event>
<event>
 5   0  0.7952307E-06  0.3160743E+04  0.7818609E-02  0.8199262E-01
        2   -1    0    0  501    0  0.00000000000E+00  0.00000000000E+00  0.20258259544E+04  0.20258259544E+04  0.25500000920E-02 0.  1.
       -2   -1    0    0    0  501  0.00000000000E+00  0.00000000000E+00 -0.12328673268E+04  0.12328673268E+04  0.25500000920E-02 0. -1.
    10030    2    1    2    0    0  0.00000000000E+00  0.00000000000E+00  0.79295862759E+03  0.32586932812E+04  0.31607433487E+04 0.  0.
        2    1    3    3  502    0 -0.27913946390E+02 -0.38194956606E+03 -0.11843036664E+04  0.12446846322E+04  0.25500000920E-02 0. -1.
       -2    1    3    3    0  502  0.27913946390E+02  0.38194956606E+03  0.19772622939E+04  0.20140086491E+04  0.25500000920E-02 0.  1.
</event>
<event>
 5   0  0.2635798E-06  0.3620915E+04  0.7818609E-02  0.8085718E-01
        1   -1    0    0  501    0  0.00000000000E+00  0.00000000000E+00  0.17007414977E+04  0.17007414977E+04  0.50400001928E-02 0.  1.
       -1   -1    0    0    0  501  0.00000000000E+00  0.00000000000E+00 -0.19272517381E+04  0.19272517382E+04  0.50400001928E-02 0. -1.
    10030    2    1    2    0    0  0.00000000000E+00  0.00000000000E+00 -0.22651024045E+03  0.36279932359E+04  0.36209153581E+04 0.  0.
        1    1    3    3  502    0 -0.75708059127E+03 -0.16135782310E+04  0.20509425897E+03  0.17941207831E+04  0.50400001928E-02 0.  1.
       -1    1    3    3    0  502  0.75708059127E+03  0.16135782310E+04 -0.43160449941E+03  0.18338724528E+04  0.50400001928E-02 0. -1.
</event>
<event>
 5   0  0.8237664E-06  0.3014411E+04  0.7818609E-02  0.8239628E-01
       -2   -1    0    0    0  501  0.00000000000E+00  0.00000000000E+00  0.11034518633E+04  0.11034518634E+04  0.25500000920E-02 0. -1.
        2   -1    0    0  501    0  0.00000000000E+00  0.00000000000E+00 -0.20586924164E+04  0.20586924164E+04  0.25500000920E-02 0.  1.
    10030    2    1    2    0    0  0.00000000000E+00  0.00000000000E+00 -0.95524055303E+03  0.31621442797E+04  0.30144107105E+04 0.  0.
        5    1    3    3  502    0 -0.61949435672E+03  0.13610631094E+04 -0.28030657951E+03  0.15214663697E+04  0.46999998093E+01 0.  1.
       -5    1    3    3    0  502  0.61949435672E+03 -0.13610631094E+04 -0.67493397353E+03  0.16406779100E+04  0.46999998093E+01 0. -1.
</event>
<event>
 5   0  0.2933646E-06  0.3085050E+04  0.7818609E-02  0.8219853E-01
       -1   -1    0    0    0  501  0.00000000000E+00  0.00000000000E+00  0.13731033208E+04  0.13731033208E+04  0.50400001928E-02 0.  1.
        1   -1    0    0  501    0  0.00000000000E+00  0.00000000000E+00 -0.17328504747E+04  0.17328504748E+04  0.50400001928E-02 0. -1.
    10030    2    1    2    0    0  0.00000000000E+00  0.00000000000E+00 -0.35974715391E+03  0.31059537956E+04  0.30850495888E+04 0.  0.
        2    1    3    3  502    0 -0.78322721165E+03  0.11758638781E+04 -0.80316630917E+03  0.16251697897E+04  0.25500000920E-02 0. -1.
       -2    1    3    3    0  502  0.78322721165E+03 -0.11758638781E+04  0.44341915526E+03  0.14807840059E+04  0.25500000920E-02 0.  1.
</event>
<event>
 5   0  0.2635798E-06  0.2453185E+04  0.7818609E-02  0.8419856E-01
        1   -1    0    0  501    0  0.00000000000E+00  0.00000000000E+00  0.80222268677E+03  0.80222268678E+03  0.50400001928E-02 0.  1.
       -1   -1    0    0    0  501  0.00000000000E+00  0.00000000000E+00 -0.18754514921E+04  0.18754514921E+04  0.50400001928E-02 0. -1.
    10030    2    1    2    0    0  0.00000000000E+00  0.00000000000E+00 -0.10732288053E+04  0.26776741789E+04  0.24531854678E+04 0.  0.
        1    1    3    3  502    0  0.27443029866E+02 -0.39661437426E+03 -0.18031758872E+04  0.18464829709E+04  0.50400001928E-02 0. -1.
       -1    1    3    3    0  502 -0.27443029866E+02  0.39661437426E+03  0.72994708189E+03  0.83119120793E+03  0.50400001928E-02 0.  1.
</event>
<event>
 5   0  0.4142886E-06  0.3443363E+04  0.7818609E-02  0.8127345E-01
        1   -1    0    0  501    0  0.00000000000E+00  0.00000000000E+00  0.22975581494E+04  0.22975581494E+04  0.50400001928E-02 0.  1.
       -1   -1    0    0    0  501  0.00000000000E+00  0.00000000000E+00 -0.12901465340E+04  0.12901465340E+04  0.50400001928E-02 0. -1.
    10030    2    1    2    0    0  0.00000000000E+00  0.00000000000E+00  0.10074116154E+04  0.35877046834E+04  0.34433627070E+04 0.  0.
        5    1    3    3  502    0  0.94314091856E+03  0.35098584899E+03  0.19592104737E+04  0.22025516177E+04  0.46999998093E+01 0.  1.
       -5    1    3    3    0  502 -0.94314091856E+03 -0.35098584899E+03 -0.95179885834E+03  0.13851530656E+04  0.46999998093E+01 0. -1.
</event>
<event>
 5   0  0.3938696E-06  0.3218200E+04  0.7818609E-02  0.8184027E-01
       -1   -1    0    0    0  501  0.00000000000E+00  0.00000000000E+00  0.13528283720E+04  0.13528283721E+04  0.50400001928E-02 0.  1.
        1   -1    0    0  501    0  0.00000000000E+00  0.00000000000E+00 -0.19139185419E+04  0.19139185419E+04  0.50400001928E-02 0. -1.
    10030    2    1    2    0    0  0.00000000000E+00  0.00000000000E+00 -0.56109016987E+03  0.32667469140E+04  0.32182003078E+04 0.  0.
        4    1    3    3  502    0  0.45521499155E+03 -0.10932323152E+04  0.82530332394E+03  0.14434350602E+04  0.12699999809E+01 0.  1.
       -4    1    3    3    0  502 -0.45521499155E+03  0.10932323152E+04 -0.13863934938E+04  0.18233118538E+04  0.12699999809E+01 0. -1.
</event>
<event>
 5   0  0.7971763E-06  0.3207794E+04  0.7818609E-02  0.8186762E-01
       -2   -1    0    0    0  501  0.00000000000E+00  0.00000000000E+00  0.10543458288E+04  0.10543458289E+04  0.25500000920E-02 0.  1.
        2   -1    0    0  501    0  0.00000000000E+00  0.00000000000E+00 -0.24398872251E+04  0.24398872251E+04  0.25500000920E-02 0. -1.
    10030    2    1    2    0    0  0.00000000000E+00  0.00000000000E+00 -0.13855413962E+04  0.34942330540E+04  0.32077935835E+04 0.  0.
        1    1    3    3  502    0 -0.12915653046E+04  0.26765763564E+03  0.30123898505E+03  0.13529695016E+04  0.50400001928E-02 0.  1.
       -1    1    3    3    0  502  0.12915653046E+04 -0.26765763564E+03 -0.16867803813E+04  0.21412635524E+04  0.50400001928E-02 0. -1.
</event>
<event>
 5   0  0.2635798E-06  0.3186825E+04  0.7818609E-02  0.8192305E-01
       -1   -1    0    0    0  501  0.00000000000E+00  0.00000000000E+00  0.11171328033E+04  0.11171328033E+04  0.50400001928E-02 0.  1.
        1   -1    0    0  501    0  0.00000000000E+00  0.00000000000E+00 -0.22727492891E+04  0.22727492891E+04  0.50400001928E-02 0. -1.
    10030    2    1    2    0    0  0.00000000000E+00  0.00000000000E+00 -0.11556164858E+04  0.33898820924E+04  0.31868246167E+04 0.  0.
        1    1    3    3  502    0 -0.53294805040E+03 -0.45009923306E+03 -0.21016892892E+04  0.22144346485E+04  0.50400001928E-02 0. -1.
       -1    1    3    3    0  502  0.53294805040E+03  0.45009923306E+03  0.94607280339E+03  0.11754474439E+04  0.50400001928E-02 0.  1.
</event>
<event>
 5   0  0.7510251E-06  0.2983721E+04  0.7818609E-02  0.8248395E-01
       -2   -1    0    0    0  501  0.00000000000E+00  0.00000000000E+00  0.10592911432E+04  0.10592911432E+04  0.25500000920E-02 0. -1.
        2   -1    0    0  501    0  0.00000000000E+00  0.00000000000E+00 -0.21010730217E+04  0.21010730217E+04  0.25500000920E-02 0.  1.
    10030    2    1    2    0    0  0.00000000000E+00  0.00000000000E+00 -0.10417818784E+04  0.31603641649E+04  0.29837211955E+04 0.  0.
        3    1    3    3  502    0 -0.57143972978E+03  0.58715662518E+03  0.79965509327E+03  0.11448775243E+04  0.10100000352E+00 0. -1.
       -3    1    3    3    0  502  0.57143972978E+03 -0.58715662518E+03 -0.18414369717E+04  0.20154866406E+04  0.10100000352E+00 0.  1.
</event>
<event>
 5   0  0.7971763E-06  0.3232854E+04  0.7818609E-02  0.8180194E-01
        2   -1    0    0  501    0  0.00000000000E+00  0.00000000000E+00  0.16128892316E+04  0.16128892316E+04  0.25500000920E-02 0. -1.
       -2   -1    0    0    0  501  0.00000000000E+00  0.00000000000E+00 -0.16199722765E+04  0.16199722765E+04  0.25500000920E-02 0.  1.
    10030    2    1    2    0    0  0.00000000000E+00  0.00000000000E+00 -0.70830448422E+01  0.32328615081E+04  0.32328537488E+04 0.  0.
        1    1    3    3  502    0 -0.13167061343E+04  0.68759548676E+03  0.63390274443E+03  0.16150341442E+04  0.50400001928E-02 0. -1.
       -1    1    3    3    0  502  0.13167061343E+04 -0.68759548676E+03 -0.64098578927E+03  0.16178273639E+04  0.50400001928E-02 0.  1.
</event>
<event>
 5   0  0.7971763E-06  0.3226849E+04  0.7818609E-02  0.8181762E-01
        2   -1    0    0  501    0  0.00000000000E+00  0.00000000000E+00  0.20820456185E+04  0.20820456185E+04  0.25500000920E-02 0. -1.
       -2   -1    0    0    0  501  0.00000000000E+00  0.00000000000E+00 -0.12502793652E+04  0.12502793652E+04  0.25500000920E-02 0.  1.
    10030    2    1    2    0    0  0.00000000000E+00  0.00000000000E+00  0.83176625334E+03  0.33323249837E+04  0.32268490353E+04 0.  0.
        1    1    3    3  502    0  0.52518471588E+03 -0.13306158053E+04  0.11864511959E+04  0.18585004298E+04  0.50400001928E-02 0. -1.
       -1    1    3    3    0  502 -0.52518471588E+03  0.13306158053E+04 -0.35468494253E+03  0.14738245539E+04  0.50400001928E-02 0.  1.
</event>
<event>
 5   0  0.8237664E-06  0.2854540E+04  0.7818609E-02  0.8286533E-01
        2   -1    0    0  501    0  0.00000000000E+00  0.00000000000E+00  0.20917969563E+04  0.20917969563E+04  0.25500000920E-02 0. -1.
       -2   -1    0    0    0  501  0.00000000000E+00  0.00000000000E+00 -0.97385161351E+03  0.97385161351E+03  0.25500000920E-02 0.  1.
    10030    2    1    2    0    0  0.00000000000E+00  0.00000000000E+00  0.11179453428E+04  0.30656485698E+04  0.28545401318E+04 0.  0.
        5    1    3    3  502    0 -0.91092104978E+02  0.11557321909E+04 -0.33509954210E+03  0.12067843477E+04  0.46999998093E+01 0.  1.
       -5    1    3    3    0  502  0.91092104978E+02 -0.11557321909E+04  0.14530448849E+04  0.18588642221E+04  0.46999998093E+01 0. -1.
</event>
<event>
 5   0  0.2580875E-06  0.1672174E+04  0.7818609E-02  0.8777395E-01
        3   -1    0    0  501    0  0.00000000000E+00  0.00000000000E+00  0.57144021212E+03  0.57144022105E+03  0.10100000352E+00 0. -1.
       -3   -1    0    0    0  501  0.00000000000E+00  0.00000000000E+00 -0.12232982391E+04  0.12232982433E+04  0.10100000352E+00 0.  1.
    10030    2    1    2    0    0  0.00000000000E+00  0.00000000000E+00 -0.65185802700E+03  0.17947384643E+04  0.16721744132E+04 0.  0.
        3    1    3    3  502    0  0.27896652217E+03  0.25658949507E+03 -0.11257913178E+04  0.11878832396E+04  0.10100000352E+00 0.  1.
       -3    1    3    3    0  502 -0.27896652217E+03 -0.25658949507E+03  0.47393329080E+03  0.60685522475E+03  0.10100000352E+00 0. -1.
</event>
<event>
 5   0  0.7510251E-06  0.3151181E+04  0.7818609E-02  0.8201831E-01
        2   -1    0    0  501    0  0.00000000000E+00  0.00000000000E+00  0.10579111515E+04  0.10579111515E+04  0.25500000920E-02 0. -1.
       -2   -1    0    0    0  501  0.00000000000E+00  0.00000000000E+00 -0.23465911565E+04  0.23465911565E+04  0.25500000920E-02 0.  1.
    10030    2    1    2    0    0  0.00000000000E+00  0.00000000000E+00 -0.12886800050E+04  0.34045023080E+04  0.31511807009E+04 0.  0.
        3    1    3    3  502    0  0.85117231037E+03 -0.11506594447E+04  0.67384506579E+02  0.14328475640E+04  0.10100000352E+00 0. -1.
       -3    1    3    3    0  502 -0.85117231037E+03  0.11506594447E+04 -0.13560645116E+04  0.19716547440E+04  0.10100000352E+00 0.  1.
</event>
<event>
 5   0  0.3938696E-06  0.3049832E+04  0.7818609E-02  0.8229642E-01
        1   -1    0    0  501    0  0.00000000000E+00  0.00000000000E+00  0.20149981828E+04  0.20149981829E+04  0.50400001928E-02 0. -1.
       -1   -1    0    0    0  501  0.00000000000E+00  0.00000000000E+00 -0.11540304856E+04  0.11540304856E+04  0.50400001928E-02 0.  1.
    10030    2    1    2    0    0  0.00000000000E+00  0.00000000000E+00  0.86096769726E+03  0.31690286685E+04  0.30498323439E+04 0.  0.
        4    1    3    3  502    0  0.87477495747E+03  0.20823395525E+03  0.17101915960E+04  0.19321877533E+04  0.12699999809E+01 0. -1.
       -4    1    3    3    0  502 -0.87477495747E+03 -0.20823395525E+03 -0.84922389869E+03  0.12368409151E+04  0.12699999809E+01 0.  1.
</event>
<event>
 5   0  0.2635798E-06  0.3270803E+04  0.7818609E-02  0.8170364E-01
        1   -1    0    0  501    0  0.00000000000E+00  0.00000000000E+00  0.17118029710E+04  0.17118029710E+04  0.50400001928E-02 0. -1.
       -1   -1    0    0    0  501  0.00000000000E+00  0.00000000000E+00 -0.15624103424E+04  0.15624103424E+04  0.50400001928E-02 0.  1.
    10030    2    1    2    0    0  0.00000000000E+00  0.00000000000E+00  0.14939262865E+03  0.32742133134E+04  0.32708033668E+04 0.  0.
        1    1    3    3  502    0 -0.51731032744E+03 -0.46382566450E+03  0.15567107871E+04  0.17047265753E+04  0.50400001928E-02 0. -1.
       -1    1    3    3    0  502  0.51731032744E+03  0.46382566450E+03 -0.14073181585E+04  0.15694867381E+04  0.50400001928E-02 0.  1.
</event>
<event>
 5   0  0.2788054E-06  0.3238584E+04  0.7818609E-02  0.8178701E-01
       -1   -1    0    0    0  501  0.00000000000E+00  0.00000000000E+00  0.14916006032E+04  0.14916006032E+04  0.50400001928E-02 0. -1.
        1   -1    0    0  501    0  0.00000000000E+00  0.00000000000E+00 -0.17579143570E+04  0.17579143570E+04  0.50400001928E-02 0.  1.
    10030    2    1    2    0    0  0.00000000000E+00  0.00000000000E+00 -0.26631375382E+03  0.32495149601E+04  0.32385837122E+04 0.  0.
        3    1    3    3  502    0  0.34425216818E+03  0.14475402077E+04  0.50792370919E+03  0.15722177689E+04  0.10100000352E+00 0.  1.
       -3    1    3    3    0  502 -0.34425216818E+03 -0.14475402077E+04 -0.77423746302E+03  0.16772971912E+04  0.10100000352E+00 0. -1.
</event>
<event>
 5   0  0.2788054E-06  0.3286986E+04  0.7818609E-02  0.8166215E-01
       -1   -1    0    0    0  501  0.00000000000E+00  0.00000000000E+00  0.17342689641E+04  0.17342689641E+04  0.50400001928E-02 0. -1.
        1   -1    0    0  501    0  0.00000000000E+00  0.00000000000E+00 -0.15574683683E+04  0.15574683683E+04  0.50400001928E-02 0.  1.
    10030    2    1    2    0    0  0.00000000000E+00  0.00000000000E+00  0.17680059576E+03  0.32917373324E+04  0.32869858860E+04 0.  0.
        3    1    3    3  502    0  0.23625358311E+03 -0.76164705370E+03 -0.13507389744E+04  0.15685718909E+04  0.10100000352E+00 0.  1.
       -3    1    3    3    0  502 -0.23625358311E+03  0.76164705370E+03  0.15275395701E+04  0.17231654414E+04  0.10100000352E+00 0. -1.
</event>
<event>
 5   0  0.7952307E-06  0.3288455E+04  0.7818609E-02  0.8165839E-01
       -2   -1    0    0    0  501  0.00000000000E+00  0.00000000000E+00  0.17539889003E+04  0.17539889003E+04  0.25500000920E-02 0.  1.
        2   -1    0    0  501    0  0.00000000000E+00  0.00000000000E+00 -0.15413351422E+04  0.15413351422E+04  0.25500000920E-02 0. -1.
    10030    2    1    2    0    0  0.00000000000E+00  0.00000000000E+00  0.21265375818E+03  0.32953240425E+04  0.32884554010E+04 0.  0.
        2    1    3    3  502    0 -0.11305487591E+04 -0.66639643092E+03 -0.88632787178E+03  0.15836040529E+04  0.25500000920E-02 0. -1.
       -2    1    3    3    0  502  0.11305487591E+04  0.66639643092E+03  0.10989816300E+04  0.17117199896E+04  0.25500000920E-02 0.  1.
</event>
<event>
 5   0  0.8237664E-06  0.3135336E+04  0.7818609E-02  0.8206107E-01
       -2   -1    0    0    0  501  0.00000000000E+00  0.00000000000E+00  0.11349525298E+04  0.11349525298E+04  0.25500000920E-02 0. -1.
        2   -1    0    0  501    0  0.00000000000E+00  0.00000000000E+00 -0.21653613212E+04  0.21653613212E+04  0.25500000920E-02 0.  1.
    10030    2    1    2    0    0  0.00000000000E+00  0.00000000000E+00 -0.10304087914E+04  0.33003138510E+04  0.31353355861E+04 0.  0.
        5    1    3    3  502    0 -0.77644129951E+03  0.61983617444E+03 -0.17916551263E+04  0.20486844941E+04  0.46999998093E+01 0. -1.
       -5    1    3    3    0  502  0.77644129951E+03 -0.61983617444E+03  0.76124633487E+03  0.12516293569E+04  0.46999998093E+01 0.  1.
</event>
<event>
 5   0  0.2933646E-06  0.2914625E+04  0.7818609E-02  0.8268539E-01
        1   -1    0    0  501    0  0.00000000000E+00  0.00000000000E+00  0.16575870366E+04  0.16575870367E+04  0.50400001928E-02 0. -1.
       -1   -1    0    0    0  501  0.00000000000E+00  0.00000000000E+00 -0.12812359347E+04  0.12812359347E+04  0.50400001928E-02 0.  1.
    10030    2    1    2    0    0  0.00000000000E+00  0.00000000000E+00  0.37635110196E+03  0.29388229714E+04  0.29146252426E+04 0.  0.
        2    1    3    3  502    0  0.10642757090E+04 -0.66907187241E+03  0.93146601555E+03  0.15645986365E+04  0.25500000920E-02 0. -1.
       -2    1    3    3    0  502 -0.10642757090E+04  0.66907187241E+03 -0.55511491359E+03  0.13742243349E+04  0.25500000920E-02 0.  1.
</event>
<event>
 5   0  0.2933646E-06  0.3181551E+04  0.7818609E-02  0.8193707E-01
        1   -1    0    0  501    0  0.00000000000E+00  0.00000000000E+00  0.17446685647E+04  0.17446685647E+04  0.50400001928E-02 0. -1.
       -1   -1    0    0    0  501  0.00000000000E+00  0.00000000000E+00 -0.14504570023E+04  0.14504570023E+04  0.50400001928E-02 0.  1.
    10030    2    1    2    0    0  0.00000000000E+00  0.00000000000E+00  0.29421156234E+03  0.31951255670E+04  0.31815510283E+04 0.  0.
        2    1    3    3  502    0  0.46672287224E+03  0.49317905312E+03 -0.12976116016E+04  0.14645312173E+04  0.25500000920E-02 0.  1.
       -2    1    3    3    0  502 -0.46672287224E+03 -0.49317905312E+03  0.15918231639E+04  0.17305943497E+04  0.25500000920E-02 0. -1.
</event>
<event>
 5   0  0.2635798E-06  0.3154322E+04  0.7818609E-02  0.8200986E-01
        1   -1    0    0  501    0  0.00000000000E+00  0.00000000000E+00  0.16394933662E+04  0.16394933662E+04  0.50400001928E-02 0.  1.
       -1   -1    0    0    0  501  0.00000000000E+00  0.00000000000E+00 -0.15171988672E+04  0.15171988672E+04  0.50400001928E-02 0. -1.
    10030    2    1    2    0    0  0.00000000000E+00  0.00000000000E+00  0.12229449901E+03  0.31566922335E+04  0.31543224173E+04 0.  0.
        1    1    3    3  502    0 -0.14996638006E+04  0.21489574135E+03 -0.37766340162E+03  0.15613460025E+04  0.50400001928E-02 0. -1.
       -1    1    3    3    0  502  0.14996638006E+04 -0.21489574135E+03  0.49995790062E+03  0.15953462310E+04  0.50400001928E-02 0.  1.
</event>
<event>
 5   0  0.2933646E-06  0.1750732E+04  0.7818609E-02  0.8732948E-01
        1   -1    0    0  501    0  0.00000000000E+00  0.00000000000E+00  0.14806608494E+04  0.14806608494E+04  0.50400001928E-02 0.  1.
       -1   -1    0    0    0  501  0.00000000000E+00  0.00000000000E+00 -0.51751568673E+03  0.51751568676E+03  0.50400001928E-02 0. -1.
    10030    2    1    2    0    0  0.00000000000E+00  0.00000000000E+00  0.96314516264E+03  0.19981765361E+04  0.17507315229E+04 0.  0.
        2    1    3    3  502    0 -0.94912936371E+02 -0.85210969324E+03  0.28008253677E+03  0.90196763923E+03  0.25500000920E-02 0. -1.
       -2    1    3    3    0  502  0.94912936371E+02  0.85210969324E+03  0.68306262587E+03  0.10962088969E+04  0.25500000920E-02 0.  1.
</event>
<event>
 5   0  0.7971763E-06  0.3142780E+04  0.7818609E-02  0.8204095E-01
       -2   -1    0    0    0  501  0.00000000000E+00  0.00000000000E+00  0.15133810359E+04  0.15133810359E+04  0.25500000920E-02 0.  1.
        2   -1    0    0  501    0  0.00000000000E+00  0.00000000000E+00 -0.16316219964E+04  0.16316219964E+04  0.25500000920E-02 0. -1.
    10030    2    1    2    0    0  0.00000000000E+00  0.00000000000E+00 -0.11824096057E+03  0.31450030323E+04  0.31427795259E+04 0.  0.
        1    1    3    3  502    0 -0.10496056878E+04 -0.11581566975E+04 -0.22130534904E+03  0.15785990920E+04  0.50400001928E-02 0.  1.
       -1    1    3    3    0  502  0.10496056878E+04  0.11581566975E+04  0.10306438847E+03  0.15664039403E+04  0.50400001928E-02 0. -1.
</event>
<event>
 5   0  0.7971763E-06  0.3255506E+04  0.7818609E-02  0.8174310E-01
       -2   -1    0    0    0  501  0.00000000000E+00  0.00000000000E+00  0.17910013292E+04  0.17910013292E+04  0.25500000920E-02 0. -1.
        2   -1    0    0  501    0  0.00000000000E+00  0.00000000000E+00 -0.14793846059E+04  0.14793846059E+04  0.25500000920E-02 0.  1.
    10030    2    1    2    0    0  0.00000000000E+00  0.00000000000E+00  0.31161672330E+03  0.32703859351E+04  0.32555059794E+04 0.  0.
        1    1    3    3  502    0  0.29162003270E+02 -0.15335545113E+04  0.70322099097E+03  0.16873528451E+04  0.50400001928E-02 0. -1.
       -1    1    3    3    0  502 -0.29162003270E+02  0.15335545113E+04 -0.39160426767E+03  0.15830330900E+04  0.50400001928E-02 0.  1.
</event>
<event>
 5   0  0.3938696E-06  0.2032686E+04  0.7818609E-02  0.8591490E-01
       -1   -1    0    0    0  501  0.00000000000E+00  0.00000000000E+00  0.88970957737E+03  0.88970957738E+03  0.50400001928E-02 0.  1.
        1   -1    0    0  501    0  0.00000000000E+00  0.00000000000E+00 -0.11609999724E+04  0.11609999724E+04  0.50400001928E-02 0. -1.
    10030    2    1    2    0    0  0.00000000000E+00  0.00000000000E+00 -0.27129039501E+03  0.20507095498E+04  0.20326857059E+04 0.  0.
        4    1    3    3  502    0  0.74081311438E+03 -0.43871548847E+03  0.40921382016E+03  0.95327483643E+03  0.12699999809E+01 0.  1.
       -4    1    3    3    0  502 -0.74081311438E+03  0.43871548847E+03 -0.68050421517E+03  0.10974347133E+04  0.12699999809E+01 0. -1.
</event>
<event>
 5   0  0.8237664E-06  0.3242912E+04  0.7818609E-02  0.8177575E-01
       -2   -1    0    0    0  501  0.00000000000E+00  0.00000000000E+00  0.89668746918E+03  0.89668746918E+03  0.25500000920E-02 0.  1.
        2   -1    0    0  501    0  0.00000000000E+00  0.00000000000E+00 -0.29320357253E+04  0.29320357253E+04  0.25500000920E-02 0. -1.
    10030    2    1    2    0    0  0.00000000000E+00  0.00000000000E+00 -0.20353482562E+04  0.38287231945E+04  0.32429120828E+04 0.  0.
        5    1    3    3  502    0  0.32637868785E+03 -0.14558857193E+04 -0.26820134173E+03  0.15159420586E+04  0.46999998093E+01 0.  1.
       -5    1    3    3    0  502 -0.32637868785E+03  0.14558857193E+04 -0.17671469144E+04  0.23127811359E+04  0.46999998093E+01 0. -1.
</event>
<event>
 5   0  0.4142886E-06  0.3177519E+04  0.7818609E-02  0.8194780E-01
        1   -1    0    0  501    0  0.00000000000E+00  0.00000000000E+00  0.29396336592E+04  0.29396336592E+04  0.50400001928E-02 0.  1.
       -1   -1    0    0    0  501  0.00000000000E+00  0.00000000000E+00 -0.85866356435E+03  0.85866356436E+03  0.50400001928E-02 0. -1.
    10030    2    1    2    0    0  0.00000000000E+00  0.00000000000E+00  0.20809700948E+04  0.37982972235E+04  0.31775187274E+04 0.  0.
        5    1    3    3  502    0 -0.15344750022E+04 -0.40004433574E+03  0.11569042439E+04  0.19629311048E+04  0.46999998093E+01 0. -1.
       -5    1    3    3    0  502  0.15344750022E+04  0.40004433574E+03  0.92406585090E+03  0.18353661187E+04  0.46999998093E+01 0.  1.
</event>
<event>
 5   0  0.2933646E-06  0.3184682E+04  0.7818609E-02  0.8192874E-01
        1   -1    0    0  501    0  0.00000000000E+00  0.00000000000E+00  0.23516161997E+04  0.23516161997E+04  0.50400001928E-02 0. -1.
       -1   -1    0    0    0  501  0.00000000000E+00  0.00000000000E+00 -0.10782155122E+04  0.10782155122E+04  0.50400001928E-02 0.  1.
    10030    2    1    2    0    0  0.00000000000E+00  0.00000000000E+00  0.12734006875E+04  0.34298317120E+04  0.31846815008E+04 0.  0.
        2    1    3    3  502    0  0.40852735613E+02 -0.15607191875E+04  0.97390923362E+03  0.18401120954E+04  0.25500000920E-02 0. -1.
       -2    1    3    3    0  502 -0.40852735613E+02  0.15607191875E+04  0.29949145386E+03  0.15897196166E+04  0.25500000920E-02 0.  1.
</event>
<event>
 5   0  0.8237664E-06  0.3232634E+04  0.7818609E-02  0.8180251E-01
       -2   -1    0    0    0  501  0.00000000000E+00  0.00000000000E+00  0.19519503261E+04  0.19519503261E+04  0.25500000920E-02 0. -1.
        2   -1    0    0  501    0  0.00000000000E+00  0.00000000000E+00 -0.13383954465E+04  0.13383954465E+04  0.25500000920E-02 0.  1.
    10030    2    1    2    0    0  0.00000000000E+00  0.00000000000E+00  0.61355487959E+03  0.32903457726E+04  0.32326344849E+04 0.  0.
        5    1    3    3  502    0 -0.42667292359E+02  0.77336165121E+03  0.17507480080E+04  0.19144318789E+04  0.46999998093E+01 0. -1.
       -5    1    3    3    0  502  0.42667292359E+02 -0.77336165121E+03 -0.11371931284E+04  0.13759138937E+04  0.46999998093E+01 0.  1.
</event>
<event>
 5   0  0.7971763E-06  0.3167571E+04  0.7818609E-02  0.8197434E-01
       -2   -1    0    0    0  501  0.00000000000E+00  0.00000000000E+00  0.11967391346E+04  0.11967391346E+04  0.25500000920E-02 0.  1.
        2   -1    0    0  501    0  0.00000000000E+00  0.00000000000E+00 -0.20960100229E+04  0.20960100229E+04  0.25500000920E-02 0. -1.
    10030    2    1    2    0    0  0.00000000000E+00  0.00000000000E+00 -0.89927088830E+03  0.32927491574E+04  0.31675714488E+04 0.  0.
        1    1    3    3  502    0 -0.13928393659E+04 -0.64467756011E+03 -0.43335853915E+02  0.15354115579E+04  0.50400001928E-02 0. -1.
       -1    1    3    3    0  502  0.13928393659E+04  0.64467756011E+03 -0.85593503438E+03  0.17573375996E+04  0.50400001928E-02 0.  1.
</event>
<event>
 5   0  0.6006526E-06  0.1615271E+04  0.7818609E-02  0.8811221E-01
       -1   -1    0    0    0  501  0.00000000000E+00  0.00000000000E+00  0.65976360702E+03  0.65976360704E+03  0.50400001928E-02 0.  1.
        1   -1    0    0  501    0  0.00000000000E+00  0.00000000000E+00 -0.98864961768E+03  0.98864961770E+03  0.50400001928E-02 0. -1.
    10030    2    1    2    0    0  0.00000000000E+00  0.00000000000E+00 -0.32888601066E+03  0.16484132247E+04  0.16152709220E+04 0.  0.
        4    1    3    3  502    0 -0.32467406299E+01 -0.24937804885E+03  0.61948063327E+03  0.66780073410E+03  0.12699999809E+01 0.  1.
       -4    1    3    3    0  502  0.32467406299E+01  0.24937804885E+03 -0.94836664393E+03  0.98061249063E+03  0.12699999809E+01 0. -1.
</event>
<event>
 5   0  0.4142886E-06  0.3380094E+04  0.7818609E-02  0.8142809E-01
       -1   -1    0    0    0  501  0.00000000000E+00  0.00000000000E+00  0.26687873960E+04  0.26687873961E+04  0.50400001928E-02 0.  1.
        1   -1    0    0  501    0  0.00000000000E+00  0.00000000000E+00 -0.10702457619E+04  0.10702457619E+04  0.50400001928E-02 0. -1.
    10030    2    1    2    0    0  0.00000000000E+00  0.00000000000E+00  0.15985416341E+04  0.37390331580E+04  0.33800937266E+04 0.  0.
        5    1    3    3  502    0  0.10875091976E+04  0.60616371165E+03 -0.46495031656E+03  0.13290265562E+04  0.46999998093E+01 0. -1.
       -5    1    3    3    0  502 -0.10875091976E+04 -0.60616371165E+03  0.20634919507E+04  0.24100066018E+04  0.46999998093E+01 0.  1.
</event>
<event>
 5   0  0.2788054E-06  0.1827124E+04  0.7818609E-02  0.8692007E-01
       -1   -1    0    0    0  501  0.00000000000E+00  0.00000000000E+00  0.75954194944E+03  0.75954194946E+03  0.50400001928E-02 0.  1.
        1   -1    0    0  501    0  0.00000000000E+00  0.00000000000E+00 -0.10988145999E+04  0.10988145999E+04  0.50400001928E-02 0. -1.
    10030    2    1    2    0    0  0.00000000000E+00  0.00000000000E+00 -0.33927265042E+03  0.18583565493E+04  0.18271242796E+04 0.  0.
        3    1    3    3  502    0 -0.75801638738E+03 -0.25684478071E+03  0.27839048130E+03  0.84738382991E+03  0.10100000352E+00 0.  1.
       -3    1    3    3    0  502  0.75801638738E+03  0.25684478071E+03 -0.61766313172E+03  0.10109727194E+04  0.10100000352E+00 0. -1.
</event>
<event>
 5   0  0.3938696E-06  0.2989235E+04  0.7818609E-02  0.8246812E-01
       -1   -1    0    0    0  501  0.00000000000E+00  0.00000000000E+00  0.11578321843E+04  0.11578321843E+04  0.50400001928E-02 0. -1.
        1   -1    0    0  501    0  0.00000000000E+00  0.00000000000E+00 -0.19293653780E+04  0.19293653780E+04  0.50400001928E-02 0.  1.
    10030    2    1    2    0    0  0.00000000000E+00  0.00000000000E+00 -0.77153319369E+03  0.30871975624E+04  0.29892349055E+04 0.  0.
        4    1    3    3  502    0  0.60320148457E+03  0.11911021489E+04  0.30804037522E+03  0.13702068624E+04  0.12699999809E+01 0. -1.
       -4    1    3    3    0  502 -0.60320148457E+03 -0.11911021489E+04 -0.10795735689E+04  0.17169906999E+04  0.12699999809E+01 0.  1.
</event>
<event>
 5   0  0.4142886E-06  0.3083342E+04  0.7818609E-02  0.8220324E-01
        1   -1    0    0  501    0  0.00000000000E+00  0.00000000000E+00  0.10926285341E+04  0.10926285341E+04  0.50400001928E-02 0.  1.
       -1   -1    0    0    0  501  0.00000000000E+00  0.00000000000E+00 -0.21752591081E+04  0.21752591081E+04  0.50400001928E-02 0. -1.
    10030    2    1    2    0    0  0.00000000000E+00  0.00000000000E+00 -0.10826305740E+04  0.32678876422E+04  0.30833424530E+04 0.  0.
        5    1    3    3  502    0  0.78724104867E+03 -0.10078806443E+04  0.37111613290E+03  0.13316610440E+04  0.46999998093E+01 0.  1.
       -5    1    3    3    0  502 -0.78724104867E+03  0.10078806443E+04 -0.14537467069E+04  0.19362265982E+04  0.46999998093E+01 0. -1.
</event>
<event>
 5   0  0.7941434E-06  0.2216085E+04  0.7818609E-02  0.8511763E-01
       -2   -1    0    0    0  501  0.00000000000E+00  0.00000000000E+00  0.67062601424E+03  0.67062601424E+03  0.25500000920E-02 0.  1.
        2   -1    0    0  501    0  0.00000000000E+00  0.00000000000E+00 -0.18307648035E+04  0.18307648035E+04  0.25500000920E-02 0. -1.
    10030    2    1    2    0    0  0.00000000000E+00  0.00000000000E+00 -0.11601387892E+04  0.25013908177E+04  0.22160852900E+04 0.  0.
        4    1    3    3  502    0 -0.23559343024E+03 -0.84563214646E+03  0.18311357270E+03  0.89673306223E+03  0.12699999809E+01 0.  1.
       -4    1    3    3    0  502  0.23559343024E+03  0.84563214646E+03 -0.13432523619E+04  0.16046577555E+04  0.12699999809E+01 0. -1.
</event>
<event>
 5   0  0.4142886E-06  0.1729168E+04  0.7818609E-02  0.8744902E-01
        1   -1    0    0  501    0  0.00000000000E+00  0.00000000000E+00  0.12086836933E+04  0.12086836934E+04  0.50400001928E-02 0.  1.
       -1   -1    0    0    0  501  0.00000000000E+00  0.00000000000E+00 -0.61844570034E+03  0.61844570036E+03  0.50400001928E-02 0. -1.
    10030    2    1    2    0    0  0.00000000000E+00  0.00000000000E+00  0.59023799300E+03  0.18271293937E+04  0.17291676995E+04 0.  0.
        5    1    3    3  502    0  0.18936604247E+03  0.52926106311E+03  0.98922499354E+03  0.11377895011E+04  0.46999998093E+01 0.  1.
       -5    1    3    3    0  502 -0.18936604247E+03 -0.52926106311E+03 -0.39898700054E+03  0.68933989262E+03  0.46999998093E+01 0. -1.
</event>
<event>
 5   0  0.7510251E-06  0.2513418E+04  0.7818609E-02  0.8398221E-01
       -2   -1    0    0    0  501  0.00000000000E+00  0.00000000000E+00  0.15074666788E+04  0.15074666788E+04  0.25500000920E-02 0. -1.
        2   -1    0    0  501    0  0.00000000000E+00  0.00000000000E+00 -0.10476634740E+04  0.10476634740E+04  0.25500000920E-02 0.  1.
    10030    2    1    2    0    0  0.00000000000E+00  0.00000000000E+00  0.45980320478E+03  0.25551301528E+04  0.25134182124E+04 0.  0.
        3    1    3    3  502    0 -0.23284048282E+03  0.12076759090E+04 -0.32494284870E+02  0.12303461628E+04  0.10100000352E+00 0. -1.
       -3    1    3    3    0  502  0.23284048282E+03 -0.12076759090E+04  0.49229748965E+03  0.13247839900E+04  0.10100000352E+00 0.  1.
</event>
<event>
 5   0  0.7510251E-06  0.3136043E+04  0.7818609E-02  0.8205915E-01
        2   -1    0    0  501    0  0.00000000000E+00  0.00000000000E+00  0.14181140994E+04  0.14181140994E+04  0.25500000920E-02 0. -1.
       -2   -1    0    0    0  501  0.00000000000E+00  0.00000000000E+00 -0.17337755956E+04  0.17337755956E+04  0.25500000920E-02 0.  1.
    10030    2    1    2    0    0  0.00000000000E+00  0.00000000000E+00 -0.31566149621E+03  0.31518896950E+04  0.31360431230E+04 0.  0.
        3    1    3    3  502    0  0.12367220234E+04  0.88699277990E+03  0.22150728541E+03  0.15379541744E+04  0.10100000352E+00 0. -1.
       -3    1    3    3    0  502 -0.12367220234E+04 -0.88699277990E+03 -0.53716878163E+03  0.16139355207E+04  0.10100000352E+00 0.  1.
</event>
<event>
 5   0  0.2933646E-06  0.2683390E+04  0.7818609E-02  0.8340415E-01
        1   -1    0    0  501    0  0.00000000000E+00  0.00000000000E+00  0.12908575392E+04  0.12908575392E+04  0.50400001928E-02 0.  1.
       -1   -1    0    0    0  501  0.00000000000E+00  0.00000000000E+00 -0.13945342475E+04  0.13945342476E+04  0.50400001928E-02 0. -1.
    10030    2    1    2    0    0  0.00000000000E+00  0.00000000000E+00 -0.10367670835E+03  0.26853917868E+04  0.26833896826E+04 0.  0.
        2    1    3    3  502    0 -0.92335973130E+03 -0.56673453187E+03  0.74018364398E+03  0.13121177729E+04  0.25500000920E-02 0.  1.
       -2    1    3    3    0  502  0.92335973130E+03  0.56673453187E+03 -0.84386035234E+03  0.13732740139E+04  0.25500000920E-02 0. -1.
</event>
<event>
 5   0  0.8237664E-06  0.3202961E+04  0.7818609E-02  0.8188036E-01
        2   -1    0    0  501    0  0.00000000000E+00  0.00000000000E+00  0.16973443252E+04  0.16973443252E+04  0.25500000920E-02 0.  1.
       -2   -1    0    0    0  501  0.00000000000E+00  0.00000000000E+00 -0.15110304733E+04  0.15110304733E+04  0.25500000920E-02 0. -1.
    10030    2    1    2    0    0  0.00000000000E+00  0.00000000000E+00  0.18631385191E+03  0.32083747985E+04  0.32029605049E+04 0.  0.
        5    1    3    3  502    0  0.14989290715E+04  0.56336035711E+03  0.69587262762E+02  0.16028186830E+04  0.46999998093E+01 0. -1.
       -5    1    3    3    0  502 -0.14989290715E+04 -0.56336035711E+03  0.11672658915E+03  0.16055561155E+04  0.46999998093E+01 0.  1.
</event>
<event>
 5   0  0.2933646E-06  0.3441833E+04  0.7818609E-02  0.8127715E-01
       -1   -1    0    0    0  501  0.00000000000E+00  0.00000000000E+00  0.15569836713E+04  0.15569836714E+04  0.50400001928E-02 0. -1.
        1   -1    0    0  501    0  0.00000000000E+00  0.00000000000E+00 -0.19021091647E+04  0.19021091647E+04  0.50400001928E-02 0.  1.
    10030    2    1    2    0    0  0.00000000000E+00  0.00000000000E+00 -0.34512549335E+03  0.34590928361E+04  0.34418325994E+04 0.  0.
        2    1    3    3  502    0  0.38268618998E+03 -0.12230181494E+04  0.98181866319E+03  0.16143698465E+04  0.25500000920E-02 0. -1.
       -2    1    3    3    0  502 -0.38268618998E+03  0.12230181494E+04 -0.13269441565E+04  0.18447229896E+04  0.25500000920E-02 0.  1.
</event>
<event>
 5   0  0.8237664E-06  0.1718802E+04  0.7818609E-02  0.8750713E-01
        2   -1    0    0  501    0  0.00000000000E+00  0.00000000000E+00  0.11672006571E+04  0.11672006571E+04  0.25500000920E-02 0. -1.
       -2   -1    0    0    0  501  0.00000000000E+00  0.00000000000E+00 -0.63277076671E+03  0.63277076672E+03  0.25500000920E-02 0.  1.
    10030    2    1    2    0    0  0.00000000000E+00  0.00000000000E+00  0.53442989038E+03  0.17999714238E+04  0.17188024374E+04 0.  0.
        5    1    3    3  502    0 -0.24831789699E+03  0.52808059691E+03  0.92789427079E+03  0.10961481481E+04  0.46999998093E+01 0. -1.
       -5    1    3    3    0  502  0.24831789699E+03 -0.52808059691E+03 -0.39346438041E+03  0.70382327572E+03  0.46999998093E+01 0.  1.
</event>
<event>
 5   0  0.7971763E-06  0.3266024E+04  0.7818609E-02  0.8171595E-01
       -2   -1    0    0    0  501  0.00000000000E+00  0.00000000000E+00  0.98509807371E+03  0.98509807371E+03  0.25500000920E-02 0. -1.
        2   -1    0    0  501    0  0.00000000000E+00  0.00000000000E+00 -0.27070689125E+04  0.27070689125E+04  0.25500000920E-02 0.  1.
    10030    2    1    2    0    0  0.00000000000E+00  0.00000000000E+00 -0.17219708388E+04  0.36921669862E+04  0.32660241096E+04 0.  0.
        1    1    3    3  502    0  0.11305498488E+04  0.10839883713E+04 -0.13834013784E+04  0.20897303949E+04  0.50400001928E-02 0.  1.
       -1    1    3    3    0  502 -0.11305498488E+04 -0.10839883713E+04 -0.33856946036E+03  0.16024365913E+04  0.50400001928E-02 0. -1.
</event>
<event>
 5   0  0.2933646E-06  0.3065607E+04  0.7818609E-02  0.8225241E-01
       -1   -1    0    0    0  501  0.00000000000E+00  0.00000000000E+00  0.15068719402E+04  0.15068719402E+04  0.50400001928E-02 0.  1.
        1   -1    0    0  501    0  0.00000000000E+00  0.00000000000E+00 -0.15591814507E+04  0.15591814507E+04  0.50400001928E-02 0. -1.
    10030    2    1    2    0    0  0.00000000000E+00  0.00000000000E+00 -0.52309510518E+02  0.30660533909E+04  0.30656071358E+04 0.  0.
        2    1    3    3  502    0  0.74482389730E+03 -0.12167677881E+04  0.53446255757E+03  0.15234620814E+04  0.25500000920E-02 0.  1.
       -2    1    3    3    0  502 -0.74482389730E+03  0.12167677881E+04 -0.58677206809E+03  0.15425913095E+04  0.25500000920E-02 0. -1.
</event>
<event>
 5   0  0.7971763E-06  0.3168821E+04  0.7818609E-02  0.8197100E-01
       -2   -1    0    0    0  501  0.00000000000E+00  0.00000000000E+00  0.16776721164E+04  0.16776721164E+04  0.25500000920E-02 0. -1.
        2   -1    0    0  501    0  0.00000000000E+00  0.00000000000E+00 -0.14963335201E+04  0.14963335201E+04  0.25500000920E-02 0.  1.
    10030    2    1    2    0    0  0.00000000000E+00  0.00000000000E+00  0.18133859623E+03  0.31740056365E+04  0.31688212468E+04 0.  0.
        1    1    3    3  502    0  0.10808581779E+04 -0.50570866682E+03  0.11346611492E+04  0.16466485903E+04  0.50400001928E-02 0. -1.
       -1    1    3    3    0  502 -0.10808581779E+04  0.50570866682E+03 -0.95332255298E+03  0.15273570462E+04  0.50400001928E-02 0.  1.
</event>
<event>
 5   0  0.2635798E-06  0.3144936E+04  0.7818609E-02  0.8203513E-01
        1   -1    0    0  501    0  0.00000000000E+00  0.00000000000E+00  0.22293824966E+04  0.22293824966E+04  0.50400001928E-02 0.  1.
       -1   -1    0    0    0  501  0.00000000000E+00  0.00000000000E+00 -0.11091209688E+04  0.11091209688E+04  0.50400001928E-02 0. -1.
    10030    2    1    2    0    0  0.00000000000E+00  0.00000000000E+00  0.11202615278E+04  0.33385034654E+04  0.31449355316E+04 0.  0.
        1    1    3    3  502    0 -0.52611691123E+03 -0.97186887421E+03 -0.62734690296E+03  0.12707841082E+04  0.50400001928E-02 0. -1.
       -1    1    3    3    0  502  0.52611691123E+03  0.97186887421E+03  0.17476084308E+04  0.20677193572E+04  0.50400001928E-02 0.  1.
</event>
<event>
 5   0  0.7510251E-06  0.3183373E+04  0.7818609E-02  0.8193222E-01
       -2   -1    0    0    0  501  0.00000000000E+00  0.00000000000E+00  0.96950422467E+03  0.96950422467E+03  0.25500000920E-02 0. -1.
        2   -1    0    0  501    0  0.00000000000E+00  0.00000000000E+00 -0.26131554409E+04  0.26131554409E+04  0.25500000920E-02 0.  1.
    10030    2    1    2    0    0  0.00000000000E+00  0.00000000000E+00 -0.16436512162E+04  0.35826596656E+04  0.31833725762E+04 0.  0.
        3    1    3    3  502    0  0.35268306457E+03 -0.82475122377E+03  0.65795953626E+03  0.11124345764E+04  0.10100000352E+00 0. -1.
       -3    1    3    3    0  502 -0.35268306457E+03  0.82475122377E+03 -0.23016107525E+04  0.24702250892E+04  0.10100000352E+00 0.  1.
</event>
<event>
 5   0  0.2635798E-06  0.1625914E+04  0.7818609E-02  0.8804784E-01
        1   -1    0    0  501    0  0.00000000000E+00  0.00000000000E+00  0.11615653132E+04  0.11615653132E+04  0.50400001928E-02 0.  1.
       -1   -1    0    0    0  501  0.00000000000E+00  0.00000000000E+00 -0.56897277377E+03  0.56897277379E+03  0.50400001928E-02 0. -1.
    10030    2    1    2    0    0  0.00000000000E+00  0.00000000000E+00  0.59259253940E+03  0.17305380870E+04  0.16259139438E+04 0.  0.
        1    1    3    3  502    0  0.50874865811E+03  0.63169898080E+03  0.23770646836E+03  0.84520598945E+03  0.50400001928E-02 0. -1.
       -1    1    3    3    0  502 -0.50874865811E+03 -0.63169898080E+03  0.35488607104E+03  0.88533209753E+03  0.50400001928E-02 0.  1.
</event>
<event>
 5   0  0.7510251E-06  0.3141600E+04  0.7818609E-02  0.8204413E-01
        2   -1    0    0  501    0  0.00000000000E+00  0.00000000000E+00  0.24597545418E+04  0.24597545418E+04  0.25500000920E-02 0. -1.
       -2   -1    0    0    0  501  0.00000000000E+00  0.00000000000E+00 -0.10031130678E+04  0.10031130678E+04  0.25500000920E-02 0.  1.
    10030    2    1    2    0    0  0.00000000000E+00  0.00000000000E+00  0.14566414741E+04  0.34628676096E+04  0.31415995444E+04 0.  0.
        3    1    3    3  502    0 -0.19603698005E+03 -0.15459695330E+04  0.51075404024E+03  0.16399152399E+04  0.10100000352E+00 0.  1.
       -3    1    3    3    0  502  0.19603698005E+03  0.15459695330E+04  0.94588743382E+03  0.18229523697E+04  0.10100000352E+00 0. -1.
</event>
<event>
 5   0  0.7941434E-06  0.3188660E+04  0.7818609E-02  0.8191818E-01
       -2   -1    0    0    0  501  0.00000000000E+00  0.00000000000E+00  0.11589297790E+04  0.11589297790E+04  0.25500000920E-02 0. -1.
        2   -1    0    0  501    0  0.00000000000E+00  0.00000000000E+00 -0.21933069068E+04  0.21933069068E+04  0.25500000920E-02 0.  1.
    10030    2    1    2    0    0  0.00000000000E+00  0.00000000000E+00 -0.10343771278E+04  0.33522366858E+04  0.31886603386E+04 0.  0.
        4    1    3    3  502    0 -0.59854195674E+03 -0.11436206885E+04  0.46664250871E+03  0.13725442058E+04  0.12699999809E+01 0. -1.
       -4    1    3    3    0  502  0.59854195674E+03  0.11436206885E+04 -0.15010196365E+04  0.19796924800E+04  0.12699999809E+01 0.  1.
</event>
<event>
 5   0  0.7952307E-06  0.3388512E+04  0.7818609E-02  0.8140732E-01
       -2   -1    0    0    0  501  0.00000000000E+00  0.00000000000E+00  0.22025575968E+04  0.22025575968E+04  0.25500000920E-02 0. -1.
        2   -1    0    0  501    0  0.00000000000E+00  0.00000000000E+00 -0.13032589149E+04  0.13032589150E+04  0.25500000920E-02 0.  1.
    10030    2    1    2    0    0  0.00000000000E+00  0.00000000000E+00  0.89929868189E+03  0.35058165118E+04  0.33885116637E+04 0.  0.
        2    1    3    3  502    0 -0.10604036511E+04  0.69152154038E+03  0.16146153606E+04  0.20517408966E+04  0.25500000920E-02 0. -1.
       -2    1    3    3    0  502  0.10604036511E+04 -0.69152154038E+03 -0.71531667868E+03  0.14540756152E+04  0.25500000920E-02 0.  1.
</event>
<event>
 5   0  0.7952307E-06  0.2200087E+04  0.7818609E-02  0.8518392E-01
        2   -1    0    0  501    0  0.00000000000E+00  0.00000000000E+00  0.11586995654E+04  0.11586995654E+04  0.25500000920E-02 0.  1.
       -2   -1    0    0    0  501  0.00000000000E+00  0.00000000000E+00 -0.10443569299E+04  0.10443569299E+04  0.25500000920E-02 0. -1.
    10030    2    1    2    0    0  0.00000000000E+00  0.00000000000E+00  0.11434263552E+03  0.22030564954E+04  0.22000871991E+04 0.  0.
        2    1    3    3  502    0  0.79326841706E+03 -0.56469633064E+03 -0.45531937567E+03  0.10749290494E+04  0.25500000920E-02 0.  1.
       -2    1    3    3    0  502 -0.79326841706E+03  0.56469633064E+03  0.56966201119E+03  0.11281274460E+04  0.25500000920E-02 0. -1.
</event>
<event>
 5   0  0.3938696E-06  0.3260721E+04  0.7818609E-02  0.8172963E-01
       -1   -1    0    0    0  501  0.00000000000E+00  0.00000000000E+00  0.12717123201E+04  0.12717123201E+04  0.50400001928E-02 0.  1.
        1   -1    0    0  501    0  0.00000000000E+00  0.00000000000E+00 -0.20901540441E+04  0.20901540441E+04  0.50400001928E-02 0. -1.
    10030    2    1    2    0    0  0.00000000000E+00  0.00000000000E+00 -0.81844172400E+03  0.33618663643E+04  0.32607205639E+04 0.  0.
        4    1    3    3  502    0  0.29883320335E+02 -0.13446031147E+04 -0.13593389945E+04  0.19122381295E+04  0.12699999809E+01 0. -1.
       -4    1    3    3    0  502 -0.29883320335E+02  0.13446031147E+04  0.54089727052E+03  0.14496282348E+04  0.12699999809E+01 0.  1.
</event>
<event>
 5   0  0.7952307E-06  0.3109367E+04  0.7818609E-02  0.8213172E-01
       -2   -1    0    0    0  501  0.00000000000E+00  0.00000000000E+00  0.91718372893E+03  0.91718372893E+03  0.25500000920E-02 0. -1.
        2   -1    0    0  501    0  0.00000000000E+00  0.00000000000E+00 -0.26352855314E+04  0.26352855314E+04  0.25500000920E-02 0.  1.
    10030    2    1    2    0    0  0.00000000000E+00  0.00000000000E+00 -0.17181018024E+04  0.35524692603E+04  0.31093671449E+04 0.  0.
        2    1    3    3  502    0 -0.74498679816E+02  0.14835853638E+04 -0.13831925906E+04  0.20297283877E+04  0.25500000920E-02 0.  1.
       -2    1    3    3    0  502  0.74498679816E+02 -0.14835853638E+04 -0.33490921178E+03  0.15227408726E+04  0.25500000920E-02 0. -1.
</event>
<event>
 5   0  0.8237664E-06  0.3220698E+04  0.7818609E-02  0.8183372E-01
        2   -1    0    0  501    0  0.00000000000E+00  0.00000000000E+00  0.11445762673E+04  0.11445762673E+04  0.25500000920E-02 0.  1.
       -2   -1    0    0    0  501  0.00000000000E+00  0.00000000000E+00 -0.22656628508E+04  0.22656628508E+04  0.25500000920E-02 0. -1.
    10030    2    1    2    0    0  0.00000000000E+00  0.00000000000E+00 -0.11210865835E+04  0.34102391181E+04  0.32206980168E+04 0.  0.
        5    1    3    3  502    0  0.83081513941E+03  0.13717316127E+04 -0.40600754052E+03  0.16543172689E+04  0.46999998093E+01 0.  1.
       -5    1    3    3    0  502 -0.83081513941E+03 -0.13717316127E+04 -0.71507904294E+03  0.17559218493E+04  0.46999998093E+01 0. -1.
</event>
<event>
 5   0  0.8237664E-06  0.2877539E+04  0.7818609E-02  0.8279592E-01
        2   -1    0    0  501    0  0.00000000000E+00  0.00000000000E+00  0.11922488064E+04  0.11922488064E+04  0.25500000920E-02 0.  1.
       -2   -1    0    0    0  501  0.00000000000E+00  0.00000000000E+00 -0.17362634040E+04  0.17362634040E+04  0.25500000920E-02 0. -1.
    10030    2    1    2    0    0  0.00000000000E+00  0.00000000000E+00 -0.54401459761E+03  0.29285122104E+04  0.28775392063E+04 0.  0.
        5    1    3    3  502    0 -0.99641461124E+03 -0.89477584791E+03 -0.80722234377E+03  0.15636802415E+04  0.46999998093E+01 0. -1.
       -5    1    3    3    0  502  0.99641461124E+03  0.89477584791E+03  0.26320774616E+03  0.13648319688E+04  0.46999998093E+01 0.  1.
</event>
<event>
 5   0  0.7510251E-06  0.3219989E+04  0.7818609E-02  0.8183558E-01
        2   -1    0    0  501    0  0.00000000000E+00  0.00000000000E+00  0.22393253712E+04  0.22393253712E+04  0.25500000920E-02 0.  1.
       -2   -1    0    0    0  501  0.00000000000E+00  0.00000000000E+00 -0.11575284767E+04  0.11575284767E+04  0.25500000920E-02 0. -1.
    10030    2    1    2    0    0  0.00000000000E+00  0.00000000000E+00  0.10817968945E+04  0.33968538479E+04  0.32199893701E+04 0.  0.
        3    1    3    3  502    0  0.15698578880E+03  0.14739076753E+02  0.22311605722E+04  0.22367251256E+04  0.10100000352E+00 0.  1.
       -3    1    3    3    0  502 -0.15698578880E+03 -0.14739076753E+02 -0.11493636778E+04  0.11601287223E+04  0.10100000352E+00 0. -1.
</event>
<event>
 5   0  0.4142886E-06  0.3203468E+04  0.7818609E-02  0.8187902E-01
        1   -1    0    0  501    0  0.00000000000E+00  0.00000000000E+00  0.14232841687E+04  0.14232841687E+04  0.50400001928E-02 0. -1.
       -1   -1    0    0    0  501  0.00000000000E+00  0.00000000000E+00 -0.18025579859E+04  0.18025579859E+04  0.50400001928E-02 0.  1.
    10030    2    1    2    0    0  0.00000000000E+00  0.00000000000E+00 -0.37927381715E+03  0.32258421546E+04  0.32034682733E+04 0.  0.
        5    1    3    3  502    0 -0.15854586990E+04 -0.21318144947E+03 -0.10904961219E+03  0.16034461402E+04  0.46999998093E+01 0. -1.
       -5    1    3    3    0  502  0.15854586990E+04  0.21318144947E+03 -0.27022420496E+03  0.16223960144E+04  0.46999998093E+01 0.  1.
</event>
<event>
 5   0  0.2635798E-06  0.3127351E+04  0.7818609E-02  0.8208272E-01
       -1   -1    0    0    0  501  0.00000000000E+00  0.00000000000E+00  0.18712073291E+04  0.18712073291E+04  0.50400001928E-02 0.  1.
        1   -1    0    0  501    0  0.00000000000E+00  0.00000000000E+00 -0.13066863108E+04  0.13066863109E+04  0.50400001928E-02 0. -1.
    10030    2    1    2    0    0  0.00000000000E+00  0.00000000000E+00  0.56452101825E+03  0.31778936399E+04  0.31273509568E+04 0.  0.
        1    1    3    3  502    0 -0.44121124566E+03  0.12036057870E+04  0.11921346871E+04  0.17505768667E+04  0.50400001928E-02 0.  1.
       -1    1    3    3    0  502  0.44121124566E+03 -0.12036057870E+04 -0.62761366886E+03  0.14273167733E+04  0.50400001928E-02 0. -1.
</event>
<event>
 5   0  0.7510251E-06  0.3191985E+04  0.7818609E-02  0.8190937E-01
        2   -1    0    0  501    0  0.00000000000E+00  0.00000000000E+00  0.10228111004E+04  0.10228111004E+04  0.25500000920E-02 0. -1.
       -2   -1    0    0    0  501  0.00000000000E+00  0.00000000000E+00 -0.24903828925E+04  0.24903828925E+04  0.25500000920E-02 0.  1.
    10030    2    1    2    0    0  0.00000000000E+00  0.00000000000E+00 -0.14675717921E+04  0.35131939929E+04  0.31919845030E+04 0.  0.
        3    1    3    3  502    0  0.97316986655E+03 -0.98470114243E+03  0.14015546465E+03  0.13915241620E+04  0.10100000352E+00 0. -1.
       -3    1    3    3    0  502 -0.97316986655E+03  0.98470114243E+03 -0.16077272567E+04  0.21216698309E+04  0.10100000352E+00 0.  1.
</event>
<event>
 5   0  0.2933646E-06  0.2912576E+04  0.7818609E-02  0.8269146E-01
        1   -1    0    0  501    0  0.00000000000E+00  0.00000000000E+00  0.20710819632E+04  0.20710819632E+04  0.50400001928E-02 0. -1.
       -1   -1    0    0    0  501  0.00000000000E+00  0.00000000000E+00 -0.10239936441E+04  0.10239936441E+04  0.50400001928E-02 0.  1.
    10030    2    1    2    0    0  0.00000000000E+00  0.00000000000E+00  0.10470883191E+04  0.30950756073E+04  0.29125760191E+04 0.  0.
        2    1    3    3  502    0 -0.12636343233E+04  0.72058422003E+03  0.59687107297E+03  0.15723448728E+04  0.25500000920E-02 0.  1.
       -2    1    3    3    0  502  0.12636343233E+04 -0.72058422003E+03  0.45021724615E+03  0.15227307345E+04  0.25500000920E-02 0. -1.
</event>
<event>
 5   0  0.7941434E-06  0.3194784E+04  0.7818609E-02  0.8190196E-01
        2   -1    0    0  501    0  0.00000000000E+00  0.00000000000E+00  0.22280802803E+04  0.22280802803E+04  0.25500000920E-02 0.  1.
       -2   -1    0    0    0  501  0.00000000000E+00  0.00000000000E+00 -0.11452284871E+04  0.11452284871E+04  0.25500000920E-02 0. -1.
    10030    2    1    2    0    0  0.00000000000E+00  0.00000000000E+00  0.10828517932E+04  0.33733087673E+04  0.31947838790E+04 0.  0.
        4    1    3    3  502    0 -0.99076815074E+03  0.11013195549E+04 -0.89574548492E+02  0.14840995597E+04  0.12699999809E+01 0. -1.
       -4    1    3    3    0  502  0.99076815074E+03 -0.11013195549E+04  0.11724263417E+04  0.18892092076E+04  0.12699999809E+01 0.  1.
</event>
<event>
 5   0  0.2635798E-06  0.3072008E+04  0.7818609E-02  0.8223462E-01
        1   -1    0    0  501    0  0.00000000000E+00  0.00000000000E+00  0.20416533425E+04  0.20416533425E+04  0.50400001928E-02 0. -1.
       -1   -1    0    0    0  501  0.00000000000E+00  0.00000000000E+00 -0.11555867459E+04  0.11555867459E+04  0.50400001928E-02 0.  1.
    10030    2    1    2    0    0  0.00000000000E+00  0.00000000000E+00  0.88606659658E+03  0.31972400884E+04  0.30720075145E+04 0.  0.
        1    1    3    3  502    0  0.91692673771E+03  0.12123587141E+04  0.67280280373E+03  0.16622971776E+04  0.50400001928E-02 0. -1.
       -1    1    3    3    0  502 -0.91692673771E+03 -0.12123587141E+04  0.21326379284E+03  0.15349429108E+04  0.50400001928E-02 0.  1.
</event>
<event>
 5   0  0.7941434E-06  0.3422133E+04  0.7818609E-02  0.8132495E-01
       -2   -1    0    0    0  501  0.00000000000E+00  0.00000000000E+00  0.14336637772E+04  0.14336637772E+04  0.25500000920E-02 0.  1.
        2   -1    0    0  501    0  0.00000000000E+00  0.00000000000E+00 -0.20421447486E+04  0.20421447486E+04  0.25500000920E-02 0. -1.
    10030    2    1    2    0    0  0.00000000000E+00  0.00000000000E+00 -0.60848097144E+03  0.34758085257E+04  0.34221332258E+04 0.  0.
        4    1    3    3  502    0  0.16043477255E+04  0.52087438126E+02 -0.90607343850E+03  0.18432621665E+04  0.12699999809E+01 0.  1.
       -4    1    3    3    0  502 -0.16043477255E+04 -0.52087438126E+02  0.29759246707E+03  0.16325463592E+04  0.12699999809E+01 0. -1.
</event>
<event>
 5   0  0.7971763E-06  0.3004977E+04  0.7818609E-02  0.8242311E-01
        2   -1    0    0  501    0  0.00000000000E+00  0.00000000000E+00  0.14942418959E+04  0.14942418959E+04  0.25500000920E-02 0.  1.
       -2   -1    0    0    0  501  0.00000000000E+00  0.00000000000E+00 -0.15107806090E+04  0.15107806090E+04  0.25500000920E-02 0. -1.
    10030    2    1    2    0    0  0.00000000000E+00  0.00000000000E+00 -0.16538713071E+02  0.30050225050E+04  0.30049769926E+04 0.  0.
        1    1    3    3  502    0 -0.12252555230E+04 -0.82192775227E+03  0.27573380935E+03  0.15009481870E+04  0.50400001928E-02 0. -1.
       -1    1    3    3    0  502  0.12252555230E+04  0.82192775227E+03 -0.29227252242E+03  0.15040743179E+04  0.50400001928E-02 0.  1.
</event>
<event>
 5   0  0.7952307E-06  0.3269692E+04  0.7818609E-02  0.8170650E-01
       -2   -1    0    0    0  501  0.00000000000E+00  0.00000000000E+00  0.13481211661E+04  0.13481211661E+04  0.25500000920E-02 0. -1.
        2   -1    0    0  501    0  0.00000000000E+00  0.00000000000E+00 -0.19825531876E+04  0.19825531876E+04  0.25500000920E-02 0.  1.
    10030    2    1    2    0    0  0.00000000000E+00  0.00000000000E+00 -0.63443202149E+03  0.33306743537E+04  0.32696922884E+04 0.  0.
        2    1    3    3  502    0  0.29419485439E+03  0.76948379836E+03 -0.17556669456E+04  0.19393355440E+04  0.25500000920E-02 0.  1.
       -2    1    3    3    0  502 -0.29419485439E+03 -0.76948379836E+03  0.11212349241E+04  0.13913388097E+04  0.25500000920E-02 0. -1.
</event>
<event>
 5   0  0.2788054E-06  0.3201922E+04  0.7818609E-02  0.8188310E-01
        1   -1    0    0  501    0  0.00000000000E+00  0.00000000000E+00  0.75375868639E+03  0.75375868641E+03  0.50400001928E-02 0. -1.
       -1   -1    0    0    0  501  0.00000000000E+00  0.00000000000E+00 -0.34003936026E+04  0.34003936026E+04  0.50400001928E-02 0.  1.
    10030    2    1    2    0    0  0.00000000000E+00  0.00000000000E+00 -0.26466349162E+04  0.41541522890E+04  0.32019220572E+04 0.  0.
        3    1    3    3  502    0 -0.14218380472E+04  0.11089588201E+03 -0.37955421523E+03  0.14757990180E+04  0.10100000352E+00 0. -1.
       -3    1    3    3    0  502  0.14218380472E+04 -0.11089588201E+03 -0.22670807009E+04  0.26783532709E+04  0.10100000352E+00 0.  1.
</event>
<event>
 5   0  0.2635798E-06  0.2008146E+04  0.7818609E-02  0.8602822E-01
        1   -1    0    0  501    0  0.00000000000E+00  0.00000000000E+00  0.19686025828E+04  0.19686025828E+04  0.50400001928E-02 0. -1.
       -1   -1    0    0    0  501  0.00000000000E+00  0.00000000000E+00 -0.51212069127E+03  0.51212069129E+03  0.50400001928E-02 0.  1.
    10030    2    1    2    0    0  0.00000000000E+00  0.00000000000E+00  0.14564818915E+04  0.24807232741E+04  0.20081455282E+04 0.  0.
        1    1    3    3  502    0  0.53572465103E+03 -0.84520268793E+02 -0.31560781112E+03  0.62749730519E+03  0.50400001928E-02 0.  1.
       -1    1    3    3    0  502 -0.53572465103E+03  0.84520268793E+02  0.17720897026E+04  0.18532259689E+04  0.50400001928E-02 0. -1.
</event>
<event>
 5   0  0.2933646E-06  0.2563274E+04  0.7818609E-02  0.8380784E-01
        1   -1    0    0  501    0  0.00000000000E+00  0.00000000000E+00  0.12926224148E+04  0.12926224148E+04  0.50400001928E-02 0. -1.
       -1   -1    0    0    0  501  0.00000000000E+00  0.00000000000E+00 -0.12707452394E+04  0.12707452394E+04  0.50400001928E-02 0.  1.
    10030    2    1    2    0    0  0.00000000000E+00  0.00000000000E+00  0.21877175382E+02  0.25633676542E+04  0.25632742966E+04 0.  0.
        2    1    3    3  502    0 -0.92948560182E+03  0.70937428211E+03  0.53577998067E+03  0.12861631093E+04  0.25500000920E-02 0. -1.
       -2    1    3    3    0  502  0.92948560182E+03 -0.70937428211E+03 -0.51390280529E+03  0.12772045449E+04  0.25500000920E-02 0.  1.
</event>
<event>
 5   0  0.7952307E-06  0.2961470E+04  0.7818609E-02  0.8254820E-01
        2   -1    0    0  501    0  0.00000000000E+00  0.00000000000E+00  0.25119939694E+04  0.25119939694E+04  0.25500000920E-02 0. -1.
       -2   -1    0    0    0  501  0.00000000000E+00  0.00000000000E+00 -0.87284291078E+03  0.87284291079E+03  0.25500000920E-02 0.  1.
    10030    2    1    2    0    0  0.00000000000E+00  0.00000000000E+00  0.16391510586E+04  0.33848368802E+04  0.29614699918E+04 0.  0.
        2    1    3    3  502    0 -0.24766603713E+03  0.50650264195E+03  0.23845074755E+04  0.24502569850E+04  0.25500000920E-02 0. -1.
       -2    1    3    3    0  502  0.24766603713E+03 -0.50650264195E+03 -0.74535641685E+03  0.93457989514E+03  0.25500000920E-02 0.  1.
</event>
<event>
 5   0  0.8237664E-06  0.3114791E+04  0.7818609E-02  0.8211690E-01
       -2   -1    0    0    0  501  0.00000000000E+00  0.00000000000E+00  0.29182617525E+04  0.29182617525E+04  0.25500000920E-02 0. -1.
        2   -1    0    0  501    0  0.00000000000E+00  0.00000000000E+00 -0.83113901812E+03  0.83113901812E+03  0.25500000920E-02 0.  1.
    10030    2    1    2    0    0  0.00000000000E+00  0.00000000000E+00  0.20871227344E+04  0.37494007706E+04  0.31147912981E+04 0.  0.
        5    1    3    3  502    0  0.13189204696E+04  0.58071160295E+03  0.33276100155E+03  0.14790297986E+04  0.46999998093E+01 0.  1.
       -5    1    3    3    0  502 -0.13189204696E+04 -0.58071160295E+03  0.17543617328E+04  0.22703709720E+04  0.46999998093E+01 0. -1.
</event>
<event>
 5   0  0.2635798E-06  0.3201850E+04  0.7818609E-02  0.8188329E-01
       -1   -1    0    0    0  501  0.00000000000E+00  0.00000000000E+00  0.22158494290E+04  0.22158494290E+04  0.50400001928E-02 0.  1.
        1   -1    0    0  501    0  0.00000000000E+00  0.00000000000E+00 -0.11566492512E+04  0.11566492512E+04  0.50400001928E-02 0. -1.
    10030    2    1    2    0    0  0.00000000000E+00  0.00000000000E+00  0.10592001778E+04  0.33724986802E+04  0.32018498296E+04 0.  0.
        1    1    3    3  502    0 -0.60730426342E+03 -0.14414698620E+04  0.88881411995E+03  0.17990676394E+04  0.50400001928E-02 0. -1.
       -1    1    3    3    0  502  0.60730426342E+03  0.14414698620E+04  0.17038605786E+03  0.15734310408E+04  0.50400001928E-02 0.  1.
</event>
<event>
 5   0  0.7971763E-06  0.2049344E+04  0.7818609E-02  0.8583892E-01
       -2   -1    0    0    0  501  0.00000000000E+00  0.00000000000E+00  0.43984051147E+03  0.43984051148E+03  0.25500000920E-02 0. -1.
        2   -1    0    0  501    0  0.00000000000E+00  0.00000000000E+00 -0.23871213341E+04  0.23871213341E+04  0.25500000920E-02 0.  1.
    10030    2    1    2    0    0  0.00000000000E+00  0.00000000000E+00 -0.19472808226E+04  0.28269618456E+04  0.20493439619E+04 0.  0.
        1    1    3    3  502    0 -0.96236375459E+03  0.28300279913E+03 -0.68521357208E+03  0.12148054247E+04  0.50400001928E-02 0.  1.
       -1    1    3    3    0  502  0.96236375459E+03 -0.28300279913E+03 -0.12620672506E+04  0.16121564209E+04  0.50400001928E-02 0. -1.
</event>
<event>
 5   0  0.2635798E-06  0.1832458E+04  0.7818609E-02  0.8689227E-01
        1   -1    0    0  501    0  0.00000000000E+00  0.00000000000E+00  0.13798201942E+04  0.13798201942E+04  0.50400001928E-02 0.  1.
       -1   -1    0    0    0  501  0.00000000000E+00  0.00000000000E+00 -0.60839469553E+03  0.60839469555E+03  0.50400001928E-02 0. -1.
    10030    2    1    2    0    0  0.00000000000E+00  0.00000000000E+00  0.77142549866E+03  0.19882148897E+04  0.18324576797E+04 0.  0.
        1    1    3    3  502    0 -0.63450803161E+03  0.91616271818E+02 -0.32451118973E+03  0.71854122757E+03  0.50400001928E-02 0. -1.
       -1    1    3    3    0  502  0.63450803161E+03 -0.91616271818E+02  0.10959366884E+04  0.12696736622E+04  0.50400001928E-02 0.  1.
</event>
<event>
 5   0  0.8237664E-06  0.1627392E+04  0.7818609E-02  0.8803894E-01
        2   -1    0    0  501    0  0.00000000000E+00  0.00000000000E+00  0.16265528106E+04  0.16265528107E+04  0.25500000920E-02 0. -1.
       -2   -1    0    0    0  501  0.00000000000E+00  0.00000000000E+00 -0.40705801399E+03  0.40705801400E+03  0.25500000920E-02 0.  1.
    10030    2    1    2    0    0  0.00000000000E+00  0.00000000000E+00  0.12194947967E+04  0.20336108247E+04  0.16273922167E+04 0.  0.
        5    1    3    3  502    0  0.77784180444E+03  0.21142330350E+03  0.47092453261E+03  0.93355754585E+03  0.46999998093E+01 0.  1.
       -5    1    3    3    0  502 -0.77784180444E+03 -0.21142330350E+03  0.74857026404E+03  0.11000532788E+04  0.46999998093E+01 0. -1.
</event>
<event>
 5   0  0.7971763E-06  0.3211649E+04  0.7818609E-02  0.8185747E-01
       -2   -1    0    0    0  501  0.00000000000E+00  0.00000000000E+00  0.10773508844E+04  0.10773508844E+04  0.25500000920E-02 0. -1.
        2   -1    0    0  501    0  0.00000000000E+00  0.00000000000E+00 -0.23935312191E+04  0.23935312191E+04  0.25500000920E-02 0.  1.
    10030    2    1    2    0    0  0.00000000000E+00  0.00000000000E+00 -0.13161803347E+04  0.34708821035E+04  0.32116494054E+04 0.  0.
        1    1    3    3  502    0  0.10069266337E+04 -0.69767553203E+02 -0.20078630484E+04  0.22472834219E+04  0.50400001928E-02 0.  1.
       -1    1    3    3    0  502 -0.10069266337E+04  0.69767553203E+02  0.69168271377E+03  0.12235986816E+04  0.50400001928E-02 0. -1.
</event>
<event>
 5   0  0.8237664E-06  0.3218906E+04  0.7818609E-02  0.8183842E-01
        2   -1    0    0  501    0  0.00000000000E+00  0.00000000000E+00  0.24541755860E+04  0.24541755860E+04  0.25500000920E-02 0. -1.
       -2   -1    0    0    0  501  0.00000000000E+00  0.00000000000E+00 -0.10554821723E+04  0.10554821723E+04  0.25500000920E-02 0.  1.
    10030    2    1    2    0    0  0.00000000000E+00  0.00000000000E+00  0.13986934138E+04  0.35096577583E+04  0.32189057636E+04 0.  0.
        5    1    3    3  502    0  0.37999888422E+03 -0.18116623366E+03  0.23930752948E+04  0.24298254697E+04  0.46999998093E+01 0. -1.
       -5    1    3    3    0  502 -0.37999888422E+03  0.18116623366E+03 -0.99438188107E+03  0.10798322887E+04  0.46999998093E+01 0.  1.
</event>
<event>
 5   0  0.8237664E-06  0.3332124E+04  0.7818609E-02  0.8154769E-01
        2   -1    0    0  501    0  0.00000000000E+00  0.00000000000E+00  0.13374441522E+04  0.13374441522E+04  0.25500000920E-02 0. -1.
       -2   -1    0    0    0  501  0.00000000000E+00  0.00000000000E+00 -0.20754235062E+04  0.20754235062E+04  0.25500000920E-02 0.  1.
    10030    2    1    2    0    0  0.00000000000E+00  0.00000000000E+00 -0.73797935392E+03  0.34128676584E+04  0.33321242664E+04 0.  0.
        5    1    3    3  502    0  0.72350580886E+02 -0.60867641203E+03  0.12177498155E+04  0.13633261841E+04  0.46999998093E+01 0. -1.
       -5    1    3    3    0  502 -0.72350580886E+02  0.60867641203E+03 -0.19557291694E+04  0.20495414743E+04  0.46999998093E+01 0.  1.
</event>
<event>
 5   0  0.2933646E-06  0.3213145E+04  0.7818609E-02  0.8185354E-01
        1   -1    0    0  501    0  0.00000000000E+00  0.00000000000E+00  0.17381274059E+04  0.17381274059E+04  0.50400001928E-02 0.  1.
       -1   -1    0    0    0  501  0.00000000000E+00  0.00000000000E+00 -0.14849748293E+04  0.14849748293E+04  0.50400001928E-02 0. -1.
    10030    2    1    2    0    0  0.00000000000E+00  0.00000000000E+00  0.25315257657E+03  0.32231022352E+04  0.32131451557E+04 0.  0.
        2    1    3    3  502    0  0.34752798962E+03  0.12753297971E+04 -0.78939834235E+03  0.15396075921E+04  0.25500000920E-02 0. -1.
       -2    1    3    3    0  502 -0.34752798962E+03 -0.12753297971E+04  0.10425509189E+04  0.16834946431E+04  0.25500000920E-02 0.  1.
</event>
<event>
 5   0  0.7510251E-06  0.1838552E+04  0.7818609E-02  0.8686062E-01
        2   -1    0    0  501    0  0.00000000000E+00  0.00000000000E+00  0.76290950362E+03  0.76290950362E+03  0.25500000920E-02 0. -1.
       -2   -1    0    0    0  501  0.00000000000E+00  0.00000000000E+00 -0.11076913308E+04  0.11076913308E+04  0.25500000920E-02 0.  1.
    10030    2    1    2    0    0  0.00000000000E+00  0.00000000000E+00 -0.34478182716E+03  0.18706008344E+04  0.18385518685E+04 0.  0.
        3    1    3    3  502    0 -0.72618355777E+03  0.30459945594E+03 -0.65494195773E+03  0.10242423377E+04  0.10100000352E+00 0. -1.
       -3    1    3    3    0  502  0.72618355777E+03 -0.30459945594E+03  0.31016013057E+03  0.84635849670E+03  0.10100000352E+00 0.  1.
</event>
<event>
 5   0  0.2933646E-06  0.2395564E+04  0.7818609E-02  0.8441166E-01
       -1   -1    0    0    0  501  0.00000000000E+00  0.00000000000E+00  0.88056552716E+03  0.88056552718E+03  0.50400001928E-02 0. -1.
        1   -1    0    0  501    0  0.00000000000E+00  0.00000000000E+00 -0.16292732531E+04  0.16292732531E+04  0.50400001928E-02 0.  1.
    10030    2    1    2    0    0  0.00000000000E+00  0.00000000000E+00 -0.74870772592E+03  0.25098387803E+04  0.23955641181E+04 0.  0.
        2    1    3    3  502    0 -0.76365394425E+03 -0.38606530748E+03 -0.12524687245E+04  0.15168690366E+04  0.25500000920E-02 0.  1.
       -2    1    3    3    0  502  0.76365394425E+03  0.38606530748E+03  0.50376099859E+03  0.99296974370E+03  0.25500000920E-02 0. -1.
</event>
<event>
 5   0  0.7941434E-06  0.3134776E+04  0.7818609E-02  0.8206258E-01
       -2   -1    0    0    0  501  0.00000000000E+00  0.00000000000E+00  0.15833293422E+04  0.15833293422E+04  0.25500000920E-02 0. -1.
        2   -1    0    0  501    0  0.00000000000E+00  0.00000000000E+00 -0.15516076539E+04  0.15516076539E+04  0.25500000920E-02 0.  1.
    10030    2    1    2    0    0  0.00000000000E+00  0.00000000000E+00  0.31721688288E+02  0.31349369961E+04  0.31347764999E+04 0.  0.
        4    1    3    3  502    0  0.71764691132E+03  0.52734151517E+03  0.13057323503E+04  0.15805204037E+04  0.12699999809E+01 0. -1.
       -4    1    3    3    0  502 -0.71764691132E+03 -0.52734151517E+03 -0.12740106620E+04  0.15544165924E+04  0.12699999809E+01 0.  1.
</event>
<event>
 5   0  0.2788054E-06  0.3012190E+04  0.7818609E-02  0.8240258E-01
        1   -1    0    0  501    0  0.00000000000E+00  0.00000000000E+00  0.19065194806E+04  0.19065194806E+04  0.50400001928E-02 0. -1.
       -1   -1    0    0    0  501  0.00000000000E+00  0.00000000000E+00 -0.11897714616E+04  0.11897714616E+04  0.50400001928E-02 0.  1.
    10030    2    1    2    0    0  0.00000000000E+00  0.00000000000E+00  0.71674801909E+03  0.30962909422E+04  0.30121902124E+04 0.  0.
        3    1    3    3  502    0 -0.98962186253E+03  0.15773415074E+03  0.15140831098E+04  0.18156759531E+04  0.10100000352E+00 0. -1.
       -3    1    3    3    0  502  0.98962186253E+03 -0.15773415074E+03 -0.79733509075E+03  0.12806149891E+04  0.10100000352E+00 0.  1.
</event>
<event>
 5   0  0.7510251E-06  0.2986091E+04  0.7818609E-02  0.8247714E-01
       -2   -1    0    0    0  501  0.00000000000E+00  0.00000000000E+00  0.10351644469E+04  0.10351644469E+04  0.25500000920E-02 0. -1.
        2   -1    0    0  501    0  0.00000000000E+00  0.00000000000E+00 -0.21534590578E+04  0.21534590578E+04  0.25500000920E-02 0.  1.
    10030    2    1    2    0    0  0.00000000000E+00  0.00000000000E+00 -0.11182946108E+04  0.31886235047E+04  0.29860905911E+04 0.  0.
        3    1    3    3  502    0  0.37404252961E+03 -0.11844067340E+04  0.32557498757E+03  0.12840273394E+04  0.10100000352E+00 0. -1.
       -3    1    3    3    0  502 -0.37404252961E+03  0.11844067340E+04 -0.14438695984E+04  0.19045961653E+04  0.10100000352E+00 0.  1.
</event>
<event>
 5   0  0.3938696E-06  0.3105785E+04  0.7818609E-02  0.8214152E-01
        1   -1    0    0  501    0  0.00000000000E+00  0.00000000000E+00  0.12044290339E+04  0.12044290339E+04  0.50400001928E-02 0.  1.
       -1   -1    0    0    0  501  0.00000000000E+00  0.00000000000E+00 -0.20021726786E+04  0.20021726786E+04  0.50400001928E-02 0. -1.
    10030    2    1    2    0    0  0.00000000000E+00  0.00000000000E+00 -0.79774364469E+03  0.32066017124E+04  0.31057848637E+04 0.  0.
        4    1    3    3  502    0  0.12318590590E+04 -0.24386595085E+03  0.54430598571E+03  0.13686555308E+04  0.12699999809E+01 0.  1.
       -4    1    3    3    0  502 -0.12318590590E+04  0.24386595085E+03 -0.13420496304E+04  0.18379461816E+04  0.12699999809E+01 0. -1.
</event>
<event>
 5   0  0.7971763E-06  0.3159488E+04  0.7818609E-02  0.8199599E-01
        2   -1    0    0  501    0  0.00000000000E+00  0.00000000000E+00  0.22292845078E+04  0.22292845078E+04  0.25500000920E-02 0. -1.
       -2   -1    0    0    0  501  0.00000000000E+00  0.00000000000E+00 -0.11194586706E+04  0.11194586706E+04  0.25500000920E-02 0.  1.
    10030    2    1    2    0    0  0.00000000000E+00  0.00000000000E+00  0.11098258373E+04  0.33487431784E+04  0.31594884849E+04 0.  0.
        1    1    3    3  502    0  0.45298915973E+03  0.34376577902E+03 -0.10072155506E+04  0.11566577951E+04  0.50400001928E-02 0.  1.
       -1    1    3    3    0  502 -0.45298915973E+03 -0.34376577902E+03  0.21170413879E+04  0.21920853833E+04  0.50400001928E-02 0. -1.
</event>
<event>
 5   0  0.4142886E-06  0.3094505E+04  0.7818609E-02  0.8217248E-01
        1   -1    0    0  501    0  0.00000000000E+00  0.00000000000E+00  0.30940573389E+04  0.30940573389E+04  0.50400001928E-02 0. -1.
       -1   -1    0    0    0  501  0.00000000000E+00  0.00000000000E+00 -0.77373830331E+03  0.77373830333E+03  0.50400001928E-02 0.  1.
    10030    2    1    2    0    0  0.00000000000E+00  0.00000000000E+00  0.23203190356E+04  0.38677956422E+04  0.30945052437E+04 0.  0.
        5    1    3    3  502    0  0.31500086904E+03  0.13688607035E+04  0.19711102544E+04  0.24203931288E+04  0.46999998093E+01 0. -1.
       -5    1    3    3    0  502 -0.31500086904E+03 -0.13688607035E+04  0.34920878117E+03  0.14474025134E+04  0.46999998093E+01 0.  1.
</event>
<event>
 5   0  0.3938696E-06  0.3034814E+04  0.7818609E-02  0.8233859E-01
       -1   -1    0    0    0  501  0.00000000000E+00  0.00000000000E+00  0.15783285456E+04  0.15783285456E+04  0.50400001928E-02 0.  1.
        1   -1    0    0  501    0  0.00000000000E+00  0.00000000000E+00 -0.14588367888E+04  0.14588367888E+04  0.50400001928E-02 0. -1.
    10030    2    1    2    0    0  0.00000000000E+00  0.00000000000E+00  0.11949175676E+03  0.30371653345E+04  0.30348138310E+04 0.  0.
        4    1    3    3  502    0 -0.67795073891E+03  0.90700344451E+03  0.10706026240E+04  0.15583529909E+04  0.12699999809E+01 0.  1.
       -4    1    3    3    0  502  0.67795073891E+03 -0.90700344451E+03 -0.95111086727E+03  0.14788123436E+04  0.12699999809E+01 0. -1.
</event>
<event>
 5   0  0.7510251E-06  0.3215225E+04  0.7818609E-02  0.8184808E-01
       -2   -1    0    0    0  501  0.00000000000E+00  0.00000000000E+00  0.11386487514E+04  0.11386487514E+04  0.25500000920E-02 0.  1.
        2   -1    0    0  501    0  0.00000000000E+00  0.00000000000E+00 -0.22697235074E+04  0.22697235074E+04  0.25500000920E-02 0. -1.
    10030    2    1    2    0    0  0.00000000000E+00  0.00000000000E+00 -0.11310747560E+04  0.34083722588E+04  0.32152249301E+04 0.  0.
        3    1    3    3  502    0  0.56654128398E+02 -0.27792114284E+02  0.11373353300E+04  0.11390846128E+04  0.10100000352E+00 0.  1.
       -3    1    3    3    0  502 -0.56654128398E+02  0.27792114284E+02 -0.22684100860E+04  0.22692876460E+04  0.10100000352E+00 0. -1.
</event>
<event>
 5   0  0.2788054E-06  0.1869187E+04  0.7818609E-02  0.8670348E-01
       -1   -1    0    0    0  501  0.00000000000E+00  0.00000000000E+00  0.57417666394E+03  0.57417666396E+03  0.50400001928E-02 0.  1.
        1   -1    0    0  501    0  0.00000000000E+00  0.00000000000E+00 -0.15212480762E+04  0.15212480762E+04  0.50400001928E-02 0. -1.
    10030    2    1    2    0    0  0.00000000000E+00  0.00000000000E+00 -0.94707141228E+03  0.20954247402E+04  0.18691871447E+04 0.  0.
        3    1    3    3  502    0 -0.48818710435E+03 -0.79691165380E+03 -0.46413621102E+03  0.10434640700E+04  0.10100000352E+00 0.  1.
       -3    1    3    3    0  502  0.48818710435E+03  0.79691165380E+03 -0.48293520126E+03  0.10519606702E+04  0.10100000352E+00 0. -1.
</event>
<event>
 5   0  0.2933646E-06  0.3182330E+04  0.7818609E-02  0.8193499E-01
        1   -1    0    0  501    0  0.00000000000E+00  0.00000000000E+00  0.79443355746E+03  0.79443355747E+03  0.50400001928E-02 0. -1.
       -1   -1    0    0    0  501  0.00000000000E+00  0.00000000000E+00 -0.31869332856E+04  0.31869332856E+04  0.50400001928E-02 0.  1.
    10030    2    1    2    0    0  0.00000000000E+00  0.00000000000E+00 -0.23924997281E+04  0.39813668431E+04  0.31823304338E+04 0.  0.
        2    1    3    3  502    0 -0.14259713994E+03 -0.61919003270E+03  0.62882440323E+03  0.89395210779E+03  0.25500000920E-02 0. -1.
       -2    1    3    3    0  502  0.14259713994E+03  0.61919003270E+03 -0.30213241314E+04  0.30874147353E+04  0.25500000920E-02 0.  1.
</event>
<event>
 5   0  0.7952307E-06  0.2336559E+04  0.7818609E-02  0.8463644E-01
       -2   -1    0    0    0  501  0.00000000000E+00  0.00000000000E+00  0.62581847443E+03  0.62581847444E+03  0.25500000920E-02 0. -1.
        2   -1    0    0  501    0  0.00000000000E+00  0.00000000000E+00 -0.21809471395E+04  0.21809471395E+04  0.25500000920E-02 0.  1.
    10030    2    1    2    0    0  0.00000000000E+00  0.00000000000E+00 -0.15551286650E+04  0.28067656139E+04  0.23365590184E+04 0.  0.
        2    1    3    3  502    0 -0.20147240193E+03  0.34078809499E+02  0.60418654987E+03  0.63780395189E+03  0.25500000920E-02 0. -1.
       -2    1    3    3    0  502  0.20147240193E+03 -0.34078809499E+02 -0.21593152149E+04  0.21689616620E+04  0.25500000920E-02 0.  1.
</event>
<event>
 5   0  0.3938696E-06  0.2691356E+04  0.7818609E-02  0.8337815E-01
       -1   -1    0    0    0  501  0.00000000000E+00  0.00000000000E+00  0.11162546093E+04  0.11162546093E+04  0.50400001928E-02 0. -1.
        1   -1    0    0  501    0  0.00000000000E+00  0.00000000000E+00 -0.16222542936E+04  0.16222542936E+04  0.50400001928E-02 0.  1.
    10030    2    1    2    0    0  0.00000000000E+00  0.00000000000E+00 -0.50599968429E+03  0.27385089029E+04  0.26913556679E+04 0.  0.
        4    1    3    3  502    0 -0.55552007606E+03  0.99415278612E+03  0.47643153886E+03  0.12344759784E+04  0.12699999809E+01 0. -1.
       -4    1    3    3    0  502  0.55552007606E+03 -0.99415278612E+03 -0.98243122315E+03  0.15040329246E+04  0.12699999809E+01 0.  1.
</event>
<event>
 5   0  0.2933646E-06  0.2884184E+04  0.7818609E-02  0.8277599E-01
       -1   -1    0    0    0  501  0.00000000000E+00  0.00000000000E+00  0.76034398019E+03  0.76034398020E+03  0.50400001928E-02 0. -1.
        1   -1    0    0  501    0  0.00000000000E+00  0.00000000000E+00 -0.27351162970E+04  0.27351162970E+04  0.50400001928E-02 0.  1.
    10030    2    1    2    0    0  0.00000000000E+00  0.00000000000E+00 -0.19747723168E+04  0.34954602772E+04  0.28841839134E+04 0.  0.
        2    1    3    3  502    0  0.73845613216E+03  0.83313942562E+03  0.12350188204E+03  0.11201301159E+04  0.25500000920E-02 0. -1.
       -2    1    3    3    0  502 -0.73845613216E+03 -0.83313942562E+03 -0.20982741989E+04  0.23753301613E+04  0.25500000920E-02 0.  1.
</event>
<event>
 5   0  0.2788054E-06  0.3225592E+04  0.7818609E-02  0.8182091E-01
       -1   -1    0    0    0  501  0.00000000000E+00  0.00000000000E+00  0.13835923023E+04  0.13835923023E+04  0.50400001928E-02 0. -1.
        1   -1    0    0  501    0  0.00000000000E+00  0.00000000000E+00 -0.18799696598E+04  0.18799696598E+04  0.50400001928E-02 0.  1.
    10030    2    1    2    0    0  0.00000000000E+00  0.00000000000E+00 -0.49637735749E+03  0.32635619621E+04  0.32255923796E+04 0.  0.
        3    1    3    3  502    0 -0.12156856067E+04 -0.57803697127E+03  0.65057716136E+03  0.14950815655E+04  0.10100000352E+00 0. -1.
       -3    1    3    3    0  502  0.12156856067E+04  0.57803697127E+03 -0.11469545189E+04  0.17684803966E+04  0.10100000352E+00 0.  1.
</event>
<event>
 5   0  0.7971763E-06  0.3113302E+04  0.7818609E-02  0.8212097E-01
        2   -1    0    0  501    0  0.00000000000E+00  0.00000000000E+00  0.13698731911E+04  0.13698731911E+04  0.25500000920E-02 0. -1.
       -2   -1    0    0    0  501  0.00000000000E+00  0.00000000000E+00 -0.17688948577E+04  0.17688948577E+04  0.25500000920E-02 0.  1.
    10030    2    1    2    0    0  0.00000000000E+00  0.00000000000E+00 -0.39902166658E+03  0.31387680489E+04  0.31133015553E+04 0.  0.
        1    1    3    3  502    0  0.20077159563E+03  0.23426211865E+03  0.13387396720E+04  0.13738310971E+04  0.50400001928E-02 0. -1.
       -1    1    3    3    0  502 -0.20077159563E+03 -0.23426211865E+03 -0.17377613386E+04  0.17649369518E+04  0.50400001928E-02 0.  1.
</event>
<event>
 5   0  0.7941434E-06  0.3171969E+04  0.7818609E-02  0.8196260E-01
        2   -1    0    0  501    0  0.00000000000E+00  0.00000000000E+00  0.22424151141E+04  0.22424151141E+04  0.25500000920E-02 0.  1.
       -2   -1    0    0    0  501  0.00000000000E+00  0.00000000000E+00 -0.11217130831E+04  0.11217130831E+04  0.25500000920E-02 0. -1.
    10030    2    1    2    0    0  0.00000000000E+00  0.00000000000E+00  0.11207020310E+04  0.33641281973E+04  0.31719687081E+04 0.  0.
        4    1    3    3  502    0 -0.13844751908E+04 -0.67059653535E+03  0.15113527586E+03  0.15457408423E+04  0.12699999809E+01 0. -1.
       -4    1    3    3    0  502  0.13844751908E+04  0.67059653535E+03  0.96956675515E+03  0.18183873550E+04  0.12699999809E+01 0.  1.
</event>
<event>
 5   0  0.2788054E-06  0.2280515E+04  0.7818609E-02  0.8485644E-01
       -1   -1    0    0    0  501  0.00000000000E+00  0.00000000000E+00  0.84801053900E+03  0.84801053902E+03  0.50400001928E-02 0. -1.
        1   -1    0    0  501    0  0.00000000000E+00  0.00000000000E+00 -0.15332206519E+04  0.15332206519E+04  0.50400001928E-02 0.  1.
    10030    2    1    2    0    0  0.00000000000E+00  0.00000000000E+00 -0.68521011292E+03  0.23812311910E+04  0.22805150922E+04 0.  0.
        3    1    3    3  502    0 -0.99375499374E+03  0.25244734077E+03  0.17833598628E+03  0.10407124395E+04  0.10100000352E+00 0. -1.
       -3    1    3    3    0  502  0.99375499374E+03 -0.25244734077E+03 -0.86354609921E+03  0.13405187515E+04  0.10100000352E+00 0.  1.
</event>
<event>
 5   0  0.7971763E-06  0.3184214E+04  0.7818609E-02  0.8192999E-01
        2   -1    0    0  501    0  0.00000000000E+00  0.00000000000E+00  0.25575338646E+04  0.25575338646E+04  0.25500000920E-02 0.  1.
       -2   -1    0    0    0  501  0.00000000000E+00  0.00000000000E+00 -0.99111316487E+03  0.99111316487E+03  0.25500000920E-02 0. -1.
    10030    2    1    2    0    0  0.00000000000E+00  0.00000000000E+00  0.15664206998E+04  0.35486470295E+04  0.31842144921E+04 0.  0.
        1    1    3    3  502    0  0.56662216137E+03  0.14503008900E+04  0.11534562140E+04  0.19377550369E+04  0.50400001928E-02 0.  1.
       -1    1    3    3    0  502 -0.56662216137E+03 -0.14503008900E+04  0.41296448576E+03  0.16108919926E+04  0.50400001928E-02 0. -1.
</event>
<event>
 5   0  0.7941434E-06  0.3188756E+04  0.7818609E-02  0.8191793E-01
        2   -1    0    0  501    0  0.00000000000E+00  0.00000000000E+00  0.23070003543E+04  0.23070003543E+04  0.25500000920E-02 0.  1.
       -2   -1    0    0    0  501  0.00000000000E+00  0.00000000000E+00 -0.11018818444E+04  0.11018818445E+04  0.25500000920E-02 0. -1.
    10030    2    1    2    0    0  0.00000000000E+00  0.00000000000E+00  0.12051185098E+04  0.34088821987E+04  0.31887563755E+04 0.  0.
        4    1    3    3  502    0  0.10325878670E+04  0.11382500760E+04  0.10563494388E+04  0.18648663996E+04  0.12699999809E+01 0. -1.
       -4    1    3    3    0  502 -0.10325878670E+04 -0.11382500760E+04  0.14876907103E+03  0.15440157991E+04  0.12699999809E+01 0.  1.
</event>
<event>
 5   0  0.8237664E-06  0.2961033E+04  0.7818609E-02  0.8254946E-01
       -2   -1    0    0    0  501  0.00000000000E+00  0.00000000000E+00  0.21376398485E+04  0.21376398485E+04  0.25500000920E-02 0.  1.
        2   -1    0    0  501    0  0.00000000000E+00  0.00000000000E+00 -0.10253968108E+04  0.10253968108E+04  0.25500000920E-02 0. -1.
    10030    2    1    2    0    0  0.00000000000E+00  0.00000000000E+00  0.11122430377E+04  0.31630366593E+04  0.29610329841E+04 0.  0.
        5    1    3    3  502    0 -0.11759800346E+04 -0.62627143287E+02 -0.40233842997E+03  0.12444876469E+04  0.46999998093E+01 0. -1.
       -5    1    3    3    0  502  0.11759800346E+04  0.62627143287E+02  0.15145814677E+04  0.19185490124E+04  0.46999998093E+01 0.  1.
</event>
<event>
 5   0  0.7971763E-06  0.3279001E+04  0.7818609E-02  0.8168259E-01
        2   -1    0    0  501    0  0.00000000000E+00  0.00000000000E+00  0.17178794279E+04  0.17178794279E+04  0.25500000920E-02 0.  1.
       -2   -1    0    0    0  501  0.00000000000E+00  0.00000000000E+00 -0.15646975304E+04  0.15646975304E+04  0.25500000920E-02 0. -1.
    10030    2    1    2    0    0  0.00000000000E+00  0.00000000000E+00  0.15318189746E+03  0.32825769583E+04  0.32790008834E+04 0.  0.
        1    1    3    3  502    0 -0.83634725416E+03  0.72168991490E+03  0.12893776625E+04  0.16978833351E+04  0.50400001928E-02 0.  1.
       -1    1    3    3    0  502  0.83634725416E+03 -0.72168991490E+03 -0.11361957651E+04  0.15846936232E+04  0.50400001928E-02 0. -1.
</event>
<event>
 5   0  0.8237664E-06  0.2335193E+04  0.7818609E-02  0.8464173E-01
       -2   -1    0    0    0  501  0.00000000000E+00  0.00000000000E+00  0.66552616188E+03  0.66552616189E+03  0.25500000920E-02 0. -1.
        2   -1    0    0  501    0  0.00000000000E+00  0.00000000000E+00 -0.20484272676E+04  0.20484272676E+04  0.25500000920E-02 0.  1.
    10030    2    1    2    0    0  0.00000000000E+00  0.00000000000E+00 -0.13829011057E+04  0.27139534295E+04  0.23351933002E+04 0.  0.
        5    1    3    3  502    0 -0.41130163450E+03  0.10097363959E+03 -0.19560010405E+04  0.20013312746E+04  0.46999998093E+01 0.  1.
       -5    1    3    3    0  502  0.41130163450E+03 -0.10097363959E+03  0.57309993474E+03  0.71262215489E+03  0.46999998093E+01 0. -1.
</event>
<event>
 5   0  0.7971763E-06  0.3299087E+04  0.7818609E-02  0.8163128E-01
       -2   -1    0    0    0  501  0.00000000000E+00  0.00000000000E+00  0.18749237127E+04  0.18749237127E+04  0.25500000920E-02 0.  1.
        2   -1    0    0  501    0  0.00000000000E+00  0.00000000000E+00 -0.14512556755E+04  0.14512556755E+04  0.25500000920E-02 0. -1.
    10030    2    1    2    0    0  0.00000000000E+00  0.00000000000E+00  0.42366803721E+03  0.33261793882E+04  0.32990869520E+04 0.  0.
        1    1    3    3  502    0 -0.11661881056E+04  0.11566064883E+04  0.36560012380E+03  0.16826754639E+04  0.50400001928E-02 0.  1.
       -1    1    3    3    0  502  0.11661881056E+04 -0.11566064883E+04  0.58067913410E+02  0.16435039242E+04  0.50400001928E-02 0. -1.
</event>
<event>
 5   0  0.2635798E-06  0.2270523E+04  0.7818609E-02  0.8489635E-01
       -1   -1    0    0    0  501  0.00000000000E+00  0.00000000000E+00  0.55037873303E+03  0.55037873305E+03  0.50400001928E-02 0.  1.
        1   -1    0    0  501    0  0.00000000000E+00  0.00000000000E+00 -0.23416936007E+04  0.23416936007E+04  0.50400001928E-02 0. -1.
    10030    2    1    2    0    0  0.00000000000E+00  0.00000000000E+00 -0.17913148676E+04  0.28920723337E+04  0.22705227214E+04 0.  0.
        1    1    3    3  502    0 -0.89249928310E+03  0.39899055240E+03 -0.16307651963E+04  0.19013530858E+04  0.50400001928E-02 0. -1.
       -1    1    3    3    0  502  0.89249928310E+03 -0.39899055240E+03 -0.16054967130E+03  0.99071924793E+03  0.50400001928E-02 0.  1.
</event>
<event>
 5   0  0.2788054E-06  0.3177727E+04  0.7818609E-02  0.8194724E-01
        1   -1    0    0  501    0  0.00000000000E+00  0.00000000000E+00  0.89450289353E+03  0.89450289355E+03  0.50400001928E-02 0.  1.
       -1   -1    0    0    0  501  0.00000000000E+00  0.00000000000E+00 -0.28222243860E+04  0.28222243860E+04  0.50400001928E-02 0. -1.
    10030    2    1    2    0    0  0.00000000000E+00  0.00000000000E+00 -0.19277214925E+04  0.37167272796E+04  0.31777274141E+04 0.  0.
        3    1    3    3  502    0  0.23630596069E+03 -0.12618466822E+03 -0.27956202989E+04  0.28084258836E+04  0.10100000352E+00 0. -1.
       -3    1    3    3    0  502 -0.23630596069E+03  0.12618466822E+03  0.86789880644E+03  0.90830139600E+03  0.10100000352E+00 0.  1.
</event>
<event>
 5   0  0.7971763E-06  0.3193323E+04  0.7818609E-02  0.8190583E-01
        2   -1    0    0  501    0  0.00000000000E+00  0.00000000000E+00  0.16681234418E+04  0.16681234418E+04  0.25500000920E-02 0. -1.
       -2   -1    0    0    0  501  0.00000000000E+00  0.00000000000E+00 -0.15282609405E+04  0.15282609405E+04  0.25500000920E-02 0.  1.
    10030    2    1    2    0    0  0.00000000000E+00  0.00000000000E+00  0.13986250126E+03  0.31963843823E+04  0.31933229715E+04 0.  0.
        1    1    3    3  502    0 -0.54429900617E+03  0.31311803972E+03 -0.13994759667E+04  0.15338961165E+04  0.50400001928E-02 0.  1.
       -1    1    3    3    0  502  0.54429900617E+03 -0.31311803972E+03  0.15393384679E+04  0.16624882658E+04  0.50400001928E-02 0. -1.
</event>
<event>
 5   0  0.2933646E-06  0.3199354E+04  0.7818609E-02  0.8188988E-01
        1   -1    0    0  501    0  0.00000000000E+00  0.00000000000E+00  0.18946691639E+04  0.18946691639E+04  0.50400001928E-02 0. -1.
       -1   -1    0    0    0  501  0.00000000000E+00  0.00000000000E+00 -0.13506136837E+04  0.13506136837E+04  0.50400001928E-02 0.  1.
    10030    2    1    2    0    0  0.00000000000E+00  0.00000000000E+00  0.54405548017E+03  0.32452828476E+04  0.31993537465E+04 0.  0.
        2    1    3    3  502    0  0.84947530203E+03 -0.11785580744E+04  0.95123619149E+03  0.17365073324E+04  0.25500000920E-02 0. -1.
       -2    1    3    3    0  502 -0.84947530203E+03  0.11785580744E+04 -0.40718071132E+03  0.15087755152E+04  0.25500000920E-02 0.  1.
</event>
<event>
 5   0  0.7952307E-06  0.3184291E+04  0.7818609E-02  0.8192978E-01
        2   -1    0    0  501    0  0.00000000000E+00  0.00000000000E+00  0.95351311373E+03  0.95351311374E+03  0.25500000920E-02 0.  1.
       -2   -1    0    0    0  501  0.00000000000E+00  0.00000000000E+00 -0.26585140330E+04  0.26585140330E+04  0.25500000920E-02 0. -1.
    10030    2    1    2    0    0  0.00000000000E+00  0.00000000000E+00 -0.17050009192E+04  0.36120271467E+04  0.31842914398E+04 0.  0.
        2    1    3    3  502    0 -0.90934523125E+03  0.91028982127E+03  0.21122455873E+03  0.13038988161E+04  0.25500000920E-02 0.  1.
       -2    1    3    3    0  502  0.90934523125E+03 -0.91028982127E+03 -0.19162254779E+04  0.23081283306E+04  0.25500000920E-02 0. -1.
</event>
<event>
 5   0  0.3938696E-06  0.3367364E+04  0.7818609E-02  0.8145963E-01
        1   -1    0    0  501    0  0.00000000000E+00  0.00000000000E+00  0.15769526338E+04  0.15769526338E+04  0.50400001928E-02 0.  1.
       -1   -1    0    0    0  501  0.00000000000E+00  0.00000000000E+00 -0.17976347757E+04  0.17976347757E+04  0.50400001928E-02 0. -1.
    10030    2    1    2    0    0  0.00000000000E+00  0.00000000000E+00 -0.22068214191E+03  0.33745874095E+04  0.33673638913E+04 0.  0.
        4    1    3    3  502    0 -0.38068788035E+03  0.16092777199E+04 -0.42738223007E+03  0.17080267051E+04  0.12699999809E+01 0. -1.
       -4    1    3    3    0  502  0.38068788035E+03 -0.16092777199E+04  0.20670008816E+03  0.16665607044E+04  0.12699999809E+01 0.  1.
</event>
<event>
 5   0  0.8237664E-06  0.1681897E+04  0.7818609E-02  0.8771757E-01
       -2   -1    0    0    0  501  0.00000000000E+00  0.00000000000E+00  0.97860751931E+03  0.97860751932E+03  0.25500000920E-02 0.  1.
        2   -1    0    0  501    0  0.00000000000E+00  0.00000000000E+00 -0.72265398313E+03  0.72265398313E+03  0.25500000920E-02 0. -1.
    10030    2    1    2    0    0  0.00000000000E+00  0.00000000000E+00  0.25595353619E+03  0.17012615024E+04  0.16818972879E+04 0.  0.
        5    1    3    3  502    0  0.33939817918E+02  0.56853525825E+03  0.75379890448E+03  0.94478522930E+03  0.46999998093E+01 0.  1.
       -5    1    3    3    0  502 -0.33939817918E+02 -0.56853525825E+03 -0.49784536829E+03  0.75647627315E+03  0.46999998093E+01 0. -1.
</event>
<event>
 5   0  0.2635798E-06  0.1955319E+04  0.7818609E-02  0.8627800E-01
       -1   -1    0    0    0  501  0.00000000000E+00  0.00000000000E+00  0.24178156902E+04  0.24178156902E+04  0.50400001928E-02 0. -1.
        1   -1    0    0  501    0  0.00000000000E+00  0.00000000000E+00 -0.39532297975E+03  0.39532297979E+03  0.50400001928E-02 0.  1.
    10030    2    1    2    0    0  0.00000000000E+00  0.00000000000E+00  0.20224927104E+04  0.28131386700E+04  0.19553190054E+04 0.  0.
        1    1    3    3  502    0 -0.57102609838E+03  0.36716921183E+03  0.20234017483E+04  0.21342536565E+04  0.50400001928E-02 0. -1.
       -1    1    3    3    0  502  0.57102609838E+03 -0.36716921183E+03 -0.90903788570E+00  0.67888501348E+03  0.50400001928E-02 0.  1.
</event>
<event>
 5   0  0.7971763E-06  0.3242748E+04  0.7818609E-02  0.8177618E-01
       -2   -1    0    0    0  501  0.00000000000E+00  0.00000000000E+00  0.12880583758E+04  0.12880583758E+04  0.25500000920E-02 0.  1.
        2   -1    0    0  501    0  0.00000000000E+00  0.00000000000E+00 -0.20409434187E+04  0.20409434187E+04  0.25500000920E-02 0. -1.
    10030    2    1    2    0    0  0.00000000000E+00  0.00000000000E+00 -0.75288504289E+03  0.33290017946E+04  0.32427483807E+04 0.  0.
        1    1    3    3  502    0 -0.60222123716E+03 -0.14909910104E+04 -0.16324175424E+03  0.16162835401E+04  0.50400001928E-02 0. -1.
       -1    1    3    3    0  502  0.60222123716E+03  0.14909910104E+04 -0.58964328865E+03  0.17127182545E+04  0.50400001928E-02 0.  1.
</event>
<event>
 5   0  0.2933646E-06  0.2236960E+04  0.7818609E-02  0.8503200E-01
        1   -1    0    0  501    0  0.00000000000E+00  0.00000000000E+00  0.11221460956E+04  0.11221460956E+04  0.50400001928E-02 0.  1.
       -1   -1    0    0    0  501  0.00000000000E+00  0.00000000000E+00 -0.11148257069E+04  0.11148257069E+04  0.50400001928E-02 0. -1.
    10030    2    1    2    0    0  0.00000000000E+00  0.00000000000E+00  0.73203887187E+01  0.22369718025E+04  0.22369598247E+04 0.  0.
        2    1    3    3  502    0 -0.84804328929E+03  0.62581272264E+03  0.37806616537E+03  0.11197111278E+04  0.25500000920E-02 0.  1.
       -2    1    3    3    0  502  0.84804328929E+03 -0.62581272264E+03 -0.37074577666E+03  0.11172606747E+04  0.25500000920E-02 0. -1.
</event>
<event>
 5   0  0.2933646E-06  0.3026789E+04  0.7818609E-02  0.8236122E-01
       -1   -1    0    0    0  501  0.00000000000E+00  0.00000000000E+00  0.16672845978E+04  0.16672845978E+04  0.50400001928E-02 0.  1.
        1   -1    0    0  501    0  0.00000000000E+00  0.00000000000E+00 -0.13737087431E+04  0.13737087431E+04  0.50400001928E-02 0. -1.
    10030    2    1    2    0    0  0.00000000000E+00  0.00000000000E+00  0.29357585463E+03  0.30409933409E+04  0.30267893414E+04 0.  0.
        2    1    3    3  502    0 -0.29089176887E+03 -0.77388862512E+03 -0.11267733156E+04  0.13975477559E+04  0.25500000920E-02 0. -1.
       -2    1    3    3    0  502  0.29089176887E+03  0.77388862512E+03  0.14203491703E+04  0.16434455850E+04  0.25500000920E-02 0.  1.
</event>
<event>
 5   0  0.4142886E-06  0.3226692E+04  0.7818609E-02  0.8181803E-01
        1   -1    0    0  501    0  0.00000000000E+00  0.00000000000E+00  0.20645452582E+04  0.20645452582E+04  0.50400001928E-02 0. -1.
       -1   -1    0    0    0  501  0.00000000000E+00  0.00000000000E+00 -0.12607551661E+04  0.12607551661E+04  0.50400001928E-02 0.  1.
    10030    2    1    2    0    0  0.00000000000E+00  0.00000000000E+00  0.80379009214E+03  0.33253004243E+04  0.32266924861E+04 0.  0.
        5    1    3    3  502    0 -0.79577198902E+03  0.36284957697E+03 -0.99524612443E+03  0.13249338897E+04  0.46999998093E+01 0.  1.
       -5    1    3    3    0  502  0.79577198902E+03 -0.36284957697E+03  0.17990362166E+04  0.20003665345E+04  0.46999998093E+01 0. -1.
</event>
<event>
 5   0  0.2580875E-06  0.3204313E+04  0.7818609E-02  0.8187679E-01
        3   -1    0    0  501    0  0.00000000000E+00  0.00000000000E+00  0.11511199520E+04  0.11511199564E+04  0.10100000352E+00 0.  1.
       -3   -1    0    0    0  501  0.00000000000E+00  0.00000000000E+00 -0.22299200256E+04  0.22299200279E+04  0.10100000352E+00 0. -1.
    10030    2    1    2    0    0  0.00000000000E+00  0.00000000000E+00 -0.10788000736E+04  0.33810399843E+04  0.32043129961E+04 0.  0.
        1    1    3    3  502    0 -0.70001693387E+03 -0.10505308899E+04  0.50155334945E+03  0.13583794097E+04  0.50400001928E-02 0.  1.
       -1    1    3    3    0  502  0.70001693387E+03  0.10505308899E+04 -0.15803534230E+04  0.20226605746E+04  0.50400001928E-02 0. -1.
</event>
<event>
 5   0  0.3938696E-06  0.3376688E+04  0.7818609E-02  0.8143652E-01
        1   -1    0    0  501    0  0.00000000000E+00  0.00000000000E+00  0.23849528808E+04  0.23849528808E+04  0.50400001928E-02 0. -1.
       -1   -1    0    0    0  501  0.00000000000E+00  0.00000000000E+00 -0.11952043765E+04  0.11952043765E+04  0.50400001928E-02 0.  1.
    10030    2    1    2    0    0  0.00000000000E+00  0.00000000000E+00  0.11897485043E+04  0.35801572573E+04  0.33766883900E+04 0.  0.
        4    1    3    3  502    0  0.13110174446E+04  0.49985406072E+03 -0.40079884551E+03  0.14591991467E+04  0.12699999809E+01 0.  1.
       -4    1    3    3    0  502 -0.13110174446E+04 -0.49985406072E+03  0.15905473498E+04  0.21209581106E+04  0.12699999809E+01 0. -1.
</event>
<event>
 5   0  0.7941434E-06  0.3165252E+04  0.7818609E-02  0.8198055E-01
        2   -1    0    0  501    0  0.00000000000E+00  0.00000000000E+00  0.18468526640E+04  0.18468526640E+04  0.25500000920E-02 0. -1.
       -2   -1    0    0    0  501  0.00000000000E+00  0.00000000000E+00 -0.13562022199E+04  0.13562022199E+04  0.25500000920E-02 0.  1.
    10030    2    1    2    0    0  0.00000000000E+00  0.00000000000E+00  0.49065044402E+03  0.32030548839E+04  0.31652523961E+04 0.  0.
        4    1    3    3  502    0  0.11150997421E+01  0.14810669949E+04 -0.31913886869E+03  0.15150616876E+04  0.12699999809E+01 0.  1.
       -4    1    3    3    0  502 -0.11150997421E+01 -0.14810669949E+04  0.80978931271E+03  0.16879931963E+04  0.12699999809E+01 0. -1.
</event>
<event>
 5   0  0.7971763E-06  0.3673919E+04  0.7818609E-02  0.8073766E-01
       -2   -1    0    0    0  501  0.00000000000E+00  0.00000000000E+00  0.11157773277E+04  0.11157773277E+04  0.25500000920E-02 0.  1.
        2   -1    0    0  501    0  0.00000000000E+00  0.00000000000E+00 -0.30242775168E+04  0.30242775168E+04  0.25500000920E-02 0. -1.
    10030    2    1    2    0    0  0.00000000000E+00  0.00000000000E+00 -0.19085001891E+04  0.41400548445E+04  0.36739190442E+04 0.  0.
        1    1    3    3  502    0  0.68980863831E+03 -0.16543395532E+04 -0.14074521859E+04  0.22789464606E+04  0.50400001928E-02 0. -1.
       -1    1    3    3    0  502 -0.68980863831E+03  0.16543395532E+04 -0.50104800326E+03  0.18611083839E+04  0.50400001928E-02 0.  1.
</event>
<event>
 5   0  0.8237664E-06  0.3312455E+04  0.7818609E-02  0.8159734E-01
       -2   -1    0    0    0  501  0.00000000000E+00  0.00000000000E+00  0.20879794068E+04  0.20879794068E+04  0.25500000920E-02 0.  1.
        2   -1    0    0  501    0  0.00000000000E+00  0.00000000000E+00 -0.13137528587E+04  0.13137528587E+04  0.25500000920E-02 0. -1.
    10030    2    1    2    0    0  0.00000000000E+00  0.00000000000E+00  0.77422654811E+03  0.34017322655E+04  0.33124546274E+04 0.  0.
        5    1    3    3  502    0 -0.94838170954E+03  0.57763832707E+03 -0.87481528926E+03  0.14136540539E+04  0.46999998093E+01 0. -1.
       -5    1    3    3    0  502  0.94838170954E+03 -0.57763832707E+03  0.16490418374E+04  0.19880782116E+04  0.46999998093E+01 0.  1.
</event>
<event>
 5   0  0.7952307E-06  0.3149182E+04  0.7818609E-02  0.8202369E-01
        2   -1    0    0  501    0  0.00000000000E+00  0.00000000000E+00  0.17555132378E+04  0.17555132378E+04  0.25500000920E-02 0.  1.
       -2   -1    0    0    0  501  0.00000000000E+00  0.00000000000E+00 -0.14123142351E+04  0.14123142351E+04  0.25500000920E-02 0. -1.
    10030    2    1    2    0    0  0.00000000000E+00  0.00000000000E+00  0.34319900275E+03  0.31678274729E+04  0.31491816942E+04 0.  0.
        2    1    3    3  502    0  0.44858676721E+03 -0.37330844507E+03 -0.12995049672E+04  0.14245358692E+04  0.25500000920E-02 0. -1.
       -2    1    3    3    0  502 -0.44858676721E+03  0.37330844507E+03  0.16427039699E+04  0.17432916038E+04  0.25500000920E-02 0.  1.
</event>
<event>
 5   0  0.2933646E-06  0.1718451E+04  0.7818609E-02  0.8750910E-01
       -1   -1    0    0    0  501  0.00000000000E+00  0.00000000000E+00  0.10976260158E+04  0.10976260158E+04  0.50400001928E-02 0. -1.
        1   -1    0    0  501    0  0.00000000000E+00  0.00000000000E+00 -0.67260486386E+03  0.67260486388E+03  0.50400001928E-02 0.  1.
    10030    2    1    2    0    0  0.00000000000E+00  0.00000000000E+00  0.42502115191E+03  0.17702308797E+04  0.17184511596E+04 0.  0.
        2    1    3    3  502    0  0.48144573672E+03  0.29133698553E+03 -0.45636250899E+03  0.72452327510E+03  0.25500000920E-02 0.  1.
       -2    1    3    3    0  502 -0.48144573672E+03 -0.29133698553E+03  0.88138366090E+03  0.10457076046E+04  0.25500000920E-02 0. -1.
</event>
<event>
 5   0  0.2635798E-06  0.3289059E+04  0.7818609E-02  0.8165685E-01
        1   -1    0    0  501    0  0.00000000000E+00  0.00000000000E+00  0.15457004413E+04  0.15457004413E+04  0.50400001928E-02 0. -1.
       -1   -1    0    0    0  501  0.00000000000E+00  0.00000000000E+00 -0.17496774337E+04  0.17496774337E+04  0.50400001928E-02 0.  1.
    10030    2    1    2    0    0  0.00000000000E+00  0.00000000000E+00 -0.20397699241E+03  0.32953778750E+04  0.32890589422E+04 0.  0.
        1    1    3    3  502    0 -0.81188565343E+03 -0.13191729964E+04  0.45143260874E+03  0.16134333295E+04  0.50400001928E-02 0. -1.
       -1    1    3    3    0  502  0.81188565343E+03  0.13191729964E+04 -0.65540960115E+03  0.16819445454E+04  0.50400001928E-02 0.  1.
</event>
<event>
 5   0  0.8237664E-06  0.3226747E+04  0.7818609E-02  0.8181789E-01
        2   -1    0    0  501    0  0.00000000000E+00  0.00000000000E+00  0.16686648477E+04  0.16686648477E+04  0.25500000920E-02 0.  1.
       -2   -1    0    0    0  501  0.00000000000E+00  0.00000000000E+00 -0.15599137973E+04  0.15599137973E+04  0.25500000920E-02 0. -1.
    10030    2    1    2    0    0  0.00000000000E+00  0.00000000000E+00  0.10875105034E+03  0.32285786450E+04  0.32267465466E+04 0.  0.
        5    1    3    3  502    0  0.15128423301E+03  0.13927866527E+04  0.85496084796E+03  0.16412561411E+04  0.46999998093E+01 0.  1.
       -5    1    3    3    0  502 -0.15128423301E+03 -0.13927866527E+04 -0.74620979762E+03  0.15873225039E+04  0.46999998093E+01 0. -1.
</event>
<event>
 5   0  0.7971763E-06  0.3135411E+04  0.7818609E-02  0.8206086E-01
        2   -1    0    0  501    0  0.00000000000E+00  0.00000000000E+00  0.17924529769E+04  0.17924529769E+04  0.25500000920E-02 0. -1.
       -2   -1    0    0    0  501  0.00000000000E+00  0.00000000000E+00 -0.13711384551E+04  0.13711384551E+04  0.25500000920E-02 0.  1.
    10030    2    1    2    0    0  0.00000000000E+00  0.00000000000E+00  0.42131452184E+03  0.31635914320E+04  0.31354114279E+04 0.  0.
        1    1    3    3  502    0 -0.23243023760E+03  0.31661398785E+03  0.17420043714E+04  0.17857344323E+04  0.50400001928E-02 0. -1.
       -1    1    3    3    0  502  0.23243023760E+03 -0.31661398785E+03 -0.13206898496E+04  0.13778569997E+04  0.50400001928E-02 0.  1.
</event>
<event>
 5   0  0.2788054E-06  0.3129632E+04  0.7818609E-02  0.8207652E-01
       -1   -1    0    0    0  501  0.00000000000E+00  0.00000000000E+00  0.29321046313E+04  0.29321046313E+04  0.50400001928E-02 0. -1.
        1   -1    0    0  501    0  0.00000000000E+00  0.00000000000E+00 -0.83511654101E+03  0.83511654103E+03  0.50400001928E-02 0.  1.
    10030    2    1    2    0    0  0.00000000000E+00  0.00000000000E+00  0.20969880903E+04  0.37672211723E+04  0.31296319768E+04 0.  0.
        3    1    3    3  502    0 -0.15557252928E+04  0.13168633423E+03  0.92209364081E+03  0.18132509947E+04  0.10100000352E+00 0.  1.
       -3    1    3    3    0  502  0.15557252928E+04 -0.13168633423E+03  0.11748944495E+04  0.19539701776E+04  0.10100000352E+00 0. -1.
</event>
<event>
 5   0  0.8237664E-06  0.3224512E+04  0.7818609E-02  0.8182373E-01
        2   -1    0    0  501    0  0.00000000000E+00  0.00000000000E+00  0.16254895734E+04  0.16254895734E+04  0.25500000920E-02 0.  1.
       -2   -1    0    0    0  501  0.00000000000E+00  0.00000000000E+00 -0.15991300511E+04  0.15991300511E+04  0.25500000920E-02 0. -1.
    10030    2    1    2    0    0  0.00000000000E+00  0.00000000000E+00  0.26359522284E+02  0.32246196246E+04  0.32245118853E+04 0.  0.
        5    1    3    3  502    0  0.60618569098E+03 -0.14006459523E+04 -0.50652689385E+03  0.16080614913E+04  0.46999998093E+01 0. -1.
       -5    1    3    3    0  502 -0.60618569098E+03  0.14006459523E+04  0.53288641614E+03  0.16165581332E+04  0.46999998093E+01 0.  1.
</event>
<event>
 5   0  0.2788054E-06  0.2469365E+04  0.7818609E-02  0.8413982E-01
       -1   -1    0    0    0  501  0.00000000000E+00  0.00000000000E+00  0.70043142150E+03  0.70043142152E+03  0.50400001928E-02 0.  1.
        1   -1    0    0  501    0  0.00000000000E+00  0.00000000000E+00 -0.21764306631E+04  0.21764306631E+04  0.50400001928E-02 0. -1.
    10030    2    1    2    0    0  0.00000000000E+00  0.00000000000E+00 -0.14759992416E+04  0.28768620846E+04  0.24693646334E+04 0.  0.
        3    1    3    3  502    0 -0.34992765697E+03  0.53014461833E+03 -0.19714581793E+04  0.20712677384E+04  0.10100000352E+00 0. -1.
       -3    1    3    3    0  502  0.34992765697E+03 -0.53014461833E+03  0.49545893769E+03  0.80559434618E+03  0.10100000352E+00 0.  1.
</event>
<event>
 5   0  0.8237664E-06  0.3211738E+04  0.7818609E-02  0.8185724E-01
       -2   -1    0    0    0  501  0.00000000000E+00  0.00000000000E+00  0.10481846862E+04  0.10481846862E+04  0.25500000920E-02 0. -1.
        2   -1    0    0  501    0  0.00000000000E+00  0.00000000000E+00 -0.24602676443E+04  0.24602676443E+04  0.25500000920E-02 0.  1.
    10030    2    1    2    0    0  0.00000000000E+00  0.00000000000E+00 -0.14120829581E+04  0.35084523304E+04  0.32117377655E+04 0.  0.
        5    1    3    3  502    0  0.10924854077E+03 -0.13648677132E+04  0.21051635932E+03  0.13853296884E+04  0.46999998093E+01 0. -1.
       -5    1    3    3    0  502 -0.10924854077E+03  0.13648677132E+04 -0.16225993174E+04  0.21231226420E+04  0.46999998093E+01 0.  1.
</event>
<event>
 5   0  0.2933646E-06  0.2788591E+04  0.7818609E-02  0.8306819E-01
        1   -1    0    0  501    0  0.00000000000E+00  0.00000000000E+00  0.17795841430E+04  0.17795841430E+04  0.50400001928E-02 0.  1.
       -1   -1    0    0    0  501  0.00000000000E+00  0.00000000000E+00 -0.10924235508E+04  0.10924235508E+04  0.50400001928E-02 0. -1.
    10030    2    1    2    0    0  0.00000000000E+00  0.00000000000E+00  0.68716059214E+03  0.28720076938E+04  0.27885907756E+04 0.  0.
        2    1    3    3  502    0  0.60712862850E+02  0.34523618667E+03 -0.10463016405E+04  0.11034587438E+04  0.25500000920E-02 0. -1.
       -2    1    3    3    0  502 -0.60712862850E+02 -0.34523618667E+03  0.17334622327E+04  0.17685489500E+04  0.25500000920E-02 0.  1.
</event>
<event>
 5   0  0.7971763E-06  0.3145312E+04  0.7818609E-02  0.8203411E-01
       -2   -1    0    0    0  501  0.00000000000E+00  0.00000000000E+00  0.32244117179E+04  0.32244117179E+04  0.25500000920E-02 0.  1.
        2   -1    0    0  501    0  0.00000000000E+00  0.00000000000E+00 -0.76703833854E+03  0.76703833854E+03  0.25500000920E-02 0. -1.
    10030    2    1    2    0    0  0.00000000000E+00  0.00000000000E+00  0.24573733794E+04  0.39914500565E+04  0.31453123259E+04 0.  0.
        1    1    3    3  502    0 -0.51470702681E+03  0.66772908608E+03 -0.45602968719E+03  0.95851370959E+03  0.50400001928E-02 0. -1.
       -1    1    3    3    0  502  0.51470702681E+03 -0.66772908608E+03  0.29134030666E+04  0.30329363469E+04  0.50400001928E-02 0.  1.
</event>
<event>
 5   0  0.2933646E-06  0.3173498E+04  0.7818609E-02  0.8195852E-01
        1   -1    0    0  501    0  0.00000000000E+00  0.00000000000E+00  0.17816409093E+04  0.17816409093E+04  0.50400001928E-02 0. -1.
       -1   -1    0    0    0  501  0.00000000000E+00  0.00000000000E+00 -0.14131757360E+04  0.14131757360E+04  0.50400001928E-02 0.  1.
    10030    2    1    2    0    0  0.00000000000E+00  0.00000000000E+00  0.36846517332E+03  0.31948166453E+04  0.31734975679E+04 0.  0.
        2    1    3    3  502    0 -0.45370384144E+03  0.14594368343E+04 -0.24521093956E+03  0.15478796639E+04  0.25500000920E-02 0.  1.
       -2    1    3    3    0  502  0.45370384144E+03 -0.14594368343E+04  0.61367611288E+03  0.16469369814E+04  0.25500000920E-02 0. -1.
</event>
<event>
 5   0  0.7941434E-06  0.3351325E+04  0.7818609E-02  0.8149957E-01
       -2   -1    0    0    0  501  0.00000000000E+00  0.00000000000E+00  0.11450368874E+04  0.11450368874E+04  0.25500000920E-02 0. -1.
        2   -1    0    0  501    0  0.00000000000E+00  0.00000000000E+00 -0.24521870541E+04  0.24521870541E+04  0.25500000920E-02 0.  1.
    10030    2    1    2    0    0  0.00000000000E+00  0.00000000000E+00 -0.13071501666E+04  0.35972239415E+04  0.33513248913E+04 0.  0.
        4    1    3    3  502    0  0.76851357875E+03 -0.20954004600E+03 -0.22359634004E+04  0.23736162480E+04  0.12699999809E+01 0.  1.
       -4    1    3    3    0  502 -0.76851357875E+03  0.20954004600E+03  0.92881323379E+03  0.12236076936E+04  0.12699999809E+01 0. -1.
</event>
<event>
 5   0  0.3938696E-06  0.2355144E+04  0.7818609E-02  0.8456490E-01
       -1   -1    0    0    0  501  0.00000000000E+00  0.00000000000E+00  0.11565434431E+04  0.11565434432E+04  0.50400001928E-02 0. -1.
        1   -1    0    0  501    0  0.00000000000E+00  0.00000000000E+00 -0.11989829080E+04  0.11989829080E+04  0.50400001928E-02 0.  1.
    10030    2    1    2    0    0  0.00000000000E+00  0.00000000000E+00 -0.42439464847E+02  0.23555263512E+04  0.23551440047E+04 0.  0.
        4    1    3    3  502    0 -0.89634629564E+03  0.76213293445E+03 -0.70124667817E+02  0.11786442947E+04  0.12699999809E+01 0. -1.
       -4    1    3    3    0  502  0.89634629564E+03 -0.76213293445E+03  0.27685202969E+02  0.11768820565E+04  0.12699999809E+01 0.  1.
</event>
<event>
 5   0  0.2933646E-06  0.3176464E+04  0.7818609E-02  0.8195061E-01
       -1   -1    0    0    0  501  0.00000000000E+00  0.00000000000E+00  0.17483621265E+04  0.17483621265E+04  0.50400001928E-02 0. -1.
        1   -1    0    0  501    0  0.00000000000E+00  0.00000000000E+00 -0.14427676936E+04  0.14427676936E+04  0.50400001928E-02 0.  1.
    10030    2    1    2    0    0  0.00000000000E+00  0.00000000000E+00  0.30559443292E+03  0.31911298201E+04  0.31764636896E+04 0.  0.
        2    1    3    3  502    0  0.89939940103E+03 -0.12011999117E+03 -0.11567289317E+04  0.14701598268E+04  0.25500000920E-02 0.  1.
       -2    1    3    3    0  502 -0.89939940103E+03  0.12011999117E+03  0.14623233647E+04  0.17209699933E+04  0.25500000920E-02 0. -1.
</event>
<event>
 5   0  0.4142886E-06  0.3185658E+04  0.7818609E-02  0.8192615E-01
       -1   -1    0    0    0  501  0.00000000000E+00  0.00000000000E+00  0.16806154213E+04  0.16806154213E+04  0.50400001928E-02 0.  1.
        1   -1    0    0  501    0  0.00000000000E+00  0.00000000000E+00 -0.15096281428E+04  0.15096281428E+04  0.50400001928E-02 0. -1.
    10030    2    1    2    0    0  0.00000000000E+00  0.00000000000E+00  0.17098727857E+03  0.31902435641E+04  0.31856580716E+04 0.  0.
        5    1    3    3  502    0  0.65855271725E+03  0.98215010570E+02  0.15345541145E+04  0.16727869829E+04  0.46999998093E+01 0.  1.
       -5    1    3    3    0  502 -0.65855271725E+03 -0.98215010570E+02 -0.13635668360E+04  0.15174565812E+04  0.46999998093E+01 0. -1.
</event>
<event>
 5   0  0.2933646E-06  0.3246989E+04  0.7818609E-02  0.8176517E-01
        1   -1    0    0  501    0  0.00000000000E+00  0.00000000000E+00  0.25341801389E+04  0.25341801389E+04  0.50400001928E-02 0. -1.
       -1   -1    0    0    0  501  0.00000000000E+00  0.00000000000E+00 -0.10400735667E+04  0.10400735667E+04  0.50400001928E-02 0.  1.
    10030    2    1    2    0    0  0.00000000000E+00  0.00000000000E+00  0.14941065722E+04  0.35742537057E+04  0.32469886208E+04 0.  0.
        2    1    3    3  502    0 -0.51202375820E+03 -0.42604854655E+03 -0.88272920414E+03  0.11058465268E+04  0.25500000920E-02 0.  1.
       -2    1    3    3    0  502  0.51202375820E+03  0.42604854655E+03  0.23768357764E+04  0.24684071789E+04  0.25500000920E-02 0. -1.
</event>
<event>
 5   0  0.2788054E-06  0.3165810E+04  0.7818609E-02  0.8197905E-01
        1   -1    0    0  501    0  0.00000000000E+00  0.00000000000E+00  0.21692791239E+04  0.21692791239E+04  0.50400001928E-02 0. -1.
       -1   -1    0    0    0  501  0.00000000000E+00  0.00000000000E+00 -0.11550326651E+04  0.11550326651E+04  0.50400001928E-02 0.  1.
    10030    2    1    2    0    0  0.00000000000E+00  0.00000000000E+00  0.10142464589E+04  0.33243117890E+04  0.31658100056E+04 0.  0.
        3    1    3    3  502    0  0.34434504643E+03  0.25135380709E+03 -0.10936125014E+04  0.11737719373E+04  0.10100000352E+00 0.  1.
       -3    1    3    3    0  502 -0.34434504643E+03 -0.25135380709E+03  0.21078589603E+04  0.21505398517E+04  0.10100000352E+00 0. -1.
</event>
<event>
 5   0  0.4142886E-06  0.3248932E+04  0.7818609E-02  0.8176013E-01
        1   -1    0    0  501    0  0.00000000000E+00  0.00000000000E+00  0.13410579522E+04  0.13410579522E+04  0.50400001928E-02 0.  1.
       -1   -1    0    0    0  501  0.00000000000E+00  0.00000000000E+00 -0.19677673334E+04  0.19677673334E+04  0.50400001928E-02 0. -1.
    10030    2    1    2    0    0  0.00000000000E+00  0.00000000000E+00 -0.62670938121E+03  0.33088252857E+04  0.32489321511E+04 0.  0.
        5    1    3    3  502    0 -0.16121954209E+04 -0.83387081614E+02 -0.49763357864E+03  0.16893160596E+04  0.46999998093E+01 0.  1.
       -5    1    3    3    0  502  0.16121954209E+04  0.83387081614E+02 -0.12907580257E+03  0.16195092261E+04  0.46999998093E+01 0. -1.
</event>
<event>
 5   0  0.2580875E-06  0.3216477E+04  0.7818609E-02  0.8184479E-01
       -3   -1    0    0    0  501  0.00000000000E+00  0.00000000000E+00  0.16098506195E+04  0.16098506226E+04  0.10100000352E+00 0. -1.
        3   -1    0    0  501    0  0.00000000000E+00  0.00000000000E+00 -0.16066282100E+04  0.16066282132E+04  0.10100000352E+00 0.  1.
    10030    2    1    2    0    0  0.00000000000E+00  0.00000000000E+00  0.32224094170E+01  0.32164788358E+04  0.32164772217E+04 0.  0.
        4    1    3    3  502    0  0.98046463024E+03 -0.12570053012E+04 -0.21065429689E+03  0.16080267610E+04  0.12699999809E+01 0. -1.
       -4    1    3    3    0  502 -0.98046463024E+03  0.12570053012E+04  0.21387670631E+03  0.16084520748E+04  0.12699999809E+01 0.  1.
</event>
<event>
 5   0  0.7941434E-06  0.3241382E+04  0.7818609E-02  0.8177973E-01
       -2   -1    0    0    0  501  0.00000000000E+00  0.00000000000E+00  0.15321870977E+04  0.15321870977E+04  0.25500000920E-02 0. -1.
        2   -1    0    0  501    0  0.00000000000E+00  0.00000000000E+00 -0.17143069296E+04  0.17143069296E+04  0.25500000920E-02 0.  1.
    10030    2    1    2    0    0  0.00000000000E+00  0.00000000000E+00 -0.18211983190E+03  0.32464940273E+04  0.32413817789E+04 0.  0.
        4    1    3    3  502    0  0.87538507650E+03  0.45039562653E+03 -0.13805227956E+04  0.16955825119E+04  0.12699999809E+01 0.  1.
       -4    1    3    3    0  502 -0.87538507650E+03 -0.45039562653E+03  0.11984029637E+04  0.15509115155E+04  0.12699999809E+01 0. -1.
</event>
<event>
 5   0  0.3938696E-06  0.3202963E+04  0.7818609E-02  0.8188035E-01
       -1   -1    0    0    0  501  0.00000000000E+00  0.00000000000E+00  0.12796954024E+04  0.12796954024E+04  0.50400001928E-02 0.  1.
        1   -1    0    0  501    0  0.00000000000E+00  0.00000000000E+00 -0.20041822205E+04  0.20041822205E+04  0.50400001928E-02 0. -1.
    10030    2    1    2    0    0  0.00000000000E+00  0.00000000000E+00 -0.72448681816E+03  0.32838776229E+04  0.32029628615E+04 0.  0.
        4    1    3    3  502    0  0.68939482781E+03 -0.30904056082E+03 -0.18099960184E+04  0.19613409944E+04  0.12699999809E+01 0. -1.
       -4    1    3    3    0  502 -0.68939482781E+03  0.30904056082E+03  0.10855092003E+04  0.13225366285E+04  0.12699999809E+01 0.  1.
</event>
<event>
 5   0  0.7510251E-06  0.2220558E+04  0.7818609E-02  0.8509920E-01
        2   -1    0    0  501    0  0.00000000000E+00  0.00000000000E+00  0.14398308379E+04  0.14398308379E+04  0.25500000920E-02 0. -1.
       -2   -1    0    0    0  501  0.00000000000E+00  0.00000000000E+00 -0.85615550250E+03  0.85615550250E+03  0.25500000920E-02 0.  1.
    10030    2    1    2    0    0  0.00000000000E+00  0.00000000000E+00  0.58367533536E+03  0.22959863404E+04  0.22205576728E+04 0.  0.
        3    1    3    3  502    0 -0.97577768985E+03 -0.39513531155E+03  0.65658833126E+03  0.12407184457E+04  0.10100000352E+00 0. -1.
       -3    1    3    3    0  502  0.97577768985E+03  0.39513531155E+03 -0.72912995899E+02  0.10552678947E+04  0.10100000352E+00 0.  1.
</event>
<event>
 5   0  0.7971763E-06  0.3185442E+04  0.7818609E-02  0.8192673E-01
       -2   -1    0    0    0  501  0.00000000000E+00  0.00000000000E+00  0.13768205856E+04  0.13768205856E+04  0.25500000920E-02 0.  1.
        2   -1    0    0  501    0  0.00000000000E+00  0.00000000000E+00 -0.18424765045E+04  0.18424765045E+04  0.25500000920E-02 0. -1.
    10030    2    1    2    0    0  0.00000000000E+00  0.00000000000E+00 -0.46565591891E+03  0.32192970900E+04  0.31854416207E+04 0.  0.
        1    1    3    3  502    0  0.29228677494E+02  0.14296254633E+04 -0.94176493882E+03  0.17121928866E+04  0.50400001928E-02 0. -1.
       -1    1    3    3    0  502 -0.29228677494E+02 -0.14296254633E+04  0.47610901992E+03  0.15071042034E+04  0.50400001928E-02 0.  1.
</event>
<event>
 5   0  0.3938696E-06  0.1700595E+04  0.7818609E-02  0.8761025E-01
       -1   -1    0    0    0  501  0.00000000000E+00  0.00000000000E+00  0.11135755194E+04  0.11135755194E+04  0.50400001928E-02 0.  1.
        1   -1    0    0  501    0  0.00000000000E+00  0.00000000000E+00 -0.64926492171E+03  0.64926492173E+03  0.50400001928E-02 0. -1.
    10030    2    1    2    0    0  0.00000000000E+00  0.00000000000E+00  0.46431059765E+03  0.17628404411E+04  0.17005946283E+04 0.  0.
        4    1    3    3  502    0  0.20099919131E+03 -0.41017090578E+03 -0.51128669507E+03  0.68560669798E+03  0.12699999809E+01 0. -1.
       -4    1    3    3    0  502 -0.20099919131E+03  0.41017090578E+03  0.97559729273E+03  0.10772337431E+04  0.12699999809E+01 0.  1.
</event>
<event>
 5   0  0.7971763E-06  0.3172896E+04  0.7818609E-02  0.8196012E-01
        2   -1    0    0  501    0  0.00000000000E+00  0.00000000000E+00  0.19300943553E+04  0.19300943553E+04  0.25500000920E-02 0.  1.
       -2   -1    0    0    0  501  0.00000000000E+00  0.00000000000E+00 -0.13039863722E+04  0.13039863722E+04  0.25500000920E-02 0. -1.
    10030    2    1    2    0    0  0.00000000000E+00  0.00000000000E+00  0.62610798313E+03  0.32340807275E+04  0.31728956720E+04 0.  0.
        1    1    3    3  502    0 -0.11884417941E+04  0.71144560553E+03  0.11014473318E+04  0.17696708655E+04  0.50400001928E-02 0.  1.
       -1    1    3    3    0  502  0.11884417941E+04 -0.71144560553E+03 -0.47533934865E+03  0.14644098620E+04  0.50400001928E-02 0. -1.
</event>
<event>
 5   0  0.7510251E-06  0.1775686E+04  0.7818609E-02  0.8719337E-01
        2   -1    0    0  501    0  0.00000000000E+00  0.00000000000E+00  0.19952783049E+04  0.19952783049E+04  0.25500000920E-02 0. -1.
       -2   -1    0    0    0  501  0.00000000000E+00  0.00000000000E+00 -0.39506546331E+03  0.39506546332E+03  0.25500000920E-02 0.  1.
    10030    2    1    2    0    0  0.00000000000E+00  0.00000000000E+00  0.16002128416E+04  0.23903437683E+04  0.17756864002E+04 0.  0.
        3    1    3    3  502    0 -0.46566927665E+03 -0.38318388984E+03 -0.77051591894E+02  0.60795947781E+03  0.10100000352E+00 0.  1.
       -3    1    3    3    0  502  0.46566927665E+03  0.38318388984E+03  0.16772644335E+04  0.17823842904E+04  0.10100000352E+00 0. -1.
</event>
<event>
 5   0  0.2933646E-06  0.3173967E+04  0.7818609E-02  0.8195726E-01
       -1   -1    0    0    0  501  0.00000000000E+00  0.00000000000E+00  0.16624673364E+04  0.16624673364E+04  0.50400001928E-02 0. -1.
        1   -1    0    0  501    0  0.00000000000E+00  0.00000000000E+00 -0.15149273699E+04  0.15149273699E+04  0.50400001928E-02 0.  1.
    10030    2    1    2    0    0  0.00000000000E+00  0.00000000000E+00  0.14753996648E+03  0.31773947063E+04  0.31739674034E+04 0.  0.
        2    1    3    3  502    0 -0.16355990816E+03  0.10628216879E+04 -0.10946130334E+04  0.15344443544E+04  0.25500000920E-02 0.  1.
       -2    1    3    3    0  502  0.16355990816E+03 -0.10628216879E+04  0.12421529999E+04  0.16429503519E+04  0.25500000920E-02 0. -1.
</event>
<event>
 5   0  0.7510251E-06  0.2430695E+04  0.7818609E-02  0.8428100E-01
        2   -1    0    0  501    0  0.00000000000E+00  0.00000000000E+00  0.20589690040E+04  0.20589690040E+04  0.25500000920E-02 0.  1.
       -2   -1    0    0    0  501  0.00000000000E+00  0.00000000000E+00 -0.71738316259E+03  0.71738316259E+03  0.25500000920E-02 0. -1.
    10030    2    1    2    0    0  0.00000000000E+00  0.00000000000E+00  0.13415858414E+04  0.27763521665E+04  0.24306951234E+04 0.  0.
        3    1    3    3  502    0 -0.72548254245E+03 -0.49927925677E+03 -0.28584383636E+03  0.92591112134E+03  0.10100000352E+00 0. -1.
       -3    1    3    3    0  502  0.72548254245E+03  0.49927925677E+03  0.16274296777E+04  0.18504410452E+04  0.10100000352E+00 0.  1.
</event>
<event>
 5   0  0.2635798E-06  0.3212908E+04  0.7818609E-02  0.8185417E-01
        1   -1    0    0  501    0  0.00000000000E+00  0.00000000000E+00  0.19476716051E+04  0.19476716051E+04  0.50400001928E-02 0. -1.
       -1   -1    0    0    0  501  0.00000000000E+00  0.00000000000E+00 -0.13250149941E+04  0.13250149941E+04  0.50400001928E-02 0.  1.
    10030    2    1    2    0    0  0.00000000000E+00  0.00000000000E+00  0.62265661102E+03  0.32726865993E+04  0.32129077674E+04 0.  0.
        1    1    3    3  502    0 -0.18143993920E+03 -0.15211517572E+04  0.80392819399E+03  0.17300646407E+04  0.50400001928E-02 0. -1.
       -1    1    3    3    0  502  0.18143993920E+03  0.15211517572E+04 -0.18127158297E+03  0.15426219585E+04  0.50400001928E-02 0.  1.
</event>
<event>
 5   0  0.2933646E-06  0.3181502E+04  0.7818609E-02  0.8193720E-01
       -1   -1    0    0    0  501  0.00000000000E+00  0.00000000000E+00  0.12665421827E+04  0.12665421828E+04  0.50400001928E-02 0. -1.
        1   -1    0    0  501    0  0.00000000000E+00  0.00000000000E+00 -0.19979507676E+04  0.19979507676E+04  0.50400001928E-02 0.  1.
    10030    2    1    2    0    0  0.00000000000E+00  0.00000000000E+00 -0.73140858483E+03  0.32644929503E+04  0.31815021145E+04 0.  0.
        2    1    3    3  502    0 -0.30069619623E+02  0.30976143733E+03  0.12349996910E+04  0.12736092678E+04  0.25500000920E-02 0. -1.
       -2    1    3    3    0  502  0.30069619623E+02 -0.30976143733E+03 -0.19664082759E+04  0.19908836826E+04  0.25500000920E-02 0.  1.
</event>
<event>
 5   0  0.2635798E-06  0.3153223E+04  0.7818609E-02  0.8201281E-01
        1   -1    0    0  501    0  0.00000000000E+00  0.00000000000E+00  0.17730005133E+04  0.17730005133E+04  0.50400001928E-02 0. -1.
       -1   -1    0    0    0  501  0.00000000000E+00  0.00000000000E+00 -0.14019760590E+04  0.14019760591E+04  0.50400001928E-02 0.  1.
    10030    2    1    2    0    0  0.00000000000E+00  0.00000000000E+00  0.37102445427E+03  0.31749765724E+04  0.31532232857E+04 0.  0.
        1    1    3    3  502    0  0.48505917840E+03  0.17855058761E+03  0.16852646898E+04  0.17627477964E+04  0.50400001928E-02 0. -1.
       -1    1    3    3    0  502 -0.48505917840E+03 -0.17855058761E+03 -0.13142402356E+04  0.14122287760E+04  0.50400001928E-02 0.  1.
</event>
<event>
 5   0  0.7971763E-06  0.1891584E+04  0.7818609E-02  0.8659057E-01
        2   -1    0    0  501    0  0.00000000000E+00  0.00000000000E+00  0.47963390045E+03  0.47963390046E+03  0.25500000920E-02 0. -1.
       -2   -1    0    0    0  501  0.00000000000E+00  0.00000000000E+00 -0.18650116042E+04  0.18650116042E+04  0.25500000920E-02 0.  1.
    10030    2    1    2    0    0  0.00000000000E+00  0.00000000000E+00 -0.13853777037E+04  0.23446455046E+04  0.18915842991E+04 0.  0.
        1    1    3    3  502    0 -0.35427685139E+03 -0.13504394929E+02 -0.17795302664E+04  0.18145033550E+04  0.50400001928E-02 0.  1.
       -1    1    3    3    0  502  0.35427685139E+03  0.13504394929E+02  0.39415256270E+03  0.53014214964E+03  0.50400001928E-02 0. -1.
</event>
<event>
 5   0  0.2635798E-06  0.3317534E+04  0.7818609E-02  0.8158448E-01
       -1   -1    0    0    0  501  0.00000000000E+00  0.00000000000E+00  0.25980376031E+04  0.25980376031E+04  0.50400001928E-02 0. -1.
        1   -1    0    0  501    0  0.00000000000E+00  0.00000000000E+00 -0.10590716360E+04  0.10590716360E+04  0.50400001928E-02 0.  1.
    10030    2    1    2    0    0  0.00000000000E+00  0.00000000000E+00  0.15389659670E+04  0.36571092391E+04  0.33175339846E+04 0.  0.
        1    1    3    3  502    0 -0.11933979936E+04 -0.40654147629E+03  0.19577986402E+04  0.23286155240E+04  0.50400001928E-02 0. -1.
       -1    1    3    3    0  502  0.11933979936E+04  0.40654147629E+03 -0.41883267315E+03  0.13284937151E+04  0.50400001928E-02 0.  1.
</event>
<event>
 5   0  0.3938696E-06  0.3083459E+04  0.7818609E-02  0.8220292E-01
       -1   -1    0    0    0  501  0.00000000000E+00  0.00000000000E+00  0.11307487540E+04  0.11307487540E+04  0.50400001928E-02 0. -1.
        1   -1    0    0  501    0  0.00000000000E+00  0.00000000000E+00 -0.21020851077E+04  0.21020851077E+04  0.50400001928E-02 0.  1.
    10030    2    1    2    0    0  0.00000000000E+00  0.00000000000E+00 -0.97133635374E+03  0.32328338618E+04  0.30834591720E+04 0.  0.
        4    1    3    3  502    0 -0.15315426595E+04 -0.12211516820E+03 -0.35142857807E+03  0.15760833387E+04  0.12699999809E+01 0.  1.
       -4    1    3    3    0  502  0.15315426595E+04  0.12211516820E+03 -0.61990777567E+03  0.16567505230E+04  0.12699999809E+01 0. -1.
</event>
<event>
 5   0  0.7952307E-06  0.2577747E+04  0.7818609E-02  0.8375800E-01
       -2   -1    0    0    0  501  0.00000000000E+00  0.00000000000E+00  0.82491598377E+03  0.82491598377E+03  0.25500000920E-02 0. -1.
        2   -1    0    0  501    0  0.00000000000E+00  0.00000000000E+00 -0.20137744436E+04  0.20137744436E+04  0.25500000920E-02 0.  1.
    10030    2    1    2    0    0  0.00000000000E+00  0.00000000000E+00 -0.11888584599E+04  0.28386904274E+04  0.25777468660E+04 0.  0.
        2    1    3    3  502    0 -0.26349129376E+03  0.42471772418E+03  0.71384877645E+03  0.87143151352E+03  0.25500000920E-02 0. -1.
       -2    1    3    3    0  502  0.26349129376E+03 -0.42471772418E+03 -0.19027072363E+04  0.19672589139E+04  0.25500000920E-02 0.  1.
</event>
<event>
 5   0  0.7952307E-06  0.3183420E+04  0.7818609E-02  0.8193210E-01
        2   -1    0    0  501    0  0.00000000000E+00  0.00000000000E+00  0.21903697584E+04  0.21903697584E+04  0.25500000920E-02 0.  1.
       -2   -1    0    0    0  501  0.00000000000E+00  0.00000000000E+00 -0.11566725320E+04  0.11566725320E+04  0.25500000920E-02 0. -1.
    10030    2    1    2    0    0  0.00000000000E+00  0.00000000000E+00  0.10336972265E+04  0.33470422904E+04  0.31834198808E+04 0.  0.
        2    1    3    3  502    0 -0.12091372711E+03 -0.30836033576E+03 -0.11200385384E+04  0.11679865383E+04  0.25500000920E-02 0. -1.
       -2    1    3    3    0  502  0.12091372711E+03  0.30836033576E+03  0.21537357649E+04  0.21790557521E+04  0.25500000920E-02 0.  1.
</event>
<event>
 5   0  0.2580875E-06  0.3152728E+04  0.7818609E-02  0.8201414E-01
        4   -1    0    0  501    0  0.00000000000E+00  0.00000000000E+00  0.12766684184E+04  0.12766690501E+04  0.12699999809E+01 0.  1.
       -4   -1    0    0    0  501  0.00000000000E+00  0.00000000000E+00 -0.19464114141E+04  0.19464118285E+04  0.12699999809E+01 0. -1.
    10030    2    1    2    0    0  0.00000000000E+00  0.00000000000E+00 -0.66974299575E+03  0.32230808785E+04  0.31527281312E+04 0.  0.
        5    1    3    3  502    0 -0.23679037974E+03 -0.61842583418E+02 -0.19268647214E+04  0.19423501058E+04  0.46999998093E+01 0. -1.
       -5    1    3    3    0  502  0.23679037974E+03  0.61842583418E+02  0.12571217256E+04  0.12807307727E+04  0.46999998093E+01 0.  1.
</event>
<event>
 5   0  0.7971763E-06  0.1969619E+04  0.7818609E-02  0.8620958E-01
        2   -1    0    0  501    0  0.00000000000E+00  0.00000000000E+00  0.12238620361E+04  0.12238620361E+04  0.25500000920E-02 0. -1.
       -2   -1    0    0    0  501  0.00000000000E+00  0.00000000000E+00 -0.79245041631E+03  0.79245041632E+03  0.25500000920E-02 0.  1.
    10030    2    1    2    0    0  0.00000000000E+00  0.00000000000E+00  0.43141161975E+03  0.20163124524E+04  0.19696192322E+04 0.  0.
        1    1    3    3  502    0 -0.36836501162E+03 -0.90982967101E+03  0.13401960709E+03  0.99067858922E+03  0.50400001928E-02 0.  1.
       -1    1    3    3    0  502  0.36836501162E+03  0.90982967101E+03  0.29739201266E+03  0.10256338632E+04  0.50400001928E-02 0. -1.
</event>
<event>
 5   0  0.2788054E-06  0.3075781E+04  0.7818609E-02  0.8222416E-01
       -1   -1    0    0    0  501  0.00000000000E+00  0.00000000000E+00  0.92970483368E+03  0.92970483369E+03  0.50400001928E-02 0. -1.
        1   -1    0    0  501    0  0.00000000000E+00  0.00000000000E+00 -0.25439338650E+04  0.25439338650E+04  0.50400001928E-02 0.  1.
    10030    2    1    2    0    0  0.00000000000E+00  0.00000000000E+00 -0.16142290314E+04  0.34736386987E+04  0.30757812737E+04 0.  0.
        3    1    3    3  502    0 -0.15165699270E+04  0.69894612117E+02 -0.10842961619E+04  0.18656279847E+04  0.10100000352E+00 0.  1.
       -3    1    3    3    0  502  0.15165699270E+04 -0.69894612117E+02 -0.52993286944E+03  0.16080107141E+04  0.10100000352E+00 0. -1.
</event>
<event>
 5   0  0.7941434E-06  0.3179578E+04  0.7818609E-02  0.8194231E-01
       -2   -1    0    0    0  501  0.00000000000E+00  0.00000000000E+00  0.10327587260E+04  0.10327587260E+04  0.25500000920E-02 0.  1.
        2   -1    0    0  501    0  0.00000000000E+00  0.00000000000E+00 -0.24472602708E+04  0.24472602708E+04  0.25500000920E-02 0. -1.
    10030    2    1    2    0    0  0.00000000000E+00  0.00000000000E+00 -0.14145015447E+04  0.34800189968E+04  0.31795782107E+04 0.  0.
        4    1    3    3  502    0  0.89915165108E+03 -0.27146589064E+03 -0.21111289404E+04  0.23106350723E+04  0.12699999809E+01 0. -1.
       -4    1    3    3    0  502 -0.89915165108E+03  0.27146589064E+03  0.69662739572E+03  0.11693839245E+04  0.12699999809E+01 0.  1.
</event>
<event>
 5   0  0.8237664E-06  0.3139647E+04  0.7818609E-02  0.8204941E-01
       -2   -1    0    0    0  501  0.00000000000E+00  0.00000000000E+00  0.17492454160E+04  0.17492454160E+04  0.25500000920E-02 0. -1.
        2   -1    0    0  501    0  0.00000000000E+00  0.00000000000E+00 -0.14088048278E+04  0.14088048278E+04  0.25500000920E-02 0.  1.
    10030    2    1    2    0    0  0.00000000000E+00  0.00000000000E+00  0.34044058821E+03  0.31580502438E+04  0.31396467235E+04 0.  0.
        5    1    3    3  502    0  0.21401397482E+02  0.11131599377E+04 -0.94294650217E+03  0.14590247642E+04  0.46999998093E+01 0.  1.
       -5    1    3    3    0  502 -0.21401397482E+02 -0.11131599377E+04  0.12833870904E+04  0.16990254796E+04  0.46999998093E+01 0. -1.
</event>
<event>
 5   0  0.7510251E-06  0.3103561E+04  0.7818609E-02  0.8214761E-01
        2   -1    0    0  501    0  0.00000000000E+00  0.00000000000E+00  0.17561466442E+04  0.17561466442E+04  0.25500000920E-02 0. -1.
       -2   -1    0    0    0  501  0.00000000000E+00  0.00000000000E+00 -0.13711968546E+04  0.13711968546E+04  0.25500000920E-02 0.  1.
    10030    2    1    2    0    0  0.00000000000E+00  0.00000000000E+00  0.38494978953E+03  0.31273434988E+04  0.31035610223E+04 0.  0.
        3    1    3    3  502    0  0.14040328284E+04  0.20248075998E+03 -0.44140526458E+03  0.14856464113E+04  0.10100000352E+00 0.  1.
       -3    1    3    3    0  502 -0.14040328284E+04 -0.20248075998E+03  0.82635505411E+03  0.16416970875E+04  0.10100000352E+00 0. -1.
</event>
<event>
 5   0  0.2635798E-06  0.2961382E+04  0.7818609E-02  0.8254845E-01
        1   -1    0    0  501    0  0.00000000000E+00  0.00000000000E+00  0.18393957604E+04  0.18393957604E+04  0.50400001928E-02 0. -1.
       -1   -1    0    0    0  501  0.00000000000E+00  0.00000000000E+00 -0.11919383831E+04  0.11919383831E+04  0.50400001928E-02 0.  1.
    10030    2    1    2    0    0  0.00000000000E+00  0.00000000000E+00  0.64745737723E+03  0.30313341435E+04  0.29613823857E+04 0.  0.
        1    1    3    3  502    0  0.75729584512E+03 -0.95938614546E+03  0.11792505637E+04  0.16983964982E+04  0.50400001928E-02 0. -1.
       -1    1    3    3    0  502 -0.75729584512E+03  0.95938614546E+03 -0.53179318643E+03  0.13329376453E+04  0.50400001928E-02 0.  1.
</event>
<event>
 5   0  0.2933646E-06  0.3233389E+04  0.7818609E-02  0.8180054E-01
        1   -1    0    0  501    0  0.00000000000E+00  0.00000000000E+00  0.13071817308E+04  0.13071817308E+04  0.50400001928E-02 0.  1.
       -1   -1    0    0    0  501  0.00000000000E+00  0.00000000000E+00 -0.19994937935E+04  0.19994937935E+04  0.50400001928E-02 0. -1.
    10030    2    1    2    0    0  0.00000000000E+00  0.00000000000E+00 -0.69231206265E+03  0.33066755243E+04  0.32333894029E+04 0.  0.
        2    1    3    3  502    0  0.81175548349E+03  0.97959170211E+03  0.67402891492E+03  0.14397436737E+04  0.25500000920E-02 0.  1.
       -2    1    3    3    0  502 -0.81175548349E+03 -0.97959170211E+03 -0.13663409776E+04  0.18669318506E+04  0.25500000920E-02 0. -1.
</event>
<event>
 5   0  0.2933646E-06  0.2847948E+04  0.7818609E-02  0.8288535E-01
       -1   -1    0    0    0  501  0.00000000000E+00  0.00000000000E+00  0.10091518115E+04  0.10091518115E+04  0.50400001928E-02 0.  1.
        1   -1    0    0  501    0  0.00000000000E+00  0.00000000000E+00 -0.20093124119E+04  0.20093124119E+04  0.50400001928E-02 0. -1.
    10030    2    1    2    0    0  0.00000000000E+00  0.00000000000E+00 -0.10001606004E+04  0.30184642234E+04  0.28479475138E+04 0.  0.
        2    1    3    3  502    0  0.65900600981E+03  0.10721118265E+04  0.20613959302E+03  0.12752279095E+04  0.25500000920E-02 0.  1.
       -2    1    3    3    0  502 -0.65900600981E+03 -0.10721118265E+04 -0.12063001934E+04  0.17432363139E+04  0.25500000920E-02 0. -1.
</event>
<event>
 5   0  0.7952307E-06  0.3168507E+04  0.7818609E-02  0.8197184E-01
       -2   -1    0    0    0  501  0.00000000000E+00  0.00000000000E+00  0.15438045618E+04  0.15438045618E+04  0.25500000920E-02 0. -1.
        2   -1    0    0  501    0  0.00000000000E+00  0.00000000000E+00 -0.16257626748E+04  0.16257626748E+04  0.25500000920E-02 0.  1.
    10030    2    1    2    0    0  0.00000000000E+00  0.00000000000E+00 -0.81958112947E+02  0.31695672366E+04  0.31685074301E+04 0.  0.
        2    1    3    3  502    0 -0.34468481459E+03 -0.41955569845E+03  0.14478148329E+04  0.15462866474E+04  0.25500000920E-02 0. -1.
       -2    1    3    3    0  502  0.34468481459E+03  0.41955569845E+03 -0.15297729458E+04  0.16232805892E+04  0.25500000920E-02 0.  1.
</event>
<event>
 5   0  0.7941434E-06  0.3398412E+04  0.7818609E-02  0.8138296E-01
        2   -1    0    0  501    0  0.00000000000E+00  0.00000000000E+00  0.11556992111E+04  0.11556992111E+04  0.25500000920E-02 0.  1.
       -2   -1    0    0    0  501  0.00000000000E+00  0.00000000000E+00 -0.24983150484E+04  0.24983150484E+04  0.25500000920E-02 0. -1.
    10030    2    1    2    0    0  0.00000000000E+00  0.00000000000E+00 -0.13426158373E+04  0.36540142595E+04  0.33984118235E+04 0.  0.
        4    1    3    3  502    0  0.35293428868E+02  0.16973796828E+04 -0.59561645396E+03  0.17991953721E+04  0.12699999809E+01 0. -1.
       -4    1    3    3    0  502 -0.35293428868E+02 -0.16973796828E+04 -0.74699938329E+03  0.18548188875E+04  0.12699999809E+01 0.  1.
</event>
<event>
 5   0  0.8237664E-06  0.3329677E+04  0.7818609E-02  0.8155385E-01
        2   -1    0    0  501    0  0.00000000000E+00  0.00000000000E+00  0.31567861072E+04  0.31567861072E+04  0.25500000920E-02 0.  1.
       -2   -1    0    0    0  501  0.00000000000E+00  0.00000000000E+00 -0.87800940093E+03  0.87800940094E+03  0.25500000920E-02 0. -1.
    10030    2    1    2    0    0  0.00000000000E+00  0.00000000000E+00  0.22787767063E+04  0.40347955082E+04  0.33296773891E+04 0.  0.
        5    1    3    3  502    0 -0.13568608331E+04  0.25214203567E+03  0.22677118822E+04  0.26546536868E+04  0.46999998093E+01 0.  1.
       -5    1    3    3    0  502  0.13568608331E+04 -0.25214203567E+03  0.11064824131E+02  0.13801418213E+04  0.46999998093E+01 0. -1.
</event>
<event>
 5   0  0.2635798E-06  0.3261138E+04  0.7818609E-02  0.8172855E-01
       -1   -1    0    0    0  501  0.00000000000E+00  0.00000000000E+00  0.18843890566E+04  0.18843890566E+04  0.50400001928E-02 0.  1.
        1   -1    0    0  501    0  0.00000000000E+00  0.00000000000E+00 -0.14109373047E+04  0.14109373047E+04  0.50400001928E-02 0. -1.
    10030    2    1    2    0    0  0.00000000000E+00  0.00000000000E+00  0.47345175184E+03  0.32953263613E+04  0.32611377257E+04 0.  0.
        1    1    3    3  502    0 -0.12601945266E+04  0.47603628519E+03 -0.69162983879E+03  0.15142828743E+04  0.50400001928E-02 0. -1.
       -1    1    3    3    0  502  0.12601945266E+04 -0.47603628519E+03  0.11650815906E+04  0.17810434870E+04  0.50400001928E-02 0.  1.
</event>
<event>
 5   0  0.3938696E-06  0.2889871E+04  0.7818609E-02  0.8275898E-01
        1   -1    0    0  501    0  0.00000000000E+00  0.00000000000E+00  0.19147538197E+04  0.19147538197E+04  0.50400001928E-02 0.  1.
       -1   -1    0    0    0  501  0.00000000000E+00  0.00000000000E+00 -0.10903952773E+04  0.10903952773E+04  0.50400001928E-02 0. -1.
    10030    2    1    2    0    0  0.00000000000E+00  0.00000000000E+00  0.82435854241E+03  0.30051490970E+04  0.28898709467E+04 0.  0.
        4    1    3    3  502    0  0.35599729712E+02  0.67293384841E+03 -0.91698195721E+03  0.11379652138E+04  0.12699999809E+01 0. -1.
       -4    1    3    3    0  502 -0.35599729712E+02 -0.67293384841E+03  0.17413404996E+04  0.18671838832E+04  0.12699999809E+01 0.  1.
</event>
<event>
 5   0  0.7952307E-06  0.3250478E+04  0.7818609E-02  0.8175612E-01
        2   -1    0    0  501    0  0.00000000000E+00  0.00000000000E+00  0.22290279177E+04  0.22290279177E+04  0.25500000920E-02 0.  1.
       -2   -1    0    0    0  501  0.00000000000E+00  0.00000000000E+00 -0.11850016315E+04  0.11850016315E+04  0.25500000920E-02 0. -1.
    10030    2    1    2    0    0  0.00000000000E+00  0.00000000000E+00  0.10440262862E+04  0.34140295492E+04  0.32504779458E+04 0.  0.
        2    1    3    3  502    0  0.63001290355E+03  0.13810760150E+04 -0.87816834377E+02  0.15205259005E+04  0.25500000920E-02 0. -1.
       -2    1    3    3    0  502 -0.63001290355E+03 -0.13810760150E+04  0.11318431206E+04  0.18935036486E+04  0.25500000920E-02 0.  1.
</event>
<event>
 5   0  0.7971763E-06  0.2784809E+04  0.7818609E-02  0.8308000E-01
       -2   -1    0    0    0  501  0.00000000000E+00  0.00000000000E+00  0.12571426411E+04  0.12571426411E+04  0.25500000920E-02 0. -1.
        2   -1    0    0  501    0  0.00000000000E+00  0.00000000000E+00 -0.15422193781E+04  0.15422193781E+04  0.25500000920E-02 0.  1.
    10030    2    1    2    0    0  0.00000000000E+00  0.00000000000E+00 -0.28507673700E+03  0.27993620191E+04  0.27848086053E+04 0.  0.
        1    1    3    3  502    0 -0.12552457933E+04  0.57086937260E+03 -0.33656495438E+03  0.14194399638E+04  0.50400001928E-02 0.  1.
       -1    1    3    3    0  502  0.12552457933E+04 -0.57086937260E+03  0.51488217374E+02  0.13799220553E+04  0.50400001928E-02 0. -1.
</event>
<event>
 5   0  0.7971763E-06  0.3119438E+04  0.7818609E-02  0.8210424E-01
       -2   -1    0    0    0  501  0.00000000000E+00  0.00000000000E+00  0.12577237551E+04  0.12577237551E+04  0.25500000920E-02 0. -1.
        2   -1    0    0  501    0  0.00000000000E+00  0.00000000000E+00 -0.19342269009E+04  0.19342269009E+04  0.25500000920E-02 0.  1.
    10030    2    1    2    0    0  0.00000000000E+00  0.00000000000E+00 -0.67650314581E+03  0.31919506560E+04  0.31194378475E+04 0.  0.
        1    1    3    3  502    0 -0.10847349637E+04 -0.50680850739E+03 -0.13610970408E+04  0.18127575566E+04  0.50400001928E-02 0.  1.
       -1    1    3    3    0  502  0.10847349637E+04  0.50680850739E+03  0.68459389494E+03  0.13791930994E+04  0.50400001928E-02 0. -1.
</event>
<event>
 5   0  0.2933646E-06  0.1830997E+04  0.7818609E-02  0.8689987E-01
        1   -1    0    0  501    0  0.00000000000E+00  0.00000000000E+00  0.10986054349E+04  0.10986054349E+04  0.50400001928E-02 0. -1.
       -1   -1    0    0    0  501  0.00000000000E+00  0.00000000000E+00 -0.76291060165E+03  0.76291060167E+03  0.50400001928E-02 0.  1.
    10030    2    1    2    0    0  0.00000000000E+00  0.00000000000E+00  0.33569483323E+03  0.18615160366E+04  0.18309972510E+04 0.  0.
        2    1    3    3  502    0  0.79956906709E+03 -0.30994913685E+03  0.49375023905E+03  0.98952941293E+03  0.25500000920E-02 0. -1.
       -2    1    3    3    0  502 -0.79956906709E+03  0.30994913685E+03 -0.15805540583E+03  0.87198662363E+03  0.25500000920E-02 0.  1.
</event>
<event>
 5   0  0.8237664E-06  0.1702071E+04  0.7818609E-02  0.8760184E-01
       -2   -1    0    0    0  501  0.00000000000E+00  0.00000000000E+00  0.64178756113E+03  0.64178756113E+03  0.25500000920E-02 0. -1.
        2   -1    0    0  501    0  0.00000000000E+00  0.00000000000E+00 -0.11285062989E+04  0.11285062989E+04  0.25500000920E-02 0.  1.
    10030    2    1    2    0    0  0.00000000000E+00  0.00000000000E+00 -0.48671873773E+03  0.17702938600E+04  0.17020708625E+04 0.  0.
        5    1    3    3  502    0  0.30205347760E+03  0.79210452359E+03 -0.16571225368E+03  0.86379888901E+03  0.46999998093E+01 0. -1.
       -5    1    3    3    0  502 -0.30205347760E+03 -0.79210452359E+03 -0.32100648405E+03  0.90649497099E+03  0.46999998093E+01 0.  1.
</event>
<event>
 5   0  0.4161360E-06  0.1723513E+04  0.7818609E-02  0.8748066E-01
       -1   -1    0    0    0  501  0.00000000000E+00  0.00000000000E+00  0.75895678814E+03  0.75895678815E+03  0.50400001928E-02 0.  1.
        1   -1    0    0  501    0  0.00000000000E+00  0.00000000000E+00 -0.97848082018E+03  0.97848082019E+03  0.50400001928E-02 0. -1.
    10030    2    1    2    0    0  0.00000000000E+00  0.00000000000E+00 -0.21952403204E+03  0.17374376083E+04  0.17235134587E+04 0.  0.
        4    1    3    3  502    0 -0.53935407160E+03 -0.18377609832E+03  0.54194879606E+03  0.78637559685E+03  0.12699999809E+01 0.  1.
       -4    1    3    3    0  502  0.53935407160E+03  0.18377609832E+03 -0.76147282810E+03  0.95106201149E+03  0.12699999809E+01 0. -1.
</event>
<event>
 5   0  0.2635798E-06  0.3223325E+04  0.7818609E-02  0.8182684E-01
        1   -1    0    0  501    0  0.00000000000E+00  0.00000000000E+00  0.21202484690E+04  0.21202484690E+04  0.50400001928E-02 0. -1.
       -1   -1    0    0    0  501  0.00000000000E+00  0.00000000000E+00 -0.12250715630E+04  0.12250715631E+04  0.50400001928E-02 0.  1.
    10030    2    1    2    0    0  0.00000000000E+00  0.00000000000E+00  0.89517690599E+03  0.33453200321E+04  0.32233250572E+04 0.  0.
        1    1    3    3  502    0 -0.93867899284E+03 -0.17598946559E+03  0.17949390672E+04  0.20331986618E+04  0.50400001928E-02 0. -1.
       -1    1    3    3    0  502  0.93867899284E+03  0.17598946559E+03 -0.89976216117E+03  0.13121213703E+04  0.50400001928E-02 0.  1.
</event>
<event>
 5   0  0.2635798E-06  0.3176320E+04  0.7818609E-02  0.8195099E-01
        1   -1    0    0  501    0  0.00000000000E+00  0.00000000000E+00  0.11014549020E+04  0.11014549020E+04  0.50400001928E-02 0. -1.
       -1   -1    0    0    0  501  0.00000000000E+00  0.00000000000E+00 -0.22899284979E+04  0.22899284980E+04  0.50400001928E-02 0.  1.
    10030    2    1    2    0    0  0.00000000000E+00  0.00000000000E+00 -0.11884735959E+04  0.33913834000E+04  0.31763204935E+04 0.  0.
        1    1    3    3  502    0  0.57421863878E+03  0.14458983318E+04 -0.93507483657E+03  0.18151347006E+04  0.50400001928E-02 0.  1.
       -1    1    3    3    0  502 -0.57421863878E+03 -0.14458983318E+04 -0.25339875937E+03  0.15762486994E+04  0.50400001928E-02 0. -1.
</event>
<event>
 5   0  0.2933646E-06  0.1655436E+04  0.7818609E-02  0.8787197E-01
        1   -1    0    0  501    0  0.00000000000E+00  0.00000000000E+00  0.94120381676E+03  0.94120381677E+03  0.50400001928E-02 0. -1.
       -1   -1    0    0    0  501  0.00000000000E+00  0.00000000000E+00 -0.72791544507E+03  0.72791544509E+03  0.50400001928E-02 0.  1.
    10030    2    1    2    0    0  0.00000000000E+00  0.00000000000E+00  0.21328837168E+03  0.16691192619E+04  0.16554356468E+04 0.  0.
        2    1    3    3  502    0  0.17163989650E+03 -0.63265544169E+03 -0.40290792119E+03  0.76944652506E+03  0.25500000920E-02 0.  1.
       -2    1    3    3    0  502 -0.17163989650E+03  0.63265544169E+03  0.61619629288E+03  0.89967273679E+03  0.25500000920E-02 0. -1.
</event>
<event>
 5   0  0.2788054E-06  0.3189980E+04  0.7818609E-02  0.8191468E-01
        1   -1    0    0  501    0  0.00000000000E+00  0.00000000000E+00  0.24687328770E+04  0.24687328770E+04  0.50400001928E-02 0.  1.
       -1   -1    0    0    0  501  0.00000000000E+00  0.00000000000E+00 -0.10304852534E+04  0.10304852534E+04  0.50400001928E-02 0. -1.
    10030    2    1    2    0    0  0.00000000000E+00  0.00000000000E+00  0.14382476236E+04  0.34992181304E+04  0.31899798271E+04 0.  0.
        3    1    3    3  502    0  0.10217990459E+04  0.87827808843E+03 -0.21716946122E+03  0.13647740750E+04  0.10100000352E+00 0. -1.
       -3    1    3    3    0  502 -0.10217990459E+04 -0.87827808843E+03  0.16554170848E+04  0.21344440554E+04  0.10100000352E+00 0.  1.
</event>
<event>
 5   0  0.7510251E-06  0.3212959E+04  0.7818609E-02  0.8185403E-01
       -2   -1    0    0    0  501  0.00000000000E+00  0.00000000000E+00  0.91633598679E+03  0.91633598679E+03  0.25500000920E-02 0. -1.
        2   -1    0    0  501    0  0.00000000000E+00  0.00000000000E+00 -0.28164077828E+04  0.28164077828E+04  0.25500000920E-02 0.  1.
    10030    2    1    2    0    0  0.00000000000E+00  0.00000000000E+00 -0.19000717960E+04  0.37327437696E+04  0.32129586396E+04 0.  0.
        3    1    3    3  502    0  0.38922512479E+03 -0.15324098141E+04 -0.61938865473E+03  0.16980631178E+04  0.10100000352E+00 0. -1.
       -3    1    3    3    0  502 -0.38922512479E+03  0.15324098141E+04 -0.12806831413E+04  0.20346806518E+04  0.10100000352E+00 0.  1.
</event>
<event>
 5   0  0.2788054E-06  0.2827408E+04  0.7818609E-02  0.8294810E-01
       -1   -1    0    0    0  501  0.00000000000E+00  0.00000000000E+00  0.13162604968E+04  0.13162604968E+04  0.50400001928E-02 0. -1.
        1   -1    0    0  501    0  0.00000000000E+00  0.00000000000E+00 -0.15183610865E+04  0.15183610865E+04  0.50400001928E-02 0.  1.
    10030    2    1    2    0    0  0.00000000000E+00  0.00000000000E+00 -0.20210058971E+03  0.28346215834E+04  0.28274078009E+04 0.  0.
        3    1    3    3  502    0  0.11756026856E+04 -0.27665745900E+03 -0.83775686598E+03  0.14698359095E+04  0.10100000352E+00 0. -1.
       -3    1    3    3    0  502 -0.11756026856E+04  0.27665745900E+03  0.63565627627E+03  0.13647856739E+04  0.10100000352E+00 0.  1.
</event>
<event>
 5   0  0.7941434E-06  0.2581393E+04  0.7818609E-02  0.8374549E-01
       -2   -1    0    0    0  501  0.00000000000E+00  0.00000000000E+00  0.13322836460E+04  0.13322836461E+04  0.25500000920E-02 0. -1.
        2   -1    0    0  501    0  0.00000000000E+00  0.00000000000E+00 -0.12504071990E+04  0.12504071990E+04  0.25500000920E-02 0.  1.
    10030    2    1    2    0    0  0.00000000000E+00  0.00000000000E+00  0.81876447059E+02  0.25826908450E+04  0.25813926955E+04 0.  0.
        4    1    3    3  502    0  0.10029969904E+04  0.28521323427E+03 -0.72006632996E+03  0.12672200615E+04  0.12699999809E+01 0.  1.
       -4    1    3    3    0  502 -0.10029969904E+04 -0.28521323427E+03  0.80194277702E+03  0.13154707835E+04  0.12699999809E+01 0. -1.
</event>
<event>
 5   0  0.7510251E-06  0.3170081E+04  0.7818609E-02  0.8196764E-01
       -2   -1    0    0    0  501  0.00000000000E+00  0.00000000000E+00  0.12931602660E+04  0.12931602660E+04  0.25500000920E-02 0. -1.
        2   -1    0    0  501    0  0.00000000000E+00  0.00000000000E+00 -0.19428008035E+04  0.19428008035E+04  0.25500000920E-02 0.  1.
    10030    2    1    2    0    0  0.00000000000E+00  0.00000000000E+00 -0.64964053743E+03  0.32359610695E+04  0.31700806323E+04 0.  0.
        3    1    3    3  502    0 -0.13146720528E+04  0.19700317923E+03 -0.12059980854E+04  0.17948827960E+04  0.10100000352E+00 0.  1.
       -3    1    3    3    0  502  0.13146720528E+04 -0.19700317923E+03  0.55635754800E+03  0.14410782735E+04  0.10100000352E+00 0. -1.
</event>
<event>
 5   0  0.7952307E-06  0.3204560E+04  0.7818609E-02  0.8187614E-01
       -2   -1    0    0    0  501  0.00000000000E+00  0.00000000000E+00  0.14054548730E+04  0.14054548730E+04  0.25500000920E-02 0. -1.
        2   -1    0    0  501    0  0.00000000000E+00  0.00000000000E+00 -0.18266692842E+04  0.18266692842E+04  0.25500000920E-02 0.  1.
    10030    2    1    2    0    0  0.00000000000E+00  0.00000000000E+00 -0.42121441121E+03  0.32321241572E+04  0.32045600302E+04 0.  0.
        2    1    3    3  502    0  0.21115835982E+02  0.13687354226E+04  0.62927310828E+03  0.15066078390E+04  0.25500000920E-02 0. -1.
       -2    1    3    3    0  502 -0.21115835982E+02 -0.13687354226E+04 -0.10504875195E+04  0.17255163182E+04  0.25500000920E-02 0.  1.
</event>
<event>
 5   0  0.2788054E-06  0.3210038E+04  0.7818609E-02  0.8186171E-01
        1   -1    0    0  501    0  0.00000000000E+00  0.00000000000E+00  0.20564949479E+04  0.20564949479E+04  0.50400001928E-02 0. -1.
       -1   -1    0    0    0  501  0.00000000000E+00  0.00000000000E+00 -0.12526586209E+04  0.12526586209E+04  0.50400001928E-02 0.  1.
    10030    2    1    2    0    0  0.00000000000E+00  0.00000000000E+00  0.80383632697E+03  0.33091535688E+04  0.32100380840E+04 0.  0.
        3    1    3    3  502    0 -0.14023105910E+04  0.17064425551E+03 -0.38350685190E+03  0.14637868599E+04  0.10100000352E+00 0. -1.
       -3    1    3    3    0  502  0.14023105910E+04 -0.17064425551E+03  0.11873431789E+04  0.18453667089E+04  0.10100000352E+00 0.  1.
</event>
<event>
 5   0  0.7971763E-06  0.3072554E+04  0.7818609E-02  0.8223311E-01
        2   -1    0    0  501    0  0.00000000000E+00  0.00000000000E+00  0.28940050579E+04  0.28940050579E+04  0.25500000920E-02 0.  1.
       -2   -1    0    0    0  501  0.00000000000E+00  0.00000000000E+00 -0.81552991196E+03  0.81552991196E+03  0.25500000920E-02 0. -1.
    10030    2    1    2    0    0  0.00000000000E+00  0.00000000000E+00  0.20784751460E+04  0.37095349699E+04  0.30725544357E+04 0.  0.
        1    1    3    3  502    0  0.31531126264E+03  0.66712520507E+03 -0.58757828572E+03  0.94325260321E+03  0.50400001928E-02 0. -1.
       -1    1    3    3    0  502 -0.31531126264E+03 -0.66712520507E+03  0.26660534317E+04  0.27662823667E+04  0.50400001928E-02 0.  1.
</event>
<event>
 5   0  0.7941434E-06  0.3387049E+04  0.7818609E-02  0.8141092E-01
       -2   -1    0    0    0  501  0.00000000000E+00  0.00000000000E+00  0.13583237729E+04  0.13583237729E+04  0.25500000920E-02 0. -1.
        2   -1    0    0  501    0  0.00000000000E+00  0.00000000000E+00 -0.21114444201E+04  0.21114444201E+04  0.25500000920E-02 0.  1.
    10030    2    1    2    0    0  0.00000000000E+00  0.00000000000E+00 -0.75312064719E+03  0.34697681931E+04  0.33870489522E+04 0.  0.
        4    1    3    3  502    0 -0.47814287962E+03  0.13610097043E+04 -0.12853882632E+04  0.19321471550E+04  0.12699999809E+01 0.  1.
       -4    1    3    3    0  502  0.47814287962E+03 -0.13610097043E+04  0.53226761601E+03  0.15376210380E+04  0.12699999809E+01 0. -1.
</event>
<event>
 5   0  0.2580875E-06  0.2351943E+04  0.7818609E-02  0.8457718E-01
        4   -1    0    0  501    0  0.00000000000E+00  0.00000000000E+00  0.70171787618E+03  0.70171902543E+03  0.12699999809E+01 0. -1.
       -4   -1    0    0    0  501  0.00000000000E+00  0.00000000000E+00 -0.19707451753E+04  0.19707455845E+04  0.12699999809E+01 0.  1.
    10030    2    1    2    0    0  0.00000000000E+00  0.00000000000E+00 -0.12690272991E+04  0.26724646099E+04  0.23519431977E+04 0.  0.
        4    1    3    3  502    0 -0.24989199472E+03  0.47508490871E+03  0.55438212346E+03  0.77168181994E+03  0.12699999809E+01 0. -1.
       -4    1    3    3    0  502  0.24989199472E+03 -0.47508490871E+03 -0.18234094226E+04  0.19007827900E+04  0.12699999809E+01 0.  1.
</event>
<event>
 5   0  0.7510251E-06  0.1705070E+04  0.7818609E-02  0.8758478E-01
       -2   -1    0    0    0  501  0.00000000000E+00  0.00000000000E+00  0.51191156344E+03  0.51191156345E+03  0.25500000920E-02 0. -1.
        2   -1    0    0  501    0  0.00000000000E+00  0.00000000000E+00 -0.14198077908E+04  0.14198077908E+04  0.25500000920E-02 0.  1.
    10030    2    1    2    0    0  0.00000000000E+00  0.00000000000E+00 -0.90789622736E+03  0.19317193543E+04  0.17050701170E+04 0.  0.
        3    1    3    3  502    0  0.65284584946E+03 -0.40203133985E+03 -0.31594165776E+02  0.76735591670E+03  0.10100000352E+00 0. -1.
       -3    1    3    3    0  502 -0.65284584946E+03  0.40203133985E+03 -0.87630206158E+03  0.11643634376E+04  0.10100000352E+00 0.  1.
</event>
<event>
 5   0  0.7941434E-06  0.3061036E+04  0.7818609E-02  0.8226513E-01
        2   -1    0    0  501    0  0.00000000000E+00  0.00000000000E+00  0.18288951261E+04  0.18288951261E+04  0.25500000920E-02 0. -1.
       -2   -1    0    0    0  501  0.00000000000E+00  0.00000000000E+00 -0.12808198116E+04  0.12808198116E+04  0.25500000920E-02 0.  1.
    10030    2    1    2    0    0  0.00000000000E+00  0.00000000000E+00  0.54807531444E+03  0.31097149377E+04  0.30610358449E+04 0.  0.
        4    1    3    3  502    0 -0.10394429962E+04 -0.96720194866E+03  0.85458158295E+03  0.16571761061E+04  0.12699999809E+01 0. -1.
       -4    1    3    3    0  502  0.10394429962E+04  0.96720194866E+03 -0.30650626851E+03  0.14525388316E+04  0.12699999809E+01 0.  1.
</event>
<event>
 5   0  0.4142886E-06  0.3067214E+04  0.7818609E-02  0.8224794E-01
       -1   -1    0    0    0  501  0.00000000000E+00  0.00000000000E+00  0.97722894853E+03  0.97722894855E+03  0.50400001928E-02 0.  1.
        1   -1    0    0  501    0  0.00000000000E+00  0.00000000000E+00 -0.24067551983E+04  0.24067551983E+04  0.50400001928E-02 0. -1.
    10030    2    1    2    0    0  0.00000000000E+00  0.00000000000E+00 -0.14295262497E+04  0.33839841468E+04  0.30672142748E+04 0.  0.
        5    1    3    3  502    0 -0.52760769090E+03 -0.12088474384E+03 -0.22978569559E+04  0.23607523539E+04  0.46999998093E+01 0. -1.
       -5    1    3    3    0  502  0.52760769090E+03  0.12088474384E+03  0.86833070615E+03  0.10232317929E+04  0.46999998093E+01 0.  1.
</event>
<event>
 5   0  0.2933646E-06  0.3200869E+04  0.7818609E-02  0.8188588E-01
       -1   -1    0    0    0  501  0.00000000000E+00  0.00000000000E+00  0.10384353299E+04  0.10384353299E+04  0.50400001928E-02 0. -1.
        1   -1    0    0  501    0  0.00000000000E+00  0.00000000000E+00 -0.24665857723E+04  0.24665857723E+04  0.50400001928E-02 0.  1.
    10030    2    1    2    0    0  0.00000000000E+00  0.00000000000E+00 -0.14281504424E+04  0.35050211022E+04  0.32008685135E+04 0.  0.
        2    1    3    3  502    0  0.34503212320E+03  0.61949982800E+03 -0.22851788890E+04  0.23926700060E+04  0.25500000920E-02 0.  1.
       -2    1    3    3    0  502 -0.34503212320E+03 -0.61949982800E+03  0.85702844660E+03  0.11123510962E+04  0.25500000920E-02 0. -1.
</event>
<event>
 5   0  0.7941434E-06  0.3161330E+04  0.7818609E-02  0.8199105E-01
       -2   -1    0    0    0  501  0.00000000000E+00  0.00000000000E+00  0.21621541897E+04  0.21621541897E+04  0.25500000920E-02 0. -1.
        2   -1    0    0  501    0  0.00000000000E+00  0.00000000000E+00 -0.11555615771E+04  0.11555615771E+04  0.25500000920E-02 0.  1.
    10030    2    1    2    0    0  0.00000000000E+00  0.00000000000E+00  0.10065926126E+04  0.33177157668E+04  0.31613302931E+04 0.  0.
        4    1    3    3  502    0 -0.76859806941E+03 -0.66335499085E+03 -0.76812824294E+03  0.12731085762E+04  0.12699999809E+01 0.  1.
       -4    1    3    3    0  502  0.76859806941E+03  0.66335499085E+03  0.17747208556E+04  0.20446071907E+04  0.12699999809E+01 0. -1.
</event>
<event>
 5   0  0.7510251E-06  0.2934208E+04  0.7818609E-02  0.8262772E-01
        2   -1    0    0  501    0  0.00000000000E+00  0.00000000000E+00  0.14691092616E+04  0.14691092616E+04  0.25500000920E-02 0.  1.
       -2   -1    0    0    0  501  0.00000000000E+00  0.00000000000E+00 -0.14651009905E+04  0.14651009905E+04  0.25500000920E-02 0. -1.
    10030    2    1    2    0    0  0.00000000000E+00  0.00000000000E+00  0.40082710918E+01  0.29342102522E+04  0.29342075144E+04 0.  0.
        3    1    3    3  502    0  0.10312577373E+04  0.91443225035E+03  0.50471183853E+03  0.14677918488E+04  0.10100000352E+00 0.  1.
       -3    1    3    3    0  502 -0.10312577373E+04 -0.91443225035E+03 -0.50070356743E+03  0.14664184034E+04  0.10100000352E+00 0. -1.
</event>
<event>
 5   0  0.7952307E-06  0.3097652E+04  0.7818609E-02  0.8216383E-01
        2   -1    0    0  501    0  0.00000000000E+00  0.00000000000E+00  0.12638511292E+04  0.12638511292E+04  0.25500000920E-02 0.  1.
       -2   -1    0    0    0  501  0.00000000000E+00  0.00000000000E+00 -0.18980575640E+04  0.18980575640E+04  0.25500000920E-02 0. -1.
    10030    2    1    2    0    0  0.00000000000E+00  0.00000000000E+00 -0.63420643487E+03  0.31619086932E+04  0.30976521403E+04 0.  0.
        2    1    3    3  502    0 -0.49638749107E+03 -0.10819781509E+04 -0.13285076688E+04  0.17838189052E+04  0.25500000920E-02 0. -1.
       -2    1    3    3    0  502  0.49638749107E+03  0.10819781509E+04  0.69430123397E+03  0.13780897880E+04  0.25500000920E-02 0.  1.
</event>
<event>
 5   0  0.7941434E-06  0.3189590E+04  0.7818609E-02  0.8191572E-01
        2   -1    0    0  501    0  0.00000000000E+00  0.00000000000E+00  0.92092458990E+03  0.92092458991E+03  0.25500000920E-02 0. -1.
       -2   -1    0    0    0  501  0.00000000000E+00  0.00000000000E+00 -0.27617590941E+04  0.27617590941E+04  0.25500000920E-02 0.  1.
    10030    2    1    2    0    0  0.00000000000E+00  0.00000000000E+00 -0.18408345042E+04  0.36826836840E+04  0.31895904823E+04 0.  0.
        4    1    3    3  502    0 -0.55992101477E+03  0.52099499938E+03  0.69536462285E+03  0.10336734996E+04  0.12699999809E+01 0. -1.
       -4    1    3    3    0  502  0.55992101477E+03 -0.52099499938E+03 -0.25361991270E+04  0.26490101844E+04  0.12699999809E+01 0.  1.
</event>
<event>
 5   0  0.2635798E-06  0.3393824E+04  0.7818609E-02  0.8139424E-01
        1   -1    0    0  501    0  0.00000000000E+00  0.00000000000E+00  0.16488302738E+04  0.16488302738E+04  0.50400001928E-02 0. -1.
       -1   -1    0    0    0  501  0.00000000000E+00  0.00000000000E+00 -0.17463958300E+04  0.17463958300E+04  0.50400001928E-02 0.  1.
    10030    2    1    2    0    0  0.00000000000E+00  0.00000000000E+00 -0.97565556239E+02  0.33952261038E+04  0.33938239875E+04 0.  0.
        1    1    3    3  502    0 -0.34430858344E+03  0.11763716418E+04 -0.12227716122E+04  0.17313489122E+04  0.50400001928E-02 0.  1.
       -1    1    3    3    0  502  0.34430858344E+03 -0.11763716418E+04  0.11252060560E+04  0.16638771916E+04  0.50400001928E-02 0. -1.
</event>
<event>
 5   0  0.7952307E-06  0.3265768E+04  0.7818609E-02  0.8171661E-01
        2   -1    0    0  501    0  0.00000000000E+00  0.00000000000E+00  0.31155715682E+04  0.31155715682E+04  0.25500000920E-02 0.  1.
       -2   -1    0    0    0  501  0.00000000000E+00  0.00000000000E+00 -0.85580153066E+03  0.85580153066E+03  0.25500000920E-02 0. -1.
    10030    2    1    2    0    0  0.00000000000E+00  0.00000000000E+00  0.22597700376E+04  0.39713730989E+04  0.32657684652E+04 0.  0.
        2    1    3    3  502    0  0.41718044832E+03 -0.11342276612E+04  0.24652277872E+04  0.27455163370E+04  0.25500000920E-02 0.  1.
       -2    1    3    3    0  502 -0.41718044832E+03  0.11342276612E+04 -0.20545774963E+03  0.12258567619E+04  0.25500000920E-02 0. -1.
</event>
<event>
 5   0  0.4142886E-06  0.2628703E+04  0.7818609E-02  0.8358516E-01
       -1   -1    0    0    0  501  0.00000000000E+00  0.00000000000E+00  0.14795295019E+04  0.14795295019E+04  0.50400001928E-02 0.  1.
        1   -1    0    0  501    0  0.00000000000E+00  0.00000000000E+00 -0.11676146543E+04  0.11676146543E+04  0.50400001928E-02 0. -1.
    10030    2    1    2    0    0  0.00000000000E+00  0.00000000000E+00  0.31191484759E+03  0.26471441562E+04  0.26287033517E+04 0.  0.
        5    1    3    3  502    0 -0.41718998441E+03 -0.77069573226E+03  0.11423589032E+04  0.14398004544E+04  0.46999998093E+01 0.  1.
       -5    1    3    3    0  502  0.41718998441E+03  0.77069573226E+03 -0.83044405557E+03  0.12073437018E+04  0.46999998093E+01 0. -1.
</event>
<event>
 5   0  0.2788054E-06  0.2737853E+04  0.7818609E-02  0.8322826E-01
        1   -1    0    0  501    0  0.00000000000E+00  0.00000000000E+00  0.18458778860E+04  0.18458778860E+04  0.50400001928E-02 0. -1.
       -1   -1    0    0    0  501  0.00000000000E+00  0.00000000000E+00 -0.10152134784E+04  0.10152134784E+04  0.50400001928E-02 0.  1.
    10030    2    1    2    0    0  0.00000000000E+00  0.00000000000E+00  0.83066440754E+03  0.28610913644E+04  0.27378532535E+04 0.  0.
        3    1    3    3  502    0 -0.51600915859E+03 -0.51423658503E+03 -0.79582594248E+03  0.10789085494E+04  0.10100000352E+00 0.  1.
       -3    1    3    3    0  502  0.51600915859E+03  0.51423658503E+03  0.16264903500E+04  0.17821828150E+04  0.10100000352E+00 0. -1.
</event>
<event>
 5   0  0.8237664E-06  0.2659504E+04  0.7818609E-02  0.8348265E-01
        2   -1    0    0  501    0  0.00000000000E+00  0.00000000000E+00  0.13051340929E+04  0.13051340929E+04  0.25500000920E-02 0.  1.
       -2   -1    0    0    0  501  0.00000000000E+00  0.00000000000E+00 -0.13548341113E+04  0.13548341113E+04  0.25500000920E-02 0. -1.
    10030    2    1    2    0    0  0.00000000000E+00  0.00000000000E+00 -0.49700018416E+02  0.26599682043E+04  0.26595038552E+04 0.  0.
        5    1    3    3  502    0 -0.95196451155E+03 -0.86910854012E+03 -0.35145260007E+03  0.13360864889E+04  0.46999998093E+01 0.  1.
       -5    1    3    3    0  502  0.95196451155E+03  0.86910854012E+03  0.30175258166E+03  0.13238817154E+04  0.46999998093E+01 0. -1.
</event>
<event>
 5   0  0.2580875E-06  0.3260352E+04  0.7818609E-02  0.8173058E-01
        3   -1    0    0  501    0  0.00000000000E+00  0.00000000000E+00  0.20745118406E+04  0.20745118431E+04  0.10100000352E+00 0. -1.
       -3   -1    0    0    0  501  0.00000000000E+00  0.00000000000E+00 -0.12810117396E+04  0.12810117436E+04  0.10100000352E+00 0.  1.
    10030    2    1    2    0    0  0.00000000000E+00  0.00000000000E+00  0.79350010103E+03  0.33555235867E+04  0.32603521482E+04 0.  0.
        4    1    3    3  502    0 -0.13382864082E+04 -0.92953933800E+03  0.44736413636E+03  0.16897307994E+04  0.12699999809E+01 0. -1.
       -4    1    3    3    0  502  0.13382864082E+04  0.92953933800E+03  0.34613596467E+03  0.16657927873E+04  0.12699999809E+01 0.  1.
</event>
<event>
 5   0  0.7510251E-06  0.3208354E+04  0.7818609E-02  0.8186614E-01
        2   -1    0    0  501    0  0.00000000000E+00  0.00000000000E+00  0.20476665561E+04  0.20476665561E+04  0.25500000920E-02 0.  1.
       -2   -1    0    0    0  501  0.00000000000E+00  0.00000000000E+00 -0.12567395761E+04  0.12567395761E+04  0.25500000920E-02 0. -1.
    10030    2    1    2    0    0  0.00000000000E+00  0.00000000000E+00  0.79092697996E+03  0.33044061322E+04  0.32083538457E+04 0.  0.
        3    1    3    3  502    0 -0.16610660858E+03 -0.14726333995E+04  0.10279688593E+04  0.18035965515E+04  0.10100000352E+00 0.  1.
       -3    1    3    3    0  502  0.16610660858E+03  0.14726333995E+04 -0.23704187929E+03  0.15008095807E+04  0.10100000352E+00 0. -1.
</event>
<event>
 5   0  0.2635798E-06  0.1666473E+04  0.7818609E-02  0.8780720E-01
       -1   -1    0    0    0  501  0.00000000000E+00  0.00000000000E+00  0.75934669526E+03  0.75934669528E+03  0.50400001928E-02 0.  1.
        1   -1    0    0  501    0  0.00000000000E+00  0.00000000000E+00 -0.91431637371E+03  0.91431637373E+03  0.50400001928E-02 0. -1.
    10030    2    1    2    0    0  0.00000000000E+00  0.00000000000E+00 -0.15496967845E+03  0.16736630690E+04  0.16664730623E+04 0.  0.
        1    1    3    3  502    0  0.36128141753E+03  0.48106280136E+03  0.50148956862E+03  0.78322249008E+03  0.50400001928E-02 0.  1.
       -1    1    3    3    0  502 -0.36128141753E+03 -0.48106280136E+03 -0.65645924707E+03  0.89044057892E+03  0.50400001928E-02 0. -1.
</event>
<event>
 5   0  0.4142886E-06  0.2611577E+04  0.7818609E-02  0.8364280E-01
       -1   -1    0    0    0  501  0.00000000000E+00  0.00000000000E+00  0.73755971019E+03  0.73755971021E+03  0.50400001928E-02 0. -1.
        1   -1    0    0  501    0  0.00000000000E+00  0.00000000000E+00 -0.23117897713E+04  0.23117897713E+04  0.50400001928E-02 0.  1.
    10030    2    1    2    0    0  0.00000000000E+00  0.00000000000E+00 -0.15742300612E+04  0.30493494816E+04  0.26115765306E+04 0.  0.
        5    1    3    3  502    0  0.98423721480E+03 -0.68056734664E+03 -0.13973791574E+04  0.18397242749E+04  0.46999998093E+01 0. -1.
       -5    1    3    3    0  502 -0.98423721480E+03  0.68056734664E+03 -0.17685090376E+03  0.12096252066E+04  0.46999998093E+01 0.  1.
</event>
<event>
 5   0  0.7510251E-06  0.3219543E+04  0.7818609E-02  0.8183675E-01
       -2   -1    0    0    0  501  0.00000000000E+00  0.00000000000E+00  0.13582976534E+04  0.13582976534E+04  0.25500000920E-02 0.  1.
        2   -1    0    0  501    0  0.00000000000E+00  0.00000000000E+00 -0.19078027150E+04  0.19078027150E+04  0.25500000920E-02 0. -1.
    10030    2    1    2    0    0  0.00000000000E+00  0.00000000000E+00 -0.54950506156E+03  0.32661003684E+04  0.32195427942E+04 0.  0.
        3    1    3    3  502    0 -0.55644065151E+03 -0.12561209357E+04 -0.11258713055E+04  0.17762466638E+04  0.10100000352E+00 0.  1.
       -3    1    3    3    0  502  0.55644065151E+03  0.12561209357E+04  0.57636624394E+03  0.14898537046E+04  0.10100000352E+00 0. -1.
</event>
<event>
 5   0  0.8237664E-06  0.3126173E+04  0.7818609E-02  0.8208591E-01
       -2   -1    0    0    0  501  0.00000000000E+00  0.00000000000E+00  0.12753136498E+04  0.12753136498E+04  0.25500000920E-02 0.  1.
        2   -1    0    0  501    0  0.00000000000E+00  0.00000000000E+00 -0.19157952485E+04  0.19157952485E+04  0.25500000920E-02 0. -1.
    10030    2    1    2    0    0  0.00000000000E+00  0.00000000000E+00 -0.64048159867E+03  0.31911088983E+04  0.31261732714E+04 0.  0.
        5    1    3    3  502    0  0.33802004043E+03 -0.10119262906E+04  0.84583846799E+03  0.13615128238E+04  0.46999998093E+01 0.  1.
       -5    1    3    3    0  502 -0.33802004043E+03  0.10119262906E+04 -0.14863200667E+04  0.18295960745E+04  0.46999998093E+01 0. -1.
</event>
<event>
 5   0  0.8237664E-06  0.3368749E+04  0.7818609E-02  0.8145619E-01
       -2   -1    0    0    0  501  0.00000000000E+00  0.00000000000E+00  0.10823143764E+04  0.10823143764E+04  0.25500000920E-02 0.  1.
        2   -1    0    0  501    0  0.00000000000E+00  0.00000000000E+00 -0.26213430920E+04  0.26213430920E+04  0.25500000920E-02 0. -1.
    10030    2    1    2    0    0  0.00000000000E+00  0.00000000000E+00 -0.15390287155E+04  0.37036574684E+04  0.33687489155E+04 0.  0.
        5    1    3    3  502    0  0.41789007127E+03 -0.47939866200E+03 -0.24842654829E+04  0.25643814592E+04  0.46999998093E+01 0. -1.
       -5    1    3    3    0  502 -0.41789007127E+03  0.47939866200E+03  0.94523676735E+03  0.11392760092E+04  0.46999998093E+01 0.  1.
</event>
<event>
 5   0  0.2635798E-06  0.3234002E+04  0.7818609E-02  0.8179895E-01
        1   -1    0    0  501    0  0.00000000000E+00  0.00000000000E+00  0.14572451880E+04  0.14572451880E+04  0.50400001928E-02 0.  1.
       -1   -1    0    0    0  501  0.00000000000E+00  0.00000000000E+00 -0.17942706503E+04  0.17942706503E+04  0.50400001928E-02 0. -1.
    10030    2    1    2    0    0  0.00000000000E+00  0.00000000000E+00 -0.33702546229E+03  0.32515158384E+04  0.32340020230E+04 0.  0.
        1    1    3    3  502    0  0.68774319762E+03  0.89582639000E+03 -0.13320164153E+04  0.17463571678E+04  0.50400001928E-02 0. -1.
       -1    1    3    3    0  502 -0.68774319762E+03 -0.89582639000E+03  0.99499095304E+03  0.15051586706E+04  0.50400001928E-02 0.  1.
</event>
<event>
 5   0  0.3938696E-06  0.2011965E+04  0.7818609E-02  0.8601047E-01
       -1   -1    0    0    0  501  0.00000000000E+00  0.00000000000E+00  0.61632404904E+03  0.61632404906E+03  0.50400001928E-02 0. -1.
        1   -1    0    0  501    0  0.00000000000E+00  0.00000000000E+00 -0.16419940592E+04  0.16419940592E+04  0.50400001928E-02 0.  1.
    10030    2    1    2    0    0  0.00000000000E+00  0.00000000000E+00 -0.10256700102E+04  0.22583181083E+04  0.20119646390E+04 0.  0.
        4    1    3    3  502    0 -0.94973078503E+03  0.31666516911E+03 -0.62357322142E+03  0.11794535043E+04  0.12699999809E+01 0.  1.
       -4    1    3    3    0  502  0.94973078503E+03 -0.31666516911E+03 -0.40209678876E+03  0.10788646040E+04  0.12699999809E+01 0. -1.
</event>
<event>
 5   0  0.2788054E-06  0.2471170E+04  0.7818609E-02  0.8413329E-01
        1   -1    0    0  501    0  0.00000000000E+00  0.00000000000E+00  0.10398792737E+04  0.10398792738E+04  0.50400001928E-02 0.  1.
       -1   -1    0    0    0  501  0.00000000000E+00  0.00000000000E+00 -0.14681227039E+04  0.14681227039E+04  0.50400001928E-02 0. -1.
    10030    2    1    2    0    0  0.00000000000E+00  0.00000000000E+00 -0.42824343015E+03  0.25080019777E+04  0.24711700638E+04 0.  0.
        3    1    3    3  502    0  0.92240692597E+02 -0.10385163257E+03  0.10319302705E+04  0.10412365727E+04  0.10100000352E+00 0.  1.
       -3    1    3    3    0  502 -0.92240692597E+02  0.10385163257E+03 -0.14601737006E+04  0.14667654050E+04  0.10100000352E+00 0. -1.
</event>
<event>
 5   0  0.2635798E-06  0.3183788E+04  0.7818609E-02  0.8193112E-01
       -1   -1    0    0    0  501  0.00000000000E+00  0.00000000000E+00  0.14524619542E+04  0.14524619542E+04  0.50400001928E-02 0. -1.
        1   -1    0    0  501    0  0.00000000000E+00  0.00000000000E+00 -0.17447109561E+04  0.17447109561E+04  0.50400001928E-02 0.  1.
    10030    2    1    2    0    0  0.00000000000E+00  0.00000000000E+00 -0.29224900188E+03  0.31971729102E+04  0.31837878602E+04 0.  0.
        1    1    3    3  502    0  0.43305708034E+03 -0.37107247632E+03  0.13463583448E+04  0.14621607333E+04  0.50400001928E-02 0. -1.
       -1    1    3    3    0  502 -0.43305708034E+03  0.37107247632E+03 -0.16386073467E+04  0.17350121769E+04  0.50400001928E-02 0.  1.
</event>
<event>
 5   0  0.7510251E-06  0.3198246E+04  0.7818609E-02  0.8189281E-01
        2   -1    0    0  501    0  0.00000000000E+00  0.00000000000E+00  0.24357000400E+04  0.24357000400E+04  0.25500000920E-02 0.  1.
       -2   -1    0    0    0  501  0.00000000000E+00  0.00000000000E+00 -0.10498803464E+04  0.10498803464E+04  0.25500000920E-02 0. -1.
    10030    2    1    2    0    0  0.00000000000E+00  0.00000000000E+00  0.13858196936E+04  0.34855803864E+04  0.31982455201E+04 0.  0.
        3    1    3    3  502    0 -0.11720695171E+04  0.10809760514E+04  0.55971082883E+03  0.16898320623E+04  0.10100000352E+00 0.  1.
       -3    1    3    3    0  502  0.11720695171E+04 -0.10809760514E+04  0.82610886480E+03  0.17957483241E+04  0.10100000352E+00 0. -1.
</event>
<event>
 5   0  0.8237664E-06  0.3129895E+04  0.7818609E-02  0.8207581E-01
       -2   -1    0    0    0  501  0.00000000000E+00  0.00000000000E+00  0.14074933139E+04  0.14074933139E+04  0.25500000920E-02 0.  1.
        2   -1    0    0  501    0  0.00000000000E+00  0.00000000000E+00 -0.17400163264E+04  0.17400163264E+04  0.25500000920E-02 0. -1.
    10030    2    1    2    0    0  0.00000000000E+00  0.00000000000E+00 -0.33252301258E+03  0.31475096403E+04  0.31298954267E+04 0.  0.
        5    1    3    3  502    0  0.48818137763E+03 -0.83222220465E+02 -0.16591334911E+04  0.17314713474E+04  0.46999998093E+01 0. -1.
       -5    1    3    3    0  502 -0.48818137763E+03  0.83222220465E+02  0.13266104785E+04  0.14160382930E+04  0.46999998093E+01 0.  1.
</event>
<event>
 5   0  0.8237664E-06  0.2069616E+04  0.7818609E-02  0.8574747E-01
        2   -1    0    0  501    0  0.00000000000E+00  0.00000000000E+00  0.12291724457E+04  0.12291724457E+04  0.25500000920E-02 0. -1.
       -2   -1    0    0    0  501  0.00000000000E+00  0.00000000000E+00 -0.87117770689E+03  0.87117770689E+03  0.25500000920E-02 0.  1.
    10030    2    1    2    0    0  0.00000000000E+00  0.00000000000E+00  0.35799473884E+03  0.21003501526E+04  0.20696160346E+04 0.  0.
        5    1    3    3  502    0  0.40163161232E+03 -0.66847641481E+03 -0.51127747122E+03  0.93252099802E+03  0.46999998093E+01 0.  1.
       -5    1    3    3    0  502 -0.40163161232E+03  0.66847641481E+03  0.86927221006E+03  0.11678291546E+04  0.46999998093E+01 0. -1.
</event>
<event>
 5   0  0.2635798E-06  0.3184706E+04  0.7818609E-02  0.8192868E-01
        1   -1    0    0  501    0  0.00000000000E+00  0.00000000000E+00  0.23284344500E+04  0.23284344500E+04  0.50400001928E-02 0.  1.
       -1   -1    0    0    0  501  0.00000000000E+00  0.00000000000E+00 -0.10889670310E+04  0.10889670310E+04  0.50400001928E-02 0. -1.
    10030    2    1    2    0    0  0.00000000000E+00  0.00000000000E+00  0.12394674190E+04  0.34174014810E+04  0.31847061717E+04 0.  0.
        1    1    3    3  502    0  0.62323319575E+03  0.14161287878E+04  0.10237371731E+04  0.18552299479E+04  0.50400001928E-02 0.  1.
       -1    1    3    3    0  502 -0.62323319575E+03 -0.14161287878E+04  0.21573024585E+03  0.15621715331E+04  0.50400001928E-02 0. -1.
</event>
<event>
 5   0  0.7971763E-06  0.2881970E+04  0.7818609E-02  0.8278262E-01
        2   -1    0    0  501    0  0.00000000000E+00  0.00000000000E+00  0.20804190436E+04  0.20804190436E+04  0.25500000920E-02 0. -1.
       -2   -1    0    0    0  501  0.00000000000E+00  0.00000000000E+00 -0.99808645527E+03  0.99808645528E+03  0.25500000920E-02 0.  1.
    10030    2    1    2    0    0  0.00000000000E+00  0.00000000000E+00  0.10823325884E+04  0.30785054989E+04  0.28819702072E+04 0.  0.
        1    1    3    3  502    0  0.83836865110E+03 -0.47978879544E+03  0.16833751202E+04  0.19408274212E+04  0.50400001928E-02 0. -1.
       -1    1    3    3    0  502 -0.83836865110E+03  0.47978879544E+03 -0.60104253187E+03  0.11376780777E+04  0.50400001928E-02 0.  1.
</event>
<event>
 5   0  0.7971763E-06  0.2972138E+04  0.7818609E-02  0.8251732E-01
        2   -1    0    0  501    0  0.00000000000E+00  0.00000000000E+00  0.31172901798E+04  0.31172901798E+04  0.25500000920E-02 0.  1.
       -2   -1    0    0    0  501  0.00000000000E+00  0.00000000000E+00 -0.70843610430E+03  0.70843610430E+03  0.25500000920E-02 0. -1.
    10030    2    1    2    0    0  0.00000000000E+00  0.00000000000E+00  0.24088540755E+04  0.38257262841E+04  0.29721378911E+04 0.  0.
        1    1    3    3  502    0  0.14039410082E+03  0.64285018672E+03  0.29195577034E+04  0.29927886744E+04  0.50400001928E-02 0.  1.
       -1    1    3    3    0  502 -0.14039410082E+03 -0.64285018672E+03 -0.51070362788E+03  0.83293760971E+03  0.50400001928E-02 0. -1.
</event>
<event>
 5   0  0.2788054E-06  0.2587895E+04  0.7818609E-02  0.8372325E-01
        1   -1    0    0  501    0  0.00000000000E+00  0.00000000000E+00  0.16484606161E+04  0.16484606161E+04  0.50400001928E-02 0. -1.
       -1   -1    0    0    0  501  0.00000000000E+00  0.00000000000E+00 -0.10156751441E+04  0.10156751441E+04  0.50400001928E-02 0.  1.
    10030    2    1    2    0    0  0.00000000000E+00  0.00000000000E+00  0.63278547205E+03  0.26641357602E+04  0.25878952636E+04 0.  0.
        3    1    3    3  502    0 -0.68780772362E+03  0.31694791607E+03  0.13964753265E+04  0.15886090752E+04  0.10100000352E+00 0. -1.
       -3    1    3    3    0  502  0.68780772362E+03 -0.31694791607E+03 -0.76368985444E+03  0.10755266850E+04  0.10100000352E+00 0.  1.
</event>
<event>
 5   0  0.7941434E-06  0.2367179E+04  0.7818609E-02  0.8451894E-01
        2   -1    0    0  501    0  0.00000000000E+00  0.00000000000E+00  0.15123084068E+04  0.15123084069E+04  0.25500000920E-02 0. -1.
       -2   -1    0    0    0  501  0.00000000000E+00  0.00000000000E+00 -0.92632174430E+03  0.92632174430E+03  0.25500000920E-02 0.  1.
    10030    2    1    2    0    0  0.00000000000E+00  0.00000000000E+00  0.58598666255E+03  0.24386301512E+04  0.23671790480E+04 0.  0.
        4    1    3    3  502    0 -0.53789330355E+02 -0.74575418964E+03  0.12382061339E+04  0.14464434474E+04  0.12699999809E+01 0. -1.
       -4    1    3    3    0  502  0.53789330355E+02  0.74575418964E+03 -0.65221947138E+03  0.99218670379E+03  0.12699999809E+01 0.  1.
</event>
<event>
 5   0  0.2933646E-06  0.3211576E+04  0.7818609E-02  0.8185767E-01
       -1   -1    0    0    0  501  0.00000000000E+00  0.00000000000E+00  0.24539463744E+04  0.24539463744E+04  0.50400001928E-02 0. -1.
        1   -1    0    0  501    0  0.00000000000E+00  0.00000000000E+00 -0.10507789628E+04  0.10507789628E+04  0.50400001928E-02 0.  1.
    10030    2    1    2    0    0  0.00000000000E+00  0.00000000000E+00  0.14031674116E+04  0.35047253373E+04  0.32115760780E+04 0.  0.
        2    1    3    3  502    0  0.65750360507E+03  0.13506390820E+04  0.13208480204E+04  0.20002940817E+04  0.25500000920E-02 0. -1.
       -2    1    3    3    0  502 -0.65750360507E+03 -0.13506390820E+04  0.82319391251E+02  0.15044312556E+04  0.25500000920E-02 0.  1.
</event>
<event>
 5   0  0.7952307E-06  0.3316420E+04  0.7818609E-02  0.8158730E-01
        2   -1    0    0  501    0  0.00000000000E+00  0.00000000000E+00  0.28954422797E+04  0.28954422797E+04  0.25500000920E-02 0. -1.
       -2   -1    0    0    0  501  0.00000000000E+00  0.00000000000E+00 -0.94965134897E+03  0.94965134898E+03  0.25500000920E-02 0.  1.
    10030    2    1    2    0    0  0.00000000000E+00  0.00000000000E+00  0.19457909307E+04  0.38450936287E+04  0.33164201584E+04 0.  0.
        2    1    3    3  502    0 -0.10033869890E+03  0.10111491979E+03  0.28883350900E+04  0.28918457209E+04  0.25500000920E-02 0. -1.
       -2    1    3    3    0  502  0.10033869890E+03 -0.10111491979E+03 -0.94254415926E+03  0.95324790777E+03  0.25500000920E-02 0.  1.
</event>
<event>
 5   0  0.2788054E-06  0.3027405E+04  0.7818609E-02  0.8235948E-01
       -1   -1    0    0    0  501  0.00000000000E+00  0.00000000000E+00  0.11503993868E+04  0.11503993868E+04  0.50400001928E-02 0. -1.
        1   -1    0    0  501    0  0.00000000000E+00  0.00000000000E+00 -0.19917393745E+04  0.19917393745E+04  0.50400001928E-02 0.  1.
    10030    2    1    2    0    0  0.00000000000E+00  0.00000000000E+00 -0.84133998770E+03  0.31421387613E+04  0.30274053281E+04 0.  0.
        3    1    3    3  502    0  0.95689831066E+03  0.89156249688E+03  0.37028590788E+03  0.13592827986E+04  0.10100000352E+00 0. -1.
       -3    1    3    3    0  502 -0.95689831066E+03 -0.89156249688E+03 -0.12116258956E+04  0.17828559627E+04  0.10100000352E+00 0.  1.
</event>
<event>
 5   0  0.7952307E-06  0.3185365E+04  0.7818609E-02  0.8192693E-01
        2   -1    0    0  501    0  0.00000000000E+00  0.00000000000E+00  0.11656249204E+04  0.11656249204E+04  0.25500000920E-02 0. -1.
       -2   -1    0    0    0  501  0.00000000000E+00  0.00000000000E+00 -0.21762043185E+04  0.21762043186E+04  0.25500000920E-02 0.  1.
    10030    2    1    2    0    0  0.00000000000E+00  0.00000000000E+00 -0.10105793982E+04  0.33418292389E+04  0.31853652761E+04 0.  0.
        2    1    3    3  502    0  0.70037259052E+03  0.92641469422E+03 -0.16487203823E+04  0.20166915605E+04  0.25500000920E-02 0.  1.
       -2    1    3    3    0  502 -0.70037259052E+03 -0.92641469422E+03  0.63814098411E+03  0.13251376784E+04  0.25500000920E-02 0. -1.
</event>
<event>
 5   0  0.8237664E-06  0.3102158E+04  0.7818609E-02  0.8215146E-01
        2   -1    0    0  501    0  0.00000000000E+00  0.00000000000E+00  0.20564432007E+04  0.20564432007E+04  0.25500000920E-02 0.  1.
       -2   -1    0    0    0  501  0.00000000000E+00  0.00000000000E+00 -0.11699066235E+04  0.11699066235E+04  0.25500000920E-02 0. -1.
    10030    2    1    2    0    0  0.00000000000E+00  0.00000000000E+00  0.88653657717E+03  0.32263498242E+04  0.31021582947E+04 0.  0.
        5    1    3    3  502    0  0.13011028220E+04  0.98134501272E+02  0.13154875661E+04  0.18528433718E+04  0.46999998093E+01 0.  1.
       -5    1    3    3    0  502 -0.13011028220E+04 -0.98134501272E+02 -0.42895098895E+03  0.13735064524E+04  0.46999998093E+01 0. -1.
</event>
<event>
 5   0  0.8237664E-06  0.3197229E+04  0.7818609E-02  0.8189549E-01
        2   -1    0    0  501    0  0.00000000000E+00  0.00000000000E+00  0.11901461448E+04  0.11901461448E+04  0.25500000920E-02 0.  1.
       -2   -1    0    0    0  501  0.00000000000E+00  0.00000000000E+00 -0.21472730670E+04  0.21472730670E+04  0.25500000920E-02 0. -1.
    10030    2    1    2    0    0  0.00000000000E+00  0.00000000000E+00 -0.95712692226E+03  0.33374192118E+04  0.31972292771E+04 0.  0.
        5    1    3    3  502    0 -0.11701727759E+04 -0.10847370026E+04 -0.37635176537E+03  0.16393966669E+04  0.46999998093E+01 0.  1.
       -5    1    3    3    0  502  0.11701727759E+04  0.10847370026E+04 -0.58077515689E+03  0.16980225449E+04  0.46999998093E+01 0. -1.
</event>
<event>
 5   0  0.2580875E-06  0.3266097E+04  0.7818609E-02  0.8171576E-01
        4   -1    0    0  501    0  0.00000000000E+00  0.00000000000E+00  0.18738370958E+04  0.18738375261E+04  0.12699999809E+01 0. -1.
       -4   -1    0    0    0  501  0.00000000000E+00  0.00000000000E+00 -0.14232007782E+04  0.14232013449E+04  0.12699999809E+01 0.  1.
    10030    2    1    2    0    0  0.00000000000E+00  0.00000000000E+00  0.45063631755E+03  0.32970388710E+04  0.32660974000E+04 0.  0.
        5    1    3    3  502    0  0.13909085201E+04 -0.38119887746E+03 -0.54802479449E+03  0.15428196138E+04  0.46999998093E+01 0.  1.
       -5    1    3    3    0  502 -0.13909085201E+04  0.38119887746E+03  0.99866111204E+03  0.17542192571E+04  0.46999998093E+01 0. -1.
</event>
<event>
 5   0  0.2788054E-06  0.3150478E+04  0.7818609E-02  0.8202020E-01
       -1   -1    0    0    0  501  0.00000000000E+00  0.00000000000E+00  0.14493923719E+04  0.14493923719E+04  0.50400001928E-02 0.  1.
        1   -1    0    0  501    0  0.00000000000E+00  0.00000000000E+00 -0.17120129922E+04  0.17120129922E+04  0.50400001928E-02 0. -1.
    10030    2    1    2    0    0  0.00000000000E+00  0.00000000000E+00 -0.26262062026E+03  0.31614053641E+04  0.31504784218E+04 0.  0.
        3    1    3    3  502    0 -0.13219002859E+04 -0.18712451437E+03  0.70761719928E+03  0.15110122635E+04  0.10100000352E+00 0.  1.
       -3    1    3    3    0  502  0.13219002859E+04  0.18712451437E+03 -0.97023781954E+03  0.16503931005E+04  0.10100000352E+00 0. -1.
</event>
<event>
 5   0  0.2788054E-06  0.3230710E+04  0.7818609E-02  0.8180754E-01
       -1   -1    0    0    0  501  0.00000000000E+00  0.00000000000E+00  0.13756547446E+04  0.13756547446E+04  0.50400001928E-02 0.  1.
        1   -1    0    0  501    0  0.00000000000E+00  0.00000000000E+00 -0.18968213737E+04  0.18968213737E+04  0.50400001928E-02 0. -1.
    10030    2    1    2    0    0  0.00000000000E+00  0.00000000000E+00 -0.52116662910E+03  0.32724761182E+04  0.32307097191E+04 0.  0.
        3    1    3    3  502    0 -0.43052822112E+03 -0.10352026694E+04 -0.14385327934E+04  0.18238354432E+04  0.10100000352E+00 0. -1.
       -3    1    3    3    0  502  0.43052822112E+03  0.10352026694E+04  0.91736616429E+03  0.14486406751E+04  0.10100000352E+00 0.  1.
</event>
<event>
 5   0  0.4142886E-06  0.1894493E+04  0.7818609E-02  0.8657602E-01
       -1   -1    0    0    0  501  0.00000000000E+00  0.00000000000E+00  0.87157535097E+03  0.87157535098E+03  0.50400001928E-02 0.  1.
        1   -1    0    0  501    0  0.00000000000E+00  0.00000000000E+00 -0.10294876413E+04  0.10294876413E+04  0.50400001928E-02 0. -1.
    10030    2    1    2    0    0  0.00000000000E+00  0.00000000000E+00 -0.15791229035E+03  0.19010629923E+04  0.18944931273E+04 0.  0.
        5    1    3    3  502    0  0.50257446804E+03 -0.55531054605E+03 -0.66088365109E+03  0.99886945531E+03  0.46999998093E+01 0. -1.
       -5    1    3    3    0  502 -0.50257446804E+03  0.55531054605E+03  0.50297136074E+03  0.90219353700E+03  0.46999998093E+01 0.  1.
</event>
<event>
 5   0  0.7971763E-06  0.2182380E+04  0.7818609E-02  0.8525798E-01
       -2   -1    0    0    0  501  0.00000000000E+00  0.00000000000E+00  0.14121261495E+04  0.14121261495E+04  0.25500000920E-02 0. -1.
        2   -1    0    0  501    0  0.00000000000E+00  0.00000000000E+00 -0.84319333831E+03  0.84319333832E+03  0.25500000920E-02 0.  1.
    10030    2    1    2    0    0  0.00000000000E+00  0.00000000000E+00  0.56893281121E+03  0.22553194878E+04  0.21823797673E+04 0.  0.
        1    1    3    3  502    0 -0.83942203824E+03  0.30986672070E+03  0.92987852814E+03  0.12904730993E+04  0.50400001928E-02 0. -1.
       -1    1    3    3    0  502  0.83942203824E+03 -0.30986672070E+03 -0.36094571693E+03  0.96484638854E+03  0.50400001928E-02 0.  1.
</event>
<event>
 5   0  0.4142886E-06  0.3216698E+04  0.7818609E-02  0.8184421E-01
        1   -1    0    0  501    0  0.00000000000E+00  0.00000000000E+00  0.16209515259E+04  0.16209515259E+04  0.50400001928E-02 0.  1.
       -1   -1    0    0    0  501  0.00000000000E+00  0.00000000000E+00 -0.15958443088E+04  0.15958443088E+04  0.50400001928E-02 0. -1.
    10030    2    1    2    0    0  0.00000000000E+00  0.00000000000E+00  0.25107217117E+02  0.32167958347E+04  0.32166978518E+04 0.  0.
        5    1    3    3  502    0  0.21331597294E+02  0.16006298979E+04  0.16842070048E+03  0.16096144661E+04  0.46999998093E+01 0. -1.
       -5    1    3    3    0  502 -0.21331597294E+02 -0.16006298979E+04 -0.14331348337E+03  0.16071813686E+04  0.46999998093E+01 0.  1.
</event>
<event>
 5   0  0.7971763E-06  0.3131801E+04  0.7818609E-02  0.8207064E-01
       -2   -1    0    0    0  501  0.00000000000E+00  0.00000000000E+00  0.13409510931E+04  0.13409510931E+04  0.25500000920E-02 0. -1.
        2   -1    0    0  501    0  0.00000000000E+00  0.00000000000E+00 -0.18285865324E+04  0.18285865324E+04  0.25500000920E-02 0.  1.
    10030    2    1    2    0    0  0.00000000000E+00  0.00000000000E+00 -0.48763543931E+03  0.31695376255E+04  0.31318014685E+04 0.  0.
        1    1    3    3  502    0 -0.89469991202E+02 -0.10179421580E+02  0.13383286416E+04  0.13413545590E+04  0.50400001928E-02 0. -1.
       -1    1    3    3    0  502  0.89469991202E+02  0.10179421580E+02 -0.18259640809E+04  0.18281830665E+04  0.50400001928E-02 0.  1.
</event>
<event>
 5   0  0.7510251E-06  0.3048223E+04  0.7818609E-02  0.8230093E-01
       -2   -1    0    0    0  501  0.00000000000E+00  0.00000000000E+00  0.94745394485E+03  0.94745394485E+03  0.25500000920E-02 0.  1.
        2   -1    0    0  501    0  0.00000000000E+00  0.00000000000E+00 -0.24517461939E+04  0.24517461939E+04  0.25500000920E-02 0. -1.
    10030    2    1    2    0    0  0.00000000000E+00  0.00000000000E+00 -0.15042922491E+04  0.33992001388E+04  0.30482234847E+04 0.  0.
        3    1    3    3  502    0 -0.55690346666E+03 -0.16739788947E+03  0.81887915037E+03  0.10043538210E+04  0.10100000352E+00 0.  1.
       -3    1    3    3    0  502  0.55690346666E+03  0.16739788947E+03 -0.23231713994E+04  0.23948463178E+04  0.10100000352E+00 0. -1.
</event>
<event>
 5   0  0.7952307E-06  0.3223499E+04  0.7818609E-02  0.8182639E-01
       -2   -1    0    0    0  501  0.00000000000E+00  0.00000000000E+00  0.17119655670E+04  0.17119655670E+04  0.25500000920E-02 0. -1.
        2   -1    0    0  501    0  0.00000000000E+00  0.00000000000E+00 -0.15173997511E+04  0.15173997511E+04  0.25500000920E-02 0.  1.
    10030    2    1    2    0    0  0.00000000000E+00  0.00000000000E+00  0.19456581590E+03  0.32293653181E+04  0.32234987980E+04 0.  0.
        2    1    3    3  502    0  0.10400358926E+04 -0.27519421668E+03  0.12996043955E+04  0.16871212462E+04  0.25500000920E-02 0. -1.
       -2    1    3    3    0  502 -0.10400358926E+04  0.27519421668E+03 -0.11050385796E+04  0.15422440718E+04  0.25500000920E-02 0.  1.
</event>
<event>
 5   0  0.2933646E-06  0.3276170E+04  0.7818609E-02  0.8168986E-01
       -1   -1    0    0    0  501  0.00000000000E+00  0.00000000000E+00  0.12106537044E+04  0.12106537044E+04  0.50400001928E-02 0.  1.
        1   -1    0    0  501    0  0.00000000000E+00  0.00000000000E+00 -0.22164241417E+04  0.22164241417E+04  0.50400001928E-02 0. -1.
    10030    2    1    2    0    0  0.00000000000E+00  0.00000000000E+00 -0.10057704373E+04  0.34270778461E+04  0.32761697744E+04 0.  0.
        2    1    3    3  502    0  0.28549332959E+03  0.56085130972E+01  0.11844182775E+04  0.12183532134E+04  0.25500000920E-02 0.  1.
       -2    1    3    3    0  502 -0.28549332959E+03 -0.56085130972E+01 -0.21901887148E+04  0.22087246327E+04  0.25500000920E-02 0. -1.
</event>
<event>
 5   0  0.8237664E-06  0.3315152E+04  0.7818609E-02  0.8159051E-01
        2   -1    0    0  501    0  0.00000000000E+00  0.00000000000E+00  0.17303126849E+04  0.17303126849E+04  0.25500000920E-02 0.  1.
       -2   -1    0    0    0  501  0.00000000000E+00  0.00000000000E+00 -0.15878972671E+04  0.15878972671E+04  0.25500000920E-02 0. -1.
    10030    2    1    2    0    0  0.00000000000E+00  0.00000000000E+00  0.14241541779E+03  0.33182099520E+04  0.33151523546E+04 0.  0.
        5    1    3    3  502    0 -0.83476432440E+03 -0.88054602198E+03 -0.10591451248E+04  0.16105909659E+04  0.46999998093E+01 0. -1.
       -5    1    3    3    0  502  0.83476432440E+03  0.88054602198E+03  0.12015605426E+04  0.17076189861E+04  0.46999998093E+01 0.  1.
</event>
<event>
 5   0  0.8237664E-06  0.2215883E+04  0.7818609E-02  0.8511846E-01
       -2   -1    0    0    0  501  0.00000000000E+00  0.00000000000E+00  0.71979477348E+03  0.71979477348E+03  0.25500000920E-02 0. -1.
        2   -1    0    0  501    0  0.00000000000E+00  0.00000000000E+00 -0.17053952312E+04  0.17053952312E+04  0.25500000920E-02 0.  1.
    10030    2    1    2    0    0  0.00000000000E+00  0.00000000000E+00 -0.98560045776E+03  0.24251900047E+04  0.22158831866E+04 0.  0.
        5    1    3    3  502    0 -0.74966650720E+03 -0.81519406521E+03 -0.52690883871E+03  0.12264567870E+04  0.46999998093E+01 0.  1.
       -5    1    3    3    0  502  0.74966650720E+03  0.81519406521E+03 -0.45869161905E+03  0.11987332178E+04  0.46999998093E+01 0. -1.
</event>
<event>
 5   0  0.7971763E-06  0.3145170E+04  0.7818609E-02  0.8203450E-01
       -2   -1    0    0    0  501  0.00000000000E+00  0.00000000000E+00  0.12148800305E+04  0.12148800305E+04  0.25500000920E-02 0. -1.
        2   -1    0    0  501    0  0.00000000000E+00  0.00000000000E+00 -0.20356109097E+04  0.20356109097E+04  0.25500000920E-02 0.  1.
    10030    2    1    2    0    0  0.00000000000E+00  0.00000000000E+00 -0.82073087922E+03  0.32504909402E+04  0.31451696578E+04 0.  0.
        1    1    3    3  502    0 -0.30153468655E+03  0.73818249006E+03  0.99045188417E+03  0.12715468889E+04  0.50400001928E-02 0. -1.
       -1    1    3    3    0  502  0.30153468655E+03 -0.73818249006E+03 -0.18111827634E+04  0.19789440513E+04  0.50400001928E-02 0.  1.
</event>
<event>
 5   0  0.7941434E-06  0.2823432E+04  0.7818609E-02  0.8296030E-01
       -2   -1    0    0    0  501  0.00000000000E+00  0.00000000000E+00  0.87386001979E+03  0.87386001979E+03  0.25500000920E-02 0.  1.
        2   -1    0    0  501    0  0.00000000000E+00  0.00000000000E+00 -0.22806196425E+04  0.22806196425E+04  0.25500000920E-02 0. -1.
    10030    2    1    2    0    0  0.00000000000E+00  0.00000000000E+00 -0.14067596227E+04  0.31544796623E+04  0.28234321851E+04 0.  0.
        4    1    3    3  502    0  0.97222916216E+02  0.13574342930E+04 -0.28406029840E+03  0.13902417132E+04  0.12699999809E+01 0.  1.
       -4    1    3    3    0  502 -0.97222916216E+02 -0.13574342930E+04 -0.11226993243E+04  0.17642379490E+04  0.12699999809E+01 0. -1.
</event>
<event>
 5   0  0.2933646E-06  0.2709358E+04  0.7818609E-02  0.8331975E-01
        1   -1    0    0  501    0  0.00000000000E+00  0.00000000000E+00  0.15840115034E+04  0.15840115034E+04  0.50400001928E-02 0. -1.
       -1   -1    0    0    0  501  0.00000000000E+00  0.00000000000E+00 -0.11585491614E+04  0.11585491614E+04  0.50400001928E-02 0.  1.
    10030    2    1    2    0    0  0.00000000000E+00  0.00000000000E+00  0.42546234202E+03  0.27425606648E+04  0.27093580043E+04 0.  0.
        2    1    3    3  502    0  0.10996747641E+04 -0.44522459701E+02 -0.58681452614E+03  0.12472442120E+04  0.25500000920E-02 0.  1.
       -2    1    3    3    0  502 -0.10996747641E+04  0.44522459701E+02  0.10122768682E+04  0.14953164528E+04  0.25500000920E-02 0. -1.
</event>
<event>
 5   0  0.2933646E-06  0.3265415E+04  0.7818609E-02  0.8171752E-01
        1   -1    0    0  501    0  0.00000000000E+00  0.00000000000E+00  0.19347230216E+04  0.19347230216E+04  0.50400001928E-02 0. -1.
       -1   -1    0    0    0  501  0.00000000000E+00  0.00000000000E+00 -0.13778377195E+04  0.13778377195E+04  0.50400001928E-02 0.  1.
    10030    2    1    2    0    0  0.00000000000E+00  0.00000000000E+00  0.55688530209E+03  0.33125607412E+04  0.32654153525E+04 0.  0.
        2    1    3    3  502    0 -0.51170056577E+03  0.66507495555E+03  0.16992250495E+04  0.18951326957E+04  0.25500000920E-02 0. -1.
       -2    1    3    3    0  502  0.51170056577E+03 -0.66507495555E+03 -0.11423397474E+04  0.14174280455E+04  0.25500000920E-02 0.  1.
</event>
<event>
 5   0  0.8237664E-06  0.3073226E+04  0.7818609E-02  0.8223124E-01
       -2   -1    0    0    0  501  0.00000000000E+00  0.00000000000E+00  0.15076931624E+04  0.15076931624E+04  0.25500000920E-02 0. -1.
        2   -1    0    0  501    0  0.00000000000E+00  0.00000000000E+00 -0.15660875731E+04  0.15660875731E+04  0.25500000920E-02 0.  1.
    10030    2    1    2    0    0  0.00000000000E+00  0.00000000000E+00 -0.58394410690E+02  0.30737807355E+04  0.30732260091E+04 0.  0.
        5    1    3    3  502    0  0.15165801159E+04 -0.24207134640E+03 -0.79640931925E+02  0.15378486768E+04  0.46999998093E+01 0.  1.
       -5    1    3    3    0  502 -0.15165801159E+04  0.24207134640E+03  0.21246521235E+02  0.15359320588E+04  0.46999998093E+01 0. -1.
</event>
<event>
 5   0  0.7510251E-06  0.3191554E+04  0.7818609E-02  0.8191051E-01
       -2   -1    0    0    0  501  0.00000000000E+00  0.00000000000E+00  0.10925664009E+04  0.10925664009E+04  0.25500000920E-02 0.  1.
        2   -1    0    0  501    0  0.00000000000E+00  0.00000000000E+00 -0.23307551745E+04  0.23307551745E+04  0.25500000920E-02 0. -1.
    10030    2    1    2    0    0  0.00000000000E+00  0.00000000000E+00 -0.12381887735E+04  0.34233215754E+04  0.31915543501E+04 0.  0.
        3    1    3    3  502    0 -0.12958791904E+04 -0.65447200887E+03  0.91484921202E+02  0.14546497817E+04  0.10100000352E+00 0.  1.
       -3    1    3    3    0  502  0.12958791904E+04  0.65447200887E+03 -0.13296736947E+04  0.19686717937E+04  0.10100000352E+00 0. -1.
</event>
<event>
 5   0  0.2933646E-06  0.3107892E+04  0.7818609E-02  0.8213575E-01
       -1   -1    0    0    0  501  0.00000000000E+00  0.00000000000E+00  0.11181458299E+04  0.11181458299E+04  0.50400001928E-02 0.  1.
        1   -1    0    0  501    0  0.00000000000E+00  0.00000000000E+00 -0.21596000887E+04  0.21596000887E+04  0.50400001928E-02 0. -1.
    10030    2    1    2    0    0  0.00000000000E+00  0.00000000000E+00 -0.10414542588E+04  0.32777459187E+04  0.31078917829E+04 0.  0.
        2    1    3    3  502    0 -0.81448146454E+03  0.13196045948E+04 -0.41520130026E+03  0.16053437210E+04  0.25500000920E-02 0.  1.
       -2    1    3    3    0  502  0.81448146454E+03 -0.13196045948E+04 -0.62625295853E+03  0.16724021977E+04  0.25500000920E-02 0. -1.
</event>
<event>
 5   0  0.7941434E-06  0.1636961E+04  0.7818609E-02  0.8798158E-01
        2   -1    0    0  501    0  0.00000000000E+00  0.00000000000E+00  0.90287557916E+03  0.90287557917E+03  0.25500000920E-02 0. -1.
       -2   -1    0    0    0  501  0.00000000000E+00  0.00000000000E+00 -0.74197411531E+03  0.74197411532E+03  0.25500000920E-02 0.  1.
    10030    2    1    2    0    0  0.00000000000E+00  0.00000000000E+00  0.16090146385E+03  0.16448496945E+04  0.16369609758E+04 0.  0.
        4    1    3    3  502    0 -0.48229964189E+03 -0.13160484135E+03 -0.57072781754E+03  0.75872566416E+03  0.12699999809E+01 0.  1.
       -4    1    3    3    0  502  0.48229964189E+03  0.13160484135E+03  0.73162928139E+03  0.88612403033E+03  0.12699999809E+01 0. -1.
</event>
<event>
 5   0  0.3938696E-06  0.2423420E+04  0.7818609E-02  0.8430787E-01
        1   -1    0    0  501    0  0.00000000000E+00  0.00000000000E+00  0.17474293839E+04  0.17474293839E+04  0.50400001928E-02 0. -1.
       -1   -1    0    0    0  501  0.00000000000E+00  0.00000000000E+00 -0.84022900328E+03  0.84022900330E+03  0.50400001928E-02 0.  1.
    10030    2    1    2    0    0  0.00000000000E+00  0.00000000000E+00  0.90720038059E+03  0.25876583872E+04  0.24234197734E+04 0.  0.
        4    1    3    3  502    0 -0.85150092093E+03 -0.35647875339E+03  0.12917213985E+04  0.15876639141E+04  0.12699999809E+01 0. -1.
       -4    1    3    3    0  502  0.85150092093E+03  0.35647875339E+03 -0.38452101794E+03  0.99999447303E+03  0.12699999809E+01 0.  1.
</event>
<event>
 5   0  0.4604315E-06  0.1669271E+04  0.7818609E-02  0.8779087E-01
       -1   -1    0    0    0  501  0.00000000000E+00  0.00000000000E+00  0.71767025637E+03  0.71767025639E+03  0.50400001928E-02 0.  1.
        1   -1    0    0  501    0  0.00000000000E+00  0.00000000000E+00 -0.97066338984E+03  0.97066338985E+03  0.50400001928E-02 0. -1.
    10030    2    1    2    0    0  0.00000000000E+00  0.00000000000E+00 -0.25299313346E+03  0.16883336462E+04  0.16692707915E+04 0.  0.
        5    1    3    3  502    0  0.47374359066E+03 -0.49082427841E+02  0.56671505779E+03  0.74029056535E+03  0.46999998093E+01 0.  1.
       -5    1    3    3    0  502 -0.47374359066E+03  0.49082427841E+02 -0.81970819126E+03  0.94804308089E+03  0.46999998093E+01 0. -1.
</event>
<event>
 5   0  0.7510251E-06  0.3163545E+04  0.7818609E-02  0.8198512E-01
       -2   -1    0    0    0  501  0.00000000000E+00  0.00000000000E+00  0.18017262567E+04  0.18017262567E+04  0.25500000920E-02 0.  1.
        2   -1    0    0  501    0  0.00000000000E+00  0.00000000000E+00 -0.13886703039E+04  0.13886703039E+04  0.25500000920E-02 0. -1.
    10030    2    1    2    0    0  0.00000000000E+00  0.00000000000E+00  0.41305595279E+03  0.31903965606E+04  0.31635446882E+04 0.  0.
        3    1    3    3  502    0 -0.10445595232E+04  0.11040199283E+04 -0.23541432169E+03  0.15379806607E+04  0.10100000352E+00 0.  1.
       -3    1    3    3    0  502  0.10445595232E+04 -0.11040199283E+04  0.64847027448E+03  0.16524159000E+04  0.10100000352E+00 0. -1.
</event>
<event>
 5   0  0.2933646E-06  0.3239340E+04  0.7818609E-02  0.8178504E-01
       -1   -1    0    0    0  501  0.00000000000E+00  0.00000000000E+00  0.14870623105E+04  0.14870623105E+04  0.50400001928E-02 0.  1.
        1   -1    0    0  501    0  0.00000000000E+00  0.00000000000E+00 -0.17641023941E+04  0.17641023941E+04  0.50400001928E-02 0. -1.
    10030    2    1    2    0    0  0.00000000000E+00  0.00000000000E+00 -0.27704008361E+03  0.32511647047E+04  0.32393395513E+04 0.  0.
        2    1    3    3  502    0 -0.54534215366E+03  0.31531108265E+03 -0.16361169134E+04  0.17531964230E+04  0.25500000920E-02 0. -1.
       -2    1    3    3    0  502  0.54534215366E+03 -0.31531108265E+03  0.13590768298E+04  0.14979682816E+04  0.25500000920E-02 0.  1.
</event>
<event>
 5   0  0.7971763E-06  0.2778765E+04  0.7818609E-02  0.8309891E-01
       -2   -1    0    0    0  501  0.00000000000E+00  0.00000000000E+00  0.16455399536E+04  0.16455399536E+04  0.25500000920E-02 0. -1.
        2   -1    0    0  501    0  0.00000000000E+00  0.00000000000E+00 -0.11731003839E+04  0.11731003839E+04  0.25500000920E-02 0.  1.
    10030    2    1    2    0    0  0.00000000000E+00  0.00000000000E+00  0.47243956970E+03  0.28186403375E+04  0.27787648705E+04 0.  0.
        1    1    3    3  502    0 -0.86102164315E+02 -0.60514490590E+03 -0.10293906175E+04  0.11971879482E+04  0.50400001928E-02 0.  1.
       -1    1    3    3    0  502  0.86102164315E+02  0.60514490590E+03  0.15018301872E+04  0.16214523894E+04  0.50400001928E-02 0. -1.
</event>
<event>
 5   0  0.7510251E-06  0.3171343E+04  0.7818609E-02  0.8196427E-01
        2   -1    0    0  501    0  0.00000000000E+00  0.00000000000E+00  0.21527575597E+04  0.21527575597E+04  0.25500000920E-02 0. -1.
       -2   -1    0    0    0  501  0.00000000000E+00  0.00000000000E+00 -0.11679688870E+04  0.11679688870E+04  0.25500000920E-02 0.  1.
    10030    2    1    2    0    0  0.00000000000E+00  0.00000000000E+00  0.98478867271E+03  0.33207264466E+04  0.31713428391E+04 0.  0.
        3    1    3    3  502    0  0.14578328126E+04 -0.39280980761E+03 -0.14968214786E+02  0.15099006961E+04  0.10100000352E+00 0.  1.
       -3    1    3    3    0  502 -0.14578328126E+04  0.39280980761E+03  0.99975688750E+03  0.18108257505E+04  0.10100000352E+00 0. -1.
</event>
<event>
 5   0  0.2788054E-06  0.3291244E+04  0.7818609E-02  0.8165127E-01
        1   -1    0    0  501    0  0.00000000000E+00  0.00000000000E+00  0.14122891785E+04  0.14122891785E+04  0.50400001928E-02 0. -1.
       -1   -1    0    0    0  501  0.00000000000E+00  0.00000000000E+00 -0.19175055207E+04  0.19175055207E+04  0.50400001928E-02 0.  1.
    10030    2    1    2    0    0  0.00000000000E+00  0.00000000000E+00 -0.50521634216E+03  0.33297946992E+04  0.32912443219E+04 0.  0.
        3    1    3    3  502    0 -0.81180218671E+03 -0.11503398854E+03  0.11909246697E+04  0.14458759241E+04  0.10100000352E+00 0. -1.
       -3    1    3    3    0  502  0.81180218671E+03  0.11503398854E+03 -0.16961410119E+04  0.18839187751E+04  0.10100000352E+00 0.  1.
</event>
<event>
 5   0  0.2635798E-06  0.2278083E+04  0.7818609E-02  0.8486613E-01
       -1   -1    0    0    0  501  0.00000000000E+00  0.00000000000E+00  0.57479221820E+03  0.57479221823E+03  0.50400001928E-02 0. -1.
        1   -1    0    0  501    0  0.00000000000E+00  0.00000000000E+00 -0.22571913072E+04  0.22571913073E+04  0.50400001928E-02 0.  1.
    10030    2    1    2    0    0  0.00000000000E+00  0.00000000000E+00 -0.16823990890E+04  0.28319835255E+04  0.22780834036E+04 0.  0.
        1    1    3    3  502    0  0.69052483196E+02  0.65384097626E+03  0.31508369626E+03  0.72907750160E+03  0.50400001928E-02 0. -1.
       -1    1    3    3    0  502 -0.69052483196E+02 -0.65384097626E+03 -0.19974827853E+04  0.21029060239E+04  0.50400001928E-02 0.  1.
</event>
<event>
 5   0  0.7971763E-06  0.3142708E+04  0.7818609E-02  0.8204114E-01
       -2   -1    0    0    0  501  0.00000000000E+00  0.00000000000E+00  0.11574100338E+04  0.11574100338E+04  0.25500000920E-02 0. -1.
        2   -1    0    0  501    0  0.00000000000E+00  0.00000000000E+00 -0.21333440526E+04  0.21333440526E+04  0.25500000920E-02 0.  1.
    10030    2    1    2    0    0  0.00000000000E+00  0.00000000000E+00 -0.97593401879E+03  0.32907540864E+04  0.31427082665E+04 0.  0.
        1    1    3    3  502    0 -0.11437022559E+04 -0.53319965026E+03 -0.14684519156E+04  0.19361579857E+04  0.50400001928E-02 0.  1.
       -1    1    3    3    0  502  0.11437022559E+04  0.53319965026E+03  0.49251789682E+03  0.13545961007E+04  0.50400001928E-02 0. -1.
</event>
<event>
 5   0  0.2933646E-06  0.2570855E+04  0.7818609E-02  0.8378169E-01
       -1   -1    0    0    0  501  0.00000000000E+00  0.00000000000E+00  0.14701029809E+04  0.14701029809E+04  0.50400001928E-02 0.  1.
        1   -1    0    0  501    0  0.00000000000E+00  0.00000000000E+00 -0.11239513654E+04  0.11239513654E+04  0.50400001928E-02 0. -1.
    10030    2    1    2    0    0  0.00000000000E+00  0.00000000000E+00  0.34615161555E+03  0.25940543463E+04  0.25708553072E+04 0.  0.
        2    1    3    3  502    0 -0.15592831647E+03  0.12444308582E+04  0.45740299781E+03  0.13349679034E+04  0.25500000920E-02 0.  1.
       -2    1    3    3    0  502  0.15592831647E+03 -0.12444308582E+04 -0.11125138226E+03  0.12590864429E+04  0.25500000920E-02 0. -1.
</event>
<event>
 5   0  0.2635798E-06  0.3011884E+04  0.7818609E-02  0.8240346E-01
       -1   -1    0    0    0  501  0.00000000000E+00  0.00000000000E+00  0.18894530694E+04  0.18894530694E+04  0.50400001928E-02 0.  1.
        1   -1    0    0  501    0  0.00000000000E+00  0.00000000000E+00 -0.12002737757E+04  0.12002737757E+04  0.50400001928E-02 0. -1.
    10030    2    1    2    0    0  0.00000000000E+00  0.00000000000E+00  0.68917929372E+03  0.30897268451E+04  0.30118837757E+04 0.  0.
        1    1    3    3  502    0 -0.18850244513E+03  0.13103535489E+03 -0.11822175054E+04  0.12043013187E+04  0.50400001928E-02 0. -1.
       -1    1    3    3    0  502  0.18850244513E+03 -0.13103535489E+03  0.18713967991E+04  0.18854255265E+04  0.50400001928E-02 0.  1.
</event>
<event>
 5   0  0.7510251E-06  0.3247511E+04  0.7818609E-02  0.8176381E-01
        2   -1    0    0  501    0  0.00000000000E+00  0.00000000000E+00  0.23577195350E+04  0.23577195350E+04  0.25500000920E-02 0. -1.
       -2   -1    0    0    0  501  0.00000000000E+00  0.00000000000E+00 -0.11182762533E+04  0.11182762533E+04  0.25500000920E-02 0.  1.
    10030    2    1    2    0    0  0.00000000000E+00  0.00000000000E+00  0.12394432817E+04  0.34759957884E+04  0.32475109041E+04 0.  0.
        3    1    3    3  502    0  0.73720848370E+03 -0.13767228324E+04  0.14375610550E+03  0.15682818413E+04  0.10100000352E+00 0.  1.
       -3    1    3    3    0  502 -0.73720848370E+03  0.13767228324E+04  0.10956871762E+04  0.19077139471E+04  0.10100000352E+00 0. -1.
</event>
<event>
 5   0  0.3938696E-06  0.3203423E+04  0.7818609E-02  0.8187914E-01
        1   -1    0    0  501    0  0.00000000000E+00  0.00000000000E+00  0.22997193454E+04  0.22997193454E+04  0.50400001928E-02 0.  1.
       -1   -1    0    0    0  501  0.00000000000E+00  0.00000000000E+00 -0.11155619786E+04  0.11155619786E+04  0.50400001928E-02 0. -1.
    10030    2    1    2    0    0  0.00000000000E+00  0.00000000000E+00  0.11841573668E+04  0.34152813241E+04  0.32034228339E+04 0.  0.
        4    1    3    3  502    0 -0.63504037784E+03 -0.14008836988E+04  0.10685425682E+04  0.18728417584E+04  0.12699999809E+01 0. -1.
       -4    1    3    3    0  502  0.63504037784E+03  0.14008836988E+04  0.11561479862E+03  0.15424395656E+04  0.12699999809E+01 0.  1.
</event>
<event>
 5   0  0.2635798E-06  0.3144370E+04  0.7818609E-02  0.8203665E-01
        1   -1    0    0  501    0  0.00000000000E+00  0.00000000000E+00  0.28827663853E+04  0.28827663853E+04  0.50400001928E-02 0.  1.
       -1   -1    0    0    0  501  0.00000000000E+00  0.00000000000E+00 -0.85742844666E+03  0.85742844667E+03  0.50400001928E-02 0. -1.
    10030    2    1    2    0    0  0.00000000000E+00  0.00000000000E+00  0.20253379387E+04  0.37401948320E+04  0.31443701461E+04 0.  0.
        1    1    3    3  502    0  0.67678989069E+03 -0.13952767733E+04  0.13203861509E+04  0.20367281158E+04  0.50400001928E-02 0. -1.
       -1    1    3    3    0  502 -0.67678989069E+03  0.13952767733E+04  0.70495178780E+03  0.17034667162E+04  0.50400001928E-02 0.  1.
</event>
<event>
 5   0  0.2635798E-06  0.3177957E+04  0.7818609E-02  0.8194663E-01
        1   -1    0    0  501    0  0.00000000000E+00  0.00000000000E+00  0.21780433999E+04  0.21780433999E+04  0.50400001928E-02 0.  1.
       -1   -1    0    0    0  501  0.00000000000E+00  0.00000000000E+00 -0.11592300994E+04  0.11592300994E+04  0.50400001928E-02 0. -1.
    10030    2    1    2    0    0  0.00000000000E+00  0.00000000000E+00  0.10188133006E+04  0.33372734993E+04  0.31779574993E+04 0.  0.
        1    1    3    3  502    0  0.76177472925E+03  0.21294908885E+03  0.19566104191E+04  0.21104436464E+04  0.50400001928E-02 0.  1.
       -1    1    3    3    0  502 -0.76177472925E+03 -0.21294908885E+03 -0.93779711848E+03  0.12268298529E+04  0.50400001928E-02 0. -1.
</event>
<event>
 5   0  0.7952307E-06  0.2908982E+04  0.7818609E-02  0.8270210E-01
       -2   -1    0    0    0  501  0.00000000000E+00  0.00000000000E+00  0.10798849110E+04  0.10798849110E+04  0.25500000920E-02 0.  1.
        2   -1    0    0  501    0  0.00000000000E+00  0.00000000000E+00 -0.19590460302E+04  0.19590460302E+04  0.25500000920E-02 0. -1.
    10030    2    1    2    0    0  0.00000000000E+00  0.00000000000E+00 -0.87916111921E+03  0.30389309413E+04  0.29089821230E+04 0.  0.
        2    1    3    3  502    0 -0.43324771923E+03 -0.12611943289E+04  0.16707554920E+03  0.13439601782E+04  0.25500000920E-02 0. -1.
       -2    1    3    3    0  502  0.43324771923E+03  0.12611943289E+04 -0.10462366684E+04  0.16949707631E+04  0.25500000920E-02 0.  1.
</event>
<event>
 5   0  0.7941434E-06  0.3270867E+04  0.7818609E-02  0.8170348E-01
       -2   -1    0    0    0  501  0.00000000000E+00  0.00000000000E+00  0.12462387964E+04  0.12462387964E+04  0.25500000920E-02 0. -1.
        2   -1    0    0  501    0  0.00000000000E+00  0.00000000000E+00 -0.21461719470E+04  0.21461719470E+04  0.25500000920E-02 0.  1.
    10030    2    1    2    0    0  0.00000000000E+00  0.00000000000E+00 -0.89993315060E+03  0.33924107434E+04  0.32708670069E+04 0.  0.
        4    1    3    3  502    0  0.10565663695E+04 -0.10974081518E+04 -0.10670581546E+04  0.18599064124E+04  0.12699999809E+01 0.  1.
       -4    1    3    3    0  502 -0.10565663695E+04  0.10974081518E+04  0.16712500397E+03  0.15325043310E+04  0.12699999809E+01 0. -1.
</event>
<event>
 5   0  0.7510251E-06  0.3243779E+04  0.7818609E-02  0.8177350E-01
        2   -1    0    0  501    0  0.00000000000E+00  0.00000000000E+00  0.12523297646E+04  0.12523297646E+04  0.25500000920E-02 0. -1.
       -2   -1    0    0    0  501  0.00000000000E+00  0.00000000000E+00 -0.21005051238E+04  0.21005051238E+04  0.25500000920E-02 0.  1.
    10030    2    1    2    0    0  0.00000000000E+00  0.00000000000E+00 -0.84817535921E+03  0.33528348884E+04  0.32437787146E+04 0.  0.
        3    1    3    3  502    0  0.29734576769E+03  0.65159282278E+03  0.10800115488E+04  0.12959215517E+04  0.10100000352E+00 0. -1.
       -3    1    3    3    0  502 -0.29734576769E+03 -0.65159282278E+03 -0.19281869081E+04  0.20569133367E+04  0.10100000352E+00 0.  1.
</event>
<event>
 5   0  0.4142886E-06  0.1764082E+04  0.7818609E-02  0.8725637E-01
        1   -1    0    0  501    0  0.00000000000E+00  0.00000000000E+00  0.20704114074E+04  0.20704114074E+04  0.50400001928E-02 0.  1.
       -1   -1    0    0    0  501  0.00000000000E+00  0.00000000000E+00 -0.37576877234E+03  0.37576877238E+03  0.50400001928E-02 0. -1.
    10030    2    1    2    0    0  0.00000000000E+00  0.00000000000E+00  0.16946426351E+04  0.24461801798E+04  0.17640815773E+04 0.  0.
        5    1    3    3  502    0 -0.49698475470E+03  0.48796734168E+03  0.96899145094E+02  0.70321938772E+03  0.46999998093E+01 0. -1.
       -5    1    3    3    0  502  0.49698475470E+03 -0.48796734168E+03  0.15977434900E+04  0.17429607921E+04  0.46999998093E+01 0.  1.
</event>
<event>
 5   0  0.8237664E-06  0.3143414E+04  0.7818609E-02  0.8203923E-01
        2   -1    0    0  501    0  0.00000000000E+00  0.00000000000E+00  0.18492190131E+04  0.18492190131E+04  0.25500000920E-02 0. -1.
       -2   -1    0    0    0  501  0.00000000000E+00  0.00000000000E+00 -0.13358408940E+04  0.13358408940E+04  0.25500000920E-02 0.  1.
    10030    2    1    2    0    0  0.00000000000E+00  0.00000000000E+00  0.51337811916E+03  0.31850599071E+04  0.31434136729E+04 0.  0.
        5    1    3    3  502    0  0.16454389498E+03 -0.29643345869E+03 -0.12983400373E+04  0.13418854017E+04  0.46999998093E+01 0.  1.
       -5    1    3    3    0  502 -0.16454389498E+03  0.29643345869E+03  0.18117181565E+04  0.18431745054E+04  0.46999998093E+01 0. -1.
</event>
<event>
 5   0  0.7952307E-06  0.3147250E+04  0.7818609E-02  0.8202889E-01
       -2   -1    0    0    0  501  0.00000000000E+00  0.00000000000E+00  0.83429801624E+03  0.83429801625E+03  0.25500000920E-02 0. -1.
        2   -1    0    0  501    0  0.00000000000E+00  0.00000000000E+00 -0.29681192671E+04  0.29681192671E+04  0.25500000920E-02 0.  1.
    10030    2    1    2    0    0  0.00000000000E+00  0.00000000000E+00 -0.21338212508E+04  0.38024172833E+04  0.31472502389E+04 0.  0.
        2    1    3    3  502    0 -0.12600395179E+04  0.32845927680E+02 -0.22051064316E+04  0.25399355930E+04  0.25500000920E-02 0.  1.
       -2    1    3    3    0  502  0.12600395179E+04 -0.32845927680E+02  0.71285180801E+02  0.12624816904E+04  0.25500000920E-02 0. -1.
</event>
<event>
 5   0  0.2788054E-06  0.3154957E+04  0.7818609E-02  0.8200815E-01
        1   -1    0    0  501    0  0.00000000000E+00  0.00000000000E+00  0.25489514319E+04  0.25489514319E+04  0.50400001928E-02 0.  1.
       -1   -1    0    0    0  501  0.00000000000E+00  0.00000000000E+00 -0.97625978363E+03  0.97625978365E+03  0.50400001928E-02 0. -1.
    10030    2    1    2    0    0  0.00000000000E+00  0.00000000000E+00  0.15726916483E+04  0.35252112156E+04  0.31549572253E+04 0.  0.
        3    1    3    3  502    0 -0.11468474285E+04 -0.10807522953E+04  0.70612761969E+03  0.17268181067E+04  0.10100000352E+00 0.  1.
       -3    1    3    3    0  502  0.11468474285E+04  0.10807522953E+04  0.86656402858E+03  0.17983931089E+04  0.10100000352E+00 0. -1.
</event>
<event>
 5   0  0.8237664E-06  0.3201465E+04  0.7818609E-02  0.8188430E-01
       -2   -1    0    0    0  501  0.00000000000E+00  0.00000000000E+00  0.13352728887E+04  0.13352728887E+04  0.25500000920E-02 0.  1.
        2   -1    0    0  501    0  0.00000000000E+00  0.00000000000E+00 -0.19189672360E+04  0.19189672360E+04  0.25500000920E-02 0. -1.
    10030    2    1    2    0    0  0.00000000000E+00  0.00000000000E+00 -0.58369434727E+03  0.32542401247E+04  0.32014652424E+04 0.  0.
        5    1    3    3  502    0  0.62954149489E+03  0.14230054955E+04  0.89917839822E+02  0.15586450661E+04  0.46999998093E+01 0. -1.
       -5    1    3    3    0  502 -0.62954149489E+03 -0.14230054955E+04 -0.67361218709E+03  0.16955950586E+04  0.46999998093E+01 0.  1.
</event>
<event>
 5   0  0.8237664E-06  0.3188364E+04  0.7818609E-02  0.8191897E-01
        2   -1    0    0  501    0  0.00000000000E+00  0.00000000000E+00  0.16397413057E+04  0.16397413057E+04  0.25500000920E-02 0.  1.
       -2   -1    0    0    0  501  0.00000000000E+00  0.00000000000E+00 -0.15498888437E+04  0.15498888437E+04  0.25500000920E-02 0. -1.
    10030    2    1    2    0    0  0.00000000000E+00  0.00000000000E+00  0.89852462010E+02  0.31896301495E+04  0.31883643182E+04 0.  0.
        5    1    3    3  502    0  0.10849480730E+04  0.62151253260E+03 -0.94440750329E+03  0.15669453633E+04  0.46999998093E+01 0. -1.
       -5    1    3    3    0  502 -0.10849480730E+04 -0.62151253260E+03  0.10342599653E+04  0.16226847861E+04  0.46999998093E+01 0.  1.
</event>
<event>
 5   0  0.7971763E-06  0.3138817E+04  0.7818609E-02  0.8205165E-01
       -2   -1    0    0    0  501  0.00000000000E+00  0.00000000000E+00  0.14279649491E+04  0.14279649491E+04  0.25500000920E-02 0. -1.
        2   -1    0    0  501    0  0.00000000000E+00  0.00000000000E+00 -0.17248626382E+04  0.17248626382E+04  0.25500000920E-02 0.  1.
    10030    2    1    2    0    0  0.00000000000E+00  0.00000000000E+00 -0.29689768907E+03  0.31528275873E+04  0.31388172227E+04 0.  0.
        1    1    3    3  502    0 -0.12825723294E+04 -0.86146844583E+03  0.12832366519E+03  0.15503504850E+04  0.50400001928E-02 0.  1.
       -1    1    3    3    0  502  0.12825723294E+04  0.86146844583E+03 -0.42522135426E+03  0.16024771023E+04  0.50400001928E-02 0. -1.
</event>
<event>
 5   0  0.7941434E-06  0.3095399E+04  0.7818609E-02  0.8217002E-01
        2   -1    0    0  501    0  0.00000000000E+00  0.00000000000E+00  0.27976659695E+04  0.27976659695E+04  0.25500000920E-02 0. -1.
       -2   -1    0    0    0  501  0.00000000000E+00  0.00000000000E+00 -0.85620411165E+03  0.85620411165E+03  0.25500000920E-02 0.  1.
    10030    2    1    2    0    0  0.00000000000E+00  0.00000000000E+00  0.19414618578E+04  0.36538700811E+04  0.30953985889E+04 0.  0.
        4    1    3    3  502    0 -0.85836169675E+03  0.53933927132E+02 -0.54815247477E+03  0.10198854933E+04  0.12699999809E+01 0.  1.
       -4    1    3    3    0  502  0.85836169675E+03 -0.53933927132E+02  0.24896143326E+04  0.26339845878E+04  0.12699999809E+01 0. -1.
</event>
<event>
 5   0  0.2788054E-06  0.3229688E+04  0.7818609E-02  0.8181020E-01
       -1   -1    0    0    0  501  0.00000000000E+00  0.00000000000E+00  0.12066017386E+04  0.12066017386E+04  0.50400001928E-02 0. -1.
        1   -1    0    0  501    0  0.00000000000E+00  0.00000000000E+00 -0.21612113793E+04  0.21612113793E+04  0.50400001928E-02 0.  1.
    10030    2    1    2    0    0  0.00000000000E+00  0.00000000000E+00 -0.95460964071E+03  0.33678131178E+04  0.32296881631E+04 0.  0.
        3    1    3    3  502    0  0.66959360360E+03 -0.12551973762E+04  0.31947129211E+03  0.14580596571E+04  0.10100000352E+00 0. -1.
       -3    1    3    3    0  502 -0.66959360360E+03  0.12551973762E+04 -0.12740809328E+04  0.19097534607E+04  0.10100000352E+00 0.  1.
</event>
<event>
 5   0  0.2635798E-06  0.3193464E+04  0.7818609E-02  0.8190545E-01
       -1   -1    0    0    0  501  0.00000000000E+00  0.00000000000E+00  0.11469138704E+04  0.11469138704E+04  0.50400001928E-02 0. -1.
        1   -1    0    0  501    0  0.00000000000E+00  0.00000000000E+00 -0.22229685502E+04  0.22229685502E+04  0.50400001928E-02 0.  1.
    10030    2    1    2    0    0  0.00000000000E+00  0.00000000000E+00 -0.10760546798E+04  0.33698824206E+04  0.31934642404E+04 0.  0.
        1    1    3    3  502    0  0.59669434913E+03 -0.12200895238E+04  0.34793167955E+03  0.14020410286E+04  0.50400001928E-02 0. -1.
       -1    1    3    3    0  502 -0.59669434913E+03  0.12200895238E+04 -0.14239863594E+04  0.19678413920E+04  0.50400001928E-02 0.  1.
</event>
<event>
 5   0  0.7971763E-06  0.2701835E+04  0.7818609E-02  0.8334410E-01
        2   -1    0    0  501    0  0.00000000000E+00  0.00000000000E+00  0.16341427469E+04  0.16341427469E+04  0.25500000920E-02 0. -1.
       -2   -1    0    0    0  501  0.00000000000E+00  0.00000000000E+00 -0.11167803116E+04  0.11167803116E+04  0.25500000920E-02 0.  1.
    10030    2    1    2    0    0  0.00000000000E+00  0.00000000000E+00  0.51736243531E+03  0.27509230585E+04  0.27018352622E+04 0.  0.
        1    1    3    3  502    0 -0.77969742619E+02 -0.59034320251E+03 -0.97594771243E+03  0.11432665109E+04  0.50400001928E-02 0.  1.
       -1    1    3    3    0  502  0.77969742619E+02  0.59034320251E+03  0.14933101477E+04  0.16076565476E+04  0.50400001928E-02 0. -1.
</event>
<event>
 5   0  0.2635798E-06  0.3254762E+04  0.7818609E-02  0.8174503E-01
        1   -1    0    0  501    0  0.00000000000E+00  0.00000000000E+00  0.23808939219E+04  0.23808939219E+04  0.50400001928E-02 0.  1.
       -1   -1    0    0    0  501  0.00000000000E+00  0.00000000000E+00 -0.11123419540E+04  0.11123419540E+04  0.50400001928E-02 0. -1.
    10030    2    1    2    0    0  0.00000000000E+00  0.00000000000E+00  0.12685519679E+04  0.34932358759E+04  0.32547615565E+04 0.  0.
        1    1    3    3  502    0  0.10548046274E+04 -0.79805894381E+03 -0.38327016087E+03  0.13771009027E+04  0.50400001928E-02 0. -1.
       -1    1    3    3    0  502 -0.10548046274E+04  0.79805894381E+03  0.16518221288E+04  0.21161349732E+04  0.50400001928E-02 0.  1.
</event>
<event>
 5   0  0.7941434E-06  0.2880255E+04  0.7818609E-02  0.8278776E-01
       -2   -1    0    0    0  501  0.00000000000E+00  0.00000000000E+00  0.11266551695E+04  0.11266551695E+04  0.25500000920E-02 0. -1.
        2   -1    0    0  501    0  0.00000000000E+00  0.00000000000E+00 -0.18408182071E+04  0.18408182071E+04  0.25500000920E-02 0.  1.
    10030    2    1    2    0    0  0.00000000000E+00  0.00000000000E+00 -0.71416303757E+03  0.29674733766E+04  0.28802550922E+04 0.  0.
        4    1    3    3  502    0  0.11073277412E+04 -0.65752118030E+03 -0.10211591780E+04  0.16435560558E+04  0.12699999809E+01 0.  1.
       -4    1    3    3    0  502 -0.11073277412E+04  0.65752118030E+03  0.30699614045E+03  0.13239173207E+04  0.12699999809E+01 0. -1.
</event>
<event>
 5   0  0.8237664E-06  0.3223679E+04  0.7818609E-02  0.8182591E-01
       -2   -1    0    0    0  501  0.00000000000E+00  0.00000000000E+00  0.11550523273E+04  0.11550523273E+04  0.25500000920E-02 0.  1.
        2   -1    0    0  501    0  0.00000000000E+00  0.00000000000E+00 -0.22492718985E+04  0.22492718985E+04  0.25500000920E-02 0. -1.
    10030    2    1    2    0    0  0.00000000000E+00  0.00000000000E+00 -0.10942195712E+04  0.34043242258E+04  0.32236791039E+04 0.  0.
        5    1    3    3  502    0 -0.10086853326E+04  0.12309898824E+04 -0.27741180158E+03  0.16154756539E+04  0.46999998093E+01 0. -1.
       -5    1    3    3    0  502  0.10086853326E+04 -0.12309898824E+04 -0.81680776960E+03  0.17888485719E+04  0.46999998093E+01 0.  1.
</event>
<event>
 5   0  0.8237664E-06  0.2917464E+04  0.7818609E-02  0.8267700E-01
       -2   -1    0    0    0  501  0.00000000000E+00  0.00000000000E+00  0.24912015467E+04  0.24912015467E+04  0.25500000920E-02 0.  1.
        2   -1    0    0  501    0  0.00000000000E+00  0.00000000000E+00 -0.85416568545E+03  0.85416568546E+03  0.25500000920E-02 0. -1.
    10030    2    1    2    0    0  0.00000000000E+00  0.00000000000E+00  0.16370358613E+04  0.33453672322E+04  0.29174638827E+04 0.  0.
        5    1    3    3  502    0 -0.29219878727E+03  0.10700944892E+04 -0.26773258973E+03  0.11411332861E+04  0.46999998093E+01 0. -1.
       -5    1    3    3    0  502  0.29219878727E+03 -0.10700944892E+04  0.19047684510E+04  0.22042339461E+04  0.46999998093E+01 0.  1.
</event>
<event>
 5   0  0.3938696E-06  0.1790477E+04  0.7818609E-02  0.8711380E-01
       -1   -1    0    0    0  501  0.00000000000E+00  0.00000000000E+00  0.11952238689E+04  0.11952238690E+04  0.50400001928E-02 0. -1.
        1   -1    0    0  501    0  0.00000000000E+00  0.00000000000E+00 -0.67054517538E+03  0.67054517540E+03  0.50400001928E-02 0.  1.
    10030    2    1    2    0    0  0.00000000000E+00  0.00000000000E+00  0.52467869356E+03  0.18657690444E+04  0.17904765833E+04 0.  0.
        4    1    3    3  502    0  0.20320713011E+03 -0.86848508877E+03  0.34231637707E+03  0.95537511065E+03  0.12699999809E+01 0. -1.
       -4    1    3    3    0  502 -0.20320713011E+03  0.86848508877E+03  0.18236231649E+03  0.91039393370E+03  0.12699999809E+01 0.  1.
</event>
<event>
 5   0  0.3938696E-06  0.3157725E+04  0.7818609E-02  0.8200072E-01
       -1   -1    0    0    0  501  0.00000000000E+00  0.00000000000E+00  0.31592545974E+04  0.31592545974E+04  0.50400001928E-02 0.  1.
        1   -1    0    0  501    0  0.00000000000E+00  0.00000000000E+00 -0.78904888825E+03  0.78904888827E+03  0.50400001928E-02 0. -1.
    10030    2    1    2    0    0  0.00000000000E+00  0.00000000000E+00  0.23702057091E+04  0.39483034856E+04  0.31577247048E+04 0.  0.
        4    1    3    3  502    0 -0.60583254343E+03 -0.89569856242E+02  0.30046926529E+04  0.30664695304E+04  0.12699999809E+01 0.  1.
       -4    1    3    3    0  502  0.60583254343E+03  0.89569856242E+02 -0.63448694378E+03  0.88183395521E+03  0.12699999809E+01 0. -1.
</event>
<event>
 5   0  0.2635798E-06  0.3245206E+04  0.7818609E-02  0.8176979E-01
       -1   -1    0    0    0  501  0.00000000000E+00  0.00000000000E+00  0.14207904414E+04  0.14207904414E+04  0.50400001928E-02 0. -1.
        1   -1    0    0  501    0  0.00000000000E+00  0.00000000000E+00 -0.18530810498E+04  0.18530810498E+04  0.50400001928E-02 0.  1.
    10030    2    1    2    0    0  0.00000000000E+00  0.00000000000E+00 -0.43229060834E+03  0.32738714912E+04  0.32452055976E+04 0.  0.
        1    1    3    3  502    0 -0.11794350132E+04  0.91058112121E+03  0.43187986263E+03  0.15513687970E+04  0.50400001928E-02 0. -1.
       -1    1    3    3    0  502  0.11794350132E+04 -0.91058112121E+03 -0.86417047097E+03  0.17225026942E+04  0.50400001928E-02 0.  1.
</event>
<event>
 5   0  0.8237664E-06  0.3104800E+04  0.7818609E-02  0.8214422E-01
       -2   -1    0    0    0  501  0.00000000000E+00  0.00000000000E+00  0.12747244595E+04  0.12747244595E+04  0.25500000920E-02 0. -1.
        2   -1    0    0  501    0  0.00000000000E+00  0.00000000000E+00 -0.18905618034E+04  0.18905618035E+04  0.25500000920E-02 0.  1.
    10030    2    1    2    0    0  0.00000000000E+00  0.00000000000E+00 -0.61583734395E+03  0.31652862629E+04  0.31047997507E+04 0.  0.
        5    1    3    3  502    0 -0.15179699216E+03  0.52851040041E+03 -0.17879439608E+04  0.18705965003E+04  0.46999998093E+01 0.  1.
       -5    1    3    3    0  502  0.15179699216E+03 -0.52851040041E+03  0.11721066168E+04  0.12946897626E+04  0.46999998093E+01 0. -1.
</event>
<event>
 5   0  0.7971763E-06  0.3252163E+04  0.7818609E-02  0.8175175E-01
       -2   -1    0    0    0  501  0.00000000000E+00  0.00000000000E+00  0.21076245112E+04  0.21076245112E+04  0.25500000920E-02 0. -1.
        2   -1    0    0  501    0  0.00000000000E+00  0.00000000000E+00 -0.12545597468E+04  0.12545597468E+04  0.25500000920E-02 0.  1.
    10030    2    1    2    0    0  0.00000000000E+00  0.00000000000E+00  0.85306476445E+03  0.33621842580E+04  0.32521628945E+04 0.  0.
        1    1    3    3  502    0 -0.20479738592E+03  0.15419764191E+04 -0.63319486969E+02  0.15568052556E+04  0.50400001928E-02 0.  1.
       -1    1    3    3    0  502  0.20479738592E+03 -0.15419764191E+04  0.91638425142E+03  0.18053790025E+04  0.50400001928E-02 0. -1.
</event>
<event>
 5   0  0.7971763E-06  0.2300193E+04  0.7818609E-02  0.8477845E-01
       -2   -1    0    0    0  501  0.00000000000E+00  0.00000000000E+00  0.11045483142E+04  0.11045483142E+04  0.25500000920E-02 0. -1.
        2   -1    0    0  501    0  0.00000000000E+00  0.00000000000E+00 -0.11975224971E+04  0.11975224971E+04  0.25500000920E-02 0.  1.
    10030    2    1    2    0    0  0.00000000000E+00  0.00000000000E+00 -0.92974182889E+02  0.23020708113E+04  0.23001925619E+04 0.  0.
        1    1    3    3  502    0 -0.30327559911E+03  0.25096450541E+03 -0.11279999495E+04  0.11947146764E+04  0.50400001928E-02 0.  1.
       -1    1    3    3    0  502  0.30327559911E+03 -0.25096450541E+03  0.10350257666E+04  0.11073561349E+04  0.50400001928E-02 0. -1.
</event>
<event>
 5   0  0.7971763E-06  0.3170525E+04  0.7818609E-02  0.8196645E-01
        2   -1    0    0  501    0  0.00000000000E+00  0.00000000000E+00  0.16140780127E+04  0.16140780127E+04  0.25500000920E-02 0. -1.
       -2   -1    0    0    0  501  0.00000000000E+00  0.00000000000E+00 -0.15569611956E+04  0.15569611956E+04  0.25500000920E-02 0.  1.
    10030    2    1    2    0    0  0.00000000000E+00  0.00000000000E+00  0.57116817039E+02  0.31710392083E+04  0.31705247720E+04 0.  0.
        1    1    3    3  502    0 -0.49735312104E+03  0.12849037205E+04  0.81272588694E+03  0.15996440433E+04  0.50400001928E-02 0. -1.
       -1    1    3    3    0  502  0.49735312104E+03 -0.12849037205E+04 -0.75560906990E+03  0.15713951650E+04  0.50400001928E-02 0.  1.
</event>
<event>
 5   0  0.2933646E-06  0.3204602E+04  0.7818609E-02  0.8187603E-01
        1   -1    0    0  501    0  0.00000000000E+00  0.00000000000E+00  0.20002259531E+04  0.20002259531E+04  0.50400001928E-02 0. -1.
       -1   -1    0    0    0  501  0.00000000000E+00  0.00000000000E+00 -0.12835389765E+04  0.12835389765E+04  0.50400001928E-02 0.  1.
    10030    2    1    2    0    0  0.00000000000E+00  0.00000000000E+00  0.71668697657E+03  0.32837649296E+04  0.32046016742E+04 0.  0.
        2    1    3    3  502    0  0.14006377018E+03 -0.74128360971E+02  0.19921761307E+04  0.19984690664E+04  0.25500000920E-02 0. -1.
       -2    1    3    3    0  502 -0.14006377018E+03  0.74128360971E+02 -0.12754891541E+04  0.12852958632E+04  0.25500000920E-02 0.  1.
</event>
<event>
 5   0  0.8237664E-06  0.3206489E+04  0.7818609E-02  0.8187106E-01
       -2   -1    0    0    0  501  0.00000000000E+00  0.00000000000E+00  0.11491276611E+04  0.11491276611E+04  0.25500000920E-02 0. -1.
        2   -1    0    0  501    0  0.00000000000E+00  0.00000000000E+00 -0.22368205066E+04  0.22368205066E+04  0.25500000920E-02 0.  1.
    10030    2    1    2    0    0  0.00000000000E+00  0.00000000000E+00 -0.10876928456E+04  0.33859481677E+04  0.32064886197E+04 0.  0.
        5    1    3    3  502    0  0.17330961601E+03  0.94862127464E+03  0.80863816319E+03  0.12585055879E+04  0.46999998093E+01 0. -1.
       -5    1    3    3    0  502 -0.17330961601E+03 -0.94862127464E+03 -0.18963310088E+04  0.21274425798E+04  0.46999998093E+01 0.  1.
</event>
<event>
 5   0  0.3938696E-06  0.3353145E+04  0.7818609E-02  0.8149503E-01
       -1   -1    0    0    0  501  0.00000000000E+00  0.00000000000E+00  0.14447759461E+04  0.14447759461E+04  0.50400001928E-02 0. -1.
        1   -1    0    0  501    0  0.00000000000E+00  0.00000000000E+00 -0.19455585108E+04  0.19455585108E+04  0.50400001928E-02 0.  1.
    10030    2    1    2    0    0  0.00000000000E+00  0.00000000000E+00 -0.50078256476E+03  0.33903344569E+04  0.33531454714E+04 0.  0.
        4    1    3    3  502    0  0.91410737637E+03  0.14779749447E+03  0.11627715353E+04  0.14864305067E+04  0.12699999809E+01 0. -1.
       -4    1    3    3    0  502 -0.91410737637E+03 -0.14779749447E+03 -0.16635541001E+04  0.19039039502E+04  0.12699999809E+01 0.  1.
</event>
<event>
 5   0  0.7952307E-06  0.1980683E+04  0.7818609E-02  0.8615705E-01
        2   -1    0    0  501    0  0.00000000000E+00  0.00000000000E+00  0.12332161673E+04  0.12332161673E+04  0.25500000920E-02 0.  1.
       -2   -1    0    0    0  501  0.00000000000E+00  0.00000000000E+00 -0.79529995147E+03  0.79529995147E+03  0.25500000920E-02 0. -1.
    10030    2    1    2    0    0  0.00000000000E+00  0.00000000000E+00  0.43791621580E+03  0.20285161187E+04  0.19806834760E+04 0.  0.
        2    1    3    3  502    0  0.72808140482E+03 -0.11811631530E+03  0.89576737801E+03  0.11603676967E+04  0.25500000920E-02 0.  1.
       -2    1    3    3    0  502 -0.72808140482E+03  0.11811631530E+03 -0.45785116221E+03  0.86814842206E+03  0.25500000920E-02 0. -1.
</event>
<event>
 5   0  0.2635798E-06  0.3303454E+04  0.7818609E-02  0.8162017E-01
       -1   -1    0    0    0  501  0.00000000000E+00  0.00000000000E+00  0.17122906248E+04  0.17122906248E+04  0.50400001928E-02 0.  1.
        1   -1    0    0  501    0  0.00000000000E+00  0.00000000000E+00 -0.15933058552E+04  0.15933058552E+04  0.50400001928E-02 0. -1.
    10030    2    1    2    0    0  0.00000000000E+00  0.00000000000E+00  0.11898476959E+03  0.33055964800E+04  0.33034543607E+04 0.  0.
        1    1    3    3  502    0  0.14736790018E+04 -0.65927842694E+03  0.40875285954E+03  0.16653698522E+04  0.50400001928E-02 0.  1.
       -1    1    3    3    0  502 -0.14736790018E+04  0.65927842694E+03 -0.28976808995E+03  0.16402266278E+04  0.50400001928E-02 0. -1.
</event>
<event>
 5   0  0.7510251E-06  0.3141204E+04  0.7818609E-02  0.8204520E-01
        2   -1    0    0  501    0  0.00000000000E+00  0.00000000000E+00  0.20179548145E+04  0.20179548145E+04  0.25500000920E-02 0. -1.
       -2   -1    0    0    0  501  0.00000000000E+00  0.00000000000E+00 -0.12224213206E+04  0.12224213206E+04  0.25500000920E-02 0.  1.
    10030    2    1    2    0    0  0.00000000000E+00  0.00000000000E+00  0.79553349390E+03  0.32403761351E+04  0.31412042208E+04 0.  0.
        3    1    3    3  502    0 -0.13577623978E+04 -0.78430082501E+03  0.30467084638E+03  0.15973324162E+04  0.10100000352E+00 0. -1.
       -3    1    3    3    0  502  0.13577623978E+04  0.78430082501E+03  0.49086264751E+03  0.16430437188E+04  0.10100000352E+00 0.  1.
</event>
<event>
 5   0  0.8237664E-06  0.3102173E+04  0.7818609E-02  0.8215142E-01
        2   -1    0    0  501    0  0.00000000000E+00  0.00000000000E+00  0.16246043975E+04  0.16246043975E+04  0.25500000920E-02 0.  1.
       -2   -1    0    0    0  501  0.00000000000E+00  0.00000000000E+00 -0.14808955462E+04  0.14808955462E+04  0.25500000920E-02 0. -1.
    10030    2    1    2    0    0  0.00000000000E+00  0.00000000000E+00  0.14370885127E+03  0.31054999436E+04  0.31021730555E+04 0.  0.
        5    1    3    3  502    0  0.60139798521E+03 -0.59788575494E+03  0.13719775417E+04  0.16129139399E+04  0.46999998093E+01 0.  1.
       -5    1    3    3    0  502 -0.60139798521E+03  0.59788575494E+03 -0.12282686905E+04  0.14925860037E+04  0.46999998093E+01 0. -1.
</event>
<event>
 5   0  0.2788054E-06  0.2805167E+04  0.7818609E-02  0.8301666E-01
       -1   -1    0    0    0  501  0.00000000000E+00  0.00000000000E+00  0.85705543537E+03  0.85705543538E+03  0.50400001928E-02 0. -1.
        1   -1    0    0  501    0  0.00000000000E+00  0.00000000000E+00 -0.22953487499E+04  0.22953487500E+04  0.50400001928E-02 0.  1.
    10030    2    1    2    0    0  0.00000000000E+00  0.00000000000E+00 -0.14382933146E+04  0.31524041853E+04  0.28051674618E+04 0.  0.
        3    1    3    3  502    0 -0.84838430181E+03 -0.75316727373E+03  0.20770270777E+03  0.11533244517E+04  0.10100000352E+00 0. -1.
       -3    1    3    3    0  502  0.84838430181E+03  0.75316727373E+03 -0.16459960224E+04  0.19990797337E+04  0.10100000352E+00 0.  1.
</event>
<event>
 5   0  0.2635798E-06  0.1641684E+04  0.7818609E-02  0.8795341E-01
        1   -1    0    0  501    0  0.00000000000E+00  0.00000000000E+00  0.10526507404E+04  0.10526507404E+04  0.50400001928E-02 0.  1.
       -1   -1    0    0    0  501  0.00000000000E+00  0.00000000000E+00 -0.64008119368E+03  0.64008119370E+03  0.50400001928E-02 0. -1.
    10030    2    1    2    0    0  0.00000000000E+00  0.00000000000E+00  0.41256954672E+03  0.16927319341E+04  0.16416844307E+04 0.  0.
        1    1    3    3  502    0  0.20088076506E+03 -0.60606422969E+03 -0.32561915001E+03  0.71672502619E+03  0.50400001928E-02 0. -1.
       -1    1    3    3    0  502 -0.20088076506E+03  0.60606422969E+03  0.73818869674E+03  0.97600690792E+03  0.50400001928E-02 0.  1.
</event>
<event>
 5   0  0.2580875E-06  0.3303864E+04  0.7818609E-02  0.8161913E-01
        3   -1    0    0  501    0  0.00000000000E+00  0.00000000000E+00  0.10905759744E+04  0.10905759791E+04  0.10100000352E+00 0.  1.
       -3   -1    0    0    0  501  0.00000000000E+00  0.00000000000E+00 -0.25022361865E+04  0.25022361885E+04  0.10100000352E+00 0. -1.
    10030    2    1    2    0    0  0.00000000000E+00  0.00000000000E+00 -0.14116602121E+04  0.35928121676E+04  0.33038636045E+04 0.  0.
        5    1    3    3  502    0  0.15691676690E+04  0.36203547368E+03 -0.11061264473E+04  0.19536874533E+04  0.46999998093E+01 0. -1.
       -5    1    3    3    0  502 -0.15691676690E+04 -0.36203547368E+03 -0.30553376474E+03  0.16391247143E+04  0.46999998093E+01 0.  1.
</event>
<event>
 5   0  0.8237664E-06  0.2109555E+04  0.7818609E-02  0.8557046E-01
        2   -1    0    0  501    0  0.00000000000E+00  0.00000000000E+00  0.69710084562E+03  0.69710084563E+03  0.25500000920E-02 0. -1.
       -2   -1    0    0    0  501  0.00000000000E+00  0.00000000000E+00 -0.15959751339E+04  0.15959751339E+04  0.25500000920E-02 0.  1.
    10030    2    1    2    0    0  0.00000000000E+00  0.00000000000E+00 -0.89887428829E+03  0.22930759795E+04  0.21095550388E+04 0.  0.
        5    1    3    3  502    0 -0.63152201302E+03 -0.35327404906E+03  0.38472866995E+03  0.81954917250E+03  0.46999998093E+01 0. -1.
       -5    1    3    3    0  502  0.63152201302E+03  0.35327404906E+03 -0.12836029582E+04  0.14735268070E+04  0.46999998093E+01 0.  1.
</event>
<event>
 5   0  0.8237664E-06  0.3176138E+04  0.7818609E-02  0.8195148E-01
       -2   -1    0    0    0  501  0.00000000000E+00  0.00000000000E+00  0.13632303495E+04  0.13632303495E+04  0.25500000920E-02 0.  1.
        2   -1    0    0  501    0  0.00000000000E+00  0.00000000000E+00 -0.18499904232E+04  0.18499904232E+04  0.25500000920E-02 0. -1.
    10030    2    1    2    0    0  0.00000000000E+00  0.00000000000E+00 -0.48676007373E+03  0.32132207727E+04  0.31761379638E+04 0.  0.
        5    1    3    3  502    0 -0.11758934144E+04 -0.79436963116E+03  0.47781937174E+03  0.14973582988E+04  0.46999998093E+01 0.  1.
       -5    1    3    3    0  502  0.11758934144E+04  0.79436963116E+03 -0.96457944547E+03  0.17158624740E+04  0.46999998093E+01 0. -1.
</event>
<event>
 5   0  0.7510251E-06  0.3132403E+04  0.7818609E-02  0.8206901E-01
       -2   -1    0    0    0  501  0.00000000000E+00  0.00000000000E+00  0.18615327391E+04  0.18615327391E+04  0.25500000920E-02 0. -1.
        2   -1    0    0  501    0  0.00000000000E+00  0.00000000000E+00 -0.13177240940E+04  0.13177240940E+04  0.25500000920E-02 0.  1.
    10030    2    1    2    0    0  0.00000000000E+00  0.00000000000E+00  0.54380864511E+03  0.31792568331E+04  0.31324026191E+04 0.  0.
        3    1    3    3  502    0 -0.14580500524E+04  0.92778682567E+02 -0.30086718700E+03  0.14916564329E+04  0.10100000352E+00 0.  1.
       -3    1    3    3    0  502  0.14580500524E+04 -0.92778682567E+02  0.84467583211E+03  0.16876004002E+04  0.10100000352E+00 0. -1.
</event>
<event>
 5   0  0.8237664E-06  0.3215081E+04  0.7818609E-02  0.8184846E-01
       -2   -1    0    0    0  501  0.00000000000E+00  0.00000000000E+00  0.13579672865E+04  0.13579672865E+04  0.25500000920E-02 0.  1.
        2   -1    0    0  501    0  0.00000000000E+00  0.00000000000E+00 -0.19029816679E+04  0.19029816679E+04  0.25500000920E-02 0. -1.
    10030    2    1    2    0    0  0.00000000000E+00  0.00000000000E+00 -0.54501438138E+03  0.32609489544E+04  0.32150812443E+04 0.  0.
        5    1    3    3  502    0 -0.11304006181E+03 -0.59454967155E+03  0.12379999199E+04  0.13780178733E+04  0.46999998093E+01 0.  1.
       -5    1    3    3    0  502  0.11304006181E+03  0.59454967155E+03 -0.17830143013E+04  0.18829310811E+04  0.46999998093E+01 0. -1.
</event>
<event>
 5   0  0.2933646E-06  0.2511923E+04  0.7818609E-02  0.8398750E-01
       -1   -1    0    0    0  501  0.00000000000E+00  0.00000000000E+00  0.10172462985E+04  0.10172462985E+04  0.50400001928E-02 0.  1.
        1   -1    0    0  501    0  0.00000000000E+00  0.00000000000E+00 -0.15506951444E+04  0.15506951444E+04  0.50400001928E-02 0. -1.
    10030    2    1    2    0    0  0.00000000000E+00  0.00000000000E+00 -0.53344884595E+03  0.25679414429E+04  0.25119226865E+04 0.  0.
        2    1    3    3  502    0  0.27527356938E+03  0.44693505366E+03  0.89973525906E+03  0.10416573413E+04  0.25500000920E-02 0.  1.
       -2    1    3    3    0  502 -0.27527356938E+03 -0.44693505366E+03 -0.14331841050E+04  0.15262841017E+04  0.25500000920E-02 0. -1.
</event>
<event>
 5   0  0.7510251E-06  0.2106326E+04  0.7818609E-02  0.8558462E-01
       -2   -1    0    0    0  501  0.00000000000E+00  0.00000000000E+00  0.95287068290E+03  0.95287068290E+03  0.25500000920E-02 0. -1.
        2   -1    0    0  501    0  0.00000000000E+00  0.00000000000E+00 -0.11640110060E+04  0.11640110060E+04  0.25500000920E-02 0.  1.
    10030    2    1    2    0    0  0.00000000000E+00  0.00000000000E+00 -0.21114032310E+03  0.21168816889E+04  0.21063256749E+04 0.  0.
        3    1    3    3  502    0 -0.34293549677E+03  0.97919345319E+03 -0.28738388992E+03  0.10765751642E+04  0.10100000352E+00 0.  1.
       -3    1    3    3    0  502  0.34293549677E+03 -0.97919345319E+03  0.76243566827E+02  0.10403065247E+04  0.10100000352E+00 0. -1.
</event>
<event>
 5   0  0.7941434E-06  0.3182837E+04  0.7818609E-02  0.8193365E-01
       -2   -1    0    0    0  501  0.00000000000E+00  0.00000000000E+00  0.12853803570E+04  0.12853803570E+04  0.25500000920E-02 0.  1.
        2   -1    0    0  501    0  0.00000000000E+00  0.00000000000E+00 -0.19703215827E+04  0.19703215827E+04  0.25500000920E-02 0. -1.
    10030    2    1    2    0    0  0.00000000000E+00  0.00000000000E+00 -0.68494122577E+03  0.32557019397E+04  0.31828368852E+04 0.  0.
        4    1    3    3  502    0 -0.12507613015E+04  0.58653855218E+03  0.46566657100E+03  0.14578334180E+04  0.12699999809E+01 0.  1.
       -4    1    3    3    0  502  0.12507613015E+04 -0.58653855218E+03 -0.11506077968E+04  0.17978685217E+04  0.12699999809E+01 0. -1.
</event>
<event>
 5   0  0.7510251E-06  0.3228759E+04  0.7818609E-02  0.8181263E-01
       -2   -1    0    0    0  501  0.00000000000E+00  0.00000000000E+00  0.11835377955E+04  0.11835377955E+04  0.25500000920E-02 0.  1.
        2   -1    0    0  501    0  0.00000000000E+00  0.00000000000E+00 -0.22020593146E+04  0.22020593146E+04  0.25500000920E-02 0. -1.
    10030    2    1    2    0    0  0.00000000000E+00  0.00000000000E+00 -0.10185215191E+04  0.33855971101E+04  0.32287585396E+04 0.  0.
        3    1    3    3  502    0 -0.18598923391E+02 -0.91800732547E+03  0.88307104259E+03  0.12739300789E+04  0.10100000352E+00 0.  1.
       -3    1    3    3    0  502  0.18598923391E+02  0.91800732547E+03 -0.19015925617E+04  0.21116670311E+04  0.10100000352E+00 0. -1.
</event>
<event>
 5   0  0.2933646E-06  0.3205571E+04  0.7818609E-02  0.8187348E-01
       -1   -1    0    0    0  501  0.00000000000E+00  0.00000000000E+00  0.14974174598E+04  0.14974174598E+04  0.50400001928E-02 0.  1.
        1   -1    0    0  501    0  0.00000000000E+00  0.00000000000E+00 -0.17155674421E+04  0.17155674421E+04  0.50400001928E-02 0. -1.
    10030    2    1    2    0    0  0.00000000000E+00  0.00000000000E+00 -0.21814998224E+03  0.32129849019E+04  0.32055705522E+04 0.  0.
        2    1    3    3  502    0 -0.55019918115E+03  0.10202554361E+04 -0.12185590812E+04  0.16818223831E+04  0.25500000920E-02 0. -1.
       -2    1    3    3    0  502  0.55019918115E+03 -0.10202554361E+04  0.10004090990E+04  0.15311625188E+04  0.25500000920E-02 0.  1.
</event>
<event>
 5   0  0.7952307E-06  0.1863200E+04  0.7818609E-02  0.8673394E-01
       -2   -1    0    0    0  501  0.00000000000E+00  0.00000000000E+00  0.47010616688E+03  0.47010616689E+03  0.25500000920E-02 0.  1.
        2   -1    0    0  501    0  0.00000000000E+00  0.00000000000E+00 -0.18461324922E+04  0.18461324922E+04  0.25500000920E-02 0. -1.
    10030    2    1    2    0    0  0.00000000000E+00  0.00000000000E+00 -0.13760263253E+04  0.23162386591E+04  0.18631996881E+04 0.  0.
        2    1    3    3  502    0  0.34113325362E+03 -0.69381316061E+03 -0.41897829095E+02  0.77427645364E+03  0.25500000920E-02 0.  1.
       -2    1    3    3    0  502 -0.34113325362E+03  0.69381316061E+03 -0.13341284962E+04  0.15419622054E+04  0.25500000920E-02 0. -1.
</event>
<event>
 5   0  0.3938696E-06  0.3247029E+04  0.7818609E-02  0.8176506E-01
        1   -1    0    0  501    0  0.00000000000E+00  0.00000000000E+00  0.16511786906E+04  0.16511786906E+04  0.50400001928E-02 0.  1.
       -1   -1    0    0    0  501  0.00000000000E+00  0.00000000000E+00 -0.15963141811E+04  0.15963141811E+04  0.50400001928E-02 0. -1.
    10030    2    1    2    0    0  0.00000000000E+00  0.00000000000E+00  0.54864509488E+02  0.32474928717E+04  0.32470293866E+04 0.  0.
        4    1    3    3  502    0 -0.59756830705E+03  0.60951863938E+03  0.14086425949E+04  0.16470811839E+04  0.12699999809E+01 0.  1.
       -4    1    3    3    0  502  0.59756830705E+03 -0.60951863938E+03 -0.13537780854E+04  0.16004116879E+04  0.12699999809E+01 0. -1.
</event>
<event>
 5   0  0.3938696E-06  0.2402243E+04  0.7818609E-02  0.8438664E-01
       -1   -1    0    0    0  501  0.00000000000E+00  0.00000000000E+00  0.66838553557E+03  0.66838553559E+03  0.50400001928E-02 0. -1.
        1   -1    0    0  501    0  0.00000000000E+00  0.00000000000E+00 -0.21584744813E+04  0.21584744813E+04  0.50400001928E-02 0.  1.
    10030    2    1    2    0    0  0.00000000000E+00  0.00000000000E+00 -0.14900889457E+04  0.28268600169E+04  0.24022432202E+04 0.  0.
        4    1    3    3  502    0  0.21411169442E+03  0.70925884675E+03 -0.18575633786E+04  0.19998588070E+04  0.12699999809E+01 0.  1.
       -4    1    3    3    0  502 -0.21411169442E+03 -0.70925884675E+03  0.36747443293E+03  0.82700120988E+03  0.12699999809E+01 0. -1.
</event>
<event>
 5   0  0.7941434E-06  0.1637105E+04  0.7818609E-02  0.8798071E-01
        2   -1    0    0  501    0  0.00000000000E+00  0.00000000000E+00  0.47496454499E+03  0.47496454500E+03  0.25500000920E-02 0.  1.
       -2   -1    0    0    0  501  0.00000000000E+00  0.00000000000E+00 -0.14106918246E+04  0.14106918246E+04  0.25500000920E-02 0. -1.
    10030    2    1    2    0    0  0.00000000000E+00  0.00000000000E+00 -0.93572727960E+03  0.18856563696E+04  0.16371054952E+04 0.  0.
        4    1    3    3  502    0 -0.33745551681E+03 -0.60451303216E+03 -0.97087527896E+03  0.11924397897E+04  0.12699999809E+01 0. -1.
       -4    1    3    3    0  502  0.33745551681E+03  0.60451303216E+03  0.35147999360E+02  0.69321657989E+03  0.12699999809E+01 0.  1.
</event>
<event>
 5   0  0.4142886E-06  0.2487254E+04  0.7818609E-02  0.8407540E-01
       -1   -1    0    0    0  501  0.00000000000E+00  0.00000000000E+00  0.10805083615E+04  0.10805083615E+04  0.50400001928E-02 0.  1.
        1   -1    0    0  501    0  0.00000000000E+00  0.00000000000E+00 -0.14313710021E+04  0.14313710021E+04  0.50400001928E-02 0. -1.
    10030    2    1    2    0    0  0.00000000000E+00  0.00000000000E+00 -0.35086264061E+03  0.25118793636E+04  0.24872541777E+04 0.  0.
        5    1    3    3  502    0 -0.33699592043E+03 -0.53653641081E+03  0.90527961652E+03  0.11049845450E+04  0.46999998093E+01 0.  1.
       -5    1    3    3    0  502  0.33699592043E+03  0.53653641081E+03 -0.12561422571E+04  0.14068948186E+04  0.46999998093E+01 0. -1.
</event>
<event>
 5   0  0.2933646E-06  0.3176540E+04  0.7818609E-02  0.8195041E-01
       -1   -1    0    0    0  501  0.00000000000E+00  0.00000000000E+00  0.12575972549E+04  0.12575972549E+04  0.50400001928E-02 0.  1.
        1   -1    0    0  501    0  0.00000000000E+00  0.00000000000E+00 -0.20058893567E+04  0.20058893567E+04  0.50400001928E-02 0. -1.
    10030    2    1    2    0    0  0.00000000000E+00  0.00000000000E+00 -0.74829210185E+03  0.32634866116E+04  0.31765395944E+04 0.  0.
        2    1    3    3  502    0 -0.89906697442E+03 -0.68840736687E+03  0.77005945496E+03  0.13693858811E+04  0.25500000920E-02 0.  1.
       -2    1    3    3    0  502  0.89906697442E+03  0.68840736687E+03 -0.15183515568E+04  0.18941007305E+04  0.25500000920E-02 0. -1.
</event>
<event>
 5   0  0.7510251E-06  0.2174387E+04  0.7818609E-02  0.8529165E-01
       -2   -1    0    0    0  501  0.00000000000E+00  0.00000000000E+00  0.84473544733E+03  0.84473544733E+03  0.25500000920E-02 0.  1.
        2   -1    0    0  501    0  0.00000000000E+00  0.00000000000E+00 -0.13992418679E+04  0.13992418679E+04  0.25500000920E-02 0. -1.
    10030    2    1    2    0    0  0.00000000000E+00  0.00000000000E+00 -0.55450642055E+03  0.22439773152E+04  0.21743865389E+04 0.  0.
        3    1    3    3  502    0 -0.46750452828E+03  0.91798660544E+03 -0.63583485806E+03  0.12105973190E+04  0.10100000352E+00 0. -1.
       -3    1    3    3    0  502  0.46750452828E+03 -0.91798660544E+03  0.81328437506E+02  0.10333799963E+04  0.10100000352E+00 0.  1.
</event>
<event>
 5   0  0.7510251E-06  0.1616387E+04  0.7818609E-02  0.8810544E-01
        2   -1    0    0  501    0  0.00000000000E+00  0.00000000000E+00  0.18403531811E+04  0.18403531811E+04  0.25500000920E-02 0. -1.
       -2   -1    0    0    0  501  0.00000000000E+00  0.00000000000E+00 -0.35491902519E+03  0.35491902520E+03  0.25500000920E-02 0.  1.
    10030    2    1    2    0    0  0.00000000000E+00  0.00000000000E+00  0.14854341559E+04  0.21952722063E+04  0.16163865343E+04 0.  0.
        3    1    3    3  502    0 -0.18356528742E+03  0.41008979207E+03  0.16551037800E+04  0.17150039023E+04  0.10100000352E+00 0. -1.
       -3    1    3    3    0  502  0.18356528742E+03 -0.41008979207E+03 -0.16966962405E+03  0.48026830400E+03  0.10100000352E+00 0.  1.
</event>
<event>
 5   0  0.7941434E-06  0.1612182E+04  0.7818609E-02  0.8813099E-01
       -2   -1    0    0    0  501  0.00000000000E+00  0.00000000000E+00  0.15900658064E+04  0.15900658064E+04  0.25500000920E-02 0. -1.
        2   -1    0    0  501    0  0.00000000000E+00  0.00000000000E+00 -0.40865161007E+03  0.40865161008E+03  0.25500000920E-02 0.  1.
    10030    2    1    2    0    0  0.00000000000E+00  0.00000000000E+00  0.11814141963E+04  0.19987174165E+04  0.16121823122E+04 0.  0.
        4    1    3    3  502    0  0.27417338368E+03 -0.75104628853E+03  0.46342927076E+03  0.92412654639E+03  0.12699999809E+01 0. -1.
       -4    1    3    3    0  502 -0.27417338368E+03  0.75104628853E+03  0.71798492555E+03  0.10745908701E+04  0.12699999809E+01 0.  1.
</event>
<event>
 5   0  0.2635798E-06  0.1573932E+04  0.7818609E-02  0.8836724E-01
       -1   -1    0    0    0  501  0.00000000000E+00  0.00000000000E+00  0.15566741304E+04  0.15566741305E+04  0.50400001928E-02 0. -1.
        1   -1    0    0  501    0  0.00000000000E+00  0.00000000000E+00 -0.39784539475E+03  0.39784539478E+03  0.50400001928E-02 0.  1.
    10030    2    1    2    0    0  0.00000000000E+00  0.00000000000E+00  0.11588287357E+04  0.19545195252E+04  0.15739321891E+04 0.  0.
        1    1    3    3  502    0 -0.46261679146E+03 -0.63663265393E+03  0.57885603894E+03  0.97692873109E+03  0.50400001928E-02 0. -1.
       -1    1    3    3    0  502  0.46261679146E+03  0.63663265393E+03  0.57997269676E+03  0.97759079415E+03  0.50400001928E-02 0.  1.
</event>
<event>
 5   0  0.7941434E-06  0.3281158E+04  0.7818609E-02  0.8167706E-01
       -2   -1    0    0    0  501  0.00000000000E+00  0.00000000000E+00  0.11268227231E+04  0.11268227231E+04  0.25500000920E-02 0. -1.
        2   -1    0    0  501    0  0.00000000000E+00  0.00000000000E+00 -0.23885742810E+04  0.23885742810E+04  0.25500000920E-02 0.  1.
    10030    2    1    2    0    0  0.00000000000E+00  0.00000000000E+00 -0.12617515579E+04  0.35153970040E+04  0.32811581952E+04 0.  0.
        4    1    3    3  502    0 -0.13772656214E+04  0.22715656804E+03  0.29265753159E+03  0.14262225430E+04  0.12699999809E+01 0. -1.
       -4    1    3    3    0  502  0.13772656214E+04 -0.22715656804E+03 -0.15544090895E+04  0.20891744611E+04  0.12699999809E+01 0.  1.
</event>
<event>
 5   0  0.2788054E-06  0.3106718E+04  0.7818609E-02  0.8213897E-01
       -1   -1    0    0    0  501  0.00000000000E+00  0.00000000000E+00  0.16099701502E+04  0.16099701502E+04  0.50400001928E-02 0. -1.
        1   -1    0    0  501    0  0.00000000000E+00  0.00000000000E+00 -0.14987383329E+04  0.14987383329E+04  0.50400001928E-02 0.  1.
    10030    2    1    2    0    0  0.00000000000E+00  0.00000000000E+00  0.11123181738E+03  0.31087084831E+04  0.31067178687E+04 0.  0.
        3    1    3    3  502    0 -0.11344795219E+03 -0.28143748085E+03 -0.14687926882E+04  0.14998098095E+04  0.10100000352E+00 0.  1.
       -3    1    3    3    0  502  0.11344795219E+03  0.28143748085E+03  0.15800245056E+04  0.16088986736E+04  0.10100000352E+00 0. -1.
</event>
<event>
 5   0  0.7510251E-06  0.3188275E+04  0.7818609E-02  0.8191921E-01
       -2   -1    0    0    0  501  0.00000000000E+00  0.00000000000E+00  0.13548783351E+04  0.13548783351E+04  0.25500000920E-02 0. -1.
        2   -1    0    0  501    0  0.00000000000E+00  0.00000000000E+00 -0.18756472467E+04  0.18756472467E+04  0.25500000920E-02 0.  1.
    10030    2    1    2    0    0  0.00000000000E+00  0.00000000000E+00 -0.52076891162E+03  0.32305255818E+04  0.31882746549E+04 0.  0.
        3    1    3    3  502    0 -0.86039045026E+03  0.95397781997E+03 -0.12167828966E+04  0.17694366436E+04  0.10100000352E+00 0.  1.
       -3    1    3    3    0  502  0.86039045026E+03 -0.95397781997E+03  0.69601398498E+03  0.14610889382E+04  0.10100000352E+00 0. -1.
</event>
<event>
 5   0  0.7510251E-06  0.3504571E+04  0.7818609E-02  0.8112707E-01
       -2   -1    0    0    0  501  0.00000000000E+00  0.00000000000E+00  0.11798394376E+04  0.11798394376E+04  0.25500000920E-02 0.  1.
        2   -1    0    0  501    0  0.00000000000E+00  0.00000000000E+00 -0.26024771816E+04  0.26024771816E+04  0.25500000920E-02 0. -1.
    10030    2    1    2    0    0  0.00000000000E+00  0.00000000000E+00 -0.14226377440E+04  0.37823166193E+04  0.35045714228E+04 0.  0.
        3    1    3    3  502    0 -0.88372538041E+03  0.37033816022E+03 -0.22946905552E+04  0.24867098052E+04  0.10100000352E+00 0. -1.
       -3    1    3    3    0  502  0.88372538041E+03 -0.37033816022E+03  0.87205281119E+03  0.12956068140E+04  0.10100000352E+00 0.  1.
</event>
<event>
 5   0  0.2635798E-06  0.1908246E+04  0.7818609E-02  0.8650763E-01
       -1   -1    0    0    0  501  0.00000000000E+00  0.00000000000E+00  0.74610574390E+03  0.74610574391E+03  0.50400001928E-02 0.  1.
        1   -1    0    0  501    0  0.00000000000E+00  0.00000000000E+00 -0.12201363351E+04  0.12201363351E+04  0.50400001928E-02 0. -1.
    10030    2    1    2    0    0  0.00000000000E+00  0.00000000000E+00 -0.47403059121E+03  0.19662420790E+04  0.19082460302E+04 0.  0.
        1    1    3    3  502    0  0.37664509415E+03 -0.13144044766E+03  0.65605172753E+03  0.76781637613E+03  0.50400001928E-02 0.  1.
       -1    1    3    3    0  502 -0.37664509415E+03  0.13144044766E+03 -0.11300823187E+04  0.11984257029E+04  0.50400001928E-02 0. -1.
</event>
<event>
 5   0  0.2635798E-06  0.3172728E+04  0.7818609E-02  0.8196057E-01
        1   -1    0    0  501    0  0.00000000000E+00  0.00000000000E+00  0.24099602204E+04  0.24099602204E+04  0.50400001928E-02 0. -1.
       -1   -1    0    0    0  501  0.00000000000E+00  0.00000000000E+00 -0.10442293830E+04  0.10442293830E+04  0.50400001928E-02 0.  1.
    10030    2    1    2    0    0  0.00000000000E+00  0.00000000000E+00  0.13657308374E+04  0.34541896034E+04  0.31727283363E+04 0.  0.
        1    1    3    3  502    0 -0.27242219671E+03 -0.12762662242E+04  0.16648106030E+04  0.21153400843E+04  0.50400001928E-02 0. -1.
       -1    1    3    3    0  502  0.27242219671E+03  0.12762662242E+04 -0.29907976569E+03  0.13388495190E+04  0.50400001928E-02 0.  1.
</event>
<event>
 5   0  0.7971763E-06  0.3228494E+04  0.7818609E-02  0.8181332E-01
       -2   -1    0    0    0  501  0.00000000000E+00  0.00000000000E+00  0.14306409488E+04  0.14306409488E+04  0.25500000920E-02 0. -1.
        2   -1    0    0  501    0  0.00000000000E+00  0.00000000000E+00 -0.18214166181E+04  0.18214166181E+04  0.25500000920E-02 0.  1.
    10030    2    1    2    0    0  0.00000000000E+00  0.00000000000E+00 -0.39077566931E+03  0.32520575668E+04  0.32284938894E+04 0.  0.
        1    1    3    3  502    0  0.10520728772E+04  0.11687678181E+04 -0.56262749603E+03  0.16701572533E+04  0.50400001928E-02 0.  1.
       -1    1    3    3    0  502 -0.10520728772E+04 -0.11687678181E+04  0.17185182672E+03  0.15819003135E+04  0.50400001928E-02 0. -1.
</event>
<event>
 5   0  0.3938696E-06  0.3065885E+04  0.7818609E-02  0.8225163E-01
       -1   -1    0    0    0  501  0.00000000000E+00  0.00000000000E+00  0.20151548554E+04  0.20151548554E+04  0.50400001928E-02 0. -1.
        1   -1    0    0  501    0  0.00000000000E+00  0.00000000000E+00 -0.11661201101E+04  0.11661201101E+04  0.50400001928E-02 0.  1.
    10030    2    1    2    0    0  0.00000000000E+00  0.00000000000E+00  0.84903474538E+03  0.31812749655E+04  0.30658849306E+04 0.  0.
        4    1    3    3  502    0 -0.21167504611E+03  0.46822250958E+03 -0.10740946769E+04  0.11906803229E+04  0.12699999809E+01 0.  1.
       -4    1    3    3    0  502  0.21167504611E+03 -0.46822250958E+03  0.19231294222E+04  0.19905946426E+04  0.12699999809E+01 0. -1.
</event>
<event>
 5   0  0.8237664E-06  0.3268716E+04  0.7818609E-02  0.8170901E-01
        2   -1    0    0  501    0  0.00000000000E+00  0.00000000000E+00  0.21857031111E+04  0.21857031111E+04  0.25500000920E-02 0. -1.
       -2   -1    0    0    0  501  0.00000000000E+00  0.00000000000E+00 -0.12220903899E+04  0.12220903899E+04  0.25500000920E-02 0.  1.
    10030    2    1    2    0    0  0.00000000000E+00  0.00000000000E+00  0.96361272122E+03  0.34077935010E+04  0.32687164253E+04 0.  0.
        5    1    3    3  502    0  0.11357277814E+04 -0.25857703531E+03 -0.71343060965E+03  0.13659227656E+04  0.46999998093E+01 0.  1.
       -5    1    3    3    0  502 -0.11357277814E+04  0.25857703531E+03  0.16770433309E+04  0.20418707355E+04  0.46999998093E+01 0. -1.
</event>
<event>
 5   0  0.2933646E-06  0.3113702E+04  0.7818609E-02  0.8211987E-01
        1   -1    0    0  501    0  0.00000000000E+00  0.00000000000E+00  0.17283724737E+04  0.17283724737E+04  0.50400001928E-02 0. -1.
       -1   -1    0    0    0  501  0.00000000000E+00  0.00000000000E+00 -0.14023514311E+04  0.14023514312E+04  0.50400001928E-02 0.  1.
    10030    2    1    2    0    0  0.00000000000E+00  0.00000000000E+00  0.32602104255E+03  0.31307239049E+04  0.31137023699E+04 0.  0.
        2    1    3    3  502    0  0.59986763846E+03  0.58910317249E+03 -0.11544584945E+04  0.14281660083E+04  0.25500000920E-02 0.  1.
       -2    1    3    3    0  502 -0.59986763846E+03 -0.58910317249E+03  0.14804795371E+04  0.17025578966E+04  0.25500000920E-02 0. -1.
</event>
<event>
 5   0  0.2580875E-06  0.2683522E+04  0.7818609E-02  0.8340371E-01
       -3   -1    0    0    0  501  0.00000000000E+00  0.00000000000E+00  0.11060790521E+04  0.11060790567E+04  0.10100000352E+00 0.  1.
        3   -1    0    0  501    0  0.00000000000E+00  0.00000000000E+00 -0.16276617128E+04  0.16276617160E+04  0.10100000352E+00 0. -1.
    10030    2    1    2    0    0  0.00000000000E+00  0.00000000000E+00 -0.52158266078E+03  0.27337407726E+04  0.26835219656E+04 0.  0.
        5    1    3    3  502    0 -0.48136191320E+03  0.13131397356E+03 -0.15296310400E+04  0.16089580043E+04  0.46999998093E+01 0. -1.
       -5    1    3    3    0  502  0.48136191320E+03 -0.13131397356E+03  0.10080483792E+04  0.11247827683E+04  0.46999998093E+01 0.  1.
</event>
<event>
 5   0  0.2788054E-06  0.2910674E+04  0.7818609E-02  0.8269709E-01
        1   -1    0    0  501    0  0.00000000000E+00  0.00000000000E+00  0.13724053221E+04  0.13724053222E+04  0.50400001928E-02 0. -1.
       -1   -1    0    0    0  501  0.00000000000E+00  0.00000000000E+00 -0.15432804656E+04  0.15432804656E+04  0.50400001928E-02 0.  1.
    10030    2    1    2    0    0  0.00000000000E+00  0.00000000000E+00 -0.17087514346E+03  0.29156857878E+04  0.29106743718E+04 0.  0.
        3    1    3    3  502    0  0.14233652780E+04  0.28412167731E+03  0.21105658544E+02  0.14515988775E+04  0.10100000352E+00 0.  1.
       -3    1    3    3    0  502 -0.14233652780E+04 -0.28412167731E+03 -0.19198080200E+03  0.14640869102E+04  0.10100000352E+00 0. -1.
</event>
<event>
 5   0  0.8237664E-06  0.2014234E+04  0.7818609E-02  0.8599995E-01
        2   -1    0    0  501    0  0.00000000000E+00  0.00000000000E+00  0.81946456212E+03  0.81946456212E+03  0.25500000920E-02 0.  1.
       -2   -1    0    0    0  501  0.00000000000E+00  0.00000000000E+00 -0.12377403073E+04  0.12377403073E+04  0.25500000920E-02 0. -1.
    10030    2    1    2    0    0  0.00000000000E+00  0.00000000000E+00 -0.41827574518E+03  0.20572048694E+04  0.20142336696E+04 0.  0.
        5    1    3    3  502    0  0.72450354054E+03  0.58659141268E+03  0.18013283023E+03  0.94945499746E+03  0.46999998093E+01 0.  1.
       -5    1    3    3    0  502 -0.72450354054E+03 -0.58659141268E+03 -0.59840857541E+03  0.11077498719E+04  0.46999998093E+01 0. -1.
</event>
<event>
 5   0  0.2933646E-06  0.3201587E+04  0.7818609E-02  0.8188398E-01
        1   -1    0    0  501    0  0.00000000000E+00  0.00000000000E+00  0.17373574576E+04  0.17373574576E+04  0.50400001928E-02 0.  1.
       -1   -1    0    0    0  501  0.00000000000E+00  0.00000000000E+00 -0.14749639839E+04  0.14749639839E+04  0.50400001928E-02 0. -1.
    10030    2    1    2    0    0  0.00000000000E+00  0.00000000000E+00  0.26239347367E+03  0.32123214415E+04  0.32015869047E+04 0.  0.
        2    1    3    3  502    0  0.29073146662E+03 -0.89070047336E+03  0.14334960393E+04  0.17125370109E+04  0.25500000920E-02 0.  1.
       -2    1    3    3    0  502 -0.29073146662E+03  0.89070047336E+03 -0.11711025657E+04  0.14997844306E+04  0.25500000920E-02 0. -1.
</event>
<event>
 5   0  0.2788054E-06  0.3291344E+04  0.7818609E-02  0.8165101E-01
       -1   -1    0    0    0  501  0.00000000000E+00  0.00000000000E+00  0.17641229285E+04  0.17641229285E+04  0.50400001928E-02 0.  1.
        1   -1    0    0  501    0  0.00000000000E+00  0.00000000000E+00 -0.15351747989E+04  0.15351747989E+04  0.50400001928E-02 0. -1.
    10030    2    1    2    0    0  0.00000000000E+00  0.00000000000E+00  0.22894812964E+03  0.32992977274E+04  0.32913444438E+04 0.  0.
        3    1    3    3  502    0  0.80180516758E+03  0.14285459289E+04 -0.42755371883E+02  0.16387382432E+04  0.10100000352E+00 0. -1.
       -3    1    3    3    0  502 -0.80180516758E+03 -0.14285459289E+04  0.27170350152E+03  0.16605594842E+04  0.10100000352E+00 0.  1.
</event>
<event>
 5   0  0.7510251E-06  0.3178110E+04  0.7818609E-02  0.8194622E-01
        2   -1    0    0  501    0  0.00000000000E+00  0.00000000000E+00  0.14206677572E+04  0.14206677572E+04  0.25500000920E-02 0. -1.
       -2   -1    0    0    0  501  0.00000000000E+00  0.00000000000E+00 -0.17774004312E+04  0.17774004312E+04  0.25500000920E-02 0.  1.
    10030    2    1    2    0    0  0.00000000000E+00  0.00000000000E+00 -0.35673267400E+03  0.31980681884E+04  0.31781098057E+04 0.  0.
        3    1    3    3  502    0 -0.95058804696E+03  0.76274199146E+03  0.84769509604E+03  0.14845807377E+04  0.10100000352E+00 0. -1.
       -3    1    3    3    0  502  0.95058804696E+03 -0.76274199146E+03 -0.12044277700E+04  0.17134874508E+04  0.10100000352E+00 0.  1.
</event>
<event>
 5   0  0.8237664E-06  0.3236402E+04  0.7818609E-02  0.8179269E-01
       -2   -1    0    0    0  501  0.00000000000E+00  0.00000000000E+00  0.17243193413E+04  0.17243193413E+04  0.25500000920E-02 0. -1.
        2   -1    0    0  501    0  0.00000000000E+00  0.00000000000E+00 -0.15186132315E+04  0.15186132315E+04  0.25500000920E-02 0.  1.
    10030    2    1    2    0    0  0.00000000000E+00  0.00000000000E+00  0.20570610980E+03  0.32429325729E+04  0.32364018089E+04 0.  0.
        5    1    3    3  502    0 -0.43832829324E+03 -0.11715597415E+04  0.11315054101E+04  0.16867158930E+04  0.46999998093E+01 0. -1.
       -5    1    3    3    0  502  0.43832829324E+03  0.11715597415E+04 -0.92579930030E+03  0.15562166799E+04  0.46999998093E+01 0.  1.
</event>
<event>
 5   0  0.7971763E-06  0.3232349E+04  0.7818609E-02  0.8180326E-01
       -2   -1    0    0    0  501  0.00000000000E+00  0.00000000000E+00  0.22166092103E+04  0.22166092103E+04  0.25500000920E-02 0.  1.
        2   -1    0    0  501    0  0.00000000000E+00  0.00000000000E+00 -0.11783852833E+04  0.11783852833E+04  0.25500000920E-02 0. -1.
    10030    2    1    2    0    0  0.00000000000E+00  0.00000000000E+00  0.10382239270E+04  0.33949944936E+04  0.32323487882E+04 0.  0.
        1    1    3    3  502    0 -0.19433835927E+03  0.15675596751E+04  0.15983416721E+03  0.15876264340E+04  0.50400001928E-02 0. -1.
       -1    1    3    3    0  502  0.19433835927E+03 -0.15675596751E+04  0.87838975982E+03  0.18073680596E+04  0.50400001928E-02 0.  1.
</event>
<event>
 5   0  0.3938696E-06  0.2499876E+04  0.7818609E-02  0.8403030E-01
        1   -1    0    0  501    0  0.00000000000E+00  0.00000000000E+00  0.15786789686E+04  0.15786789686E+04  0.50400001928E-02 0. -1.
       -1   -1    0    0    0  501  0.00000000000E+00  0.00000000000E+00 -0.98965336096E+03  0.98965336097E+03  0.50400001928E-02 0.  1.
    10030    2    1    2    0    0  0.00000000000E+00  0.00000000000E+00  0.58902560762E+03  0.25683323296E+04  0.24998759546E+04 0.  0.
        4    1    3    3  502    0  0.88918611950E+02  0.20433595240E+03  0.15581046458E+04  0.15739604192E+04  0.12699999809E+01 0. -1.
       -4    1    3    3    0  502 -0.88918611950E+02 -0.20433595240E+03 -0.96907903818E+03  0.99437191037E+03  0.12699999809E+01 0.  1.
</event>
<event>
 5   0  0.4142886E-06  0.1602350E+04  0.7818609E-02  0.8819106E-01
       -1   -1    0    0    0  501  0.00000000000E+00  0.00000000000E+00  0.13796099397E+04  0.13796099397E+04  0.50400001928E-02 0. -1.
        1   -1    0    0  501    0  0.00000000000E+00  0.00000000000E+00 -0.46526279850E+03  0.46526279853E+03  0.50400001928E-02 0.  1.
    10030    2    1    2    0    0  0.00000000000E+00  0.00000000000E+00  0.91434714124E+03  0.18448727383E+04  0.16023497514E+04 0.  0.
        5    1    3    3  502    0  0.47913884673E+03  0.23570545276E+03 -0.23049265290E+03  0.58161847284E+03  0.46999998093E+01 0.  1.
       -5    1    3    3    0  502 -0.47913884673E+03 -0.23570545276E+03  0.11448397941E+04  0.12632542654E+04  0.46999998093E+01 0. -1.
</event>
<event>
 5   0  0.2788054E-06  0.3049383E+04  0.7818609E-02  0.8229768E-01
        1   -1    0    0  501    0  0.00000000000E+00  0.00000000000E+00  0.89693741193E+03  0.89693741195E+03  0.50400001928E-02 0. -1.
       -1   -1    0    0    0  501  0.00000000000E+00  0.00000000000E+00 -0.25918016979E+04  0.25918016979E+04  0.50400001928E-02 0.  1.
    10030    2    1    2    0    0  0.00000000000E+00  0.00000000000E+00 -0.16948642860E+04  0.34887391099E+04  0.30493828275E+04 0.  0.
        3    1    3    3  502    0  0.98092272107E+03 -0.59978753100E+03 -0.19930728177E+04  0.23009332311E+04  0.10100000352E+00 0.  1.
       -3    1    3    3    0  502 -0.98092272107E+03  0.59978753100E+03  0.29820853173E+03  0.11878058788E+04  0.10100000352E+00 0. -1.
</event>
<event>
 5   0  0.7952307E-06  0.3270324E+04  0.7818609E-02  0.8170488E-01
        2   -1    0    0  501    0  0.00000000000E+00  0.00000000000E+00  0.16027722996E+04  0.16027722996E+04  0.25500000920E-02 0.  1.
       -2   -1    0    0    0  501  0.00000000000E+00  0.00000000000E+00 -0.16682066895E+04  0.16682066895E+04  0.25500000920E-02 0. -1.
    10030    2    1    2    0    0  0.00000000000E+00  0.00000000000E+00 -0.65434389901E+02  0.32709789892E+04  0.32703244317E+04 0.  0.
        2    1    3    3  502    0  0.36536282104E+03  0.23016042946E+03 -0.16101478348E+04  0.16670452496E+04  0.25500000920E-02 0. -1.
       -2    1    3    3    0  502 -0.36536282104E+03 -0.23016042946E+03  0.15447134449E+04  0.16039337396E+04  0.25500000920E-02 0.  1.
</event>
<event>
 5   0  0.2788054E-06  0.3204113E+04  0.7818609E-02  0.8187732E-01
        1   -1    0    0  501    0  0.00000000000E+00  0.00000000000E+00  0.24826121530E+04  0.24826121530E+04  0.50400001928E-02 0. -1.
       -1   -1    0    0    0  501  0.00000000000E+00  0.00000000000E+00 -0.10338244324E+04  0.10338244324E+04  0.50400001928E-02 0.  1.
    10030    2    1    2    0    0  0.00000000000E+00  0.00000000000E+00  0.14487877206E+04  0.35164365854E+04  0.32041130441E+04 0.  0.
        3    1    3    3  502    0 -0.12101140603E+04 -0.10473650014E+04  0.64498327811E+03  0.17255007749E+04  0.10100000352E+00 0. -1.
       -3    1    3    3    0  502  0.12101140603E+04  0.10473650014E+04  0.80380444252E+03  0.17909358104E+04  0.10100000352E+00 0.  1.
</event>
<event>
 5   0  0.2933646E-06  0.3211440E+04  0.7818609E-02  0.8185802E-01
        1   -1    0    0  501    0  0.00000000000E+00  0.00000000000E+00  0.31490183326E+04  0.31490183326E+04  0.50400001928E-02 0.  1.
       -1   -1    0    0    0  501  0.00000000000E+00  0.00000000000E+00 -0.81877469413E+03  0.81877469415E+03  0.50400001928E-02 0. -1.
    10030    2    1    2    0    0  0.00000000000E+00  0.00000000000E+00  0.23302436385E+04  0.39677930268E+04  0.32114398778E+04 0.  0.
        2    1    3    3  502    0 -0.39573825286E+02 -0.85174595639E+03  0.28461985152E+04  0.29711753987E+04  0.25500000920E-02 0.  1.
       -2    1    3    3    0  502  0.39573825286E+02  0.85174595639E+03 -0.51595487668E+03  0.99661762811E+03  0.25500000920E-02 0. -1.
</event>
<event>
 5   0  0.2635798E-06  0.3171560E+04  0.7818609E-02  0.8196369E-01
        1   -1    0    0  501    0  0.00000000000E+00  0.00000000000E+00  0.17450146125E+04  0.17450146125E+04  0.50400001928E-02 0. -1.
       -1   -1    0    0    0  501  0.00000000000E+00  0.00000000000E+00 -0.14410755972E+04  0.14410755972E+04  0.50400001928E-02 0.  1.
    10030    2    1    2    0    0  0.00000000000E+00  0.00000000000E+00  0.30393901525E+03  0.31860902097E+04  0.31715598527E+04 0.  0.
        1    1    3    3  502    0 -0.72704735398E+03 -0.77166956413E+03 -0.10326813159E+04  0.14800346183E+04  0.50400001928E-02 0. -1.
       -1    1    3    3    0  502  0.72704735398E+03  0.77166956413E+03  0.13366203312E+04  0.17060555914E+04  0.50400001928E-02 0.  1.
</event>
<event>
 5   0  0.7510251E-06  0.3217488E+04  0.7818609E-02  0.8184214E-01
        2   -1    0    0  501    0  0.00000000000E+00  0.00000000000E+00  0.20182165322E+04  0.20182165322E+04  0.25500000920E-02 0.  1.
       -2   -1    0    0    0  501  0.00000000000E+00  0.00000000000E+00 -0.12823483688E+04  0.12823483688E+04  0.25500000920E-02 0. -1.
    10030    2    1    2    0    0  0.00000000000E+00  0.00000000000E+00  0.73586816335E+03  0.33005649010E+04  0.32174876397E+04 0.  0.
        3    1    3    3  502    0 -0.63591431996E+03  0.14076614239E+04 -0.93296280176E+02  0.15474501326E+04  0.10100000352E+00 0. -1.
       -3    1    3    3    0  502  0.63591431996E+03 -0.14076614239E+04  0.82916444352E+03  0.17531147684E+04  0.10100000352E+00 0.  1.
</event>
<event>
 5   0  0.7510251E-06  0.3165002E+04  0.7818609E-02  0.8198122E-01
        2   -1    0    0  501    0  0.00000000000E+00  0.00000000000E+00  0.24124092453E+04  0.24124092453E+04  0.25500000920E-02 0.  1.
       -2   -1    0    0    0  501  0.00000000000E+00  0.00000000000E+00 -0.10380944781E+04  0.10380944781E+04  0.25500000920E-02 0. -1.
    10030    2    1    2    0    0  0.00000000000E+00  0.00000000000E+00  0.13743147672E+04  0.34505037234E+04  0.31650015586E+04 0.  0.
        3    1    3    3  502    0 -0.11340881508E+04  0.76839314816E+03 -0.17660282997E+03  0.13812213920E+04  0.10100000352E+00 0. -1.
       -3    1    3    3    0  502  0.11340881508E+04 -0.76839314816E+03  0.15509175971E+04  0.20692823314E+04  0.10100000352E+00 0.  1.
</event>
<event>
 5   0  0.2933646E-06  0.2568951E+04  0.7818609E-02  0.8378825E-01
       -1   -1    0    0    0  501  0.00000000000E+00  0.00000000000E+00  0.68199937525E+03  0.68199937527E+03  0.50400001928E-02 0. -1.
        1   -1    0    0  501    0  0.00000000000E+00  0.00000000000E+00 -0.24191765555E+04  0.24191765555E+04  0.50400001928E-02 0.  1.
    10030    2    1    2    0    0  0.00000000000E+00  0.00000000000E+00 -0.17371771803E+04  0.31011759308E+04  0.25689506804E+04 0.  0.
        2    1    3    3  502    0 -0.35498356932E+02 -0.63288693517E+03 -0.22172106693E+04  0.23060418813E+04  0.25500000920E-02 0.  1.
       -2    1    3    3    0  502  0.35498356932E+02  0.63288693517E+03  0.48003348907E+03  0.79513404951E+03  0.25500000920E-02 0. -1.
</event>
<event>
 5   0  0.8237664E-06  0.2326988E+04  0.7818609E-02  0.8467355E-01
       -2   -1    0    0    0  501  0.00000000000E+00  0.00000000000E+00  0.14426219365E+04  0.14426219365E+04  0.25500000920E-02 0. -1.
        2   -1    0    0  501    0  0.00000000000E+00  0.00000000000E+00 -0.93837376203E+03  0.93837376204E+03  0.25500000920E-02 0.  1.
    10030    2    1    2    0    0  0.00000000000E+00  0.00000000000E+00  0.50424817449E+03  0.23809956986E+04  0.23269882456E+04 0.  0.
        5    1    3    3  502    0 -0.83757389469E+02 -0.94627615327E+03  0.93946070247E+03  0.13360622590E+04  0.46999998093E+01 0. -1.
       -5    1    3    3    0  502  0.83757389469E+02  0.94627615327E+03 -0.43521252798E+03  0.10449334395E+04  0.46999998093E+01 0.  1.
</event>
<event>
 5   0  0.7971763E-06  0.1857638E+04  0.7818609E-02  0.8676235E-01
        2   -1    0    0  501    0  0.00000000000E+00  0.00000000000E+00  0.14295765866E+04  0.14295765866E+04  0.25500000920E-02 0.  1.
       -2   -1    0    0    0  501  0.00000000000E+00  0.00000000000E+00 -0.60346889905E+03  0.60346889905E+03  0.25500000920E-02 0. -1.
    10030    2    1    2    0    0  0.00000000000E+00  0.00000000000E+00  0.82610768759E+03  0.20330454857E+04  0.18576382951E+04 0.  0.
        1    1    3    3  502    0  0.92202742118E+03 -0.77864023624E+02  0.50134101618E+03  0.10523973518E+04  0.50400001928E-02 0.  1.
       -1    1    3    3    0  502 -0.92202742118E+03  0.77864023624E+02  0.32476667141E+03  0.98064813388E+03  0.50400001928E-02 0. -1.
</event>
<event>
 5   0  0.3938696E-06  0.2411019E+04  0.7818609E-02  0.8435390E-01
        1   -1    0    0  501    0  0.00000000000E+00  0.00000000000E+00  0.18473134374E+04  0.18473134374E+04  0.50400001928E-02 0.  1.
       -1   -1    0    0    0  501  0.00000000000E+00  0.00000000000E+00 -0.78668462580E+03  0.78668462582E+03  0.50400001928E-02 0. -1.
    10030    2    1    2    0    0  0.00000000000E+00  0.00000000000E+00  0.10606288116E+04  0.26339980632E+04  0.24110189384E+04 0.  0.
        4    1    3    3  502    0  0.69855435808E+03  0.70100129637E+03  0.12823608242E+04  0.16198246525E+04  0.12699999809E+01 0.  1.
       -4    1    3    3    0  502 -0.69855435808E+03 -0.70100129637E+03 -0.22173201255E+03  0.10141734107E+04  0.12699999809E+01 0. -1.
</event>
<event>
 5   0  0.7941434E-06  0.3206464E+04  0.7818609E-02  0.8187112E-01
       -2   -1    0    0    0  501  0.00000000000E+00  0.00000000000E+00  0.10330205542E+04  0.10330205542E+04  0.25500000920E-02 0.  1.
        2   -1    0    0  501    0  0.00000000000E+00  0.00000000000E+00 -0.24881915761E+04  0.24881915761E+04  0.25500000920E-02 0. -1.
    10030    2    1    2    0    0  0.00000000000E+00  0.00000000000E+00 -0.14551710219E+04  0.35212121302E+04  0.32064641216E+04 0.  0.
        4    1    3    3  502    0 -0.41493345100E+03 -0.98298321675E+03  0.58650730044E+03  0.12175459743E+04  0.12699999809E+01 0.  1.
       -4    1    3    3    0  502  0.41493345100E+03  0.98298321675E+03 -0.20416783223E+04  0.23036661559E+04  0.12699999809E+01 0. -1.
</event>
<event>
 5   0  0.7510251E-06  0.2772076E+04  0.7818609E-02  0.8311991E-01
        2   -1    0    0  501    0  0.00000000000E+00  0.00000000000E+00  0.23325996033E+04  0.23325996033E+04  0.25500000920E-02 0.  1.
       -2   -1    0    0    0  501  0.00000000000E+00  0.00000000000E+00 -0.82358788983E+03  0.82358788983E+03  0.25500000920E-02 0. -1.
    10030    2    1    2    0    0  0.00000000000E+00  0.00000000000E+00  0.15090117135E+04  0.31561874931E+04  0.27720756015E+04 0.  0.
        3    1    3    3  502    0 -0.49457421554E+03 -0.10069856962E+04 -0.17220255037E+03  0.11350231608E+04  0.10100000352E+00 0. -1.
       -3    1    3    3    0  502  0.49457421554E+03  0.10069856962E+04  0.16812142638E+04  0.20211643323E+04  0.10100000352E+00 0.  1.
</event>
<event>
 5   0  0.8237664E-06  0.3029740E+04  0.7818609E-02  0.8235289E-01
       -2   -1    0    0    0  501  0.00000000000E+00  0.00000000000E+00  0.11053756268E+04  0.11053756268E+04  0.25500000920E-02 0. -1.
        2   -1    0    0  501    0  0.00000000000E+00  0.00000000000E+00 -0.20760641451E+04  0.20760641451E+04  0.25500000920E-02 0.  1.
    10030    2    1    2    0    0  0.00000000000E+00  0.00000000000E+00 -0.97068851822E+03  0.31814397719E+04  0.30297397286E+04 0.  0.
        5    1    3    3  502    0 -0.77738554005E+03  0.12141608981E+04 -0.97370446749E+03  0.17397233815E+04  0.46999998093E+01 0.  1.
       -5    1    3    3    0  502  0.77738554005E+03 -0.12141608981E+04  0.30159492636E+01  0.14417163904E+04  0.46999998093E+01 0. -1.
</event>
<event>
 5   0  0.8237664E-06  0.3305010E+04  0.7818609E-02  0.8161622E-01
        2   -1    0    0  501    0  0.00000000000E+00  0.00000000000E+00  0.19150174077E+04  0.19150174077E+04  0.25500000920E-02 0.  1.
       -2   -1    0    0    0  501  0.00000000000E+00  0.00000000000E+00 -0.14259779965E+04  0.14259779965E+04  0.25500000920E-02 0. -1.
    10030    2    1    2    0    0  0.00000000000E+00  0.00000000000E+00  0.48903941122E+03  0.33409954043E+04  0.33050099464E+04 0.  0.
        5    1    3    3  502    0 -0.15210523264E+04 -0.61586254586E+03  0.47814945363E+02  0.16417049717E+04  0.46999998093E+01 0.  1.
       -5    1    3    3    0  502  0.15210523264E+04  0.61586254586E+03  0.44122446585E+03  0.16992904326E+04  0.46999998093E+01 0. -1.
</event>
<event>
 5   0  0.8237664E-06  0.3352271E+04  0.7818609E-02  0.8149721E-01
       -2   -1    0    0    0  501  0.00000000000E+00  0.00000000000E+00  0.14931390191E+04  0.14931390191E+04  0.25500000920E-02 0.  1.
        2   -1    0    0  501    0  0.00000000000E+00  0.00000000000E+00 -0.18815591612E+04  0.18815591612E+04  0.25500000920E-02 0. -1.
    10030    2    1    2    0    0  0.00000000000E+00  0.00000000000E+00 -0.38842014210E+03  0.33746981804E+04  0.33522705144E+04 0.  0.
        5    1    3    3  502    0 -0.11181338869E+03  0.57415745072E+03  0.13870463761E+04  0.15053500428E+04  0.46999998093E+01 0.  1.
       -5    1    3    3    0  502  0.11181338869E+03 -0.57415745072E+03 -0.17754665182E+04  0.18693481375E+04  0.46999998093E+01 0. -1.
</event>
<event>
 5   0  0.2580875E-06  0.3027087E+04  0.7818609E-02  0.8236038E-01
       -3   -1    0    0    0  501  0.00000000000E+00  0.00000000000E+00  0.12126527887E+04  0.12126527929E+04  0.10100000352E+00 0. -1.
        3   -1    0    0  501    0  0.00000000000E+00  0.00000000000E+00 -0.18890932223E+04  0.18890932250E+04  0.10100000352E+00 0.  1.
    10030    2    1    2    0    0  0.00000000000E+00  0.00000000000E+00 -0.67644043358E+03  0.31017460179E+04  0.30270871642E+04 0.  0.
        4    1    3    3  502    0 -0.33355749246E+03 -0.10237599719E+04  0.75171916579E+03  0.13131749304E+04  0.12699999809E+01 0. -1.
       -4    1    3    3    0  502  0.33355749246E+03  0.10237599719E+04 -0.14281595994E+04  0.17885710875E+04  0.12699999809E+01 0.  1.
</event>
<event>
 5   0  0.7971763E-06  0.3215818E+04  0.7818609E-02  0.8184652E-01
       -2   -1    0    0    0  501  0.00000000000E+00  0.00000000000E+00  0.10093731983E+04  0.10093731983E+04  0.25500000920E-02 0. -1.
        2   -1    0    0  501    0  0.00000000000E+00  0.00000000000E+00 -0.25613638104E+04  0.25613638104E+04  0.25500000920E-02 0.  1.
    10030    2    1    2    0    0  0.00000000000E+00  0.00000000000E+00 -0.15519906122E+04  0.35707370087E+04  0.32158183912E+04 0.  0.
        1    1    3    3  502    0 -0.16320910247E+03 -0.79223275342E+02  0.99797232093E+03  0.10143284931E+04  0.50400001928E-02 0. -1.
       -1    1    3    3    0  502  0.16320910247E+03  0.79223275342E+02 -0.25499629331E+04  0.25564085156E+04  0.50400001928E-02 0.  1.
</event>
<event>
 5   0  0.2933646E-06  0.2123592E+04  0.7818609E-02  0.8550922E-01
       -1   -1    0    0    0  501  0.00000000000E+00  0.00000000000E+00  0.46784725792E+03  0.46784725795E+03  0.50400001928E-02 0. -1.
        1   -1    0    0  501    0  0.00000000000E+00  0.00000000000E+00 -0.24097838566E+04  0.24097838566E+04  0.50400001928E-02 0.  1.
    10030    2    1    2    0    0  0.00000000000E+00  0.00000000000E+00 -0.19419365987E+04  0.28776311145E+04  0.21235920225E+04 0.  0.
        2    1    3    3  502    0 -0.10590382055E+04 -0.14175246040E+02 -0.86913074385E+03  0.13700916423E+04  0.25500000920E-02 0. -1.
       -2    1    3    3    0  502  0.10590382055E+04  0.14175246040E+02 -0.10728058548E+04  0.15075394723E+04  0.25500000920E-02 0.  1.
</event>
<event>
 5   0  0.3938696E-06  0.3362086E+04  0.7818609E-02  0.8147275E-01
        1   -1    0    0  501    0  0.00000000000E+00  0.00000000000E+00  0.18352579805E+04  0.18352579805E+04  0.50400001928E-02 0.  1.
       -1   -1    0    0    0  501  0.00000000000E+00  0.00000000000E+00 -0.15397866434E+04  0.15397866434E+04  0.50400001928E-02 0. -1.
    10030    2    1    2    0    0  0.00000000000E+00  0.00000000000E+00  0.29547133713E+03  0.33750446239E+04  0.33620860939E+04 0.  0.
        4    1    3    3  502    0  0.53140388543E+03 -0.15442803640E+04 -0.25218681262E+03  0.16525107363E+04  0.12699999809E+01 0. -1.
       -4    1    3    3    0  502 -0.53140388543E+03  0.15442803640E+04  0.54765814975E+03  0.17225338876E+04  0.12699999809E+01 0.  1.
</event>
<event>
 5   0  0.2788054E-06  0.3272130E+04  0.7818609E-02  0.8170023E-01
       -1   -1    0    0    0  501  0.00000000000E+00  0.00000000000E+00  0.13695262446E+04  0.13695262446E+04  0.50400001928E-02 0. -1.
        1   -1    0    0  501    0  0.00000000000E+00  0.00000000000E+00 -0.19544775566E+04  0.19544775566E+04  0.50400001928E-02 0.  1.
    10030    2    1    2    0    0  0.00000000000E+00  0.00000000000E+00 -0.58495131198E+03  0.33240038013E+04  0.32721297703E+04 0.  0.
        3    1    3    3  502    0  0.15116718855E+04  0.61062926003E+03 -0.15360321400E+03  0.16375634156E+04  0.10100000352E+00 0. -1.
       -3    1    3    3    0  502 -0.15116718855E+04 -0.61062926003E+03 -0.43134809798E+03  0.16864403857E+04  0.10100000352E+00 0.  1.
</event>
<event>
 5   0  0.7971763E-06  0.2624026E+04  0.7818609E-02  0.8360086E-01
       -2   -1    0    0    0  501  0.00000000000E+00  0.00000000000E+00  0.10422131277E+04  0.10422131277E+04  0.25500000920E-02 0. -1.
        2   -1    0    0  501    0  0.00000000000E+00  0.00000000000E+00 -0.16516563700E+04  0.16516563700E+04  0.25500000920E-02 0.  1.
    10030    2    1    2    0    0  0.00000000000E+00  0.00000000000E+00 -0.60944324227E+03  0.26938694977E+04  0.26240258774E+04 0.  0.
        1    1    3    3  502    0 -0.37275099082E+03 -0.12514366950E+04 -0.43595543223E+03  0.13766242195E+04  0.50400001928E-02 0. -1.
       -1    1    3    3    0  502  0.37275099082E+03  0.12514366950E+04 -0.17348781004E+03  0.13172452782E+04  0.50400001928E-02 0.  1.
</event>
<event>
 5   0  0.3938696E-06  0.3132437E+04  0.7818609E-02  0.8206892E-01
        1   -1    0    0  501    0  0.00000000000E+00  0.00000000000E+00  0.25856080632E+04  0.25856080632E+04  0.50400001928E-02 0. -1.
       -1   -1    0    0    0  501  0.00000000000E+00  0.00000000000E+00 -0.94872889240E+03  0.94872889242E+03  0.50400001928E-02 0.  1.
    10030    2    1    2    0    0  0.00000000000E+00  0.00000000000E+00  0.16368791708E+04  0.35343369556E+04  0.31324374369E+04 0.  0.
        4    1    3    3  502    0 -0.79102987396E+03 -0.10391182997E+04  0.17939772243E+04  0.22189752132E+04  0.12699999809E+01 0. -1.
       -4    1    3    3    0  502  0.79102987396E+03  0.10391182997E+04 -0.15709805352E+03  0.13153617425E+04  0.12699999809E+01 0.  1.
</event>
<event>
 5   0  0.3938696E-06  0.3156705E+04  0.7818609E-02  0.8200346E-01
        1   -1    0    0  501    0  0.00000000000E+00  0.00000000000E+00  0.17717131780E+04  0.17717131780E+04  0.50400001928E-02 0.  1.
       -1   -1    0    0    0  501  0.00000000000E+00  0.00000000000E+00 -0.14060946984E+04  0.14060946984E+04  0.50400001928E-02 0. -1.
    10030    2    1    2    0    0  0.00000000000E+00  0.00000000000E+00  0.36561847967E+03  0.31778078764E+04  0.31567049319E+04 0.  0.
        4    1    3    3  502    0 -0.14898287284E+02  0.14086016895E+04 -0.53385880786E+03  0.15064486444E+04  0.12699999809E+01 0. -1.
       -4    1    3    3    0  502  0.14898287284E+02 -0.14086016895E+04  0.89947728753E+03  0.16713592320E+04  0.12699999809E+01 0.  1.
</event>
<event>
 5   0  0.4142886E-06  0.3132488E+04  0.7818609E-02  0.8206878E-01
        1   -1    0    0  501    0  0.00000000000E+00  0.00000000000E+00  0.19682868061E+04  0.19682868061E+04  0.50400001928E-02 0.  1.
       -1   -1    0    0    0  501  0.00000000000E+00  0.00000000000E+00 -0.12463227228E+04  0.12463227228E+04  0.50400001928E-02 0. -1.
    10030    2    1    2    0    0  0.00000000000E+00  0.00000000000E+00  0.72196408327E+03  0.32146095289E+04  0.31324881941E+04 0.  0.
        5    1    3    3  502    0 -0.49193570755E+03 -0.59634702965E+03  0.17588479546E+04  0.19212492648E+04  0.46999998093E+01 0.  1.
       -5    1    3    3    0  502  0.49193570755E+03  0.59634702965E+03 -0.10368838714E+04  0.12933602641E+04  0.46999998093E+01 0. -1.
</event>
<event>
 5   0  0.7952307E-06  0.3115564E+04  0.7818609E-02  0.8211480E-01
       -2   -1    0    0    0  501  0.00000000000E+00  0.00000000000E+00  0.13568830595E+04  0.13568830595E+04  0.25500000920E-02 0.  1.
        2   -1    0    0  501    0  0.00000000000E+00  0.00000000000E+00 -0.17884255296E+04  0.17884255296E+04  0.25500000920E-02 0. -1.
    10030    2    1    2    0    0  0.00000000000E+00  0.00000000000E+00 -0.43154247008E+03  0.31453085891E+04  0.31155637078E+04 0.  0.
        2    1    3    3  502    0 -0.10614910788E+04 -0.34210349615E+03  0.88221805958E+03  0.14220080228E+04  0.25500000920E-02 0.  1.
       -2    1    3    3    0  502  0.10614910788E+04  0.34210349615E+03 -0.13137605297E+04  0.17233005662E+04  0.25500000920E-02 0. -1.
</event>
<event>
 5   0  0.7941434E-06  0.3219406E+04  0.7818609E-02  0.8183711E-01
        2   -1    0    0  501    0  0.00000000000E+00  0.00000000000E+00  0.23393119502E+04  0.23393119502E+04  0.25500000920E-02 0.  1.
       -2   -1    0    0    0  501  0.00000000000E+00  0.00000000000E+00 -0.11076523816E+04  0.11076523816E+04  0.25500000920E-02 0. -1.
    10030    2    1    2    0    0  0.00000000000E+00  0.00000000000E+00  0.12316595686E+04  0.34469643317E+04  0.32194064377E+04 0.  0.
        4    1    3    3  502    0 -0.13633097360E+04  0.81088023079E+03  0.90905363949E+03  0.18282560864E+04  0.12699999809E+01 0. -1.
       -4    1    3    3    0  502  0.13633097360E+04 -0.81088023079E+03  0.32260592913E+03  0.16187082453E+04  0.12699999809E+01 0.  1.
</event>
<event>
 5   0  0.8237664E-06  0.3085970E+04  0.7818609E-02  0.8219599E-01
        2   -1    0    0  501    0  0.00000000000E+00  0.00000000000E+00  0.19218710615E+04  0.19218710615E+04  0.25500000920E-02 0. -1.
       -2   -1    0    0    0  501  0.00000000000E+00  0.00000000000E+00 -0.12387943725E+04  0.12387943725E+04  0.25500000920E-02 0.  1.
    10030    2    1    2    0    0  0.00000000000E+00  0.00000000000E+00  0.68307668901E+03  0.31606654339E+04  0.30859702238E+04 0.  0.
        5    1    3    3  502    0 -0.31183174490E+03 -0.69215987372E+03 -0.10342765939E+04  0.12829943455E+04  0.46999998093E+01 0.  1.
       -5    1    3    3    0  502  0.31183174490E+03  0.69215987372E+03  0.17173532829E+04  0.18776710884E+04  0.46999998093E+01 0. -1.
</event>
<event>
 5   0  0.7510251E-06  0.3176845E+04  0.7818609E-02  0.8194959E-01
       -2   -1    0    0    0  501  0.00000000000E+00  0.00000000000E+00  0.90504885565E+03  0.90504885566E+03  0.25500000920E-02 0.  1.
        2   -1    0    0  501    0  0.00000000000E+00  0.00000000000E+00 -0.27877902284E+04  0.27877902284E+04  0.25500000920E-02 0. -1.
    10030    2    1    2    0    0  0.00000000000E+00  0.00000000000E+00 -0.18827413728E+04  0.36928390841E+04  0.31768451999E+04 0.  0.
        3    1    3    3  502    0  0.68049824884E+03 -0.76717787315E+02  0.72463906227E+03  0.99702821742E+03  0.10100000352E+00 0.  1.
       -3    1    3    3    0  502 -0.68049824884E+03  0.76717787315E+02 -0.26073804350E+04  0.26958108666E+04  0.10100000352E+00 0. -1.
</event>
<event>
 5   0  0.8237664E-06  0.3167534E+04  0.7818609E-02  0.8197444E-01
       -2   -1    0    0    0  501  0.00000000000E+00  0.00000000000E+00  0.11412969579E+04  0.11412969579E+04  0.25500000920E-02 0. -1.
        2   -1    0    0  501    0  0.00000000000E+00  0.00000000000E+00 -0.21977784174E+04  0.21977784175E+04  0.25500000920E-02 0.  1.
    10030    2    1    2    0    0  0.00000000000E+00  0.00000000000E+00 -0.10564814595E+04  0.33390753754E+04  0.31675339443E+04 0.  0.
        5    1    3    3  502    0 -0.13982758231E+04 -0.73806744195E+03 -0.43175862700E+03  0.16390108079E+04  0.46999998093E+01 0. -1.
       -5    1    3    3    0  502  0.13982758231E+04  0.73806744195E+03 -0.62472283252E+03  0.17000645675E+04  0.46999998093E+01 0.  1.
</event>
<event>
 5   0  0.7952307E-06  0.1657908E+04  0.7818609E-02  0.8785742E-01
       -2   -1    0    0    0  501  0.00000000000E+00  0.00000000000E+00  0.37042972941E+03  0.37042972941E+03  0.25500000920E-02 0.  1.
        2   -1    0    0  501    0  0.00000000000E+00  0.00000000000E+00 -0.18550485372E+04  0.18550485372E+04  0.25500000920E-02 0. -1.
    10030    2    1    2    0    0  0.00000000000E+00  0.00000000000E+00 -0.14846188078E+04  0.22254782666E+04  0.16579084748E+04 0.  0.
        2    1    3    3  502    0 -0.40684771101E+03 -0.45364060554E+03  0.12093638648E+02  0.60947609883E+03  0.25500000920E-02 0.  1.
       -2    1    3    3    0  502  0.40684771101E+03  0.45364060554E+03 -0.14967124465E+04  0.16160021678E+04  0.25500000920E-02 0. -1.
</event>
<event>
 5   0  0.2635798E-06  0.3226127E+04  0.7818609E-02  0.8181951E-01
       -1   -1    0    0    0  501  0.00000000000E+00  0.00000000000E+00  0.18775090298E+04  0.18775090298E+04  0.50400001928E-02 0. -1.
        1   -1    0    0  501    0  0.00000000000E+00  0.00000000000E+00 -0.13858651444E+04  0.13858651444E+04  0.50400001928E-02 0.  1.
    10030    2    1    2    0    0  0.00000000000E+00  0.00000000000E+00  0.49164388539E+03  0.32633741742E+04  0.32261272899E+04 0.  0.
        1    1    3    3  502    0  0.25372394987E+03 -0.59011601098E+03  0.17425542015E+04  0.18571773998E+04  0.50400001928E-02 0. -1.
       -1    1    3    3    0  502 -0.25372394987E+03  0.59011601098E+03 -0.12509103162E+04  0.14061967744E+04  0.50400001928E-02 0.  1.
</event>
<event>
 5   0  0.3938696E-06  0.2630147E+04  0.7818609E-02  0.8358032E-01
        1   -1    0    0  501    0  0.00000000000E+00  0.00000000000E+00  0.14082821084E+04  0.14082821084E+04  0.50400001928E-02 0. -1.
       -1   -1    0    0    0  501  0.00000000000E+00  0.00000000000E+00 -0.12280342772E+04  0.12280342772E+04  0.50400001928E-02 0.  1.
    10030    2    1    2    0    0  0.00000000000E+00  0.00000000000E+00  0.18024783119E+03  0.26363163856E+04  0.26301472971E+04 0.  0.
        4    1    3    3  502    0  0.78083286118E+03  0.20029069786E+03 -0.95135156571E+03  0.12469513764E+04  0.12699999809E+01 0.  1.
       -4    1    3    3    0  502 -0.78083286118E+03 -0.20029069786E+03  0.11315993969E+04  0.13893650092E+04  0.12699999809E+01 0. -1.
</event>
<event>
 5   0  0.7941434E-06  0.2681883E+04  0.7818609E-02  0.8340907E-01
        2   -1    0    0  501    0  0.00000000000E+00  0.00000000000E+00  0.16994801491E+04  0.16994801491E+04  0.25500000920E-02 0.  1.
       -2   -1    0    0    0  501  0.00000000000E+00  0.00000000000E+00 -0.10580434083E+04  0.10580434083E+04  0.25500000920E-02 0. -1.
    10030    2    1    2    0    0  0.00000000000E+00  0.00000000000E+00  0.64143674085E+03  0.27575235574E+04  0.26818827486E+04 0.  0.
        4    1    3    3  502    0 -0.70169391723E+02  0.62770999071E+03 -0.89551248923E+03  0.10958502668E+04  0.12699999809E+01 0. -1.
       -4    1    3    3    0  502  0.70169391723E+02 -0.62770999071E+03  0.15369492301E+04  0.16616732906E+04  0.12699999809E+01 0.  1.
</event>
<event>
 5   0  0.7941434E-06  0.3191999E+04  0.7818609E-02  0.8190933E-01
       -2   -1    0    0    0  501  0.00000000000E+00  0.00000000000E+00  0.11418584460E+04  0.11418584460E+04  0.25500000920E-02 0.  1.
        2   -1    0    0  501    0  0.00000000000E+00  0.00000000000E+00 -0.22307622157E+04  0.22307622157E+04  0.25500000920E-02 0. -1.
    10030    2    1    2    0    0  0.00000000000E+00  0.00000000000E+00 -0.10889037697E+04  0.33726206617E+04  0.31919991711E+04 0.  0.
        4    1    3    3  502    0  0.55813452357E+03 -0.10284225620E+04 -0.16912470201E+04  0.20565712262E+04  0.12699999809E+01 0. -1.
       -4    1    3    3    0  502 -0.55813452357E+03  0.10284225620E+04  0.60234325042E+03  0.13160494355E+04  0.12699999809E+01 0.  1.
</event>
<event>
 5   0  0.2933646E-06  0.3107176E+04  0.7818609E-02  0.8213771E-01
        1   -1    0    0  501    0  0.00000000000E+00  0.00000000000E+00  0.35017619181E+04  0.35017619181E+04  0.50400001928E-02 0. -1.
       -1   -1    0    0    0  501  0.00000000000E+00  0.00000000000E+00 -0.68926301926E+03  0.68926301928E+03  0.50400001928E-02 0.  1.
    10030    2    1    2    0    0  0.00000000000E+00  0.00000000000E+00  0.28124988988E+04  0.41910249373E+04  0.31071755615E+04 0.  0.
        2    1    3    3  502    0  0.12000915141E+04  0.11603844202E+03  0.27277850174E+04  0.29823641065E+04  0.25500000920E-02 0. -1.
       -2    1    3    3    0  502 -0.12000915141E+04 -0.11603844202E+03  0.84713881360E+02  0.12086608309E+04  0.25500000920E-02 0.  1.
</event>
<event>
 5   0  0.2933646E-06  0.3128335E+04  0.7818609E-02  0.8208004E-01
       -1   -1    0    0    0  501  0.00000000000E+00  0.00000000000E+00  0.12756665125E+04  0.12756665126E+04  0.50400001928E-02 0.  1.
        1   -1    0    0  501    0  0.00000000000E+00  0.00000000000E+00 -0.19179153708E+04  0.19179153708E+04  0.50400001928E-02 0. -1.
    10030    2    1    2    0    0  0.00000000000E+00  0.00000000000E+00 -0.64224885826E+03  0.31935818834E+04  0.31283352841E+04 0.  0.
        2    1    3    3  502    0  0.59965216902E+03  0.10509258210E+04  0.69080798882E+03  0.13932851404E+04  0.25500000920E-02 0.  1.
       -2    1    3    3    0  502 -0.59965216902E+03 -0.10509258210E+04 -0.13330568471E+04  0.18002967429E+04  0.25500000920E-02 0. -1.
</event>
<event>
 5   0  0.7952307E-06  0.1641120E+04  0.7818609E-02  0.8795677E-01
        2   -1    0    0  501    0  0.00000000000E+00  0.00000000000E+00  0.16061533730E+04  0.16061533730E+04  0.25500000920E-02 0.  1.
       -2   -1    0    0    0  501  0.00000000000E+00  0.00000000000E+00 -0.41921177891E+03  0.41921177892E+03  0.25500000920E-02 0. -1.
    10030    2    1    2    0    0  0.00000000000E+00  0.00000000000E+00  0.11869415941E+04  0.20253651519E+04  0.16411196333E+04 0.  0.
        2    1    3    3  502    0 -0.79845746374E+03 -0.17191927345E+03  0.69086482527E+03  0.10697592088E+04  0.25500000920E-02 0. -1.
       -2    1    3    3    0  502  0.79845746374E+03  0.17191927345E+03  0.49607676879E+03  0.95560594312E+03  0.25500000920E-02 0.  1.
</event>
<event>
 5   0  0.7510251E-06  0.3204351E+04  0.7818609E-02  0.8187669E-01
        2   -1    0    0  501    0  0.00000000000E+00  0.00000000000E+00  0.16351915014E+04  0.16351915014E+04  0.25500000920E-02 0.  1.
       -2   -1    0    0    0  501  0.00000000000E+00  0.00000000000E+00 -0.15698264868E+04  0.15698264868E+04  0.25500000920E-02 0. -1.
    10030    2    1    2    0    0  0.00000000000E+00  0.00000000000E+00  0.65365014643E+02  0.32050179882E+04  0.32043513727E+04 0.  0.
        3    1    3    3  502    0 -0.42714151387E+03 -0.77943533137E+03  0.13660005644E+04  0.16297014637E+04  0.10100000352E+00 0.  1.
       -3    1    3    3    0  502  0.42714151387E+03  0.77943533137E+03 -0.13006355498E+04  0.15753165245E+04  0.10100000352E+00 0. -1.
</event>
<event>
 5   0  0.7952307E-06  0.3136647E+04  0.7818609E-02  0.8205752E-01
       -2   -1    0    0    0  501  0.00000000000E+00  0.00000000000E+00  0.17355393185E+04  0.17355393185E+04  0.25500000920E-02 0.  1.
        2   -1    0    0  501    0  0.00000000000E+00  0.00000000000E+00 -0.14172188464E+04  0.14172188464E+04  0.25500000920E-02 0. -1.
    10030    2    1    2    0    0  0.00000000000E+00  0.00000000000E+00  0.31832047218E+03  0.31527581649E+04  0.31366472743E+04 0.  0.
        2    1    3    3  502    0  0.32288695336E+03 -0.13554092332E+03  0.16957410958E+04  0.17315210626E+04  0.25500000920E-02 0.  1.
       -2    1    3    3    0  502 -0.32288695336E+03  0.13554092332E+03 -0.13774206236E+04  0.14212371022E+04  0.25500000920E-02 0. -1.
</event>
<event>
 5   0  0.7971763E-06  0.3207967E+04  0.7818609E-02  0.8186716E-01
        2   -1    0    0  501    0  0.00000000000E+00  0.00000000000E+00  0.17758229530E+04  0.17758229530E+04  0.25500000920E-02 0. -1.
       -2   -1    0    0    0  501  0.00000000000E+00  0.00000000000E+00 -0.14487723200E+04  0.14487723200E+04  0.25500000920E-02 0.  1.
    10030    2    1    2    0    0  0.00000000000E+00  0.00000000000E+00  0.32705063302E+03  0.32245952730E+04  0.32079670444E+04 0.  0.
        1    1    3    3  502    0 -0.83360369479E+03 -0.65629613652E+03 -0.10456829267E+04  0.14896551688E+04  0.50400001928E-02 0.  1.
       -1    1    3    3    0  502  0.83360369479E+03  0.65629613652E+03  0.13727335598E+04  0.17349401041E+04  0.50400001928E-02 0. -1.
</event>
<event>
 5   0  0.4281295E-06  0.1803991E+04  0.7818609E-02  0.8704180E-01
        1   -1    0    0  501    0  0.00000000000E+00  0.00000000000E+00  0.75511581683E+03  0.75511581685E+03  0.50400001928E-02 0. -1.
       -1   -1    0    0    0  501  0.00000000000E+00  0.00000000000E+00 -0.10774451362E+04  0.10774451362E+04  0.50400001928E-02 0.  1.
    10030    2    1    2    0    0  0.00000000000E+00  0.00000000000E+00 -0.32232931938E+03  0.18325609531E+04  0.18039909802E+04 0.  0.
        5    1    3    3  502    0  0.37471333373E+02 -0.64007231658E+02  0.75200042378E+03  0.75566378363E+03  0.46999998093E+01 0. -1.
       -5    1    3    3    0  502 -0.37471333373E+02  0.64007231658E+02 -0.10743297432E+04  0.10768971694E+04  0.46999998093E+01 0.  1.
</event>
<event>
 5   0  0.8237664E-06  0.1919244E+04  0.7818609E-02  0.8645336E-01
        2   -1    0    0  501    0  0.00000000000E+00  0.00000000000E+00  0.91561273480E+03  0.91561273481E+03  0.25500000920E-02 0. -1.
       -2   -1    0    0    0  501  0.00000000000E+00  0.00000000000E+00 -0.10057465421E+04  0.10057465421E+04  0.25500000920E-02 0.  1.
    10030    2    1    2    0    0  0.00000000000E+00  0.00000000000E+00 -0.90133807318E+02  0.19213592769E+04  0.19192439574E+04 0.  0.
        5    1    3    3  502    0  0.63457051012E+03  0.37838735419E+03  0.56797681234E+03  0.93192085044E+03  0.46999998093E+01 0. -1.
       -5    1    3    3    0  502 -0.63457051012E+03 -0.37838735419E+03 -0.65811061965E+03  0.98943842650E+03  0.46999998093E+01 0.  1.
</event>
<event>
 5   0  0.7941434E-06  0.3243747E+04  0.7818609E-02  0.8177358E-01
        2   -1    0    0  501    0  0.00000000000E+00  0.00000000000E+00  0.15687181718E+04  0.15687181718E+04  0.25500000920E-02 0. -1.
       -2   -1    0    0    0  501  0.00000000000E+00  0.00000000000E+00 -0.16768298254E+04  0.16768298254E+04  0.25500000920E-02 0.  1.
    10030    2    1    2    0    0  0.00000000000E+00  0.00000000000E+00 -0.10811165355E+03  0.32455479972E+04  0.32437468571E+04 0.  0.
        4    1    3    3  502    0 -0.62000208385E+03  0.52878732505E+03  0.13490256388E+04  0.15760362959E+04  0.12699999809E+01 0. -1.
       -4    1    3    3    0  502  0.62000208385E+03 -0.52878732505E+03 -0.14571372923E+04  0.16695117013E+04  0.12699999809E+01 0.  1.
</event>
<event>
 5   0  0.7952307E-06  0.2922507E+04  0.7818609E-02  0.8266212E-01
       -2   -1    0    0    0  501  0.00000000000E+00  0.00000000000E+00  0.14060063950E+04  0.14060063950E+04  0.25500000920E-02 0.  1.
        2   -1    0    0  501    0  0.00000000000E+00  0.00000000000E+00 -0.15186715975E+04  0.15186715975E+04  0.25500000920E-02 0. -1.
    10030    2    1    2    0    0  0.00000000000E+00  0.00000000000E+00 -0.11266520245E+03  0.29246779925E+04  0.29225071278E+04 0.  0.
        2    1    3    3  502    0  0.54002517383E+03 -0.10442203993E+04  0.81220524346E+03  0.14288809566E+04  0.25500000920E-02 0.  1.
       -2    1    3    3    0  502 -0.54002517383E+03  0.10442203993E+04 -0.92487044591E+03  0.14957970358E+04  0.25500000920E-02 0. -1.
</event>
<event>
 5   0  0.4142886E-06  0.2862053E+04  0.7818609E-02  0.8284258E-01
        1   -1    0    0  501    0  0.00000000000E+00  0.00000000000E+00  0.18403427684E+04  0.18403427684E+04  0.50400001928E-02 0. -1.
       -1   -1    0    0    0  501  0.00000000000E+00  0.00000000000E+00 -0.11127472950E+04  0.11127472950E+04  0.50400001928E-02 0.  1.
    10030    2    1    2    0    0  0.00000000000E+00  0.00000000000E+00  0.72759547339E+03  0.29530900634E+04  0.28620527161E+04 0.  0.
        5    1    3    3  502    0  0.55296988008E+02 -0.10826424225E+03 -0.11074016618E+04  0.11140643759E+04  0.46999998093E+01 0.  1.
       -5    1    3    3    0  502 -0.55296988008E+02  0.10826424225E+03  0.18349971352E+04  0.18390256875E+04  0.46999998093E+01 0. -1.
</event>
<event>
 5   0  0.7971763E-06  0.3107650E+04  0.7818609E-02  0.8213641E-01
        2   -1    0    0  501    0  0.00000000000E+00  0.00000000000E+00  0.14770838611E+04  0.14770838611E+04  0.25500000920E-02 0. -1.
       -2   -1    0    0    0  501  0.00000000000E+00  0.00000000000E+00 -0.16345535467E+04  0.16345535467E+04  0.25500000920E-02 0.  1.
    10030    2    1    2    0    0  0.00000000000E+00  0.00000000000E+00 -0.15746968553E+03  0.31116374078E+04  0.31076503432E+04 0.  0.
        1    1    3    3  502    0 -0.11901596551E+04 -0.79175561365E+03 -0.68862690893E+03  0.15866833257E+04  0.50400001928E-02 0. -1.
       -1    1    3    3    0  502  0.11901596551E+04  0.79175561365E+03  0.53115722340E+03  0.15249540821E+04  0.50400001928E-02 0.  1.
</event>
<event>
 5   0  0.8237664E-06  0.3140888E+04  0.7818609E-02  0.8204605E-01
       -2   -1    0    0    0  501  0.00000000000E+00  0.00000000000E+00  0.11406464151E+04  0.11406464152E+04  0.25500000920E-02 0. -1.
        2   -1    0    0  501    0  0.00000000000E+00  0.00000000000E+00 -0.21621900631E+04  0.21621900631E+04  0.25500000920E-02 0.  1.
    10030    2    1    2    0    0  0.00000000000E+00  0.00000000000E+00 -0.10215436479E+04  0.33028364782E+04  0.31408879918E+04 0.  0.
        5    1    3    3  502    0 -0.58637743813E+03  0.14389040234E+04 -0.75053926737E+03  0.17255765907E+04  0.46999998093E+01 0.  1.
       -5    1    3    3    0  502  0.58637743813E+03 -0.14389040234E+04 -0.27100438054E+03  0.15772598875E+04  0.46999998093E+01 0. -1.
</event>
<event>
 5   0  0.8237664E-06  0.3175876E+04  0.7818609E-02  0.8195217E-01
       -2   -1    0    0    0  501  0.00000000000E+00  0.00000000000E+00  0.13939688037E+04  0.13939688037E+04  0.25500000920E-02 0.  1.
        2   -1    0    0  501    0  0.00000000000E+00  0.00000000000E+00 -0.18088981885E+04  0.18088981885E+04  0.25500000920E-02 0. -1.
    10030    2    1    2    0    0  0.00000000000E+00  0.00000000000E+00 -0.41492938489E+03  0.32028669922E+04  0.31758763476E+04 0.  0.
        5    1    3    3  502    0 -0.85496919608E+03  0.55644329611E+03  0.10198098260E+04  0.14424408616E+04  0.46999998093E+01 0.  1.
       -5    1    3    3    0  502  0.85496919608E+03 -0.55644329611E+03 -0.14347392109E+04  0.17604261306E+04  0.46999998093E+01 0. -1.
</event>
<event>
 5   0  0.3938696E-06  0.2954728E+04  0.7818609E-02  0.8256778E-01
        1   -1    0    0  501    0  0.00000000000E+00  0.00000000000E+00  0.26728066503E+04  0.26728066503E+04  0.50400001928E-02 0.  1.
       -1   -1    0    0    0  501  0.00000000000E+00  0.00000000000E+00 -0.81659648338E+03  0.81659648340E+03  0.50400001928E-02 0. -1.
    10030    2    1    2    0    0  0.00000000000E+00  0.00000000000E+00  0.18562101669E+04  0.34894031337E+04  0.29547280832E+04 0.  0.
        4    1    3    3  502    0 -0.99078030602E+03  0.98215690870E+03  0.35400376641E+03  0.14393047237E+04  0.12699999809E+01 0.  1.
       -4    1    3    3    0  502  0.99078030602E+03 -0.98215690870E+03  0.15022064005E+04  0.20500984100E+04  0.12699999809E+01 0. -1.
</event>
<event>
 5   0  0.3938696E-06  0.2487123E+04  0.7818609E-02  0.8407587E-01
        1   -1    0    0  501    0  0.00000000000E+00  0.00000000000E+00  0.20389292978E+04  0.20389292978E+04  0.50400001928E-02 0. -1.
       -1   -1    0    0    0  501  0.00000000000E+00  0.00000000000E+00 -0.75845971869E+03  0.75845971871E+03  0.50400001928E-02 0.  1.
    10030    2    1    2    0    0  0.00000000000E+00  0.00000000000E+00  0.12804695791E+04  0.27973890165E+04  0.24871234321E+04 0.  0.
        4    1    3    3  502    0  0.88776089904E+03 -0.76852102055E+03  0.17963656527E+03  0.11878614740E+04  0.12699999809E+01 0.  1.
       -4    1    3    3    0  502 -0.88776089904E+03  0.76852102055E+03  0.11008330138E+04  0.16095275425E+04  0.12699999809E+01 0. -1.
</event>
<event>
 5   0  0.2933646E-06  0.3234482E+04  0.7818609E-02  0.8179770E-01
       -1   -1    0    0    0  501  0.00000000000E+00  0.00000000000E+00  0.20714324072E+04  0.20714324072E+04  0.50400001928E-02 0.  1.
        1   -1    0    0  501    0  0.00000000000E+00  0.00000000000E+00 -0.12626373181E+04  0.12626373181E+04  0.50400001928E-02 0. -1.
    10030    2    1    2    0    0  0.00000000000E+00  0.00000000000E+00  0.80879508905E+03  0.33340697253E+04  0.32344816335E+04 0.  0.
        2    1    3    3  502    0 -0.75970353270E+03 -0.12934484168E+04  0.10274154496E+04  0.18181696209E+04  0.25500000920E-02 0.  1.
       -2    1    3    3    0  502  0.75970353270E+03  0.12934484168E+04 -0.21862036055E+03  0.15159001044E+04  0.25500000920E-02 0. -1.
</event>
<event>
 5   0  0.7971763E-06  0.2549009E+04  0.7818609E-02  0.8385731E-01
        2   -1    0    0  501    0  0.00000000000E+00  0.00000000000E+00  0.18209346318E+04  0.18209346318E+04  0.25500000920E-02 0.  1.
       -2   -1    0    0    0  501  0.00000000000E+00  0.00000000000E+00 -0.89204851453E+03  0.89204851454E+03  0.25500000920E-02 0. -1.
    10030    2    1    2    0    0  0.00000000000E+00  0.00000000000E+00  0.92888611725E+03  0.27129831463E+04  0.25490092455E+04 0.  0.
        1    1    3    3  502    0 -0.95029349979E+03  0.84799686452E+03  0.41445795773E+03  0.13393773989E+04  0.50400001928E-02 0.  1.
       -1    1    3    3    0  502  0.95029349979E+03 -0.84799686452E+03  0.51442815952E+03  0.13736057474E+04  0.50400001928E-02 0. -1.
</event>
<event>
 5   0  0.8237664E-06  0.3326502E+04  0.7818609E-02  0.8156185E-01
       -2   -1    0    0    0  501  0.00000000000E+00  0.00000000000E+00  0.29047059188E+04  0.29047059188E+04  0.25500000920E-02 0. -1.
        2   -1    0    0  501    0  0.00000000000E+00  0.00000000000E+00 -0.95238665798E+03  0.95238665799E+03  0.25500000920E-02 0.  1.
    10030    2    1    2    0    0  0.00000000000E+00  0.00000000000E+00  0.19523192608E+04  0.38570925768E+04  0.33265015632E+04 0.  0.
        5    1    3    3  502    0  0.79782016384E+03  0.55930366483E+03  0.25391452759E+04  0.27196724849E+04  0.46999998093E+01 0. -1.
       -5    1    3    3    0  502 -0.79782016384E+03 -0.55930366483E+03 -0.58682601508E+03  0.11374200918E+04  0.46999998093E+01 0.  1.
</event>
<event>
 5   0  0.7510251E-06  0.3206407E+04  0.7818609E-02  0.8187127E-01
        2   -1    0    0  501    0  0.00000000000E+00  0.00000000000E+00  0.16615241291E+04  0.16615241291E+04  0.25500000920E-02 0.  1.
       -2   -1    0    0    0  501  0.00000000000E+00  0.00000000000E+00 -0.15469302913E+04  0.15469302913E+04  0.25500000920E-02 0. -1.
    10030    2    1    2    0    0  0.00000000000E+00  0.00000000000E+00  0.11459383778E+03  0.32084544204E+04  0.32064073385E+04 0.  0.
        3    1    3    3  502    0 -0.13326761044E+04 -0.63324776731E+03 -0.57018688905E+03  0.15818158656E+04  0.10100000352E+00 0. -1.
       -3    1    3    3    0  502  0.13326761044E+04  0.63324776731E+03  0.68478072684E+03  0.16266385548E+04  0.10100000352E+00 0.  1.
</event>
<event>
 5   0  0.2635798E-06  0.1666693E+04  0.7818609E-02  0.8780592E-01
       -1   -1    0    0    0  501  0.00000000000E+00  0.00000000000E+00  0.89672408380E+03  0.89672408381E+03  0.50400001928E-02 0. -1.
        1   -1    0    0  501    0  0.00000000000E+00  0.00000000000E+00 -0.77444858113E+03  0.77444858114E+03  0.50400001928E-02 0.  1.
    10030    2    1    2    0    0  0.00000000000E+00  0.00000000000E+00  0.12227550267E+03  0.16711726650E+04  0.16666933664E+04 0.  0.
        1    1    3    3  502    0 -0.34899771324E+03 -0.31401477065E+03 -0.62923429035E+03  0.78507354574E+03  0.50400001928E-02 0.  1.
       -1    1    3    3    0  502  0.34899771324E+03  0.31401477065E+03  0.75150979303E+03  0.88609911922E+03  0.50400001928E-02 0. -1.
</event>
<event>
 5   0  0.7971763E-06  0.3379194E+04  0.7818609E-02  0.8143032E-01
        2   -1    0    0  501    0  0.00000000000E+00  0.00000000000E+00  0.19742344477E+04  0.19742344477E+04  0.25500000920E-02 0.  1.
       -2   -1    0    0    0  501  0.00000000000E+00  0.00000000000E+00 -0.14459971259E+04  0.14459971259E+04  0.25500000920E-02 0. -1.
    10030    2    1    2    0    0  0.00000000000E+00  0.00000000000E+00  0.52823732172E+03  0.34202315736E+04  0.33791935945E+04 0.  0.
        1    1    3    3  502    0  0.15411755514E+03 -0.10848760668E+04 -0.10375906257E+04  0.15090734268E+04  0.50400001928E-02 0. -1.
       -1    1    3    3    0  502 -0.15411755514E+03  0.10848760668E+04  0.15658279474E+04  0.19111581468E+04  0.50400001928E-02 0.  1.
</event>
<event>
 5   0  0.2635798E-06  0.3111369E+04  0.7818609E-02  0.8212625E-01
        1   -1    0    0  501    0  0.00000000000E+00  0.00000000000E+00  0.13997906337E+04  0.13997906337E+04  0.50400001928E-02 0. -1.
       -1   -1    0    0    0  501  0.00000000000E+00  0.00000000000E+00 -0.17289397741E+04  0.17289397741E+04  0.50400001928E-02 0.  1.
    10030    2    1    2    0    0  0.00000000000E+00  0.00000000000E+00 -0.32914914039E+03  0.31287304077E+04  0.31113686390E+04 0.  0.
        1    1    3    3  502    0 -0.80036540493E+03  0.45973680573E+03 -0.14238447514E+04  0.16968431242E+04  0.50400001928E-02 0. -1.
       -1    1    3    3    0  502  0.80036540493E+03 -0.45973680573E+03  0.10946956110E+04  0.14318872835E+04  0.50400001928E-02 0.  1.
</event>
<event>
 5   0  0.7510251E-06  0.1595192E+04  0.7818609E-02  0.8823507E-01
       -2   -1    0    0    0  501  0.00000000000E+00  0.00000000000E+00  0.79248474130E+03  0.79248474131E+03  0.25500000920E-02 0. -1.
        2   -1    0    0  501    0  0.00000000000E+00  0.00000000000E+00 -0.80273972639E+03  0.80273972639E+03  0.25500000920E-02 0.  1.
    10030    2    1    2    0    0  0.00000000000E+00  0.00000000000E+00 -0.10254985085E+02  0.15952244677E+04  0.15951915050E+04 0.  0.
        3    1    3    3  502    0 -0.10270265346E+03 -0.58769438133E+02 -0.79391327134E+03  0.80268298506E+03  0.10100000352E+00 0.  1.
       -3    1    3    3    0  502  0.10270265346E+03  0.58769438133E+02  0.78365828626E+03  0.79254148264E+03  0.10100000352E+00 0. -1.
</event>
<event>
 5   0  0.7941434E-06  0.3125180E+04  0.7818609E-02  0.8208861E-01
        2   -1    0    0  501    0  0.00000000000E+00  0.00000000000E+00  0.13269270658E+04  0.13269270658E+04  0.25500000920E-02 0. -1.
       -2   -1    0    0    0  501  0.00000000000E+00  0.00000000000E+00 -0.18401062488E+04  0.18401062488E+04  0.25500000920E-02 0.  1.
    10030    2    1    2    0    0  0.00000000000E+00  0.00000000000E+00 -0.51317918299E+03  0.31670333146E+04  0.31251795375E+04 0.  0.
        4    1    3    3  502    0  0.11801777195E+04 -0.12275997050E+03  0.77378472113E+03  0.14165570470E+04  0.12699999809E+01 0. -1.
       -4    1    3    3    0  502 -0.11801777195E+04  0.12275997050E+03 -0.12869639041E+04  0.17504762676E+04  0.12699999809E+01 0.  1.
</event>
<event>
 5   0  0.2788054E-06  0.2921848E+04  0.7818609E-02  0.8266407E-01
       -1   -1    0    0    0  501  0.00000000000E+00  0.00000000000E+00  0.11471825015E+04  0.11471825015E+04  0.50400001928E-02 0.  1.
        1   -1    0    0  501    0  0.00000000000E+00  0.00000000000E+00 -0.18604703556E+04  0.18604703556E+04  0.50400001928E-02 0. -1.
    10030    2    1    2    0    0  0.00000000000E+00  0.00000000000E+00 -0.71328785408E+03  0.30076528571E+04  0.29218480704E+04 0.  0.
        3    1    3    3  502    0  0.32142339002E+03 -0.12544461008E+04  0.33949336649E+03  0.13387321508E+04  0.10100000352E+00 0.  1.
       -3    1    3    3    0  502 -0.32142339002E+03  0.12544461008E+04 -0.10527812206E+04  0.16689207063E+04  0.10100000352E+00 0. -1.
</event>
<event>
 5   0  0.7971763E-06  0.3189161E+04  0.7818609E-02  0.8191686E-01
       -2   -1    0    0    0  501  0.00000000000E+00  0.00000000000E+00  0.11314257629E+04  0.11314257629E+04  0.25500000920E-02 0.  1.
        2   -1    0    0  501    0  0.00000000000E+00  0.00000000000E+00 -0.22473296264E+04  0.22473296264E+04  0.25500000920E-02 0. -1.
    10030    2    1    2    0    0  0.00000000000E+00  0.00000000000E+00 -0.11159038635E+04  0.33787553893E+04  0.31891607905E+04 0.  0.
        1    1    3    3  502    0  0.92553343695E+03 -0.55671381988E+03  0.68487973441E+03  0.12789068265E+04  0.50400001928E-02 0.  1.
       -1    1    3    3    0  502 -0.92553343695E+03  0.55671381988E+03 -0.18007835979E+04  0.20998485628E+04  0.50400001928E-02 0. -1.
</event>
<event>
 5   0  0.4142886E-06  0.3186237E+04  0.7818609E-02  0.8192461E-01
       -1   -1    0    0    0  501  0.00000000000E+00  0.00000000000E+00  0.16694603217E+04  0.16694603217E+04  0.50400001928E-02 0. -1.
        1   -1    0    0  501    0  0.00000000000E+00  0.00000000000E+00 -0.15202678882E+04  0.15202678882E+04  0.50400001928E-02 0.  1.
    10030    2    1    2    0    0  0.00000000000E+00  0.00000000000E+00  0.14919243348E+03  0.31897282100E+04  0.31862372277E+04 0.  0.
        5    1    3    3  502    0 -0.60323069963E+03 -0.17585549040E+03 -0.13909723837E+04  0.15263153975E+04  0.46999998093E+01 0.  1.
       -5    1    3    3    0  502  0.60323069963E+03  0.17585549040E+03  0.15401648172E+04  0.16634128124E+04  0.46999998093E+01 0. -1.
</event>
<event>
 5   0  0.2580875E-06  0.2883432E+04  0.7818609E-02  0.8277824E-01
       -3   -1    0    0    0  501  0.00000000000E+00  0.00000000000E+00  0.15852899217E+04  0.15852899249E+04  0.10100000352E+00 0.  1.
        3   -1    0    0  501    0  0.00000000000E+00  0.00000000000E+00 -0.13111448857E+04  0.13111448896E+04  0.10100000352E+00 0. -1.
    10030    2    1    2    0    0  0.00000000000E+00  0.00000000000E+00  0.27414503603E+03  0.28964348145E+04  0.28834318327E+04 0.  0.
        1    1    3    3  502    0 -0.81002060810E+03 -0.11416585019E+03 -0.10554531784E+04  0.13353458873E+04  0.50400001928E-02 0. -1.
       -1    1    3    3    0  502  0.81002060810E+03  0.11416585019E+03  0.13295982144E+04  0.15610889272E+04  0.50400001928E-02 0.  1.
</event>
<event>
 5   0  0.2635798E-06  0.3172023E+04  0.7818609E-02  0.8196245E-01
        1   -1    0    0  501    0  0.00000000000E+00  0.00000000000E+00  0.20745681707E+04  0.20745681707E+04  0.50400001928E-02 0. -1.
       -1   -1    0    0    0  501  0.00000000000E+00  0.00000000000E+00 -0.12125090826E+04  0.12125090826E+04  0.50400001928E-02 0.  1.
    10030    2    1    2    0    0  0.00000000000E+00  0.00000000000E+00  0.86205908803E+03  0.32870772533E+04  0.31720231711E+04 0.  0.
        1    1    3    3  502    0 -0.66776758673E+03  0.13669324672E+04 -0.33579446135E+02  0.15216916570E+04  0.50400001928E-02 0.  1.
       -1    1    3    3    0  502  0.66776758673E+03 -0.13669324672E+04  0.89563853417E+03  0.17653855963E+04  0.50400001928E-02 0. -1.
</event>
<event>
 5   0  0.2788054E-06  0.3364634E+04  0.7818609E-02  0.8146641E-01
        1   -1    0    0  501    0  0.00000000000E+00  0.00000000000E+00  0.24540885097E+04  0.24540885097E+04  0.50400001928E-02 0.  1.
       -1   -1    0    0    0  501  0.00000000000E+00  0.00000000000E+00 -0.11532551871E+04  0.11532551871E+04  0.50400001928E-02 0. -1.
    10030    2    1    2    0    0  0.00000000000E+00  0.00000000000E+00  0.13008333226E+04  0.36073436968E+04  0.33646338900E+04 0.  0.
        3    1    3    3  502    0  0.43328718950E+03  0.15223166809E+04  0.12616321433E+04  0.20240804186E+04  0.10100000352E+00 0. -1.
       -3    1    3    3    0  502 -0.43328718950E+03 -0.15223166809E+04  0.39201179277E+02  0.15832632782E+04  0.10100000352E+00 0.  1.
</event>
<event>
 5   0  0.2788054E-06  0.3200321E+04  0.7818609E-02  0.8188732E-01
        1   -1    0    0  501    0  0.00000000000E+00  0.00000000000E+00  0.12924345856E+04  0.12924345856E+04  0.50400001928E-02 0.  1.
       -1   -1    0    0    0  501  0.00000000000E+00  0.00000000000E+00 -0.19811554410E+04  0.19811554410E+04  0.50400001928E-02 0. -1.
    10030    2    1    2    0    0  0.00000000000E+00  0.00000000000E+00 -0.68872085535E+03  0.32735900266E+04  0.32003211160E+04 0.  0.
        3    1    3    3  502    0 -0.13895487092E+04 -0.34563126285E+03  0.38628055746E+03  0.14830776327E+04  0.10100000352E+00 0. -1.
       -3    1    3    3    0  502  0.13895487092E+04  0.34563126285E+03 -0.10750014128E+04  0.17905123940E+04  0.10100000352E+00 0.  1.
</event>
<event>
 5   0  0.2635798E-06  0.3293649E+04  0.7818609E-02  0.8164513E-01
        1   -1    0    0  501    0  0.00000000000E+00  0.00000000000E+00  0.83370118407E+03  0.83370118408E+03  0.50400001928E-02 0. -1.
       -1   -1    0    0    0  501  0.00000000000E+00  0.00000000000E+00 -0.32530002736E+04  0.32530002736E+04  0.50400001928E-02 0.  1.
    10030    2    1    2    0    0  0.00000000000E+00  0.00000000000E+00 -0.24192990895E+04  0.40867014577E+04  0.32936485422E+04 0.  0.
        1    1    3    3  502    0 -0.34666507610E+03 -0.13595508538E+04 -0.22795141928E+04  0.26767032249E+04  0.50400001928E-02 0.  1.
       -1    1    3    3    0  502  0.34666507610E+03  0.13595508538E+04 -0.13978489667E+03  0.14099982327E+04  0.50400001928E-02 0. -1.
</event>
<event>
 5   0  0.2788054E-06  0.3189065E+04  0.7818609E-02  0.8191711E-01
        1   -1    0    0  501    0  0.00000000000E+00  0.00000000000E+00  0.18351322794E+04  0.18351322794E+04  0.50400001928E-02 0. -1.
       -1   -1    0    0    0  501  0.00000000000E+00  0.00000000000E+00 -0.13854770701E+04  0.13854770701E+04  0.50400001928E-02 0.  1.
    10030    2    1    2    0    0  0.00000000000E+00  0.00000000000E+00  0.44965520929E+03  0.32206093495E+04  0.31890648746E+04 0.  0.
        3    1    3    3  502    0  0.78381981920E+03 -0.11522670664E+03  0.16223082920E+04  0.18054182085E+04  0.10100000352E+00 0. -1.
       -3    1    3    3    0  502 -0.78381981920E+03  0.11522670664E+03 -0.11726530827E+04  0.14151911410E+04  0.10100000352E+00 0.  1.
</event>
<event>
 5   0  0.2788054E-06  0.1946209E+04  0.7818609E-02  0.8632191E-01
        1   -1    0    0  501    0  0.00000000000E+00  0.00000000000E+00  0.13927317925E+04  0.13927317926E+04  0.50400001928E-02 0.  1.
       -1   -1    0    0    0  501  0.00000000000E+00  0.00000000000E+00 -0.67991033525E+03  0.67991033527E+03  0.50400001928E-02 0. -1.
    10030    2    1    2    0    0  0.00000000000E+00  0.00000000000E+00  0.71282145730E+03  0.20726421278E+04  0.19462093824E+04 0.  0.
        3    1    3    3  502    0 -0.31276777597E+02  0.49220158666E+03  0.12497698877E+04  0.13435644462E+04  0.10100000352E+00 0.  1.
       -3    1    3    3    0  502  0.31276777597E+02 -0.49220158666E+03 -0.53694843040E+03  0.72907768162E+03  0.10100000352E+00 0. -1.
</event>
<event>
 5   0  0.4142886E-06  0.3197712E+04  0.7818609E-02  0.8189422E-01
       -1   -1    0    0    0  501  0.00000000000E+00  0.00000000000E+00  0.16596931139E+04  0.16596931139E+04  0.50400001928E-02 0. -1.
        1   -1    0    0  501    0  0.00000000000E+00  0.00000000000E+00 -0.15402490456E+04  0.15402490456E+04  0.50400001928E-02 0.  1.
    10030    2    1    2    0    0  0.00000000000E+00  0.00000000000E+00  0.11944406829E+03  0.31999421595E+04  0.31977121413E+04 0.  0.
        5    1    3    3  502    0 -0.12408374289E+04 -0.20712650540E+03 -0.92774864172E+03  0.15631118151E+04  0.46999998093E+01 0.  1.
       -5    1    3    3    0  502  0.12408374289E+04  0.20712650540E+03  0.10471927100E+04  0.16368303444E+04  0.46999998093E+01 0. -1.
</event>
<event>
 5   0  0.7510251E-06  0.1867257E+04  0.7818609E-02  0.8671328E-01
       -2   -1    0    0    0  501  0.00000000000E+00  0.00000000000E+00  0.75878297587E+03  0.75878297587E+03  0.25500000920E-02 0.  1.
        2   -1    0    0  501    0  0.00000000000E+00  0.00000000000E+00 -0.11487636208E+04  0.11487636208E+04  0.25500000920E-02 0. -1.
    10030    2    1    2    0    0  0.00000000000E+00  0.00000000000E+00 -0.38998064490E+03  0.19075465966E+04  0.18672571100E+04 0.  0.
        3    1    3    3  502    0  0.66449269111E+03 -0.95013561949E+02  0.46792107137E+03  0.81824706094E+03  0.10100000352E+00 0.  1.
       -3    1    3    3    0  502 -0.66449269111E+03  0.95013561949E+02 -0.85790171627E+03  0.10892995357E+04  0.10100000352E+00 0. -1.
</event>
<event>
 5   0  0.7952307E-06  0.3150990E+04  0.7818609E-02  0.8201882E-01
       -2   -1    0    0    0  501  0.00000000000E+00  0.00000000000E+00  0.13485154823E+04  0.13485154823E+04  0.25500000920E-02 0. -1.
        2   -1    0    0  501    0  0.00000000000E+00  0.00000000000E+00 -0.18406798243E+04  0.18406798243E+04  0.25500000920E-02 0.  1.
    10030    2    1    2    0    0  0.00000000000E+00  0.00000000000E+00 -0.49216434200E+03  0.31891953066E+04  0.31509904735E+04 0.  0.
        2    1    3    3  502    0 -0.96602277032E+03 -0.50921194268E+03 -0.13954960335E+04  0.17719779838E+04  0.25500000920E-02 0.  1.
       -2    1    3    3    0  502  0.96602277032E+03  0.50921194268E+03  0.90333169151E+03  0.14172173229E+04  0.25500000920E-02 0. -1.
</event>
<event>
 5   0  0.7510251E-06  0.3131684E+04  0.7818609E-02  0.8207096E-01
        2   -1    0    0  501    0  0.00000000000E+00  0.00000000000E+00  0.19216756212E+04  0.19216756212E+04  0.25500000920E-02 0. -1.
       -2   -1    0    0    0  501  0.00000000000E+00  0.00000000000E+00 -0.12758973196E+04  0.12758973196E+04  0.25500000920E-02 0.  1.
    10030    2    1    2    0    0  0.00000000000E+00  0.00000000000E+00  0.64577830154E+03  0.31975729408E+04  0.31316837480E+04 0.  0.
        3    1    3    3  502    0  0.11054638799E+03 -0.14709723848E+04 -0.21340500759E+03  0.14904770942E+04  0.10100000352E+00 0.  1.
       -3    1    3    3    0  502 -0.11054638799E+03  0.14709723848E+04  0.85918330913E+03  0.17070958467E+04  0.10100000352E+00 0. -1.
</event>
<event>
 5   0  0.7971763E-06  0.2064665E+04  0.7818609E-02  0.8576970E-01
       -2   -1    0    0    0  501  0.00000000000E+00  0.00000000000E+00  0.81287276518E+03  0.81287276519E+03  0.25500000920E-02 0.  1.
        2   -1    0    0  501    0  0.00000000000E+00  0.00000000000E+00 -0.13110419947E+04  0.13110419947E+04  0.25500000920E-02 0. -1.
    10030    2    1    2    0    0  0.00000000000E+00  0.00000000000E+00 -0.49816922954E+03  0.21239147599E+04  0.20646649428E+04 0.  0.
        1    1    3    3  502    0 -0.35125583663E+03 -0.85747159753E+03  0.21902582063E+03  0.95216097035E+03  0.50400001928E-02 0. -1.
       -1    1    3    3    0  502  0.35125583663E+03  0.85747159753E+03 -0.71719505017E+03  0.11717537896E+04  0.50400001928E-02 0.  1.
</event>
<event>
 5   0  0.7941434E-06  0.2906460E+04  0.7818609E-02  0.8270958E-01
        2   -1    0    0  501    0  0.00000000000E+00  0.00000000000E+00  0.18829146570E+04  0.18829146570E+04  0.25500000920E-02 0.  1.
       -2   -1    0    0    0  501  0.00000000000E+00  0.00000000000E+00 -0.11216004155E+04  0.11216004155E+04  0.25500000920E-02 0. -1.
    10030    2    1    2    0    0  0.00000000000E+00  0.00000000000E+00  0.76131424147E+03  0.30045150725E+04  0.29064602950E+04 0.  0.
        4    1    3    3  502    0  0.55005426472E+03 -0.11035082393E+04 -0.41443780289E+03  0.13007883893E+04  0.12699999809E+01 0. -1.
       -4    1    3    3    0  502 -0.55005426472E+03  0.11035082393E+04  0.11757520444E+04  0.17037266832E+04  0.12699999809E+01 0.  1.
</event>
<event>
 5   0  0.7952307E-06  0.3189424E+04  0.7818609E-02  0.8191616E-01
       -2   -1    0    0    0  501  0.00000000000E+00  0.00000000000E+00  0.13841351952E+04  0.13841351952E+04  0.25500000920E-02 0.  1.
        2   -1    0    0  501    0  0.00000000000E+00  0.00000000000E+00 -0.18373250890E+04  0.18373250890E+04  0.25500000920E-02 0. -1.
    10030    2    1    2    0    0  0.00000000000E+00  0.00000000000E+00 -0.45318989376E+03  0.32214602842E+04  0.31894239735E+04 0.  0.
        2    1    3    3  502    0 -0.27082302568E+03 -0.39185840640E+03 -0.17637912258E+04  0.18269804624E+04  0.25500000920E-02 0. -1.
       -2    1    3    3    0  502  0.27082302568E+03  0.39185840640E+03  0.13106013320E+04  0.13944798218E+04  0.25500000920E-02 0.  1.
</event>
<event>
 5   0  0.4142886E-06  0.3221698E+04  0.7818609E-02  0.8183110E-01
       -1   -1    0    0    0  501  0.00000000000E+00  0.00000000000E+00  0.18014901631E+04  0.18014901632E+04  0.50400001928E-02 0.  1.
        1   -1    0    0  501    0  0.00000000000E+00  0.00000000000E+00 -0.14403822905E+04  0.14403822905E+04  0.50400001928E-02 0. -1.
    10030    2    1    2    0    0  0.00000000000E+00  0.00000000000E+00  0.36110787261E+03  0.32418724537E+04  0.32216980166E+04 0.  0.
        5    1    3    3  502    0 -0.40172559826E+03  0.12770395471E+04  0.10820428605E+04  0.17213518824E+04  0.46999998093E+01 0.  1.
       -5    1    3    3    0  502  0.40172559826E+03 -0.12770395471E+04 -0.72093498787E+03  0.15205205713E+04  0.46999998093E+01 0. -1.
</event>
<event>
 5   0  0.7952307E-06  0.3294066E+04  0.7818609E-02  0.8164407E-01
       -2   -1    0    0    0  501  0.00000000000E+00  0.00000000000E+00  0.15772378880E+04  0.15772378880E+04  0.25500000920E-02 0. -1.
        2   -1    0    0  501    0  0.00000000000E+00  0.00000000000E+00 -0.17199169696E+04  0.17199169696E+04  0.25500000920E-02 0.  1.
    10030    2    1    2    0    0  0.00000000000E+00  0.00000000000E+00 -0.14267908163E+03  0.32971548576E+04  0.32940663070E+04 0.  0.
        2    1    3    3  502    0 -0.13041325471E+04  0.68867667115E+03 -0.80529437189E+03  0.16803381455E+04  0.25500000920E-02 0.  1.
       -2    1    3    3    0  502  0.13041325471E+04 -0.68867667115E+03  0.66261529025E+03  0.16168167121E+04  0.25500000920E-02 0. -1.
</event>
<event>
 5   0  0.2580875E-06  0.3235575E+04  0.7818609E-02  0.8179485E-01
        3   -1    0    0  501    0  0.00000000000E+00  0.00000000000E+00  0.24209666503E+04  0.24209666524E+04  0.10100000352E+00 0. -1.
       -3   -1    0    0    0  501  0.00000000000E+00  0.00000000000E+00 -0.10810704815E+04  0.10810704862E+04  0.10100000352E+00 0.  1.
    10030    2    1    2    0    0  0.00000000000E+00  0.00000000000E+00  0.13398961688E+04  0.35020371386E+04  0.32355745049E+04 0.  0.
        1    1    3    3  502    0  0.83721984037E+03  0.13837342365E+04  0.62695129396E+03  0.17345677915E+04  0.50400001928E-02 0.  1.
       -1    1    3    3    0  502 -0.83721984037E+03 -0.13837342365E+04  0.71294487483E+03  0.17674693471E+04  0.50400001928E-02 0. -1.
</event>
<event>
 5   0  0.3938696E-06  0.2879556E+04  0.7818609E-02  0.8278986E-01
       -1   -1    0    0    0  501  0.00000000000E+00  0.00000000000E+00  0.15474270086E+04  0.15474270086E+04  0.50400001928E-02 0.  1.
        1   -1    0    0  501    0  0.00000000000E+00  0.00000000000E+00 -0.13396174672E+04  0.13396174672E+04  0.50400001928E-02 0. -1.
    10030    2    1    2    0    0  0.00000000000E+00  0.00000000000E+00  0.20780954137E+03  0.28870444758E+04  0.28795556948E+04 0.  0.
        4    1    3    3  502    0 -0.77865754524E+03  0.31653153635E+03  0.12759011514E+04  0.15278825699E+04  0.12699999809E+01 0.  1.
       -4    1    3    3    0  502  0.77865754524E+03 -0.31653153635E+03 -0.10680916100E+04  0.13591619059E+04  0.12699999809E+01 0. -1.
</event>
<event>
 5   0  0.2933646E-06  0.3236728E+04  0.7818609E-02  0.8179184E-01
        1   -1    0    0  501    0  0.00000000000E+00  0.00000000000E+00  0.98674446031E+03  0.98674446032E+03  0.50400001928E-02 0.  1.
       -1   -1    0    0    0  501  0.00000000000E+00  0.00000000000E+00 -0.26542863989E+04  0.26542863989E+04  0.50400001928E-02 0. -1.
    10030    2    1    2    0    0  0.00000000000E+00  0.00000000000E+00 -0.16675419386E+04  0.36410308592E+04  0.32367282247E+04 0.  0.
        2    1    3    3  502    0  0.98311646707E+03 -0.84428927676E+02  0.60921226078E+03  0.11596490031E+04  0.25500000920E-02 0.  1.
       -2    1    3    3    0  502 -0.98311646707E+03  0.84428927676E+02 -0.22767541993E+04  0.24813818561E+04  0.25500000920E-02 0. -1.
</event>
<event>
 5   0  0.3938696E-06  0.2416372E+04  0.7818609E-02  0.8433400E-01
       -1   -1    0    0    0  501  0.00000000000E+00  0.00000000000E+00  0.12670222502E+04  0.12670222502E+04  0.50400001928E-02 0.  1.
        1   -1    0    0  501    0  0.00000000000E+00  0.00000000000E+00 -0.11520817209E+04  0.11520817209E+04  0.50400001928E-02 0. -1.
    10030    2    1    2    0    0  0.00000000000E+00  0.00000000000E+00  0.11494052932E+03  0.24191039711E+04  0.24163718046E+04 0.  0.
        4    1    3    3  502    0  0.42293778494E+03 -0.76149393206E+03  0.89565176087E+03  0.12493770720E+04  0.12699999809E+01 0.  1.
       -4    1    3    3    0  502 -0.42293778494E+03  0.76149393206E+03 -0.78071123156E+03  0.11697268991E+04  0.12699999809E+01 0. -1.
</event>
<event>
 5   0  0.7971763E-06  0.3145716E+04  0.7818609E-02  0.8203302E-01
        2   -1    0    0  501    0  0.00000000000E+00  0.00000000000E+00  0.12692947371E+04  0.12692947371E+04  0.25500000920E-02 0.  1.
       -2   -1    0    0    0  501  0.00000000000E+00  0.00000000000E+00 -0.19490213094E+04  0.19490213094E+04  0.25500000920E-02 0. -1.
    10030    2    1    2    0    0  0.00000000000E+00  0.00000000000E+00 -0.67972657226E+03  0.32183160465E+04  0.31457161287E+04 0.  0.
        1    1    3    3  502    0 -0.98452061482E+03  0.68529817498E+03 -0.13806761121E+04  0.18289835856E+04  0.50400001928E-02 0. -1.
       -1    1    3    3    0  502  0.98452061482E+03 -0.68529817498E+03  0.70094953988E+03  0.13893324610E+04  0.50400001928E-02 0.  1.
</event>
<event>
 5   0  0.7941434E-06  0.3274196E+04  0.7818609E-02  0.8169493E-01
        2   -1    0    0  501    0  0.00000000000E+00  0.00000000000E+00  0.23009921429E+04  0.23009921429E+04  0.25500000920E-02 0. -1.
       -2   -1    0    0    0  501  0.00000000000E+00  0.00000000000E+00 -0.11647537766E+04  0.11647537766E+04  0.25500000920E-02 0.  1.
    10030    2    1    2    0    0  0.00000000000E+00  0.00000000000E+00  0.11362383663E+04  0.34657459195E+04  0.32741956499E+04 0.  0.
        4    1    3    3  502    0  0.55954499249E+03 -0.15159249439E+03  0.21887065637E+04  0.22641795242E+04  0.12699999809E+01 0. -1.
       -4    1    3    3    0  502 -0.55954499249E+03  0.15159249439E+03 -0.10524681974E+04  0.12015663953E+04  0.12699999809E+01 0.  1.
</event>
<event>
 5   0  0.4142886E-06  0.3191620E+04  0.7818609E-02  0.8191034E-01
       -1   -1    0    0    0  501  0.00000000000E+00  0.00000000000E+00  0.17340519183E+04  0.17340519184E+04  0.50400001928E-02 0.  1.
        1   -1    0    0  501    0  0.00000000000E+00  0.00000000000E+00 -0.14685888746E+04  0.14685888746E+04  0.50400001928E-02 0. -1.
    10030    2    1    2    0    0  0.00000000000E+00  0.00000000000E+00  0.26546304376E+03  0.32026407929E+04  0.31916198741E+04 0.  0.
        5    1    3    3  502    0  0.94422799206E+03  0.11342391829E+04 -0.47642503263E+03  0.15508281422E+04  0.46999998093E+01 0. -1.
       -5    1    3    3    0  502 -0.94422799206E+03 -0.11342391829E+04  0.74188807640E+03  0.16518126507E+04  0.46999998093E+01 0.  1.
</event>
<event>
 5   0  0.7510251E-06  0.3317253E+04  0.7818609E-02  0.8158519E-01
       -2   -1    0    0    0  501  0.00000000000E+00  0.00000000000E+00  0.19891571373E+04  0.19891571373E+04  0.25500000920E-02 0. -1.
        2   -1    0    0  501    0  0.00000000000E+00  0.00000000000E+00 -0.13830188127E+04  0.13830188127E+04  0.25500000920E-02 0.  1.
    10030    2    1    2    0    0  0.00000000000E+00  0.00000000000E+00  0.60613832467E+03  0.33721759500E+04  0.33172529251E+04 0.  0.
        3    1    3    3  502    0  0.36748695129E+03  0.14749567779E+04 -0.37161948496E+03  0.15648147519E+04  0.10100000352E+00 0.  1.
       -3    1    3    3    0  502 -0.36748695129E+03 -0.14749567779E+04  0.97775780964E+03  0.18073611981E+04  0.10100000352E+00 0. -1.
</event>
<event>
 5   0  0.2788054E-06  0.3234302E+04  0.7818609E-02  0.8179816E-01
        1   -1    0    0  501    0  0.00000000000E+00  0.00000000000E+00  0.22961467634E+04  0.22961467634E+04  0.50400001928E-02 0.  1.
       -1   -1    0    0    0  501  0.00000000000E+00  0.00000000000E+00 -0.11389416550E+04  0.11389416550E+04  0.50400001928E-02 0. -1.
    10030    2    1    2    0    0  0.00000000000E+00  0.00000000000E+00  0.11572051084E+04  0.34350884184E+04  0.32343018999E+04 0.  0.
        3    1    3    3  502    0  0.10029208272E+04 -0.63551078821E+03 -0.58748863003E+03  0.13247139496E+04  0.10100000352E+00 0. -1.
       -3    1    3    3    0  502 -0.10029208272E+04  0.63551078821E+03  0.17446937385E+04  0.21103744689E+04  0.10100000352E+00 0.  1.
</event>
<event>
 5   0  0.2933646E-06  0.2106220E+04  0.7818609E-02  0.8558508E-01
        1   -1    0    0  501    0  0.00000000000E+00  0.00000000000E+00  0.10833847240E+04  0.10833847240E+04  0.50400001928E-02 0. -1.
       -1   -1    0    0    0  501  0.00000000000E+00  0.00000000000E+00 -0.10236817284E+04  0.10236817284E+04  0.50400001928E-02 0.  1.
    10030    2    1    2    0    0  0.00000000000E+00  0.00000000000E+00  0.59702995566E+02  0.21070664525E+04  0.21062204508E+04 0.  0.
        2    1    3    3  502    0 -0.98999522335E+03 -0.34431714120E+03  0.13185475392E+03  0.10564234530E+04  0.25500000920E-02 0. -1.
       -2    1    3    3    0  502  0.98999522335E+03  0.34431714120E+03 -0.72151758358E+02  0.10506429994E+04  0.25500000920E-02 0.  1.
</event>
<event>
 5   0  0.7952307E-06  0.3091468E+04  0.7818609E-02  0.8218083E-01
       -2   -1    0    0    0  501  0.00000000000E+00  0.00000000000E+00  0.10183936705E+04  0.10183936705E+04  0.25500000920E-02 0. -1.
        2   -1    0    0  501    0  0.00000000000E+00  0.00000000000E+00 -0.23461397322E+04  0.23461397322E+04  0.25500000920E-02 0.  1.
    10030    2    1    2    0    0  0.00000000000E+00  0.00000000000E+00 -0.13277460618E+04  0.33645334027E+04  0.30914681647E+04 0.  0.
        2    1    3    3  502    0 -0.11607016095E+04 -0.46251307807E+02 -0.17737155948E+04  0.21202439532E+04  0.25500000920E-02 0.  1.
       -2    1    3    3    0  502  0.11607016095E+04  0.46251307807E+02  0.44596953307E+03  0.12442894495E+04  0.25500000920E-02 0. -1.
</event>
<event>
 5   0  0.2635798E-06  0.3191737E+04  0.7818609E-02  0.8191003E-01
        1   -1    0    0  501    0  0.00000000000E+00  0.00000000000E+00  0.18109499842E+04  0.18109499842E+04  0.50400001928E-02 0. -1.
       -1   -1    0    0    0  501  0.00000000000E+00  0.00000000000E+00 -0.14063313097E+04  0.14063313097E+04  0.50400001928E-02 0.  1.
    10030    2    1    2    0    0  0.00000000000E+00  0.00000000000E+00  0.40461867449E+03  0.32172812940E+04  0.31917366202E+04 0.  0.
        1    1    3    3  502    0  0.22886070137E+03  0.88263753081E+03  0.15225126576E+04  0.17746749066E+04  0.50400001928E-02 0. -1.
       -1    1    3    3    0  502 -0.22886070137E+03 -0.88263753081E+03 -0.11178939831E+04  0.14426063874E+04  0.50400001928E-02 0.  1.
</event>
<event>
 5   0  0.7941434E-06  0.1640381E+04  0.7818609E-02  0.8796118E-01
        2   -1    0    0  501    0  0.00000000000E+00  0.00000000000E+00  0.96180673619E+03  0.96180673619E+03  0.25500000920E-02 0. -1.
       -2   -1    0    0    0  501  0.00000000000E+00  0.00000000000E+00 -0.69942546639E+03  0.69942546639E+03  0.25500000920E-02 0.  1.
    10030    2    1    2    0    0  0.00000000000E+00  0.00000000000E+00  0.26238126980E+03  0.16612322026E+04  0.16403805961E+04 0.  0.
        4    1    3    3  502    0  0.44164343530E+03 -0.67523381729E+03  0.28044410177E+03  0.85418975589E+03  0.12699999809E+01 0.  1.
       -4    1    3    3    0  502 -0.44164343530E+03  0.67523381729E+03 -0.18062831968E+02  0.80704244669E+03  0.12699999809E+01 0. -1.
</event>
<event>
 5   0  0.2635798E-06  0.2034205E+04  0.7818609E-02  0.8590794E-01
        1   -1    0    0  501    0  0.00000000000E+00  0.00000000000E+00  0.15496206910E+04  0.15496206910E+04  0.50400001928E-02 0.  1.
       -1   -1    0    0    0  501  0.00000000000E+00  0.00000000000E+00 -0.66758102897E+03  0.66758102899E+03  0.50400001928E-02 0. -1.
    10030    2    1    2    0    0  0.00000000000E+00  0.00000000000E+00  0.88203966203E+03  0.22172017200E+04  0.20342048820E+04 0.  0.
        1    1    3    3  502    0 -0.94661238755E+03 -0.18226895119E+03  0.79454406899E+03  0.12492386723E+04  0.50400001928E-02 0.  1.
       -1    1    3    3    0  502  0.94661238755E+03  0.18226895119E+03  0.87495593036E+02  0.96796304767E+03  0.50400001928E-02 0. -1.
</event>
<event>
 5   0  0.7941434E-06  0.3288849E+04  0.7818609E-02  0.8165739E-01
       -2   -1    0    0    0  501  0.00000000000E+00  0.00000000000E+00  0.22747342705E+04  0.22747342705E+04  0.25500000920E-02 0.  1.
        2   -1    0    0  501    0  0.00000000000E+00  0.00000000000E+00 -0.11887679773E+04  0.11887679773E+04  0.25500000920E-02 0. -1.
    10030    2    1    2    0    0  0.00000000000E+00  0.00000000000E+00  0.10859662933E+04  0.34635022478E+04  0.32888485873E+04 0.  0.
        4    1    3    3  502    0  0.12501380591E+04 -0.83030476659E+03  0.12509002743E+04  0.19537155068E+04  0.12699999809E+01 0. -1.
       -4    1    3    3    0  502 -0.12501380591E+04  0.83030476659E+03 -0.16493398107E+03  0.15097867410E+04  0.12699999809E+01 0.  1.
</event>
<event>
 5   0  0.8237664E-06  0.3118430E+04  0.7818609E-02  0.8210698E-01
        2   -1    0    0  501    0  0.00000000000E+00  0.00000000000E+00  0.16647522563E+04  0.16647522563E+04  0.25500000920E-02 0. -1.
       -2   -1    0    0    0  501  0.00000000000E+00  0.00000000000E+00 -0.14603687618E+04  0.14603687618E+04  0.25500000920E-02 0.  1.
    10030    2    1    2    0    0  0.00000000000E+00  0.00000000000E+00  0.20438349456E+03  0.31251210181E+04  0.31184304970E+04 0.  0.
        5    1    3    3  502    0  0.11376998709E+04 -0.33070147801E+03 -0.91359313005E+03  0.14961279896E+04  0.46999998093E+01 0.  1.
       -5    1    3    3    0  502 -0.11376998709E+04  0.33070147801E+03  0.11179766246E+04  0.16289930285E+04  0.46999998093E+01 0. -1.
</event>
<event>
 5   0  0.3938696E-06  0.3065070E+04  0.7818609E-02  0.8225390E-01
       -1   -1    0    0    0  501  0.00000000000E+00  0.00000000000E+00  0.12098719627E+04  0.12098719627E+04  0.50400001928E-02 0.  1.
        1   -1    0    0  501    0  0.00000000000E+00  0.00000000000E+00 -0.19412493466E+04  0.19412493466E+04  0.50400001928E-02 0. -1.
    10030    2    1    2    0    0  0.00000000000E+00  0.00000000000E+00 -0.73137738388E+03  0.31511213093E+04  0.30650697591E+04 0.  0.
        4    1    3    3  502    0 -0.43700015518E+03  0.82634186287E+03  0.88284110499E+03  0.12857760456E+04  0.12699999809E+01 0.  1.
       -4    1    3    3    0  502  0.43700015518E+03 -0.82634186287E+03 -0.16142184889E+04  0.18653452637E+04  0.12699999809E+01 0. -1.
</event>
<event>
 5   0  0.8237664E-06  0.3164337E+04  0.7818609E-02  0.8198300E-01
       -2   -1    0    0    0  501  0.00000000000E+00  0.00000000000E+00  0.12892687774E+04  0.12892687774E+04  0.25500000920E-02 0.  1.
        2   -1    0    0  501    0  0.00000000000E+00  0.00000000000E+00 -0.19416097950E+04  0.19416097950E+04  0.25500000920E-02 0. -1.
    10030    2    1    2    0    0  0.00000000000E+00  0.00000000000E+00 -0.65234101757E+03  0.32308785724E+04  0.31643368257E+04 0.  0.
        5    1    3    3  502    0  0.21426972090E+03  0.14595452331E+04  0.25773916255E+03  0.14975431101E+04  0.46999998093E+01 0.  1.
       -5    1    3    3    0  502 -0.21426972090E+03 -0.14595452331E+04 -0.91008018012E+03  0.17333354623E+04  0.46999998093E+01 0. -1.
</event>
<event>
 5   0  0.2933646E-06  0.2980016E+04  0.7818609E-02  0.8249461E-01
       -1   -1    0    0    0  501  0.00000000000E+00  0.00000000000E+00  0.13150725920E+04  0.13150725920E+04  0.50400001928E-02 0.  1.
        1   -1    0    0  501    0  0.00000000000E+00  0.00000000000E+00 -0.16882137556E+04  0.16882137556E+04  0.50400001928E-02 0. -1.
    10030    2    1    2    0    0  0.00000000000E+00  0.00000000000E+00 -0.37314116362E+03  0.30032863476E+04  0.29800158653E+04 0.  0.
        2    1    3    3  502    0 -0.26541843628E+03 -0.11695122808E+04 -0.10777367541E+04  0.16123654773E+04  0.25500000920E-02 0. -1.
       -2    1    3    3    0  502  0.26541843628E+03  0.11695122808E+04  0.70459559051E+03  0.13909208703E+04  0.25500000920E-02 0.  1.
</event>
<event>
 5   0  0.7952307E-06  0.3213735E+04  0.7818609E-02  0.8185199E-01
       -2   -1    0    0    0  501  0.00000000000E+00  0.00000000000E+00  0.18910564207E+04  0.18910564207E+04  0.25500000920E-02 0. -1.
        2   -1    0    0  501    0  0.00000000000E+00  0.00000000000E+00 -0.13653862131E+04  0.13653862131E+04  0.25500000920E-02 0.  1.
    10030    2    1    2    0    0  0.00000000000E+00  0.00000000000E+00  0.52567020766E+03  0.32564426338E+04  0.32137345036E+04 0.  0.
        2    1    3    3  502    0 -0.57677914938E+03  0.58591062247E+03 -0.11361122441E+04  0.14023966899E+04  0.25500000920E-02 0.  1.
       -2    1    3    3    0  502  0.57677914938E+03 -0.58591062247E+03  0.16617824518E+04  0.18540459438E+04  0.25500000920E-02 0. -1.
</event>
<event>
 5   0  0.4142886E-06  0.3185996E+04  0.7818609E-02  0.8192526E-01
        1   -1    0    0  501    0  0.00000000000E+00  0.00000000000E+00  0.16564259877E+04  0.16564259877E+04  0.50400001928E-02 0. -1.
       -1   -1    0    0    0  501  0.00000000000E+00  0.00000000000E+00 -0.15319983335E+04  0.15319983335E+04  0.50400001928E-02 0.  1.
    10030    2    1    2    0    0  0.00000000000E+00  0.00000000000E+00  0.12442765417E+03  0.31884243212E+04  0.31859955133E+04 0.  0.
        5    1    3    3  502    0 -0.33548193048E+03  0.14578502472E+04  0.61012028012E+03  0.16155941060E+04  0.46999998093E+01 0.  1.
       -5    1    3    3    0  502  0.33548193048E+03 -0.14578502472E+04 -0.48569262595E+03  0.15728302152E+04  0.46999998093E+01 0. -1.
</event>
</LesHouchesEvents>
